Q-Chem Developer Version!
                  Welcome to Q-Chem
     A Quantum Leap Into The Future Of Chemistry


 Q-Chem 5.1, Q-Chem, Inc., Pleasanton, CA (2018)

 Yihan Shao,  Zhengting Gan,  E. Epifanovsky,  A. T. B. Gilbert,  M. Wormit,  
 J. Kussmann,  A. W. Lange,  A. Behn,  Jia Deng,  Xintian Feng,  D. Ghosh,  
 M. Goldey,  P. R. Horn,  L. D. Jacobson,  I. Kaliman,  T. Kus,  A. Landau,  
 Jie Liu,  E. I. Proynov,  R. M. Richard,  R. P. Steele,  E. J. Sundstrom,  
 H. L. Woodcock III,  P. M. Zimmerman,  D. Zuev,  B. Albrecht,  E. Alguire,  
 S. A. Baeppler,  D. Barton,  Z. Benda,  Y. A. Bernard,  E. J. Berquist,  
 K. B. Bravaya,  H. Burton,  D. Casanova,  Chun-Min Chang,  Yunqing Chen,  
 A. Chien,  K. D. Closser,  M. P. Coons,  S. Coriani,  S. Dasgupta,  
 A. L. Dempwolff,  M. Diedenhofen,  Hainam Do,  R. G. Edgar,  Po-Tung Fang,  
 S. Faraji,  S. Fatehi,  Qingguo Feng,  K. D. Fenk,  J. Fosso-Tande,  
 Qinghui Ge,  A. Ghysels,  G. Gidofalvi,  J. Gomes,  J. Gonthier,  A. Gunina,  
 D. Hait,  M. W. D. Hanson-Heine,  P. H. P. Harbach,  A. W. Hauser,  
 J. E. Herr,  E. G. Hohenstein,  Z. C. Holden,  Kerwin Hui,  B. C. Huynh,  
 T.-C. Jagau,  Hyunjun Ji,  B. Kaduk,  K. Khistyaev,  Jaehoon Kim,  
 P. Klunzinger,  K. Koh,  D. Kosenkov,  L. Koulias,  T. Kowalczyk,  
 C. M. Krauter,  A. Kunitsa,  Ka Un Lao,  A. Laurent,  K. V. Lawler,  
 Joonho Lee,  D. Lefrancois,  S. Lehtola,  D. S. Levine,  Yi-Pei Li,  
 You-Sheng Lin,  Fenglai Liu,  E. Livshits,  A. Luenser,  P. Manohar,  
 E. Mansoor,  S. F. Manzer,  Shan-Ping Mao,  Yuezhi Mao,  N. Mardirossian,  
 A. V. Marenich,  T. Markovich,  L. A. Martinez-Martinez,  S. A. Maurer,  
 N. J. Mayhall,  S. C. McKenzie,  J.-M. Mewes,  A. F. Morrison,  
 J. W. Mullinax,  K. Nanda,  T. S. Nguyen-Beck,  R. Olivares-Amaya,  
 J. A. Parkhill,  T. M. Perrine,  F. Plasser,  P. Pokhilko,  S. Prager,  
 A. Prociuk,  E. Ramos,  D. R. Rehn,  F. Rob,  M. Schneider,  N. Sergueev,  
 S. M. Sharada,  S. Sharma,  D. W. Small,  T. Stauch,  T. Stein,  
 Yu-Chuan Su,  A. J. W. Thom,  A. Tkatchenko,  T. Tsuchimochi,  N. M. Tubman,  
 L. Vogt,  M. L. Vidal,  O. Vydrov,  M. A. Watson,  J. Wenzel,  
 M. de Wergifosse,  T. A. Wesolowski,  A. White,  J. Witte,  A. Yamada,  
 Jun Yang,  K. Yao,  S. Yeganeh,  S. R. Yost,  Zhi-Qiang You,  A. Zech,  
 Igor Ying Zhang,  Xing Zhang,  Yan Zhao,  Ying Zhu,  B. R. Brooks,  
 G. K. L. Chan,  C. J. Cramer,  M. S. Gordon,  W. J. Hehre,  A. Klamt,  
 M. W. Schmidt,  C. D. Sherrill,  D. G. Truhlar,  A. Aspuru-Guzik,  R. Baer,  
 A. T. Bell,  N. A. Besley,  Jeng-Da Chai,  A. E. DePrince, III,  
 R. A. DiStasio Jr.,  A. Dreuw,  B. D. Dunietz,  T. R. Furlani,  
 Chao-Ping Hsu,  Yousung Jung,  Jing Kong,  D. S. Lambrecht,  WanZhen Liang,  
 C. Ochsenfeld,  V. A. Rassolov,  L. V. Slipchenko,  J. E. Subotnik,  
 T. Van Voorhis,  J. M. Herbert,  A. I. Krylov,  P. M. W. Gill,  M. Head-Gordon

 Contributors to earlier versions of Q-Chem not listed above: 
 R. D. Adamson,  B. Austin,  J. Baker,  G. J. O. Beran,  K. Brandhorst,  
 S. T. Brown,  E. F. C. Byrd,  A. K. Chakraborty,  C.-L. Cheng,  
 Siu Hung Chien,  D. M. Chipman,  D. L. Crittenden,  H. Dachsel,  
 R. J. Doerksen,  A. D. Dutoi,  L. Fusti-Molnar,  W. A. Goddard III,  
 A. Golubeva-Zadorozhnaya,  S. R. Gwaltney,  G. Hawkins,  A. Heyden,  
 S. Hirata,  G. Kedziora,  F. J. Keil,  C. Kelley,  Jihan Kim,  R. A. King,  
 R. Z. Khaliullin,  P. P. Korambath,  W. Kurlancheek,  A. M. Lee,  M. S. Lee,  
 S. V. Levchenko,  Ching Yeh Lin,  D. Liotard,  R. C. Lochan,  I. Lotan,  
 P. E. Maslen,  N. Nair,  D. P. O'Neill,  D. Neuhauser,  E. Neuscamman,  
 C. M. Oana,  R. Olson,  B. Peters,  R. Peverati,  P. A. Pieniazek,  
 Y. M. Rhee,  J. Ritchie,  M. A. Rohrdanz,  E. Rosta,  N. J. Russ,  
 H. F. Schaefer III,  N. E. Schultz,  N. Shenvi,  A. C. Simmonett,  A. Sodt,  
 D. Stuck,  K. S. Thanthiriwatte,  V. Vanovschi,  Tao Wang,  A. Warshel,  
 C. F. Williams,  Q. Wu,  X. Xu,  W. Zhang

 Please cite Q-Chem as follows:
 Y. Shao et al., Mol. Phys. 113, 184-215 (2015)
 DOI: 10.1080/00268976.2014.952696

 Q-Chem 5.1.1 for Intel X86 EM64T Linux

 Parts of Q-Chem use Armadillo 8.300.2 (Tropical Shenanigans).
 http://arma.sourceforge.net/

 Q-Chem begins on Sat Oct  3 03:15:56 2020  

Host: n0088.mhg0
0

     Scratch files written to /local/scratch/users/yhljason/CH3_B2PLYP_aug-cc-pcVQZ.inp20201003024952//
Input Ideriv = 0
Curr. Ideriv = -1
Max.  Ideriv = 0
Input Ideriv = 1
Curr. Ideriv = 0
Max.  Ideriv = 0

Checking the input file for inconsistencies... 	...done.

--------------------------------------------------------------
User input:
--------------------------------------------------------------
$molecule
0 2
C1 0.0000   0.0000   0.0000
H2 1.0790   0.0000   0.0000
H3 -0.5395  -0.9344  0.0000
H4 -0.5395  0.9344   0.0000
$end

$rem
jobtype sp
method B2PLYP
xc_grid 000099000590
basis aug-cc-pcVQZ
max_scf_cycles 200
thresh 14
scf_convergence 8
scf_algorithm gdm
symmetry false
sym_ignore true
unrestricted false
gen_scfman true
internal_stability_iter 15
internal_stability_davidson_iter 200
mem_total 128000
cc_memory 96000
cc_backend xm
mem_static 1500
n_frozen_core 0
$end



--------------------------------------------------------------
 ----------------------------------------------------------------
             Standard Nuclear Orientation (Angstroms)
    I     Atom           X                Y                Z
 ----------------------------------------------------------------
    1      C       0.0000000000     0.0000000000     0.0000000000
    2      H       1.0790000000     0.0000000000     0.0000000000
    3      H      -0.5395000000    -0.9344000000     0.0000000000
    4      H      -0.5395000000     0.9344000000     0.0000000000
 ----------------------------------------------------------------
 Nuclear Repulsion Energy =     9.6774633775 hartrees
 There are        5 alpha and        4 beta electrons
 Requested basis set is aug-cc-pCVQZ
 There are 71 shells and 247 basis functions

 Total QAlloc Memory Limit 128000 MB
 Mega-Array Size      1467 MB
 MEM_STATIC part      1500 MB

                       Distance Matrix (Angstroms)
             C (  1)   H (  2)   H (  3)
   H (  2)  1.079000
   H (  3)  1.078964  1.868862
   H (  4)  1.078964  1.868862  1.868800
 
 A cutoff of  1.0D-14 yielded   2556 shell pairs
 There are     31120 function pairs (     47305 Cartesian)
 
 -------------------------------------------------------
 OpenMP Integral Computing Module                       
 Release: version 1.0, May 2013, Q-Chem Inc. Pittsburgh 
 -------------------------------------------------------
 Integral Job Info:
 Integral job number is                      11
 Integral operator is                         1
 short-range coefficients                     0
 long-range coefficients              100000000
 Omega coefficients                           0
 if combine SR and LR in K                    0
 Integral screening is                        0
 Integral computing path is                   2
 max size of driver memory is           3200000
 size of driver memory is               1704330
 size of scratch memory is             18511652
 max col of scratch BK array              50625
 max len of scratch array in speh3         2114
 max len of scratch index in speh4           50
 max int batch size is                      520
 min int batch size is                       52
 fixed nKL is                                52
 max L of basis functions is                  4
 order of int derivative is                   0
 number of shells is                         71
 number of basis is                         304
 number of cartesian basis is               304
 number of contracted shell pairs          2556
 number of primitive shell pairs           4518
 maxK2 (contraction) of shell pair           81
 max number of K2 of shell pair               1
 max number of CS2 of shell pair            364
 max number of PS2 of shell pair            369
 mem total for path MDJ                  671149
 -------------------------------------------------------
 Smallest overlap matrix eigenvalue = 2.78E-05

 Scale SEOQF with 1.000000e-01/1.000000e-01/1.000000e-01

 Standard Electronic Orientation quadrupole field applied
 Nucleus-field energy     =     0.0000000002 hartrees
 Guess from superposition of atomic densities
 Warning:  Energy on first SCF cycle will be non-variational
 SAD guess density has 9.000000 electrons

 -----------------------------------------------------------------------
  General SCF calculation program by
  Eric Jon Sundstrom, Paul Horn, Yuezhi Mao, Dmitri Zuev, Alec White,
  David Stuck, Shaama M.S., Shane Yost, Joonho Lee, David Small,
  Daniel Levine, Susi Lehtola, Hugh Burton, Evgeny Epifanovsky
 -----------------------------------------------------------------------
 Exchange:     0.5300 Hartree-Fock + 0.4700 B88
 Correlation:  0.7300 LYP
 Using Euler-Maclaurin-Lebedev (99,590) quadrature formula
Running Object-Oriented ROKS (ROHF)
ROHF occupied orbitals are orthonormal
ROHF occupied orbitals are orthogonal to virtual orbitals
ROHF virtual orbitals are orthonormal
We will preform up to 15 macro iterations over saddle points until a stable solution is found
Energy prior to optimization (guess energy) = -39.548578854624
Begin Timing: Total SCF Calculation
Begin Timing: SCF Single Stationary Point Calculation
begin iterations for algorithm: GDM          
the SCF tolerance is set to 1.00e-08
    1     -39.5485788546      2.23e-01     00000  Descent step
    2     -39.7142047565      7.77e-02     00000  Normal BFGS step
    3     -39.7592818422      1.04e-02     00000  Normal BFGS step
    4     -39.7602668436      7.11e-03     00000  Normal BFGS step
    5     -39.7603725104      1.37e-03     00000  Normal BFGS step
    6     -39.7603769705      1.51e-04     00000  Normal BFGS step
    7     -39.7603770426      1.47e-05     00000  Normal BFGS step
    8     -39.7603770434      1.35e-06     00000  Normal BFGS step
    9     -39.7603770434      1.73e-07     00000  Normal BFGS step
   10     -39.7603770434      1.46e-08     00000  Normal BFGS step
   11     -39.7603770434      2.70e-09     00000 Convergence criterion met
The disked orbital energies are calculated using alpha and beta Focks
Timing for Single Stationary Point: 153.00s (wall), 1218.37s (cpu)
Begin Timing: Stability
===================================================
Beginning Test for Internal Stability
===================================================
generating davidson guess vectors based on koopmans-like excitations
    1      1.99e-01     00000 Davidson Iteration
    2      1.11e-01     00000 Davidson Iteration
    3      1.38e-01     00000 Davidson Iteration
    4      4.68e-02     00000 Davidson Iteration
    5      3.25e-02     00000 Davidson Iteration
    6      9.23e-03     00000 Davidson Iteration
    7      2.49e-03     00000 Davidson Iteration
    8      3.96e-04     00000 Davidson Iteration
    9      5.09e-05     00000 Davidson Iteration
   10      3.22e-03     00000 Davidson Iteration
   11      4.91e-04     00000 Davidson Iteration
   12      6.71e-05     00000 Davidson Iteration
   13      1.02e-05     00000 Davidson Converged
converged_eigenvalues
   0.4833
   0.4833
   0.4074
Threshold for negative eigenvalues: -1.0e-05
solution was a local minimum (stable)
===================================================
End Test for Internal Stability
===================================================
Our SCF solution is stable!
The disked orbital energies are calculated using alpha and beta Focks
Timing for Total SCF: 490.00s (wall), 3910.73s (cpu)
 Total energy in the final basis set =      -39.7603770434
<S^2> =          0.750000000
    ==================================================
              The end of Object-Oriented SCFman       
    ==================================================
 
 Components of the MP2 correlation energy:
        aaaa  correlation energy =        -0.0083775533 au
        abab  correlation energy =        -0.0584046100 au
        bbbb  correlation energy =        -0.0033094446 au
        non-Brillouin singles    =        -0.0017291454 au

 Total  MP2   correlation energy =                    -0.07182075 au
        MP2         total energy =                   -39.83219780 au
 
 --------------------------------------------------------------
 
                    Orbital Energies (a.u.)
 --------------------------------------------------------------
 
 Alpha MOs
 -- Occupied --
-10.624  -0.794  -0.492  -0.492  -0.292
 -- Virtual --
  0.010   0.032   0.032   0.061   0.097   0.097   0.095   0.144
  0.144   0.160   0.177   0.177   0.230   0.240   0.240   0.250
  0.251   0.273   0.273   0.286   0.326   0.326   0.352   0.352
  0.418   0.418   0.432   0.457   0.523   0.523   0.613   0.613
  0.630   0.630   0.655   0.669   0.686   0.686   0.688   0.688
  0.712   0.727   0.727   0.739   0.825   0.845   0.845   0.846
  0.846   0.935   0.935   1.022   1.022   1.027   1.048   1.048
  1.052   1.113   1.224   1.326   1.326   1.343   1.384   1.384
  1.375   1.474   1.474   1.612   1.612   1.638   1.645   1.662
  1.687   1.687   1.720   1.720   1.764   1.863   1.876   1.892
  1.892   1.949   1.949   1.969   1.969   1.973   1.963   1.963
  2.016   2.045   2.130   2.130   2.152   2.152   2.179   2.179
  2.182   2.326   2.326   2.384   2.445   2.488   2.488   2.495
  2.551   2.657   2.657   2.675   2.675   2.768   2.830   2.830
  2.888   3.102   3.102   3.152   3.339   3.339   3.434   3.434
  3.472   3.608   3.616   3.616   3.704   3.704   3.793   3.956
  3.979   3.995   3.995   4.108   4.108   4.268   4.295   4.295
  4.466   4.616   4.616   4.762   5.355   5.680   5.681   5.768
  5.747   5.878   5.878   5.945   6.080   6.080   6.114   6.114
  6.244   6.394   6.567   6.567   6.546   6.590   6.589   6.589
  6.683   6.683   6.862   6.900   6.900   7.021   7.021   7.051
  7.341   7.341   7.519   7.519   7.795   7.795   7.898   8.133
  8.133   8.178   8.178   8.275   8.291   8.291   8.332   8.543
  8.683   8.849   8.849   8.944   9.004   9.004   9.041   9.041
  9.397   9.418   9.462   9.462   9.602   9.637   9.952   9.952
 10.083  10.087  10.087  10.215  10.382  10.382  10.618  10.655
 11.520  11.520  12.647  12.647  13.975  19.166  20.959  20.959
 26.576  26.576  27.245  27.601  27.601  37.177  66.252  67.562
 67.562  98.091  98.091  98.087  98.106  98.106  98.134  98.161
114.580 114.580 114.892 115.095 115.095 122.736 224.094 225.167
225.167 508.157
 
 Beta MOs
 -- Occupied --
-10.609  -0.740  -0.478  -0.478
 -- Virtual --
  0.018   0.011   0.032   0.032   0.067   0.096   0.096   0.098
  0.145   0.145   0.170   0.180   0.180   0.240   0.240   0.240
  0.248   0.252   0.272   0.272   0.293   0.329   0.329   0.351
  0.351   0.419   0.419   0.462   0.481   0.535   0.535   0.612
  0.620   0.632   0.632   0.660   0.674   0.689   0.689   0.690
  0.690   0.718   0.729   0.729   0.737   0.830   0.845   0.845
  0.863   0.863   0.937   0.937   1.026   1.026   1.027   1.052
  1.052   1.053   1.146   1.249   1.331   1.331   1.342   1.387
  1.387   1.393   1.476   1.476   1.618   1.618   1.640   1.656
  1.676   1.688   1.688   1.721   1.721   1.764   1.864   1.876
  1.899   1.899   1.952   1.952   1.974   1.974   1.975   1.994
  1.994   2.048   2.051   2.133   2.133   2.162   2.162   2.186
  2.186   2.199   2.339   2.339   2.403   2.452   2.497   2.497
  2.533   2.565   2.664   2.664   2.688   2.688   2.769   2.835
  2.835   2.900   3.105   3.105   3.163   3.346   3.346   3.447
  3.447   3.473   3.619   3.629   3.629   3.711   3.711   3.804
  3.960   3.984   3.999   3.999   4.134   4.134   4.286   4.298
  4.298   4.492   4.620   4.620   4.769   5.400   5.695   5.696
  5.780   5.782   5.905   5.905   5.992   6.104   6.104   6.146
  6.146   6.245   6.410   6.572   6.572   6.579   6.592   6.595
  6.595   6.694   6.694   6.867   6.907   6.907   7.029   7.029
  7.059   7.372   7.372   7.535   7.535   7.802   7.802   7.906
  8.140   8.140   8.183   8.183   8.280   8.293   8.293   8.341
  8.543   8.692   8.852   8.852   8.952   9.008   9.008   9.048
  9.048   9.401   9.422   9.464   9.464   9.608   9.637   9.952
  9.952  10.092  10.101  10.101  10.234  10.385  10.385  10.636
 10.658  11.523  11.523  12.649  12.649  13.986  19.212  20.970
 20.970  26.600  26.600  27.272  27.604  27.604  37.195  66.269
 67.566  67.566  98.099  98.099  98.101  98.118  98.118  98.135
 98.162 114.586 114.586 114.900 115.096 115.096 122.742 224.100
225.168 225.168 508.158
 --------------------------------------------------------------
 
          Ground-State Mulliken Net Atomic Charges

     Atom                 Charge (a.u.)
  ----------------------------------------
      1 C                    -0.995162
      2 H                     0.331707
      3 H                     0.331727
      4 H                     0.331727
  ----------------------------------------
  Sum of atomic charges =    -0.000000

 -----------------------------------------------------------------
                    Cartesian Multipole Moments
 -----------------------------------------------------------------
    Charge (ESU x 10^10)
                -0.0000
    Dipole Moment (Debye)
         X      -0.0000      Y       0.0000      Z       0.0000
       Tot       0.0000
    Quadrupole Moments (Debye-Ang)
        XX      -7.2656     XY      -0.0000     YY      -7.2658
        XZ       0.0000     YZ       0.0000     ZZ      -9.1516
    Octopole Moments (Debye-Ang^2)
       XXX       0.8944    XXY       0.0000    XYY      -0.8944
       YYY       0.0000    XXZ       0.0000    XYZ      -0.0000
       YYZ       0.0000    XZZ      -0.0000    YZZ       0.0000
       ZZZ       0.0000
    Hexadecapole Moments (Debye-Ang^3)
      XXXX     -15.0901   XXXY      -0.0000   XXYY      -5.0300
      XYYY      -0.0000   YYYY     -15.0898   XXXZ       0.0000
      XXYZ       0.0000   XYYZ      -0.0000   YYYZ       0.0000
      XXZZ      -4.9634   XYZZ      -0.0000   YYZZ      -4.9632
      XZZZ       0.0000   YZZZ       0.0000   ZZZZ     -12.1021
 -----------------------------------------------------------------
Archival summary:
1\1\n0088.mhg0\SP\ROProcedureUnspecified\BasisUnspecified\13(2)\yhljason\SatOct303:28:132020SatOct303:28:132020\0\\#,ROProcedureUnspecified,BasisUnspecified,\\0,2\C\H,1,1.07896\H,1,1.07896,2,119.998\H,1,1.079,2,120.001,3,-180,0\\\@

 Total job time:  736.85s(wall), 5874.82s(cpu) 
 Sat Oct  3 03:28:13 2020

        *************************************************************
        *                                                           *
        *  Thank you very much for using Q-Chem.  Have a nice day.  *
        *                                                           *
        *************************************************************


 
User input: 2 of 83 of 8 
 
Q-Chem Developer Version!
                  Welcome to Q-Chem
     A Quantum Leap Into The Future Of Chemistry


 Q-Chem 5.1, Q-Chem, Inc., Pleasanton, CA (2018)

 Yihan Shao,  Zhengting Gan,  E. Epifanovsky,  A. T. B. Gilbert,  M. Wormit,  
 J. Kussmann,  A. W. Lange,  A. Behn,  Jia Deng,  Xintian Feng,  D. Ghosh,  
 M. Goldey,  P. R. Horn,  L. D. Jacobson,  I. Kaliman,  T. Kus,  A. Landau,  
 Jie Liu,  E. I. Proynov,  R. M. Richard,  R. P. Steele,  E. J. Sundstrom,  
 H. L. Woodcock III,  P. M. Zimmerman,  D. Zuev,  B. Albrecht,  E. Alguire,  
 S. A. Baeppler,  D. Barton,  Z. Benda,  Y. A. Bernard,  E. J. Berquist,  
 K. B. Bravaya,  H. Burton,  D. Casanova,  Chun-Min Chang,  Yunqing Chen,  
 A. Chien,  K. D. Closser,  M. P. Coons,  S. Coriani,  S. Dasgupta,  
 A. L. Dempwolff,  M. Diedenhofen,  Hainam Do,  R. G. Edgar,  Po-Tung Fang,  
 S. Faraji,  S. Fatehi,  Qingguo Feng,  K. D. Fenk,  J. Fosso-Tande,  
 Qinghui Ge,  A. Ghysels,  G. Gidofalvi,  J. Gomes,  J. Gonthier,  A. Gunina,  
 D. Hait,  M. W. D. Hanson-Heine,  P. H. P. Harbach,  A. W. Hauser,  
 J. E. Herr,  E. G. Hohenstein,  Z. C. Holden,  Kerwin Hui,  B. C. Huynh,  
 T.-C. Jagau,  Hyunjun Ji,  B. Kaduk,  K. Khistyaev,  Jaehoon Kim,  
 P. Klunzinger,  K. Koh,  D. Kosenkov,  L. Koulias,  T. Kowalczyk,  
 C. M. Krauter,  A. Kunitsa,  Ka Un Lao,  A. Laurent,  K. V. Lawler,  
 Joonho Lee,  D. Lefrancois,  S. Lehtola,  D. S. Levine,  Yi-Pei Li,  
 You-Sheng Lin,  Fenglai Liu,  E. Livshits,  A. Luenser,  P. Manohar,  
 E. Mansoor,  S. F. Manzer,  Shan-Ping Mao,  Yuezhi Mao,  N. Mardirossian,  
 A. V. Marenich,  T. Markovich,  L. A. Martinez-Martinez,  S. A. Maurer,  
 N. J. Mayhall,  S. C. McKenzie,  J.-M. Mewes,  A. F. Morrison,  
 J. W. Mullinax,  K. Nanda,  T. S. Nguyen-Beck,  R. Olivares-Amaya,  
 J. A. Parkhill,  T. M. Perrine,  F. Plasser,  P. Pokhilko,  S. Prager,  
 A. Prociuk,  E. Ramos,  D. R. Rehn,  F. Rob,  M. Schneider,  N. Sergueev,  
 S. M. Sharada,  S. Sharma,  D. W. Small,  T. Stauch,  T. Stein,  
 Yu-Chuan Su,  A. J. W. Thom,  A. Tkatchenko,  T. Tsuchimochi,  N. M. Tubman,  
 L. Vogt,  M. L. Vidal,  O. Vydrov,  M. A. Watson,  J. Wenzel,  
 M. de Wergifosse,  T. A. Wesolowski,  A. White,  J. Witte,  A. Yamada,  
 Jun Yang,  K. Yao,  S. Yeganeh,  S. R. Yost,  Zhi-Qiang You,  A. Zech,  
 Igor Ying Zhang,  Xing Zhang,  Yan Zhao,  Ying Zhu,  B. R. Brooks,  
 G. K. L. Chan,  C. J. Cramer,  M. S. Gordon,  W. J. Hehre,  A. Klamt,  
 M. W. Schmidt,  C. D. Sherrill,  D. G. Truhlar,  A. Aspuru-Guzik,  R. Baer,  
 A. T. Bell,  N. A. Besley,  Jeng-Da Chai,  A. E. DePrince, III,  
 R. A. DiStasio Jr.,  A. Dreuw,  B. D. Dunietz,  T. R. Furlani,  
 Chao-Ping Hsu,  Yousung Jung,  Jing Kong,  D. S. Lambrecht,  WanZhen Liang,  
 C. Ochsenfeld,  V. A. Rassolov,  L. V. Slipchenko,  J. E. Subotnik,  
 T. Van Voorhis,  J. M. Herbert,  A. I. Krylov,  P. M. W. Gill,  M. Head-Gordon

 Contributors to earlier versions of Q-Chem not listed above: 
 R. D. Adamson,  B. Austin,  J. Baker,  G. J. O. Beran,  K. Brandhorst,  
 S. T. Brown,  E. F. C. Byrd,  A. K. Chakraborty,  C.-L. Cheng,  
 Siu Hung Chien,  D. M. Chipman,  D. L. Crittenden,  H. Dachsel,  
 R. J. Doerksen,  A. D. Dutoi,  L. Fusti-Molnar,  W. A. Goddard III,  
 A. Golubeva-Zadorozhnaya,  S. R. Gwaltney,  G. Hawkins,  A. Heyden,  
 S. Hirata,  G. Kedziora,  F. J. Keil,  C. Kelley,  Jihan Kim,  R. A. King,  
 R. Z. Khaliullin,  P. P. Korambath,  W. Kurlancheek,  A. M. Lee,  M. S. Lee,  
 S. V. Levchenko,  Ching Yeh Lin,  D. Liotard,  R. C. Lochan,  I. Lotan,  
 P. E. Maslen,  N. Nair,  D. P. O'Neill,  D. Neuhauser,  E. Neuscamman,  
 C. M. Oana,  R. Olson,  B. Peters,  R. Peverati,  P. A. Pieniazek,  
 Y. M. Rhee,  J. Ritchie,  M. A. Rohrdanz,  E. Rosta,  N. J. Russ,  
 H. F. Schaefer III,  N. E. Schultz,  N. Shenvi,  A. C. Simmonett,  A. Sodt,  
 D. Stuck,  K. S. Thanthiriwatte,  V. Vanovschi,  Tao Wang,  A. Warshel,  
 C. F. Williams,  Q. Wu,  X. Xu,  W. Zhang

 Please cite Q-Chem as follows:
 Y. Shao et al., Mol. Phys. 113, 184-215 (2015)
 DOI: 10.1080/00268976.2014.952696

 Q-Chem 5.1.1 for Intel X86 EM64T Linux

 Parts of Q-Chem use Armadillo 8.300.2 (Tropical Shenanigans).
 http://arma.sourceforge.net/

 Q-Chem begins on Sat Oct  3 03:28:26 2020  

Host: n0088.mhg0
0

     Scratch files written to /local/scratch/users/yhljason/CH3_B2PLYP_aug-cc-pcVQZ.inp20201003024952//
The previous job contains 0 fragments, simply inherited here
Input Ideriv = 0
Curr. Ideriv = -1
Max.  Ideriv = 0
Input Ideriv = 1
Curr. Ideriv = 0
Max.  Ideriv = 0

Checking the input file for inconsistencies... 	...done.

--------------------------------------------------------------
User input:
--------------------------------------------------------------
$molecule
read
$end

$rem

jobtype sp
method B2PLYP
xc_grid 000099000590
basis aug-cc-pcVQZ
max_scf_cycles 200
thresh 14
scf_convergence 8
mem_total 128000
cc_memory 96000
cc_backend xm
mem_static 1500
symmetry false
sym_ignore true
scf_guess read
unrestricted false
scf_algorithm gdm
n_frozen_core 0
$end

$multipole_field
XX 0.0001
$end


--------------------------------------------------------------
 ----------------------------------------------------------------
             Standard Nuclear Orientation (Angstroms)
    I     Atom           X                Y                Z
 ----------------------------------------------------------------
    1      C       0.0000000000     0.0000000000     0.0000000000
    2      H       1.0790000000     0.0000000000     0.0000000000
    3      H      -0.5395000000    -0.9344000000     0.0000000000
    4      H      -0.5395000000     0.9344000000     0.0000000000
 ----------------------------------------------------------------
 Nuclear Repulsion Energy =     9.6774633775 hartrees
 There are        5 alpha and        4 beta electrons
 Requested basis set is aug-cc-pCVQZ
 There are 71 shells and 247 basis functions

 Total QAlloc Memory Limit 128000 MB
 Mega-Array Size      1467 MB
 MEM_STATIC part      1500 MB

                       Distance Matrix (Angstroms)
             C (  1)   H (  2)   H (  3)
   H (  2)  1.079000
   H (  3)  1.078964  1.868862
   H (  4)  1.078964  1.868862  1.868800
 
 Applying Cartesian multipole field
    Component          Value
    ---------          -----
     (2,0,0)        1.00000E-04
 Nucleus-field energy     =     0.0006236370 hartrees
 A cutoff of  1.0D-14 yielded   2556 shell pairs
 There are     31120 function pairs (     47305 Cartesian)
 
 -------------------------------------------------------
 OpenMP Integral Computing Module                       
 Release: version 1.0, May 2013, Q-Chem Inc. Pittsburgh 
 -------------------------------------------------------
 Integral Job Info:
 Integral job number is                      11
 Integral operator is                         1
 short-range coefficients                     0
 long-range coefficients              100000000
 Omega coefficients                           0
 if combine SR and LR in K                    0
 Integral screening is                        0
 Integral computing path is                   2
 max size of driver memory is           3200000
 size of driver memory is               1704330
 size of scratch memory is             18511652
 max col of scratch BK array              50625
 max len of scratch array in speh3         2114
 max len of scratch index in speh4           50
 max int batch size is                      520
 min int batch size is                       52
 fixed nKL is                                52
 max L of basis functions is                  4
 order of int derivative is                   0
 number of shells is                         71
 number of basis is                         304
 number of cartesian basis is               304
 number of contracted shell pairs          2556
 number of primitive shell pairs           4518
 maxK2 (contraction) of shell pair           81
 max number of K2 of shell pair               1
 max number of CS2 of shell pair            364
 max number of PS2 of shell pair            369
 mem total for path MDJ                  671149
 -------------------------------------------------------
 Smallest overlap matrix eigenvalue = 2.78E-05
 Guess MOs from SCF MO coefficient file
 Reading MOs from coefficient file
 Reading MOs from coefficient file
 A restricted hybrid HF-DFT SCF calculation will be
 performed using Geometric Direct Minimization
 Exchange:     0.5300 Hartree-Fock + 0.4700 B88
 Correlation:  0.7300 LYP
 Using Euler-Maclaurin-Lebedev (99,590) quadrature formula
 SCF converges when RMS gradient is below 1.0E-08
Using Q-Chem read-in guess as SCF_GUESS READ specified.

 using 8 threads for integral computing
 -------------------------------------------------------
 OpenMP Integral computing Module                
 Release: version 2.0, May 2017, Q-Chem Inc. Pleasanton 
 -------------------------------------------------------
TIMEINFO->: J/JK contribution 86.97 sec.
 -------------------------------------------------------
 OpenMP BLAS3 based DFT computing Module                
 Release: version 1.0, May 2013, Q-Chem Inc. Pittsburgh 
 -------------------------------------------------------
 ---------------------------------------
  Cycle       Energy        RMS Gradient
 ---------------------------------------
    1     -39.7609172220      3.23E-04 Normal BFGS step
TIMEINFO->: J/JK contribution 86.76 sec.
    2     -39.7609175550      3.55E-04 Normal BFGS step
TIMEINFO->: J/JK contribution 87.55 sec.
    3     -39.7609176517      9.25E-05 Normal BFGS step
TIMEINFO->: J/JK contribution 86.50 sec.
    4     -39.7609176585      1.78E-05 Normal BFGS step
TIMEINFO->: J/JK contribution 86.73 sec.
    5     -39.7609176588      4.89E-06 Normal BFGS step
TIMEINFO->: J/JK contribution 86.21 sec.
    6     -39.7609176588      1.15E-06 Normal BFGS step
TIMEINFO->: J/JK contribution 85.17 sec.
    7     -39.7609176588      2.31E-07 Normal BFGS step
TIMEINFO->: J/JK contribution 84.43 sec.
    8     -39.7609176588      1.87E-08 Normal BFGS step
TIMEINFO->: J/JK contribution 81.42 sec.
   GDM::WARNING energy changes are now smaller than effective accuracy.
   GDM::        calculation will continue, but THRESH should be increased
   GDM::        or SCF_CONVERGENCE decreased.
   GDM::        effective_thresh =   5.000000000000000E-011
    9     -39.7609176588      3.55E-09 Convergence criterion met
 ---------------------------------------
 SCF time:  CPU 993.86 s  wall 125.21 s
 SCF   energy in the final basis set = -39.76091766
 Total energy in the final basis set = -39.76091766
 
 Components of the MP2 correlation energy:
        aaaa  correlation energy =        -0.0083781992 au
        abab  correlation energy =        -0.0584055352 au
        bbbb  correlation energy =        -0.0033094542 au
        non-Brillouin singles    =        -0.0017288495 au

 Total  MP2   correlation energy =                    -0.07182204 au
        MP2         total energy =                   -39.83273970 au
 
 --------------------------------------------------------------
 
                    Orbital Energies (a.u.)
 --------------------------------------------------------------
 
 Alpha MOs
 -- Occupied --
-10.624  -0.794  -0.493  -0.493  -0.292
 -- Virtual --
  0.008   0.027   0.030   0.059   0.092   0.094   0.095   0.142
  0.143   0.159   0.176   0.176   0.228   0.238   0.239   0.248
  0.250   0.272   0.272   0.283   0.324   0.325   0.351   0.351
  0.417   0.417   0.432   0.455   0.521   0.522   0.611   0.612
  0.628   0.629   0.654   0.668   0.684   0.685   0.687   0.687
  0.712   0.726   0.727   0.738   0.825   0.844   0.845   0.846
  0.846   0.934   0.934   1.021   1.021   1.026   1.047   1.048
  1.051   1.113   1.224   1.325   1.326   1.343   1.375   1.383
  1.384   1.474   1.474   1.612   1.612   1.637   1.640   1.666
  1.687   1.687   1.720   1.720   1.763   1.862   1.875   1.891
  1.892   1.948   1.948   1.968   1.969   1.962   1.962   1.972
  2.016   2.044   2.129   2.129   2.152   2.152   2.178   2.179
  2.182   2.326   2.326   2.383   2.444   2.487   2.487   2.496
  2.551   2.657   2.657   2.674   2.674   2.768   2.829   2.829
  2.887   3.101   3.101   3.152   3.338   3.339   3.433   3.433
  3.472   3.608   3.615   3.615   3.704   3.704   3.793   3.955
  3.979   3.995   3.995   4.108   4.108   4.268   4.295   4.295
  4.466   4.616   4.616   4.762   5.354   5.680   5.680   5.747
  5.767   5.878   5.878   5.945   6.080   6.080   6.113   6.113
  6.244   6.394   6.545   6.567   6.567   6.590   6.589   6.589
  6.683   6.683   6.862   6.900   6.900   7.021   7.021   7.050
  7.340   7.340   7.519   7.520   7.794   7.794   7.897   8.133
  8.133   8.177   8.177   8.275   8.290   8.290   8.332   8.542
  8.683   8.849   8.849   8.944   9.003   9.004   9.041   9.041
  9.396   9.418   9.462   9.462   9.601   9.637   9.951   9.951
 10.083  10.087  10.087  10.215  10.381  10.381  10.618  10.655
 11.520  11.520  12.646  12.647  13.974  19.166  20.959  20.959
 26.576  26.576  27.245  27.601  27.601  37.177  66.251  67.562
 67.562  98.087  98.091  98.091  98.105  98.105  98.134  98.161
114.579 114.579 114.892 115.095 115.095 122.735 224.094 225.166
225.166 508.156
 
 Beta MOs
 -- Occupied --
-10.610  -0.741  -0.479  -0.479
 -- Virtual --
  0.017   0.009   0.027   0.030   0.067   0.093   0.095   0.095
  0.143   0.144   0.170   0.179   0.180   0.239   0.238   0.239
  0.247   0.250   0.271   0.271   0.291   0.327   0.328   0.350
  0.350   0.418   0.418   0.462   0.481   0.534   0.535   0.611
  0.619   0.631   0.631   0.658   0.673   0.687   0.688   0.689
  0.689   0.717   0.728   0.728   0.737   0.830   0.844   0.844
  0.862   0.862   0.937   0.937   1.025   1.025   1.026   1.051
  1.051   1.052   1.145   1.248   1.330   1.331   1.342   1.392
  1.386   1.387   1.475   1.475   1.617   1.617   1.639   1.657
  1.673   1.687   1.687   1.720   1.720   1.764   1.863   1.875
  1.898   1.898   1.952   1.952   1.973   1.973   1.993   1.993
  1.974   2.047   2.050   2.133   2.133   2.161   2.161   2.185
  2.185   2.199   2.338   2.339   2.402   2.451   2.496   2.496
  2.532   2.564   2.664   2.664   2.687   2.687   2.769   2.835
  2.835   2.900   3.104   3.104   3.163   3.345   3.345   3.446
  3.447   3.472   3.619   3.629   3.629   3.710   3.711   3.804
  3.960   3.984   3.999   3.999   4.133   4.133   4.286   4.298
  4.298   4.492   4.620   4.620   4.769   5.399   5.695   5.695
  5.781   5.780   5.905   5.905   5.991   6.104   6.104   6.146
  6.146   6.244   6.409   6.578   6.571   6.571   6.592   6.594
  6.594   6.693   6.693   6.866   6.906   6.906   7.029   7.029
  7.059   7.372   7.372   7.534   7.534   7.802   7.802   7.906
  8.139   8.140   8.183   8.183   8.279   8.293   8.293   8.340
  8.543   8.691   8.852   8.852   8.951   9.008   9.008   9.047
  9.047   9.400   9.421   9.463   9.463   9.608   9.637   9.952
  9.952  10.092  10.101  10.101  10.233  10.385  10.385  10.636
 10.658  11.522  11.523  12.649  12.649  13.986  19.211  20.969
 20.970  26.600  26.600  27.272  27.604  27.604  37.194  66.269
 67.566  67.566  98.101  98.099  98.099  98.117  98.118  98.134
 98.161 114.585 114.585 114.900 115.095 115.096 122.742 224.099
225.167 225.167 508.158
 --------------------------------------------------------------
 
          Ground-State Mulliken Net Atomic Charges

     Atom                 Charge (a.u.)
  ----------------------------------------
      1 C                    -0.993565
      2 H                     0.329927
      3 H                     0.331819
      4 H                     0.331819
  ----------------------------------------
  Sum of atomic charges =    -0.000000

 -----------------------------------------------------------------
                    Cartesian Multipole Moments
 -----------------------------------------------------------------
    Charge (ESU x 10^10)
                -0.0000
    Dipole Moment (Debye)
         X      -0.0014      Y       0.0000      Z       0.0000
       Tot       0.0014
    Quadrupole Moments (Debye-Ang)
        XX      -7.2773     XY      -0.0000     YY      -7.2662
        XZ       0.0000     YZ      -0.0000     ZZ      -9.1530
    Octopole Moments (Debye-Ang^2)
       XXX       0.8863    XXY       0.0000    XYY      -0.8938
       YYY       0.0000    XXZ       0.0000    XYZ      -0.0000
       YYZ       0.0000    XZZ      -0.0005    YZZ       0.0000
       ZZZ      -0.0000
    Hexadecapole Moments (Debye-Ang^3)
      XXXX     -15.1412   XXXY      -0.0000   XXYY      -5.0384
      XYYY      -0.0000   YYYY     -15.0918   XXXZ      -0.0000
      XXYZ       0.0000   XYYZ      -0.0000   YYYZ       0.0000
      XXZZ      -4.9722   XYZZ      -0.0000   YYZZ      -4.9648
      XZZZ       0.0000   YZZZ      -0.0000   ZZZZ     -12.1102
 -----------------------------------------------------------------
Archival summary:
1\1\n0088.mhg0\SP\ROProcedureUnspecified\BasisUnspecified\13(2)\yhljason\SatOct303:34:422020SatOct303:34:422020\0\\#,ROProcedureUnspecified,BasisUnspecified,\\0,2\C\H,1,1.07896\H,1,1.07896,2,119.998\H,1,1.079,2,120.001,3,-180,0\\\@

 Total job time:  376.63s(wall), 2997.14s(cpu) 
 Sat Oct  3 03:34:42 2020

        *************************************************************
        *                                                           *
        *  Thank you very much for using Q-Chem.  Have a nice day.  *
        *                                                           *
        *************************************************************


 
User input: 4 of 8 
 
Q-Chem Developer Version!
                  Welcome to Q-Chem
     A Quantum Leap Into The Future Of Chemistry


 Q-Chem 5.1, Q-Chem, Inc., Pleasanton, CA (2018)

 Yihan Shao,  Zhengting Gan,  E. Epifanovsky,  A. T. B. Gilbert,  M. Wormit,  
 J. Kussmann,  A. W. Lange,  A. Behn,  Jia Deng,  Xintian Feng,  D. Ghosh,  
 M. Goldey,  P. R. Horn,  L. D. Jacobson,  I. Kaliman,  T. Kus,  A. Landau,  
 Jie Liu,  E. I. Proynov,  R. M. Richard,  R. P. Steele,  E. J. Sundstrom,  
 H. L. Woodcock III,  P. M. Zimmerman,  D. Zuev,  B. Albrecht,  E. Alguire,  
 S. A. Baeppler,  D. Barton,  Z. Benda,  Y. A. Bernard,  E. J. Berquist,  
 K. B. Bravaya,  H. Burton,  D. Casanova,  Chun-Min Chang,  Yunqing Chen,  
 A. Chien,  K. D. Closser,  M. P. Coons,  S. Coriani,  S. Dasgupta,  
 A. L. Dempwolff,  M. Diedenhofen,  Hainam Do,  R. G. Edgar,  Po-Tung Fang,  
 S. Faraji,  S. Fatehi,  Qingguo Feng,  K. D. Fenk,  J. Fosso-Tande,  
 Qinghui Ge,  A. Ghysels,  G. Gidofalvi,  J. Gomes,  J. Gonthier,  A. Gunina,  
 D. Hait,  M. W. D. Hanson-Heine,  P. H. P. Harbach,  A. W. Hauser,  
 J. E. Herr,  E. G. Hohenstein,  Z. C. Holden,  Kerwin Hui,  B. C. Huynh,  
 T.-C. Jagau,  Hyunjun Ji,  B. Kaduk,  K. Khistyaev,  Jaehoon Kim,  
 P. Klunzinger,  K. Koh,  D. Kosenkov,  L. Koulias,  T. Kowalczyk,  
 C. M. Krauter,  A. Kunitsa,  Ka Un Lao,  A. Laurent,  K. V. Lawler,  
 Joonho Lee,  D. Lefrancois,  S. Lehtola,  D. S. Levine,  Yi-Pei Li,  
 You-Sheng Lin,  Fenglai Liu,  E. Livshits,  A. Luenser,  P. Manohar,  
 E. Mansoor,  S. F. Manzer,  Shan-Ping Mao,  Yuezhi Mao,  N. Mardirossian,  
 A. V. Marenich,  T. Markovich,  L. A. Martinez-Martinez,  S. A. Maurer,  
 N. J. Mayhall,  S. C. McKenzie,  J.-M. Mewes,  A. F. Morrison,  
 J. W. Mullinax,  K. Nanda,  T. S. Nguyen-Beck,  R. Olivares-Amaya,  
 J. A. Parkhill,  T. M. Perrine,  F. Plasser,  P. Pokhilko,  S. Prager,  
 A. Prociuk,  E. Ramos,  D. R. Rehn,  F. Rob,  M. Schneider,  N. Sergueev,  
 S. M. Sharada,  S. Sharma,  D. W. Small,  T. Stauch,  T. Stein,  
 Yu-Chuan Su,  A. J. W. Thom,  A. Tkatchenko,  T. Tsuchimochi,  N. M. Tubman,  
 L. Vogt,  M. L. Vidal,  O. Vydrov,  M. A. Watson,  J. Wenzel,  
 M. de Wergifosse,  T. A. Wesolowski,  A. White,  J. Witte,  A. Yamada,  
 Jun Yang,  K. Yao,  S. Yeganeh,  S. R. Yost,  Zhi-Qiang You,  A. Zech,  
 Igor Ying Zhang,  Xing Zhang,  Yan Zhao,  Ying Zhu,  B. R. Brooks,  
 G. K. L. Chan,  C. J. Cramer,  M. S. Gordon,  W. J. Hehre,  A. Klamt,  
 M. W. Schmidt,  C. D. Sherrill,  D. G. Truhlar,  A. Aspuru-Guzik,  R. Baer,  
 A. T. Bell,  N. A. Besley,  Jeng-Da Chai,  A. E. DePrince, III,  
 R. A. DiStasio Jr.,  A. Dreuw,  B. D. Dunietz,  T. R. Furlani,  
 Chao-Ping Hsu,  Yousung Jung,  Jing Kong,  D. S. Lambrecht,  WanZhen Liang,  
 C. Ochsenfeld,  V. A. Rassolov,  L. V. Slipchenko,  J. E. Subotnik,  
 T. Van Voorhis,  J. M. Herbert,  A. I. Krylov,  P. M. W. Gill,  M. Head-Gordon

 Contributors to earlier versions of Q-Chem not listed above: 
 R. D. Adamson,  B. Austin,  J. Baker,  G. J. O. Beran,  K. Brandhorst,  
 S. T. Brown,  E. F. C. Byrd,  A. K. Chakraborty,  C.-L. Cheng,  
 Siu Hung Chien,  D. M. Chipman,  D. L. Crittenden,  H. Dachsel,  
 R. J. Doerksen,  A. D. Dutoi,  L. Fusti-Molnar,  W. A. Goddard III,  
 A. Golubeva-Zadorozhnaya,  S. R. Gwaltney,  G. Hawkins,  A. Heyden,  
 S. Hirata,  G. Kedziora,  F. J. Keil,  C. Kelley,  Jihan Kim,  R. A. King,  
 R. Z. Khaliullin,  P. P. Korambath,  W. Kurlancheek,  A. M. Lee,  M. S. Lee,  
 S. V. Levchenko,  Ching Yeh Lin,  D. Liotard,  R. C. Lochan,  I. Lotan,  
 P. E. Maslen,  N. Nair,  D. P. O'Neill,  D. Neuhauser,  E. Neuscamman,  
 C. M. Oana,  R. Olson,  B. Peters,  R. Peverati,  P. A. Pieniazek,  
 Y. M. Rhee,  J. Ritchie,  M. A. Rohrdanz,  E. Rosta,  N. J. Russ,  
 H. F. Schaefer III,  N. E. Schultz,  N. Shenvi,  A. C. Simmonett,  A. Sodt,  
 D. Stuck,  K. S. Thanthiriwatte,  V. Vanovschi,  Tao Wang,  A. Warshel,  
 C. F. Williams,  Q. Wu,  X. Xu,  W. Zhang

 Please cite Q-Chem as follows:
 Y. Shao et al., Mol. Phys. 113, 184-215 (2015)
 DOI: 10.1080/00268976.2014.952696

 Q-Chem 5.1.1 for Intel X86 EM64T Linux

 Parts of Q-Chem use Armadillo 8.300.2 (Tropical Shenanigans).
 http://arma.sourceforge.net/

 Q-Chem begins on Sat Oct  3 03:34:43 2020  

Host: n0088.mhg0
0

     Scratch files written to /local/scratch/users/yhljason/CH3_B2PLYP_aug-cc-pcVQZ.inp20201003024952//
The previous job contains 0 fragments, simply inherited here
Input Ideriv = 0
Curr. Ideriv = -1
Max.  Ideriv = 0
Input Ideriv = 1
Curr. Ideriv = 0
Max.  Ideriv = 0

Checking the input file for inconsistencies... 	...done.

--------------------------------------------------------------
User input:
--------------------------------------------------------------
$molecule
read
$end

$rem

jobtype sp
method B2PLYP
xc_grid 000099000590
basis aug-cc-pcVQZ
max_scf_cycles 200
thresh 14
scf_convergence 8
mem_total 128000
cc_memory 96000
cc_backend xm
mem_static 1500
symmetry false
sym_ignore true
scf_guess read
unrestricted false
scf_algorithm gdm
n_frozen_core 0
$end

$multipole_field
XX -0.0001
$end


--------------------------------------------------------------
 ----------------------------------------------------------------
             Standard Nuclear Orientation (Angstroms)
    I     Atom           X                Y                Z
 ----------------------------------------------------------------
    1      C       0.0000000000     0.0000000000     0.0000000000
    2      H       1.0790000000     0.0000000000     0.0000000000
    3      H      -0.5395000000    -0.9344000000     0.0000000000
    4      H      -0.5395000000     0.9344000000     0.0000000000
 ----------------------------------------------------------------
 Nuclear Repulsion Energy =     9.6774633775 hartrees
 There are        5 alpha and        4 beta electrons
 Requested basis set is aug-cc-pCVQZ
 There are 71 shells and 247 basis functions

 Total QAlloc Memory Limit 128000 MB
 Mega-Array Size      1467 MB
 MEM_STATIC part      1500 MB

                       Distance Matrix (Angstroms)
             C (  1)   H (  2)   H (  3)
   H (  2)  1.079000
   H (  3)  1.078964  1.868862
   H (  4)  1.078964  1.868862  1.868800
 
 Applying Cartesian multipole field
    Component          Value
    ---------          -----
     (2,0,0)       -1.00000E-04
 Nucleus-field energy     =    -0.0006236370 hartrees
 A cutoff of  1.0D-14 yielded   2556 shell pairs
 There are     31120 function pairs (     47305 Cartesian)
 
 -------------------------------------------------------
 OpenMP Integral Computing Module                       
 Release: version 1.0, May 2013, Q-Chem Inc. Pittsburgh 
 -------------------------------------------------------
 Integral Job Info:
 Integral job number is                      11
 Integral operator is                         1
 short-range coefficients                     0
 long-range coefficients              100000000
 Omega coefficients                           0
 if combine SR and LR in K                    0
 Integral screening is                        0
 Integral computing path is                   2
 max size of driver memory is           3200000
 size of driver memory is               1704330
 size of scratch memory is             18511652
 max col of scratch BK array              50625
 max len of scratch array in speh3         2114
 max len of scratch index in speh4           50
 max int batch size is                      520
 min int batch size is                       52
 fixed nKL is                                52
 max L of basis functions is                  4
 order of int derivative is                   0
 number of shells is                         71
 number of basis is                         304
 number of cartesian basis is               304
 number of contracted shell pairs          2556
 number of primitive shell pairs           4518
 maxK2 (contraction) of shell pair           81
 max number of K2 of shell pair               1
 max number of CS2 of shell pair            364
 max number of PS2 of shell pair            369
 mem total for path MDJ                  671149
 -------------------------------------------------------
 Smallest overlap matrix eigenvalue = 2.78E-05
 Guess MOs from SCF MO coefficient file
 Reading MOs from coefficient file
 Reading MOs from coefficient file
 A restricted hybrid HF-DFT SCF calculation will be
 performed using Geometric Direct Minimization
 Exchange:     0.5300 Hartree-Fock + 0.4700 B88
 Correlation:  0.7300 LYP
 Using Euler-Maclaurin-Lebedev (99,590) quadrature formula
 SCF converges when RMS gradient is below 1.0E-08
Using Q-Chem read-in guess as SCF_GUESS READ specified.

 using 8 threads for integral computing
 -------------------------------------------------------
 OpenMP Integral computing Module                
 Release: version 2.0, May 2017, Q-Chem Inc. Pleasanton 
 -------------------------------------------------------
TIMEINFO->: J/JK contribution 86.94 sec.
 -------------------------------------------------------
 OpenMP BLAS3 based DFT computing Module                
 Release: version 1.0, May 2013, Q-Chem Inc. Pittsburgh 
 -------------------------------------------------------
 ---------------------------------------
  Cycle       Energy        RMS Gradient
 ---------------------------------------
    1     -39.7598355526      6.60E-04 Normal BFGS step
TIMEINFO->: J/JK contribution 87.57 sec.
    2     -39.7598368896      7.00E-04 Normal BFGS step
TIMEINFO->: J/JK contribution 86.75 sec.
    3     -39.7598372717      1.82E-04 Normal BFGS step
TIMEINFO->: J/JK contribution 86.04 sec.
    4     -39.7598372988      3.43E-05 Normal BFGS step
TIMEINFO->: J/JK contribution 85.84 sec.
    5     -39.7598373000      9.62E-06 Normal BFGS step
TIMEINFO->: J/JK contribution 86.08 sec.
    6     -39.7598373001      2.22E-06 Normal BFGS step
TIMEINFO->: J/JK contribution 85.07 sec.
    7     -39.7598373001      4.54E-07 Normal BFGS step
TIMEINFO->: J/JK contribution 84.42 sec.
    8     -39.7598373001      3.54E-08 Normal BFGS step
TIMEINFO->: J/JK contribution 82.54 sec.
   GDM::WARNING energy changes are now smaller than effective accuracy.
   GDM::        calculation will continue, but THRESH should be increased
   GDM::        or SCF_CONVERGENCE decreased.
   GDM::        effective_thresh =   5.000000000000000E-011
    9     -39.7598373001      6.73E-09 Convergence criterion met
 ---------------------------------------
 SCF time:  CPU 992.59 s  wall 125.02 s
 SCF   energy in the final basis set = -39.75983730
 Total energy in the final basis set = -39.75983730
 
 Components of the MP2 correlation energy:
        aaaa  correlation energy =        -0.0083769147 au
        abab  correlation energy =        -0.0584036983 au
        bbbb  correlation energy =        -0.0033094374 au
        non-Brillouin singles    =        -0.0017294398 au

 Total  MP2   correlation energy =                    -0.07181949 au
        MP2         total energy =                   -39.83165679 au
 
 --------------------------------------------------------------
 
                    Orbital Energies (a.u.)
 --------------------------------------------------------------
 
 Alpha MOs
 -- Occupied --
-10.624  -0.793  -0.492  -0.492  -0.292
 -- Virtual --
  0.012   0.034   0.037   0.061   0.098   0.099   0.101   0.146
  0.147   0.160   0.177   0.178   0.230   0.241   0.243   0.251
  0.253   0.274   0.274   0.287   0.327   0.328   0.354   0.354
  0.419   0.419   0.433   0.457   0.522   0.523   0.614   0.614
  0.630   0.631   0.656   0.670   0.687   0.687   0.688   0.688
  0.714   0.728   0.729   0.739   0.826   0.846   0.847   0.847
  0.848   0.936   0.936   1.022   1.023   1.028   1.049   1.049
  1.053   1.114   1.225   1.327   1.327   1.344   1.376   1.385
  1.385   1.475   1.475   1.613   1.613   1.638   1.641   1.667
  1.688   1.688   1.721   1.721   1.764   1.864   1.877   1.892
  1.893   1.949   1.949   1.970   1.970   1.963   1.963   1.973
  2.017   2.045   2.131   2.131   2.153   2.153   2.180   2.180
  2.183   2.327   2.327   2.384   2.445   2.488   2.488   2.496
  2.552   2.658   2.658   2.675   2.675   2.769   2.830   2.830
  2.888   3.102   3.102   3.153   3.339   3.339   3.434   3.434
  3.473   3.609   3.616   3.616   3.705   3.705   3.794   3.956
  3.979   3.996   3.996   4.109   4.109   4.269   4.296   4.296
  4.467   4.617   4.617   4.763   5.354   5.681   5.681   5.748
  5.768   5.878   5.878   5.946   6.080   6.080   6.114   6.114
  6.245   6.395   6.546   6.567   6.568   6.590   6.590   6.590
  6.684   6.684   6.862   6.901   6.901   7.021   7.021   7.051
  7.341   7.341   7.520   7.520   7.795   7.795   7.898   8.134
  8.134   8.178   8.178   8.276   8.291   8.291   8.332   8.543
  8.683   8.849   8.849   8.945   9.004   9.004   9.042   9.042
  9.397   9.419   9.463   9.463   9.602   9.637   9.952   9.952
 10.084  10.087  10.087  10.215  10.382  10.382  10.619  10.656
 11.520  11.521  12.647  12.647  13.975  19.167  20.959  20.959
 26.577  26.577  27.245  27.601  27.602  37.177  66.252  67.563
 67.563  98.088  98.092  98.092  98.106  98.106  98.135  98.161
114.580 114.580 114.893 115.096 115.096 122.736 224.095 225.167
225.167 508.157
 
 Beta MOs
 -- Occupied --
-10.609  -0.740  -0.478  -0.478
 -- Virtual --
  0.018   0.013   0.034   0.037   0.069   0.100   0.098   0.100
  0.146   0.148   0.171   0.181   0.181   0.241   0.241   0.242
  0.250   0.253   0.273   0.274   0.295   0.330   0.331   0.353
  0.353   0.421   0.421   0.463   0.482   0.536   0.536   0.613
  0.621   0.633   0.633   0.661   0.675   0.689   0.690   0.691
  0.691   0.719   0.730   0.730   0.738   0.831   0.846   0.846
  0.863   0.863   0.938   0.938   1.026   1.027   1.028   1.053
  1.053   1.054   1.146   1.249   1.332   1.332   1.343   1.394
  1.388   1.389   1.476   1.477   1.618   1.618   1.640   1.658
  1.674   1.688   1.689   1.722   1.722   1.765   1.865   1.876
  1.899   1.900   1.953   1.953   1.974   1.975   1.994   1.994
  1.976   2.048   2.052   2.134   2.134   2.162   2.162   2.186
  2.187   2.199   2.339   2.339   2.403   2.452   2.497   2.497
  2.533   2.565   2.665   2.665   2.688   2.688   2.770   2.836
  2.836   2.901   3.105   3.105   3.163   3.346   3.346   3.447
  3.448   3.473   3.620   3.629   3.629   3.711   3.712   3.805
  3.961   3.985   4.000   4.000   4.134   4.134   4.286   4.299
  4.299   4.493   4.620   4.620   4.770   5.400   5.696   5.696
  5.782   5.781   5.905   5.905   5.992   6.104   6.104   6.147
  6.147   6.245   6.410   6.579   6.572   6.572   6.593   6.595
  6.595   6.694   6.694   6.867   6.907   6.907   7.029   7.029
  7.060   7.372   7.372   7.535   7.535   7.803   7.803   7.907
  8.140   8.140   8.183   8.184   8.280   8.293   8.293   8.341
  8.544   8.692   8.852   8.852   8.952   9.008   9.008   9.048
  9.048   9.401   9.422   9.464   9.464   9.609   9.637   9.953
  9.953  10.093  10.102  10.102  10.234  10.385  10.385  10.637
 10.659  11.523  11.523  12.650  12.650  13.986  19.212  20.970
 20.970  26.601  26.601  27.273  27.604  27.605  37.195  66.270
 67.566  67.566  98.102  98.100  98.100  98.118  98.118  98.135
 98.162 114.586 114.586 114.900 115.096 115.096 122.743 224.100
225.168 225.168 508.159
 --------------------------------------------------------------
 
          Ground-State Mulliken Net Atomic Charges

     Atom                 Charge (a.u.)
  ----------------------------------------
      1 C                    -0.996759
      2 H                     0.333489
      3 H                     0.331635
      4 H                     0.331635
  ----------------------------------------
  Sum of atomic charges =     0.000000

 -----------------------------------------------------------------
                    Cartesian Multipole Moments
 -----------------------------------------------------------------
    Charge (ESU x 10^10)
                -0.0000
    Dipole Moment (Debye)
         X       0.0013      Y       0.0000      Z       0.0000
       Tot       0.0013
    Quadrupole Moments (Debye-Ang)
        XX      -7.2539     XY      -0.0000     YY      -7.2653
        XZ       0.0000     YZ      -0.0000     ZZ      -9.1501
    Octopole Moments (Debye-Ang^2)
       XXX       0.9024    XXY       0.0000    XYY      -0.8951
       YYY       0.0000    XXZ       0.0000    XYZ      -0.0000
       YYZ       0.0000    XZZ       0.0004    YZZ       0.0000
       ZZZ       0.0000
    Hexadecapole Moments (Debye-Ang^3)
      XXXX     -15.0395   XXXY      -0.0000   XXYY      -5.0216
      XYYY      -0.0000   YYYY     -15.0878   XXXZ      -0.0000
      XXYZ       0.0000   XYYZ      -0.0000   YYYZ       0.0000
      XXZZ      -4.9546   XYZZ      -0.0000   YYZZ      -4.9617
      XZZZ       0.0000   YZZZ      -0.0000   ZZZZ     -12.0942
 -----------------------------------------------------------------
Archival summary:
1\1\n0088.mhg0\SP\ROProcedureUnspecified\BasisUnspecified\13(2)\yhljason\SatOct303:40:582020SatOct303:40:582020\0\\#,ROProcedureUnspecified,BasisUnspecified,\\0,2\C\H,1,1.07896\H,1,1.07896,2,119.998\H,1,1.079,2,120.001,3,-180,0\\\@

 Total job time:  375.64s(wall), 2990.18s(cpu) 
 Sat Oct  3 03:40:58 2020

        *************************************************************
        *                                                           *
        *  Thank you very much for using Q-Chem.  Have a nice day.  *
        *                                                           *
        *************************************************************


 
User input: 5 of 8 
 
Q-Chem Developer Version!
                  Welcome to Q-Chem
     A Quantum Leap Into The Future Of Chemistry


 Q-Chem 5.1, Q-Chem, Inc., Pleasanton, CA (2018)

 Yihan Shao,  Zhengting Gan,  E. Epifanovsky,  A. T. B. Gilbert,  M. Wormit,  
 J. Kussmann,  A. W. Lange,  A. Behn,  Jia Deng,  Xintian Feng,  D. Ghosh,  
 M. Goldey,  P. R. Horn,  L. D. Jacobson,  I. Kaliman,  T. Kus,  A. Landau,  
 Jie Liu,  E. I. Proynov,  R. M. Richard,  R. P. Steele,  E. J. Sundstrom,  
 H. L. Woodcock III,  P. M. Zimmerman,  D. Zuev,  B. Albrecht,  E. Alguire,  
 S. A. Baeppler,  D. Barton,  Z. Benda,  Y. A. Bernard,  E. J. Berquist,  
 K. B. Bravaya,  H. Burton,  D. Casanova,  Chun-Min Chang,  Yunqing Chen,  
 A. Chien,  K. D. Closser,  M. P. Coons,  S. Coriani,  S. Dasgupta,  
 A. L. Dempwolff,  M. Diedenhofen,  Hainam Do,  R. G. Edgar,  Po-Tung Fang,  
 S. Faraji,  S. Fatehi,  Qingguo Feng,  K. D. Fenk,  J. Fosso-Tande,  
 Qinghui Ge,  A. Ghysels,  G. Gidofalvi,  J. Gomes,  J. Gonthier,  A. Gunina,  
 D. Hait,  M. W. D. Hanson-Heine,  P. H. P. Harbach,  A. W. Hauser,  
 J. E. Herr,  E. G. Hohenstein,  Z. C. Holden,  Kerwin Hui,  B. C. Huynh,  
 T.-C. Jagau,  Hyunjun Ji,  B. Kaduk,  K. Khistyaev,  Jaehoon Kim,  
 P. Klunzinger,  K. Koh,  D. Kosenkov,  L. Koulias,  T. Kowalczyk,  
 C. M. Krauter,  A. Kunitsa,  Ka Un Lao,  A. Laurent,  K. V. Lawler,  
 Joonho Lee,  D. Lefrancois,  S. Lehtola,  D. S. Levine,  Yi-Pei Li,  
 You-Sheng Lin,  Fenglai Liu,  E. Livshits,  A. Luenser,  P. Manohar,  
 E. Mansoor,  S. F. Manzer,  Shan-Ping Mao,  Yuezhi Mao,  N. Mardirossian,  
 A. V. Marenich,  T. Markovich,  L. A. Martinez-Martinez,  S. A. Maurer,  
 N. J. Mayhall,  S. C. McKenzie,  J.-M. Mewes,  A. F. Morrison,  
 J. W. Mullinax,  K. Nanda,  T. S. Nguyen-Beck,  R. Olivares-Amaya,  
 J. A. Parkhill,  T. M. Perrine,  F. Plasser,  P. Pokhilko,  S. Prager,  
 A. Prociuk,  E. Ramos,  D. R. Rehn,  F. Rob,  M. Schneider,  N. Sergueev,  
 S. M. Sharada,  S. Sharma,  D. W. Small,  T. Stauch,  T. Stein,  
 Yu-Chuan Su,  A. J. W. Thom,  A. Tkatchenko,  T. Tsuchimochi,  N. M. Tubman,  
 L. Vogt,  M. L. Vidal,  O. Vydrov,  M. A. Watson,  J. Wenzel,  
 M. de Wergifosse,  T. A. Wesolowski,  A. White,  J. Witte,  A. Yamada,  
 Jun Yang,  K. Yao,  S. Yeganeh,  S. R. Yost,  Zhi-Qiang You,  A. Zech,  
 Igor Ying Zhang,  Xing Zhang,  Yan Zhao,  Ying Zhu,  B. R. Brooks,  
 G. K. L. Chan,  C. J. Cramer,  M. S. Gordon,  W. J. Hehre,  A. Klamt,  
 M. W. Schmidt,  C. D. Sherrill,  D. G. Truhlar,  A. Aspuru-Guzik,  R. Baer,  
 A. T. Bell,  N. A. Besley,  Jeng-Da Chai,  A. E. DePrince, III,  
 R. A. DiStasio Jr.,  A. Dreuw,  B. D. Dunietz,  T. R. Furlani,  
 Chao-Ping Hsu,  Yousung Jung,  Jing Kong,  D. S. Lambrecht,  WanZhen Liang,  
 C. Ochsenfeld,  V. A. Rassolov,  L. V. Slipchenko,  J. E. Subotnik,  
 T. Van Voorhis,  J. M. Herbert,  A. I. Krylov,  P. M. W. Gill,  M. Head-Gordon

 Contributors to earlier versions of Q-Chem not listed above: 
 R. D. Adamson,  B. Austin,  J. Baker,  G. J. O. Beran,  K. Brandhorst,  
 S. T. Brown,  E. F. C. Byrd,  A. K. Chakraborty,  C.-L. Cheng,  
 Siu Hung Chien,  D. M. Chipman,  D. L. Crittenden,  H. Dachsel,  
 R. J. Doerksen,  A. D. Dutoi,  L. Fusti-Molnar,  W. A. Goddard III,  
 A. Golubeva-Zadorozhnaya,  S. R. Gwaltney,  G. Hawkins,  A. Heyden,  
 S. Hirata,  G. Kedziora,  F. J. Keil,  C. Kelley,  Jihan Kim,  R. A. King,  
 R. Z. Khaliullin,  P. P. Korambath,  W. Kurlancheek,  A. M. Lee,  M. S. Lee,  
 S. V. Levchenko,  Ching Yeh Lin,  D. Liotard,  R. C. Lochan,  I. Lotan,  
 P. E. Maslen,  N. Nair,  D. P. O'Neill,  D. Neuhauser,  E. Neuscamman,  
 C. M. Oana,  R. Olson,  B. Peters,  R. Peverati,  P. A. Pieniazek,  
 Y. M. Rhee,  J. Ritchie,  M. A. Rohrdanz,  E. Rosta,  N. J. Russ,  
 H. F. Schaefer III,  N. E. Schultz,  N. Shenvi,  A. C. Simmonett,  A. Sodt,  
 D. Stuck,  K. S. Thanthiriwatte,  V. Vanovschi,  Tao Wang,  A. Warshel,  
 C. F. Williams,  Q. Wu,  X. Xu,  W. Zhang

 Please cite Q-Chem as follows:
 Y. Shao et al., Mol. Phys. 113, 184-215 (2015)
 DOI: 10.1080/00268976.2014.952696

 Q-Chem 5.1.1 for Intel X86 EM64T Linux

 Parts of Q-Chem use Armadillo 8.300.2 (Tropical Shenanigans).
 http://arma.sourceforge.net/

 Q-Chem begins on Sat Oct  3 03:40:58 2020  

Host: n0088.mhg0
0

     Scratch files written to /local/scratch/users/yhljason/CH3_B2PLYP_aug-cc-pcVQZ.inp20201003024952//
The previous job contains 0 fragments, simply inherited here
Input Ideriv = 0
Curr. Ideriv = -1
Max.  Ideriv = 0
Input Ideriv = 1
Curr. Ideriv = 0
Max.  Ideriv = 0

Checking the input file for inconsistencies... 	...done.

--------------------------------------------------------------
User input:
--------------------------------------------------------------
$molecule
read
$end

$rem

jobtype sp
method B2PLYP
xc_grid 000099000590
basis aug-cc-pcVQZ
max_scf_cycles 200
thresh 14
scf_convergence 8
mem_total 128000
cc_memory 96000
cc_backend xm
mem_static 1500
symmetry false
sym_ignore true
scf_guess read
unrestricted false
scf_algorithm gdm
n_frozen_core 0
$end

$multipole_field
YY 0.0001
$end


--------------------------------------------------------------
 ----------------------------------------------------------------
             Standard Nuclear Orientation (Angstroms)
    I     Atom           X                Y                Z
 ----------------------------------------------------------------
    1      C       0.0000000000     0.0000000000     0.0000000000
    2      H       1.0790000000     0.0000000000     0.0000000000
    3      H      -0.5395000000    -0.9344000000     0.0000000000
    4      H      -0.5395000000     0.9344000000     0.0000000000
 ----------------------------------------------------------------
 Nuclear Repulsion Energy =     9.6774633775 hartrees
 There are        5 alpha and        4 beta electrons
 Requested basis set is aug-cc-pCVQZ
 There are 71 shells and 247 basis functions

 Total QAlloc Memory Limit 128000 MB
 Mega-Array Size      1467 MB
 MEM_STATIC part      1500 MB

                       Distance Matrix (Angstroms)
             C (  1)   H (  2)   H (  3)
   H (  2)  1.079000
   H (  3)  1.078964  1.868862
   H (  4)  1.078964  1.868862  1.868800
 
 Applying Cartesian multipole field
    Component          Value
    ---------          -----
     (0,2,0)        1.00000E-04
 Nucleus-field energy     =     0.0006235817 hartrees
 A cutoff of  1.0D-14 yielded   2556 shell pairs
 There are     31120 function pairs (     47305 Cartesian)
 
 -------------------------------------------------------
 OpenMP Integral Computing Module                       
 Release: version 1.0, May 2013, Q-Chem Inc. Pittsburgh 
 -------------------------------------------------------
 Integral Job Info:
 Integral job number is                      11
 Integral operator is                         1
 short-range coefficients                     0
 long-range coefficients              100000000
 Omega coefficients                           0
 if combine SR and LR in K                    0
 Integral screening is                        0
 Integral computing path is                   2
 max size of driver memory is           3200000
 size of driver memory is               1704330
 size of scratch memory is             18511652
 max col of scratch BK array              50625
 max len of scratch array in speh3         2114
 max len of scratch index in speh4           50
 max int batch size is                      520
 min int batch size is                       52
 fixed nKL is                                52
 max L of basis functions is                  4
 order of int derivative is                   0
 number of shells is                         71
 number of basis is                         304
 number of cartesian basis is               304
 number of contracted shell pairs          2556
 number of primitive shell pairs           4518
 maxK2 (contraction) of shell pair           81
 max number of K2 of shell pair               1
 max number of CS2 of shell pair            364
 max number of PS2 of shell pair            369
 mem total for path MDJ                  671149
 -------------------------------------------------------
 Smallest overlap matrix eigenvalue = 2.78E-05
 Guess MOs from SCF MO coefficient file
 Reading MOs from coefficient file
 Reading MOs from coefficient file
 A restricted hybrid HF-DFT SCF calculation will be
 performed using Geometric Direct Minimization
 Exchange:     0.5300 Hartree-Fock + 0.4700 B88
 Correlation:  0.7300 LYP
 Using Euler-Maclaurin-Lebedev (99,590) quadrature formula
 SCF converges when RMS gradient is below 1.0E-08
Using Q-Chem read-in guess as SCF_GUESS READ specified.

 using 8 threads for integral computing
 -------------------------------------------------------
 OpenMP Integral computing Module                
 Release: version 2.0, May 2017, Q-Chem Inc. Pleasanton 
 -------------------------------------------------------
TIMEINFO->: J/JK contribution 86.36 sec.
 -------------------------------------------------------
 OpenMP BLAS3 based DFT computing Module                
 Release: version 1.0, May 2013, Q-Chem Inc. Pittsburgh 
 -------------------------------------------------------
 ---------------------------------------
  Cycle       Energy        RMS Gradient
 ---------------------------------------
    1     -39.7609167685      5.40E-04 Normal BFGS step
TIMEINFO->: J/JK contribution 86.87 sec.
    2     -39.7609172880      7.08E-04 Normal BFGS step
TIMEINFO->: J/JK contribution 86.56 sec.
    3     -39.7609176679      7.40E-05 Normal BFGS step
TIMEINFO->: J/JK contribution 86.89 sec.
    4     -39.7609176712      3.55E-05 Normal BFGS step
TIMEINFO->: J/JK contribution 86.54 sec.
    5     -39.7609176720      3.17E-06 Normal BFGS step
TIMEINFO->: J/JK contribution 86.10 sec.
    6     -39.7609176720      9.32E-07 Normal BFGS step
TIMEINFO->: J/JK contribution 85.51 sec.
    7     -39.7609176720      4.65E-08 Normal BFGS step
TIMEINFO->: J/JK contribution 83.72 sec.
    8     -39.7609176720      6.77E-09 Convergence criterion met
 ---------------------------------------
 SCF time:  CPU 883.70 s  wall 111.46 s
 SCF   energy in the final basis set = -39.76091767
 Total energy in the final basis set = -39.76091767
 
 Components of the MP2 correlation energy:
        aaaa  correlation energy =        -0.0083781993 au
        abab  correlation energy =        -0.0584055351 au
        bbbb  correlation energy =        -0.0033094543 au
        non-Brillouin singles    =        -0.0017288494 au

 Total  MP2   correlation energy =                    -0.07182204 au
        MP2         total energy =                   -39.83273971 au
 
 --------------------------------------------------------------
 
                    Orbital Energies (a.u.)
 --------------------------------------------------------------
 
 Alpha MOs
 -- Occupied --
-10.624  -0.794  -0.493  -0.493  -0.292
 -- Virtual --
  0.008   0.027   0.030   0.059   0.092   0.094   0.095   0.142
  0.143   0.159   0.176   0.176   0.228   0.238   0.239   0.248
  0.250   0.272   0.272   0.283   0.324   0.325   0.351   0.351
  0.417   0.417   0.432   0.455   0.521   0.522   0.611   0.612
  0.628   0.629   0.654   0.668   0.684   0.685   0.687   0.687
  0.712   0.726   0.727   0.738   0.825   0.844   0.844   0.846
  0.846   0.934   0.934   1.021   1.021   1.026   1.047   1.048
  1.051   1.113   1.224   1.325   1.326   1.343   1.375   1.383
  1.384   1.474   1.474   1.612   1.612   1.637   1.640   1.666
  1.687   1.687   1.720   1.720   1.763   1.862   1.875   1.891
  1.892   1.948   1.948   1.968   1.969   1.962   1.962   1.972
  2.016   2.044   2.129   2.129   2.152   2.152   2.178   2.179
  2.182   2.326   2.326   2.383   2.444   2.487   2.487   2.496
  2.551   2.657   2.657   2.674   2.674   2.768   2.829   2.829
  2.887   3.101   3.101   3.152   3.338   3.339   3.433   3.433
  3.472   3.608   3.615   3.615   3.704   3.704   3.793   3.955
  3.979   3.995   3.995   4.108   4.108   4.268   4.295   4.295
  4.466   4.616   4.616   4.762   5.354   5.680   5.680   5.747
  5.767   5.877   5.878   5.945   6.080   6.080   6.113   6.113
  6.244   6.394   6.545   6.567   6.567   6.590   6.589   6.589
  6.683   6.683   6.862   6.900   6.900   7.021   7.021   7.050
  7.340   7.340   7.519   7.520   7.794   7.794   7.897   8.133
  8.133   8.177   8.177   8.275   8.290   8.290   8.332   8.542
  8.683   8.849   8.849   8.944   9.003   9.003   9.041   9.041
  9.396   9.418   9.462   9.462   9.601   9.637   9.951   9.951
 10.083  10.087  10.087  10.215  10.381  10.381  10.618  10.655
 11.520  11.520  12.646  12.646  13.974  19.166  20.959  20.959
 26.576  26.576  27.245  27.601  27.601  37.177  66.251  67.562
 67.562  98.087  98.091  98.091  98.105  98.105  98.134  98.161
114.579 114.579 114.892 115.095 115.095 122.735 224.094 225.166
225.166 508.156
 
 Beta MOs
 -- Occupied --
-10.610  -0.741  -0.479  -0.479
 -- Virtual --
  0.017   0.009   0.027   0.030   0.067   0.095   0.093   0.095
  0.143   0.144   0.170   0.179   0.180   0.239   0.238   0.239
  0.247   0.250   0.271   0.271   0.291   0.327   0.328   0.350
  0.350   0.418   0.418   0.462   0.481   0.534   0.535   0.611
  0.619   0.631   0.631   0.658   0.673   0.687   0.688   0.689
  0.689   0.717   0.728   0.728   0.737   0.830   0.844   0.844
  0.862   0.862   0.937   0.937   1.025   1.025   1.026   1.051
  1.051   1.052   1.145   1.248   1.330   1.331   1.342   1.392
  1.386   1.387   1.475   1.475   1.617   1.617   1.639   1.657
  1.673   1.687   1.687   1.720   1.720   1.764   1.863   1.875
  1.898   1.898   1.952   1.952   1.973   1.973   1.993   1.993
  1.974   2.047   2.050   2.133   2.133   2.161   2.161   2.185
  2.185   2.199   2.338   2.339   2.402   2.451   2.496   2.496
  2.532   2.564   2.664   2.664   2.687   2.687   2.769   2.835
  2.835   2.900   3.104   3.104   3.163   3.345   3.345   3.447
  3.447   3.472   3.619   3.629   3.629   3.710   3.711   3.804
  3.960   3.984   3.999   3.999   4.133   4.133   4.286   4.298
  4.298   4.492   4.620   4.620   4.769   5.399   5.695   5.695
  5.781   5.780   5.905   5.905   5.991   6.104   6.104   6.146
  6.146   6.244   6.409   6.578   6.571   6.571   6.592   6.594
  6.594   6.693   6.693   6.866   6.906   6.906   7.029   7.029
  7.059   7.372   7.372   7.534   7.534   7.802   7.802   7.906
  8.139   8.140   8.183   8.183   8.279   8.293   8.293   8.340
  8.543   8.691   8.852   8.852   8.951   9.008   9.008   9.047
  9.047   9.400   9.421   9.463   9.463   9.608   9.637   9.952
  9.952  10.092  10.101  10.101  10.233  10.385  10.385  10.636
 10.658  11.522  11.523  12.649  12.649  13.986  19.211  20.969
 20.970  26.600  26.600  27.272  27.604  27.604  37.194  66.269
 67.566  67.566  98.101  98.099  98.099  98.117  98.117  98.134
 98.161 114.585 114.585 114.900 115.095 115.096 122.742 224.099
225.167 225.167 508.158
 --------------------------------------------------------------
 
          Ground-State Mulliken Net Atomic Charges

     Atom                 Charge (a.u.)
  ----------------------------------------
      1 C                    -0.993565
      2 H                     0.332427
      3 H                     0.330569
      4 H                     0.330569
  ----------------------------------------
  Sum of atomic charges =    -0.000000

 -----------------------------------------------------------------
                    Cartesian Multipole Moments
 -----------------------------------------------------------------
    Charge (ESU x 10^10)
                -0.0000
    Dipole Moment (Debye)
         X       0.0013      Y      -0.0000      Z      -0.0000
       Tot       0.0013
    Quadrupole Moments (Debye-Ang)
        XX      -7.2660     XY      -0.0000     YY      -7.2775
        XZ       0.0000     YZ       0.0000     ZZ      -9.1530
    Octopole Moments (Debye-Ang^2)
       XXX       0.8974    XXY      -0.0000    XYY      -0.8901
       YYY      -0.0000    XXZ       0.0000    XYZ      -0.0000
       YYZ       0.0000    XZZ       0.0004    YZZ       0.0000
       ZZZ      -0.0000
    Hexadecapole Moments (Debye-Ang^3)
      XXXX     -15.0915   XXXY      -0.0000   XXYY      -5.0390
      XYYY       0.0000   YYYY     -15.1403   XXXZ      -0.0000
      XXYZ       0.0000   XYYZ      -0.0000   YYYZ       0.0000
      XXZZ      -4.9649   XYZZ      -0.0000   YYZZ      -4.9721
      XZZZ       0.0000   YZZZ       0.0000   ZZZZ     -12.1102
 -----------------------------------------------------------------
Archival summary:
1\1\n0088.mhg0\SP\ROProcedureUnspecified\BasisUnspecified\13(2)\yhljason\SatOct303:47:012020SatOct303:47:012020\0\\#,ROProcedureUnspecified,BasisUnspecified,\\0,2\C\H,1,1.07896\H,1,1.07896,2,119.998\H,1,1.079,2,120.001,3,-180,0\\\@

 Total job time:  362.77s(wall), 2886.50s(cpu) 
 Sat Oct  3 03:47:01 2020

        *************************************************************
        *                                                           *
        *  Thank you very much for using Q-Chem.  Have a nice day.  *
        *                                                           *
        *************************************************************


 
User input: 6 of 8 
 
Q-Chem Developer Version!
                  Welcome to Q-Chem
     A Quantum Leap Into The Future Of Chemistry


 Q-Chem 5.1, Q-Chem, Inc., Pleasanton, CA (2018)

 Yihan Shao,  Zhengting Gan,  E. Epifanovsky,  A. T. B. Gilbert,  M. Wormit,  
 J. Kussmann,  A. W. Lange,  A. Behn,  Jia Deng,  Xintian Feng,  D. Ghosh,  
 M. Goldey,  P. R. Horn,  L. D. Jacobson,  I. Kaliman,  T. Kus,  A. Landau,  
 Jie Liu,  E. I. Proynov,  R. M. Richard,  R. P. Steele,  E. J. Sundstrom,  
 H. L. Woodcock III,  P. M. Zimmerman,  D. Zuev,  B. Albrecht,  E. Alguire,  
 S. A. Baeppler,  D. Barton,  Z. Benda,  Y. A. Bernard,  E. J. Berquist,  
 K. B. Bravaya,  H. Burton,  D. Casanova,  Chun-Min Chang,  Yunqing Chen,  
 A. Chien,  K. D. Closser,  M. P. Coons,  S. Coriani,  S. Dasgupta,  
 A. L. Dempwolff,  M. Diedenhofen,  Hainam Do,  R. G. Edgar,  Po-Tung Fang,  
 S. Faraji,  S. Fatehi,  Qingguo Feng,  K. D. Fenk,  J. Fosso-Tande,  
 Qinghui Ge,  A. Ghysels,  G. Gidofalvi,  J. Gomes,  J. Gonthier,  A. Gunina,  
 D. Hait,  M. W. D. Hanson-Heine,  P. H. P. Harbach,  A. W. Hauser,  
 J. E. Herr,  E. G. Hohenstein,  Z. C. Holden,  Kerwin Hui,  B. C. Huynh,  
 T.-C. Jagau,  Hyunjun Ji,  B. Kaduk,  K. Khistyaev,  Jaehoon Kim,  
 P. Klunzinger,  K. Koh,  D. Kosenkov,  L. Koulias,  T. Kowalczyk,  
 C. M. Krauter,  A. Kunitsa,  Ka Un Lao,  A. Laurent,  K. V. Lawler,  
 Joonho Lee,  D. Lefrancois,  S. Lehtola,  D. S. Levine,  Yi-Pei Li,  
 You-Sheng Lin,  Fenglai Liu,  E. Livshits,  A. Luenser,  P. Manohar,  
 E. Mansoor,  S. F. Manzer,  Shan-Ping Mao,  Yuezhi Mao,  N. Mardirossian,  
 A. V. Marenich,  T. Markovich,  L. A. Martinez-Martinez,  S. A. Maurer,  
 N. J. Mayhall,  S. C. McKenzie,  J.-M. Mewes,  A. F. Morrison,  
 J. W. Mullinax,  K. Nanda,  T. S. Nguyen-Beck,  R. Olivares-Amaya,  
 J. A. Parkhill,  T. M. Perrine,  F. Plasser,  P. Pokhilko,  S. Prager,  
 A. Prociuk,  E. Ramos,  D. R. Rehn,  F. Rob,  M. Schneider,  N. Sergueev,  
 S. M. Sharada,  S. Sharma,  D. W. Small,  T. Stauch,  T. Stein,  
 Yu-Chuan Su,  A. J. W. Thom,  A. Tkatchenko,  T. Tsuchimochi,  N. M. Tubman,  
 L. Vogt,  M. L. Vidal,  O. Vydrov,  M. A. Watson,  J. Wenzel,  
 M. de Wergifosse,  T. A. Wesolowski,  A. White,  J. Witte,  A. Yamada,  
 Jun Yang,  K. Yao,  S. Yeganeh,  S. R. Yost,  Zhi-Qiang You,  A. Zech,  
 Igor Ying Zhang,  Xing Zhang,  Yan Zhao,  Ying Zhu,  B. R. Brooks,  
 G. K. L. Chan,  C. J. Cramer,  M. S. Gordon,  W. J. Hehre,  A. Klamt,  
 M. W. Schmidt,  C. D. Sherrill,  D. G. Truhlar,  A. Aspuru-Guzik,  R. Baer,  
 A. T. Bell,  N. A. Besley,  Jeng-Da Chai,  A. E. DePrince, III,  
 R. A. DiStasio Jr.,  A. Dreuw,  B. D. Dunietz,  T. R. Furlani,  
 Chao-Ping Hsu,  Yousung Jung,  Jing Kong,  D. S. Lambrecht,  WanZhen Liang,  
 C. Ochsenfeld,  V. A. Rassolov,  L. V. Slipchenko,  J. E. Subotnik,  
 T. Van Voorhis,  J. M. Herbert,  A. I. Krylov,  P. M. W. Gill,  M. Head-Gordon

 Contributors to earlier versions of Q-Chem not listed above: 
 R. D. Adamson,  B. Austin,  J. Baker,  G. J. O. Beran,  K. Brandhorst,  
 S. T. Brown,  E. F. C. Byrd,  A. K. Chakraborty,  C.-L. Cheng,  
 Siu Hung Chien,  D. M. Chipman,  D. L. Crittenden,  H. Dachsel,  
 R. J. Doerksen,  A. D. Dutoi,  L. Fusti-Molnar,  W. A. Goddard III,  
 A. Golubeva-Zadorozhnaya,  S. R. Gwaltney,  G. Hawkins,  A. Heyden,  
 S. Hirata,  G. Kedziora,  F. J. Keil,  C. Kelley,  Jihan Kim,  R. A. King,  
 R. Z. Khaliullin,  P. P. Korambath,  W. Kurlancheek,  A. M. Lee,  M. S. Lee,  
 S. V. Levchenko,  Ching Yeh Lin,  D. Liotard,  R. C. Lochan,  I. Lotan,  
 P. E. Maslen,  N. Nair,  D. P. O'Neill,  D. Neuhauser,  E. Neuscamman,  
 C. M. Oana,  R. Olson,  B. Peters,  R. Peverati,  P. A. Pieniazek,  
 Y. M. Rhee,  J. Ritchie,  M. A. Rohrdanz,  E. Rosta,  N. J. Russ,  
 H. F. Schaefer III,  N. E. Schultz,  N. Shenvi,  A. C. Simmonett,  A. Sodt,  
 D. Stuck,  K. S. Thanthiriwatte,  V. Vanovschi,  Tao Wang,  A. Warshel,  
 C. F. Williams,  Q. Wu,  X. Xu,  W. Zhang

 Please cite Q-Chem as follows:
 Y. Shao et al., Mol. Phys. 113, 184-215 (2015)
 DOI: 10.1080/00268976.2014.952696

 Q-Chem 5.1.1 for Intel X86 EM64T Linux

 Parts of Q-Chem use Armadillo 8.300.2 (Tropical Shenanigans).
 http://arma.sourceforge.net/

 Q-Chem begins on Sat Oct  3 03:47:01 2020  

Host: n0088.mhg0
0

     Scratch files written to /local/scratch/users/yhljason/CH3_B2PLYP_aug-cc-pcVQZ.inp20201003024952//
The previous job contains 0 fragments, simply inherited here
Input Ideriv = 0
Curr. Ideriv = -1
Max.  Ideriv = 0
Input Ideriv = 1
Curr. Ideriv = 0
Max.  Ideriv = 0

Checking the input file for inconsistencies... 	...done.

--------------------------------------------------------------
User input:
--------------------------------------------------------------
$molecule
read
$end

$rem

jobtype sp
method B2PLYP
xc_grid 000099000590
basis aug-cc-pcVQZ
max_scf_cycles 200
thresh 14
scf_convergence 8
mem_total 128000
cc_memory 96000
cc_backend xm
mem_static 1500
symmetry false
sym_ignore true
scf_guess read
unrestricted false
scf_algorithm gdm
n_frozen_core 0
$end

$multipole_field
YY -0.0001
$end


--------------------------------------------------------------
 ----------------------------------------------------------------
             Standard Nuclear Orientation (Angstroms)
    I     Atom           X                Y                Z
 ----------------------------------------------------------------
    1      C       0.0000000000     0.0000000000     0.0000000000
    2      H       1.0790000000     0.0000000000     0.0000000000
    3      H      -0.5395000000    -0.9344000000     0.0000000000
    4      H      -0.5395000000     0.9344000000     0.0000000000
 ----------------------------------------------------------------
 Nuclear Repulsion Energy =     9.6774633775 hartrees
 There are        5 alpha and        4 beta electrons
 Requested basis set is aug-cc-pCVQZ
 There are 71 shells and 247 basis functions

 Total QAlloc Memory Limit 128000 MB
 Mega-Array Size      1467 MB
 MEM_STATIC part      1500 MB

                       Distance Matrix (Angstroms)
             C (  1)   H (  2)   H (  3)
   H (  2)  1.079000
   H (  3)  1.078964  1.868862
   H (  4)  1.078964  1.868862  1.868800
 
 Applying Cartesian multipole field
    Component          Value
    ---------          -----
     (0,2,0)       -1.00000E-04
 Nucleus-field energy     =    -0.0006235817 hartrees
 A cutoff of  1.0D-14 yielded   2556 shell pairs
 There are     31120 function pairs (     47305 Cartesian)
 
 -------------------------------------------------------
 OpenMP Integral Computing Module                       
 Release: version 1.0, May 2013, Q-Chem Inc. Pittsburgh 
 -------------------------------------------------------
 Integral Job Info:
 Integral job number is                      11
 Integral operator is                         1
 short-range coefficients                     0
 long-range coefficients              100000000
 Omega coefficients                           0
 if combine SR and LR in K                    0
 Integral screening is                        0
 Integral computing path is                   2
 max size of driver memory is           3200000
 size of driver memory is               1704330
 size of scratch memory is             18511652
 max col of scratch BK array              50625
 max len of scratch array in speh3         2114
 max len of scratch index in speh4           50
 max int batch size is                      520
 min int batch size is                       52
 fixed nKL is                                52
 max L of basis functions is                  4
 order of int derivative is                   0
 number of shells is                         71
 number of basis is                         304
 number of cartesian basis is               304
 number of contracted shell pairs          2556
 number of primitive shell pairs           4518
 maxK2 (contraction) of shell pair           81
 max number of K2 of shell pair               1
 max number of CS2 of shell pair            364
 max number of PS2 of shell pair            369
 mem total for path MDJ                  671149
 -------------------------------------------------------
 Smallest overlap matrix eigenvalue = 2.78E-05
 Guess MOs from SCF MO coefficient file
 Reading MOs from coefficient file
 Reading MOs from coefficient file
 A restricted hybrid HF-DFT SCF calculation will be
 performed using Geometric Direct Minimization
 Exchange:     0.5300 Hartree-Fock + 0.4700 B88
 Correlation:  0.7300 LYP
 Using Euler-Maclaurin-Lebedev (99,590) quadrature formula
 SCF converges when RMS gradient is below 1.0E-08
Using Q-Chem read-in guess as SCF_GUESS READ specified.

 using 8 threads for integral computing
 -------------------------------------------------------
 OpenMP Integral computing Module                
[...]
 67.566  67.566  98.101  98.099  98.099  98.118  98.118  98.135
 98.161 114.586 114.586 114.900 115.096 115.096 122.742 224.099
225.167 225.167 508.158
 --------------------------------------------------------------
 
          Ground-State Mulliken Net Atomic Charges

     Atom                 Charge (a.u.)
  ----------------------------------------
      1 C                    -1.000628
      2 H                     0.333529
      3 H                     0.333549
      4 H                     0.333549
  ----------------------------------------
  Sum of atomic charges =    -0.000000

 -----------------------------------------------------------------
                    Cartesian Multipole Moments
 -----------------------------------------------------------------
    Charge (ESU x 10^10)
                -0.0000
    Dipole Moment (Debye)
         X      -0.0000      Y       0.0000      Z      -0.0000
       Tot       0.0000
    Quadrupole Moments (Debye-Ang)
        XX      -7.2670     XY      -0.0000     YY      -7.2672
        XZ       0.0000     YZ      -0.0000     ZZ      -9.1634
    Octopole Moments (Debye-Ang^2)
       XXX       0.8951    XXY       0.0000    XYY      -0.8952
       YYY       0.0000    XXZ       0.0000    XYZ      -0.0000
       YYZ      -0.0000    XZZ      -0.0000    YZZ       0.0000
       ZZZ      -0.0000
    Hexadecapole Moments (Debye-Ang^3)
      XXXX     -15.0983   XXXY      -0.0000   XXYY      -5.0327
      XYYY      -0.0000   YYYY     -15.0980   XXXZ       0.0000
      XXYZ       0.0000   XYYZ       0.0000   YYYZ       0.0000
      XXZZ      -4.9764   XYZZ       0.0000   YYZZ      -4.9763
      XZZZ       0.0000   YZZZ      -0.0000   ZZZZ     -12.1716
 -----------------------------------------------------------------
Archival summary:
1\1\n0088.mhg0\SP\ROProcedureUnspecified\BasisUnspecified\13(2)\yhljason\SatOct303:59:332020SatOct303:59:332020\0\\#,ROProcedureUnspecified,BasisUnspecified,\\0,2\C\H,1,1.07896\H,1,1.07896,2,119.998\H,1,1.079,2,120.001,3,-180,0\\\@

 Total job time:  375.06s(wall), 2985.35s(cpu) 
 Sat Oct  3 03:59:33 2020

        *************************************************************
        *                                                           *
        *  Thank you very much for using Q-Chem.  Have a nice day.  *
        *                                                           *
        *************************************************************


 
User input: 8 of 8 
 
Q-Chem Developer Version!
                  Welcome to Q-Chem
     A Quantum Leap Into The Future Of Chemistry


 Q-Chem 5.1, Q-Chem, Inc., Pleasanton, CA (2018)

 Yihan Shao,  Zhengting Gan,  E. Epifanovsky,  A. T. B. Gilbert,  M. Wormit,  
 J. Kussmann,  A. W. Lange,  A. Behn,  Jia Deng,  Xintian Feng,  D. Ghosh,  
 M. Goldey,  P. R. Horn,  L. D. Jacobson,  I. Kaliman,  T. Kus,  A. Landau,  
 Jie Liu,  E. I. Proynov,  R. M. Richard,  R. P. Steele,  E. J. Sundstrom,  
 H. L. Woodcock III,  P. M. Zimmerman,  D. Zuev,  B. Albrecht,  E. Alguire,  
 S. A. Baeppler,  D. Barton,  Z. Benda,  Y. A. Bernard,  E. J. Berquist,  
 K. B. Bravaya,  H. Burton,  D. Casanova,  Chun-Min Chang,  Yunqing Chen,  
 A. Chien,  K. D. Closser,  M. P. Coons,  S. Coriani,  S. Dasgupta,  
 A. L. Dempwolff,  M. Diedenhofen,  Hainam Do,  R. G. Edgar,  Po-Tung Fang,  
 S. Faraji,  S. Fatehi,  Qingguo Feng,  K. D. Fenk,  J. Fosso-Tande,  
 Qinghui Ge,  A. Ghysels,  G. Gidofalvi,  J. Gomes,  J. Gonthier,  A. Gunina,  
 D. Hait,  M. W. D. Hanson-Heine,  P. H. P. Harbach,  A. W. Hauser,  
 J. E. Herr,  E. G. Hohenstein,  Z. C. Holden,  Kerwin Hui,  B. C. Huynh,  
 T.-C. Jagau,  Hyunjun Ji,  B. Kaduk,  K. Khistyaev,  Jaehoon Kim,  
 P. Klunzinger,  K. Koh,  D. Kosenkov,  L. Koulias,  T. Kowalczyk,  
 C. M. Krauter,  A. Kunitsa,  Ka Un Lao,  A. Laurent,  K. V. Lawler,  
 Joonho Lee,  D. Lefrancois,  S. Lehtola,  D. S. Levine,  Yi-Pei Li,  
 You-Sheng Lin,  Fenglai Liu,  E. Livshits,  A. Luenser,  P. Manohar,  
 E. Mansoor,  S. F. Manzer,  Shan-Ping Mao,  Yuezhi Mao,  N. Mardirossian,  
 A. V. Marenich,  T. Markovich,  L. A. Martinez-Martinez,  S. A. Maurer,  
 N. J. Mayhall,  S. C. McKenzie,  J.-M. Mewes,  A. F. Morrison,  
 J. W. Mullinax,  K. Nanda,  T. S. Nguyen-Beck,  R. Olivares-Amaya,  
 J. A. Parkhill,  T. M. Perrine,  F. Plasser,  P. Pokhilko,  S. Prager,  
 A. Prociuk,  E. Ramos,  D. R. Rehn,  F. Rob,  M. Schneider,  N. Sergueev,  
 S. M. Sharada,  S. Sharma,  D. W. Small,  T. Stauch,  T. Stein,  
 Yu-Chuan Su,  A. J. W. Thom,  A. Tkatchenko,  T. Tsuchimochi,  N. M. Tubman,  
 L. Vogt,  M. L. Vidal,  O. Vydrov,  M. A. Watson,  J. Wenzel,  
 M. de Wergifosse,  T. A. Wesolowski,  A. White,  J. Witte,  A. Yamada,  
 Jun Yang,  K. Yao,  S. Yeganeh,  S. R. Yost,  Zhi-Qiang You,  A. Zech,  
 Igor Ying Zhang,  Xing Zhang,  Yan Zhao,  Ying Zhu,  B. R. Brooks,  
 G. K. L. Chan,  C. J. Cramer,  M. S. Gordon,  W. J. Hehre,  A. Klamt,  
 M. W. Schmidt,  C. D. Sherrill,  D. G. Truhlar,  A. Aspuru-Guzik,  R. Baer,  
 A. T. Bell,  N. A. Besley,  Jeng-Da Chai,  A. E. DePrince, III,  
 R. A. DiStasio Jr.,  A. Dreuw,  B. D. Dunietz,  T. R. Furlani,  
 Chao-Ping Hsu,  Yousung Jung,  Jing Kong,  D. S. Lambrecht,  WanZhen Liang,  
 C. Ochsenfeld,  V. A. Rassolov,  L. V. Slipchenko,  J. E. Subotnik,  
 T. Van Voorhis,  J. M. Herbert,  A. I. Krylov,  P. M. W. Gill,  M. Head-Gordon

 Contributors to earlier versions of Q-Chem not listed above: 
 R. D. Adamson,  B. Austin,  J. Baker,  G. J. O. Beran,  K. Brandhorst,  
 S. T. Brown,  E. F. C. Byrd,  A. K. Chakraborty,  C.-L. Cheng,  
 Siu Hung Chien,  D. M. Chipman,  D. L. Crittenden,  H. Dachsel,  
 R. J. Doerksen,  A. D. Dutoi,  L. Fusti-Molnar,  W. A. Goddard III,  
 A. Golubeva-Zadorozhnaya,  S. R. Gwaltney,  G. Hawkins,  A. Heyden,  
 S. Hirata,  G. Kedziora,  F. J. Keil,  C. Kelley,  Jihan Kim,  R. A. King,  
 R. Z. Khaliullin,  P. P. Korambath,  W. Kurlancheek,  A. M. Lee,  M. S. Lee,  
 S. V. Levchenko,  Ching Yeh Lin,  D. Liotard,  R. C. Lochan,  I. Lotan,  
 P. E. Maslen,  N. Nair,  D. P. O'Neill,  D. Neuhauser,  E. Neuscamman,  
 C. M. Oana,  R. Olson,  B. Peters,  R. Peverati,  P. A. Pieniazek,  
 Y. M. Rhee,  J. Ritchie,  M. A. Rohrdanz,  E. Rosta,  N. J. Russ,  
 H. F. Schaefer III,  N. E. Schultz,  N. Shenvi,  A. C. Simmonett,  A. Sodt,  
 D. Stuck,  K. S. Thanthiriwatte,  V. Vanovschi,  Tao Wang,  A. Warshel,  
 C. F. Williams,  Q. Wu,  X. Xu,  W. Zhang

 Please cite Q-Chem as follows:
 Y. Shao et al., Mol. Phys. 113, 184-215 (2015)
 DOI: 10.1080/00268976.2014.952696

 Q-Chem 5.1.1 for Intel X86 EM64T Linux

 Parts of Q-Chem use Armadillo 8.300.2 (Tropical Shenanigans).
 http://arma.sourceforge.net/

 Q-Chem begins on Sat Oct  3 03:59:33 2020  

Host: n0088.mhg0
0

     Scratch files written to /local/scratch/users/yhljason/CH3_B2PLYP_aug-cc-pcVQZ.inp20201003024952//
The previous job contains 0 fragments, simply inherited here
Input Ideriv = 0
Curr. Ideriv = -1
Max.  Ideriv = 0
Input Ideriv = 1
Curr. Ideriv = 0
Max.  Ideriv = 0

Checking the input file for inconsistencies... 	...done.

--------------------------------------------------------------
User input:
--------------------------------------------------------------
$molecule
read
$end

$rem

jobtype sp
method B2PLYP
xc_grid 000099000590
basis aug-cc-pcVQZ
max_scf_cycles 200
thresh 14
scf_convergence 8
mem_total 128000
cc_memory 96000
cc_backend xm
mem_static 1500
symmetry false
sym_ignore true
scf_guess read
unrestricted false
scf_algorithm gdm
n_frozen_core 0
$end

$multipole_field
ZZ -0.0001
$end

--------------------------------------------------------------
 ----------------------------------------------------------------
             Standard Nuclear Orientation (Angstroms)
    I     Atom           X                Y                Z
 ----------------------------------------------------------------
    1      C       0.0000000000     0.0000000000     0.0000000000
    2      H       1.0790000000     0.0000000000     0.0000000000
    3      H      -0.5395000000    -0.9344000000     0.0000000000
    4      H      -0.5395000000     0.9344000000     0.0000000000
 ----------------------------------------------------------------
 Nuclear Repulsion Energy =     9.6774633775 hartrees
 There are        5 alpha and        4 beta electrons
 Requested basis set is aug-cc-pCVQZ
 There are 71 shells and 247 basis functions

 Total QAlloc Memory Limit 128000 MB
 Mega-Array Size      1467 MB
 MEM_STATIC part      1500 MB

                       Distance Matrix (Angstroms)
             C (  1)   H (  2)   H (  3)
   H (  2)  1.079000
   H (  3)  1.078964  1.868862
   H (  4)  1.078964  1.868862  1.868800
 
 Applying Cartesian multipole field
    Component          Value
    ---------          -----
     (0,0,2)       -1.00000E-04
 A cutoff of  1.0D-14 yielded   2556 shell pairs
 There are     31120 function pairs (     47305 Cartesian)
 
 -------------------------------------------------------
 OpenMP Integral Computing Module                       
 Release: version 1.0, May 2013, Q-Chem Inc. Pittsburgh 
 -------------------------------------------------------
 Integral Job Info:
 Integral job number is                      11
 Integral operator is                         1
 short-range coefficients                     0
 long-range coefficients              100000000
 Omega coefficients                           0
 if combine SR and LR in K                    0
 Integral screening is                        0
 Integral computing path is                   2
 max size of driver memory is           3200000
 size of driver memory is               1704330
 size of scratch memory is             18511652
 max col of scratch BK array              50625
 max len of scratch array in speh3         2114
 max len of scratch index in speh4           50
 max int batch size is                      520
 min int batch size is                       52
 fixed nKL is                                52
 max L of basis functions is                  4
 order of int derivative is                   0
 number of shells is                         71
 number of basis is                         304
 number of cartesian basis is               304
 number of contracted shell pairs          2556
 number of primitive shell pairs           4518
 maxK2 (contraction) of shell pair           81
 max number of K2 of shell pair               1
 max number of CS2 of shell pair            364
 max number of PS2 of shell pair            369
 mem total for path MDJ                  671149
 -------------------------------------------------------
 Smallest overlap matrix eigenvalue = 2.78E-05
 Guess MOs from SCF MO coefficient file
 Reading MOs from coefficient file
 Reading MOs from coefficient file
 A restricted hybrid HF-DFT SCF calculation will be
 performed using Geometric Direct Minimization
 Exchange:     0.5300 Hartree-Fock + 0.4700 B88
 Correlation:  0.7300 LYP
 Using Euler-Maclaurin-Lebedev (99,590) quadrature formula
 SCF converges when RMS gradient is below 1.0E-08
Using Q-Chem read-in guess as SCF_GUESS READ specified.

 using 8 threads for integral computing
 -------------------------------------------------------
 OpenMP Integral computing Module                
 Release: version 2.0, May 2017, Q-Chem Inc. Pleasanton 
 -------------------------------------------------------
TIMEINFO->: J/JK contribution 86.61 sec.
 -------------------------------------------------------
 OpenMP BLAS3 based DFT computing Module                
 Release: version 1.0, May 2013, Q-Chem Inc. Pittsburgh 
 -------------------------------------------------------
 ---------------------------------------
  Cycle       Energy        RMS Gradient
 ---------------------------------------
    1     -39.7596953235      1.83E-03 Normal BFGS step
TIMEINFO->: J/JK contribution 86.27 sec.
    2     -39.7596963273      1.43E-03 Normal BFGS step
TIMEINFO->: J/JK contribution 85.99 sec.
    3     -39.7596970713      8.12E-05 Normal BFGS step
TIMEINFO->: J/JK contribution 86.39 sec.
    4     -39.7596970808      4.27E-05 Normal BFGS step
TIMEINFO->: J/JK contribution 87.01 sec.
    5     -39.7596970827      6.04E-06 Normal BFGS step
TIMEINFO->: J/JK contribution 87.11 sec.
    6     -39.7596970827      9.75E-07 Normal BFGS step
TIMEINFO->: J/JK contribution 86.00 sec.
    7     -39.7596970827      5.84E-08 Normal BFGS step
TIMEINFO->: J/JK contribution 83.59 sec.
   GDM::WARNING energy changes are now smaller than effective accuracy.
   GDM::        calculation will continue, but THRESH should be increased
   GDM::        or SCF_CONVERGENCE decreased.
   GDM::        effective_thresh =   5.000000000000000E-011
    8     -39.7596970827      1.78E-08 Normal BFGS step
TIMEINFO->: J/JK contribution 81.01 sec.
    9     -39.7596970827      3.28E-09 Convergence criterion met
 ---------------------------------------
 SCF time:  CPU 991.47 s  wall 124.95 s
 SCF   energy in the final basis set = -39.75969708
 Total energy in the final basis set = -39.75969708
 
 Components of the MP2 correlation energy:
        aaaa  correlation energy =        -0.0083761873 au
        abab  correlation energy =        -0.0584029547 au
        bbbb  correlation energy =        -0.0033089636 au
        non-Brillouin singles    =        -0.0017310649 au

 Total  MP2   correlation energy =                    -0.07181917 au
        MP2         total energy =                   -39.83151625 au
 
 --------------------------------------------------------------
 
                    Orbital Energies (a.u.)
 --------------------------------------------------------------
 
 Alpha MOs
 -- Occupied --
-10.624  -0.793  -0.492  -0.492  -0.292
 -- Virtual --
  0.012   0.034   0.034   0.064   0.097   0.098   0.098   0.145
  0.145   0.161   0.178   0.178   0.231   0.242   0.242   0.250
  0.252   0.274   0.274   0.286   0.327   0.327   0.353   0.353
  0.418   0.418   0.434   0.457   0.523   0.523   0.613   0.614
  0.630   0.630   0.655   0.670   0.686   0.686   0.688   0.688
  0.714   0.728   0.728   0.739   0.826   0.846   0.846   0.847
  0.847   0.936   0.936   1.022   1.022   1.027   1.049   1.049
  1.052   1.114   1.225   1.327   1.327   1.344   1.376   1.385
  1.385   1.475   1.475   1.613   1.613   1.638   1.641   1.667
  1.688   1.688   1.721   1.721   1.764   1.863   1.876   1.892
  1.892   1.949   1.949   1.970   1.970   1.963   1.963   1.973
  2.017   2.045   2.130   2.130   2.153   2.153   2.179   2.179
  2.183   2.327   2.327   2.384   2.445   2.488   2.488   2.496
  2.551   2.658   2.658   2.675   2.675   2.769   2.830   2.830
  2.888   3.102   3.102   3.152   3.339   3.339   3.434   3.434
  3.472   3.609   3.616   3.616   3.705   3.705   3.794   3.956
  3.979   3.996   3.996   4.109   4.109   4.269   4.295   4.295
  4.467   4.617   4.617   4.763   5.354   5.681   5.681   5.748
  5.768   5.878   5.878   5.946   6.080   6.080   6.114   6.114
  6.244   6.395   6.546   6.567   6.567   6.590   6.590   6.590
  6.684   6.684   6.862   6.900   6.900   7.021   7.021   7.051
  7.341   7.341   7.520   7.520   7.795   7.795   7.898   8.134
  8.134   8.178   8.178   8.275   8.291   8.291   8.332   8.543
  8.683   8.849   8.849   8.945   9.004   9.004   9.041   9.041
  9.397   9.418   9.463   9.463   9.602   9.637   9.952   9.952
 10.084  10.087  10.087  10.215  10.382  10.382  10.619  10.655
 11.520  11.520  12.647  12.647  13.975  19.167  20.959  20.959
 26.577  26.577  27.245  27.601  27.602  37.177  66.252  67.563
 67.563  98.088  98.092  98.092  98.106  98.106  98.134  98.161
114.580 114.580 114.893 115.096 115.096 122.736 224.095 225.167
225.167 508.157
 
 Beta MOs
 -- Occupied --
-10.609  -0.740  -0.478  -0.478
 -- Virtual --
  0.018   0.013   0.033   0.033   0.071   0.100   0.098   0.098
  0.146   0.146   0.172   0.181   0.181   0.242   0.241   0.241
  0.249   0.252   0.274   0.274   0.294   0.329   0.329   0.352
  0.352   0.420   0.420   0.463   0.483   0.536   0.536   0.612
  0.621   0.633   0.633   0.660   0.675   0.689   0.689   0.691
  0.691   0.719   0.729   0.729   0.738   0.831   0.845   0.845
  0.863   0.863   0.938   0.938   1.026   1.026   1.027   1.053
  1.053   1.053   1.146   1.250   1.332   1.332   1.343   1.394
  1.388   1.388   1.476   1.476   1.618   1.618   1.640   1.658
  1.674   1.688   1.688   1.721   1.721   1.765   1.864   1.876
  1.899   1.899   1.953   1.953   1.974   1.974   1.994   1.994
  1.975   2.048   2.051   2.134   2.134   2.162   2.162   2.186
  2.186   2.200   2.339   2.339   2.403   2.452   2.497   2.497
  2.533   2.565   2.665   2.665   2.688   2.688   2.769   2.836
  2.836   2.901   3.105   3.105   3.163   3.346   3.346   3.447
  3.447   3.473   3.619   3.629   3.629   3.711   3.711   3.805
  3.960   3.984   4.000   4.000   4.134   4.134   4.286   4.298
  4.298   4.493   4.620   4.620   4.770   5.400   5.696   5.696
  5.782   5.781   5.905   5.905   5.992   6.104   6.104   6.147
  6.147   6.245   6.410   6.579   6.572   6.572   6.592   6.595
  6.595   6.694   6.694   6.867   6.907   6.907   7.029   7.029
  7.060   7.372   7.372   7.535   7.535   7.802   7.802   7.906
  8.140   8.140   8.183   8.183   8.280   8.293   8.293   8.341
  8.543   8.692   8.852   8.852   8.952   9.008   9.008   9.048
  9.048   9.401   9.422   9.464   9.464   9.609   9.637   9.952
  9.953  10.093  10.101  10.102  10.234  10.385  10.385  10.637
 10.659  11.523  11.523  12.649  12.650  13.986  19.212  20.970
 20.970  26.601  26.601  27.272  27.604  27.604  37.195  66.270
 67.566  67.566  98.101  98.100  98.100  98.118  98.118  98.135
 98.162 114.586 114.586 114.900 115.096 115.096 122.742 224.100
225.168 225.168 508.159
 --------------------------------------------------------------
 
          Ground-State Mulliken Net Atomic Charges

     Atom                 Charge (a.u.)
  ----------------------------------------
      1 C                    -0.989803
      2 H                     0.329921
      3 H                     0.329941
      4 H                     0.329941
  ----------------------------------------
  Sum of atomic charges =    -0.000000

 -----------------------------------------------------------------
                    Cartesian Multipole Moments
 -----------------------------------------------------------------
    Charge (ESU x 10^10)
                -0.0000
    Dipole Moment (Debye)
         X      -0.0000      Y       0.0000      Z       0.0000
       Tot       0.0000
    Quadrupole Moments (Debye-Ang)
        XX      -7.2642     XY      -0.0000     YY      -7.2643
        XZ      -0.0000     YZ       0.0000     ZZ      -9.1399
    Octopole Moments (Debye-Ang^2)
       XXX       0.8937    XXY       0.0000    XYY      -0.8937
       YYY       0.0000    XXZ       0.0000    XYZ      -0.0000
       YYZ       0.0000    XZZ      -0.0000    YZZ      -0.0000
       ZZZ       0.0000
    Hexadecapole Moments (Debye-Ang^3)
      XXXX     -15.0821   XXXY      -0.0000   XXYY      -5.0273
      XYYY      -0.0000   YYYY     -15.0818   XXXZ      -0.0000
      XXYZ       0.0000   XYYZ      -0.0000   YYYZ       0.0000
      XXZZ      -4.9506   XYZZ      -0.0000   YYZZ      -4.9505
      XZZZ       0.0000   YZZZ      -0.0000   ZZZZ     -12.0347
 -----------------------------------------------------------------
Archival summary:
1\1\n0088.mhg0\SP\ROProcedureUnspecified\BasisUnspecified\13(2)\yhljason\SatOct304:05:492020SatOct304:05:492020\0\\#,ROProcedureUnspecified,BasisUnspecified,\\0,2\C\H,1,1.07896\H,1,1.07896,2,119.998\H,1,1.079,2,120.001,3,-180,0\\\@

 Total job time:  376.43s(wall), 2996.89s(cpu) 
 Sat Oct  3 04:05:49 2020

        *************************************************************
        *                                                           *
        *  Thank you very much for using Q-Chem.  Have a nice day.  *
        *                                                           *
        *************************************************************


