Q-Chem Developer Version!
                  Welcome to Q-Chem
     A Quantum Leap Into The Future Of Chemistry


 Q-Chem 5.1, Q-Chem, Inc., Pleasanton, CA (2018)

 Yihan Shao,  Zhengting Gan,  E. Epifanovsky,  A. T. B. Gilbert,  M. Wormit,  
 J. Kussmann,  A. W. Lange,  A. Behn,  Jia Deng,  Xintian Feng,  D. Ghosh,  
 M. Goldey,  P. R. Horn,  L. D. Jacobson,  I. Kaliman,  T. Kus,  A. Landau,  
 Jie Liu,  E. I. Proynov,  R. M. Richard,  R. P. Steele,  E. J. Sundstrom,  
 H. L. Woodcock III,  P. M. Zimmerman,  D. Zuev,  B. Albrecht,  E. Alguire,  
 S. A. Baeppler,  D. Barton,  Z. Benda,  Y. A. Bernard,  E. J. Berquist,  
 K. B. Bravaya,  H. Burton,  D. Casanova,  Chun-Min Chang,  Yunqing Chen,  
 A. Chien,  K. D. Closser,  M. P. Coons,  S. Coriani,  S. Dasgupta,  
 A. L. Dempwolff,  M. Diedenhofen,  Hainam Do,  R. G. Edgar,  Po-Tung Fang,  
 S. Faraji,  S. Fatehi,  Qingguo Feng,  K. D. Fenk,  J. Fosso-Tande,  
 Qinghui Ge,  A. Ghysels,  G. Gidofalvi,  J. Gomes,  J. Gonthier,  A. Gunina,  
 D. Hait,  M. W. D. Hanson-Heine,  P. H. P. Harbach,  A. W. Hauser,  
 J. E. Herr,  E. G. Hohenstein,  Z. C. Holden,  Kerwin Hui,  B. C. Huynh,  
 T.-C. Jagau,  Hyunjun Ji,  B. Kaduk,  K. Khistyaev,  Jaehoon Kim,  
 P. Klunzinger,  K. Koh,  D. Kosenkov,  L. Koulias,  T. Kowalczyk,  
 C. M. Krauter,  A. Kunitsa,  Ka Un Lao,  A. Laurent,  K. V. Lawler,  
 Joonho Lee,  D. Lefrancois,  S. Lehtola,  D. S. Levine,  Yi-Pei Li,  
 You-Sheng Lin,  Fenglai Liu,  E. Livshits,  A. Luenser,  P. Manohar,  
 E. Mansoor,  S. F. Manzer,  Shan-Ping Mao,  Yuezhi Mao,  N. Mardirossian,  
 A. V. Marenich,  T. Markovich,  L. A. Martinez-Martinez,  S. A. Maurer,  
 N. J. Mayhall,  S. C. McKenzie,  J.-M. Mewes,  A. F. Morrison,  
 J. W. Mullinax,  K. Nanda,  T. S. Nguyen-Beck,  R. Olivares-Amaya,  
 J. A. Parkhill,  T. M. Perrine,  F. Plasser,  P. Pokhilko,  S. Prager,  
 A. Prociuk,  E. Ramos,  D. R. Rehn,  F. Rob,  M. Schneider,  N. Sergueev,  
 S. M. Sharada,  S. Sharma,  D. W. Small,  T. Stauch,  T. Stein,  
 Yu-Chuan Su,  A. J. W. Thom,  A. Tkatchenko,  T. Tsuchimochi,  N. M. Tubman,  
 L. Vogt,  M. L. Vidal,  O. Vydrov,  M. A. Watson,  J. Wenzel,  
 M. de Wergifosse,  T. A. Wesolowski,  A. White,  J. Witte,  A. Yamada,  
 Jun Yang,  K. Yao,  S. Yeganeh,  S. R. Yost,  Zhi-Qiang You,  A. Zech,  
 Igor Ying Zhang,  Xing Zhang,  Yan Zhao,  Ying Zhu,  B. R. Brooks,  
 G. K. L. Chan,  C. J. Cramer,  M. S. Gordon,  W. J. Hehre,  A. Klamt,  
 M. W. Schmidt,  C. D. Sherrill,  D. G. Truhlar,  A. Aspuru-Guzik,  R. Baer,  
 A. T. Bell,  N. A. Besley,  Jeng-Da Chai,  A. E. DePrince, III,  
 R. A. DiStasio Jr.,  A. Dreuw,  B. D. Dunietz,  T. R. Furlani,  
 Chao-Ping Hsu,  Yousung Jung,  Jing Kong,  D. S. Lambrecht,  WanZhen Liang,  
 C. Ochsenfeld,  V. A. Rassolov,  L. V. Slipchenko,  J. E. Subotnik,  
 T. Van Voorhis,  J. M. Herbert,  A. I. Krylov,  P. M. W. Gill,  M. Head-Gordon

 Contributors to earlier versions of Q-Chem not listed above: 
 R. D. Adamson,  B. Austin,  J. Baker,  G. J. O. Beran,  K. Brandhorst,  
 S. T. Brown,  E. F. C. Byrd,  A. K. Chakraborty,  C.-L. Cheng,  
 Siu Hung Chien,  D. M. Chipman,  D. L. Crittenden,  H. Dachsel,  
 R. J. Doerksen,  A. D. Dutoi,  L. Fusti-Molnar,  W. A. Goddard III,  
 A. Golubeva-Zadorozhnaya,  S. R. Gwaltney,  G. Hawkins,  A. Heyden,  
 S. Hirata,  G. Kedziora,  F. J. Keil,  C. Kelley,  Jihan Kim,  R. A. King,  
 R. Z. Khaliullin,  P. P. Korambath,  W. Kurlancheek,  A. M. Lee,  M. S. Lee,  
 S. V. Levchenko,  Ching Yeh Lin,  D. Liotard,  R. C. Lochan,  I. Lotan,  
 P. E. Maslen,  N. Nair,  D. P. O'Neill,  D. Neuhauser,  E. Neuscamman,  
 C. M. Oana,  R. Olson,  B. Peters,  R. Peverati,  P. A. Pieniazek,  
 Y. M. Rhee,  J. Ritchie,  M. A. Rohrdanz,  E. Rosta,  N. J. Russ,  
 H. F. Schaefer III,  N. E. Schultz,  N. Shenvi,  A. C. Simmonett,  A. Sodt,  
 D. Stuck,  K. S. Thanthiriwatte,  V. Vanovschi,  Tao Wang,  A. Warshel,  
 C. F. Williams,  Q. Wu,  X. Xu,  W. Zhang

 Please cite Q-Chem as follows:
 Y. Shao et al., Mol. Phys. 113, 184-215 (2015)
 DOI: 10.1080/00268976.2014.952696

 Q-Chem 5.1.1 for Intel X86 EM64T Linux

 Parts of Q-Chem use Armadillo 8.300.2 (Tropical Shenanigans).
 http://arma.sourceforge.net/

 Q-Chem begins on Fri Oct  2 23:56:47 2020  

Host: n0086.mhg0
0

     Scratch files written to /local/scratch/users/yhljason/FCN_B2PLYP_aug-cc-pcVQZ.inp20201002235645//
Input Ideriv = 0
Curr. Ideriv = -1
Max.  Ideriv = 0
Analytic post-HF gradients are not available with non-HF exchange
Input Ideriv = 0
Curr. Ideriv = 0
Max.  Ideriv = 0

Checking the input file for inconsistencies... 	...done.

--------------------------------------------------------------
User input:
--------------------------------------------------------------
$molecule
0 1
C1      0.0000  0.0000  0.0000
F2      0.0000  0.0000  -1.2620
N3      0.0000  0.0000  1.1590
$end

$rem
jobtype sp
method B2PLYP
xc_grid 000099000590
basis aug-cc-pcVQZ
max_scf_cycles 200
thresh 14
scf_convergence 8
scf_algorithm gdm
symmetry false
sym_ignore true
unrestricted false
gen_scfman true
internal_stability_iter 15
internal_stability_davidson_iter 200
mem_total 128000
cc_memory 96000
cc_backend xm
mem_static 1500
n_frozen_core 0
$end



--------------------------------------------------------------
 ----------------------------------------------------------------
             Standard Nuclear Orientation (Angstroms)
    I     Atom           X                Y                Z
 ----------------------------------------------------------------
    1      C       0.0000000000     0.0000000000     0.0000000000
    2      F       0.0000000000     0.0000000000    -1.2620000000
    3      N       0.0000000000     0.0000000000     1.1590000000
 ----------------------------------------------------------------
 Nuclear Repulsion Energy =    55.5898885148 hartrees
 There are       11 alpha and       11 beta electrons
 Requested basis set is aug-cc-pCVQZ
 There are 87 shells and 327 basis functions

 Total QAlloc Memory Limit 128000 MB
 Mega-Array Size      1467 MB
 MEM_STATIC part      1500 MB

                       Distance Matrix (Angstroms)
             C (  1)   F (  2)
   F (  2)  1.262000
   N (  3)  1.159000  2.421000
 
 A cutoff of  1.0D-14 yielded   3524 shell pairs
 There are     51188 function pairs (     84158 Cartesian)
 
 -------------------------------------------------------
 OpenMP Integral Computing Module                       
 Release: version 1.0, May 2013, Q-Chem Inc. Pittsburgh 
 -------------------------------------------------------
 Integral Job Info:
 Integral job number is                      11
 Integral operator is                         1
 short-range coefficients                     0
 long-range coefficients              100000000
 Omega coefficients                           0
 if combine SR and LR in K                    0
 Integral screening is                        0
 Integral computing path is                   2
 max size of driver memory is           3200000
 size of driver memory is               1704330
 size of scratch memory is             18511652
 max col of scratch BK array              50625
 max len of scratch array in speh3         2114
 max len of scratch index in speh4           50
 max int batch size is                      520
 min int batch size is                       52
 fixed nKL is                                52
 max L of basis functions is                  4
 order of int derivative is                   0
 number of shells is                         87
 number of basis is                         417
 number of cartesian basis is               417
 number of contracted shell pairs          3524
 number of primitive shell pairs           7911
 maxK2 (contraction) of shell pair           81
 max number of K2 of shell pair               1
 max number of CS2 of shell pair            406
 max number of PS2 of shell pair            792
 mem total for path MDJ                  807544
 -------------------------------------------------------
 Smallest overlap matrix eigenvalue = 3.65E-05

 Scale SEOQF with 1.000000e-01/1.000000e-01/1.000000e-01

 Standard Electronic Orientation quadrupole field applied
 Nucleus-field energy     =    -0.0000000025 hartrees
 Guess from superposition of atomic densities
 Warning:  Energy on first SCF cycle will be non-variational
 SAD guess density has 22.000000 electrons

 -----------------------------------------------------------------------
  General SCF calculation program by
  Eric Jon Sundstrom, Paul Horn, Yuezhi Mao, Dmitri Zuev, Alec White,
  David Stuck, Shaama M.S., Shane Yost, Joonho Lee, David Small,
  Daniel Levine, Susi Lehtola, Hugh Burton, Evgeny Epifanovsky
 -----------------------------------------------------------------------
 Exchange:     0.5300 Hartree-Fock + 0.4700 B88
 Correlation:  0.7300 LYP
 Using Euler-Maclaurin-Lebedev (99,590) quadrature formula
Running Object-Oriented RKS (RHF)
We will preform up to 15 macro iterations over saddle points until a stable solution is found
Energy prior to optimization (guess energy) = -192.319676420628
Begin Timing: Total SCF Calculation
Begin Timing: SCF Single Stationary Point Calculation
begin iterations for algorithm: GDM          
the SCF tolerance is set to 1.00e-08
    1    -192.3196764206      2.63e-01     00000  Descent step
    2    -192.3361480618      1.80e-01     00000  Normal BFGS step
    3    -192.4144247899      1.16e-02     00000  Normal BFGS step
    4    -192.4150277522      7.13e-03     00000  Normal BFGS step
    5    -192.4152558214      1.44e-03     00000  Normal BFGS step
    6    -192.4152754332      2.65e-04     00000  Normal BFGS step
    7    -192.4152764998      6.99e-05     00000  Normal BFGS step
    8    -192.4152765752      1.25e-05     00000  Normal BFGS step
    9    -192.4152765781      1.64e-06     00000  Normal BFGS step
   10    -192.4152765782      2.33e-07     00000  Normal BFGS step
   11    -192.4152765782      1.03e-07     00000  Normal BFGS step
   12    -192.4152765782      1.07e-07     00000  Normal BFGS step
   13    -192.4152765782      1.16e-08     00000  Normal BFGS step
   14    -192.4152765782      2.18e-09     00000 Convergence criterion met
Timing for Single Stationary Point: 497.00s (wall), 3939.55s (cpu)
Begin Timing: Stability
===================================================
Beginning Test for Internal Stability
===================================================
generating davidson guess vectors based on koopmans excitations
    1      4.33e+00     00000 Davidson Iteration
    2      1.14e+00     00000 Davidson Iteration
    3      8.53e-01     00000 Davidson Iteration
    4      5.07e-02     00000 Davidson Iteration
    5      1.09e-01     00000 Davidson Iteration
    6      1.40e-02     00000 Davidson Iteration
    7      1.66e-02     00000 Davidson Iteration
    8      1.84e-03     00000 Davidson Iteration
    9      4.90e-04     00000 Davidson Iteration
   10      6.59e-04     00000 Davidson Iteration
   11      1.54e-03     00000 Davidson Iteration
   12      2.00e-04     00000 Davidson Iteration
   13      3.95e-05     00000 Davidson Iteration
   14      8.52e-05     00000 Davidson Iteration
   15      1.53e-03     00000 Davidson Iteration
   16      6.33e-04     00000 Davidson Iteration
   17      1.60e-04     00000 Davidson Iteration
   18      5.36e-05     00000 Davidson Converged
converged_eigenvalues
   1.2203
   1.2203
   1.1103
   1.1103
Threshold for negative eigenvalues: -1.0e-05
solution was a local minimum (stable)
===================================================
End Test for Internal Stability
===================================================
Our SCF solution is stable!
Timing for Total SCF: 1340.00s (wall), 10645.63s (cpu)
 Total energy in the final basis set =     -192.4152765782
    ==================================================
              The end of Object-Oriented SCFman       
    ==================================================
 
 Components of the MP2 correlation energy:
        aaaa  correlation energy =        -0.0297525006 au
        abab  correlation energy =        -0.1978787528 au
        bbbb  correlation energy =        -0.0297525006 au
        non-Brillouin singles    =        -0.0000000000 au

 Total  MP2   correlation energy =                    -0.25738375 au
        MP2         total energy =                  -192.67266033 au
 
 --------------------------------------------------------------
 
                    Orbital Energies (a.u.)
 --------------------------------------------------------------
 
 Alpha MOs
 -- Occupied --
-25.495 -14.880 -10.775  -1.530  -1.076  -0.797  -0.678  -0.678
 -0.489  -0.423  -0.423
 -- Virtual --
 -0.000   0.048   0.048   0.048   0.087   0.087   0.093   0.120
  0.120   0.120   0.176   0.178   0.178   0.183   0.183   0.204
  0.276   0.294   0.294   0.304   0.348   0.348   0.348   0.348
  0.413   0.426   0.426   0.465   0.538   0.580   0.580   0.667
  0.667   0.677   0.682   0.682   0.714   0.714   0.744   0.744
  0.763   0.825   0.862   0.862   0.889   0.889   0.910   0.910
  0.920   0.983   1.047   1.047   1.093   1.093   1.128   1.128
  1.184   1.270   1.270   1.279   1.406   1.486   1.486   1.506
  1.577   1.577   1.691   1.751   1.751   1.767   1.767   1.792
  1.792   1.881   1.881   1.924   1.924   1.975   1.975   1.996
  2.074   2.099   2.099   2.180   2.180   2.226   2.226   2.345
  2.396   2.396   2.469   2.469   2.599   2.646   2.646   2.655
  2.655   2.843   2.843   2.866   2.908   2.908   2.976   2.998
  2.998   3.026   3.026   3.062   3.062   3.072   3.176   3.176
  3.339   3.425   3.425   3.565   3.565   3.728   3.728   3.865
  4.024   4.024   4.187   4.266   4.266   4.326   4.326   4.495
  4.495   4.502   4.641   4.641   4.780   4.882   4.918   4.918
  4.932   4.932   5.058   5.318   5.318   5.364   5.364   5.485
  5.485   5.609   5.609   5.666   5.694   5.694   5.764   5.764
  5.857   5.857   5.939   5.939   6.124   6.203   6.203   6.364
  6.364   6.419   6.419   6.481   6.541   6.541   6.778   6.778
  6.914   7.080   7.515   7.515   7.723   7.723   7.895   7.895
  8.049   8.049   8.396   8.396   8.464   8.464   8.464   8.773
  8.831   8.831   8.879   9.016   9.016   9.359   9.359   9.460
  9.690   9.690   9.981   9.981  10.404  10.404  11.059  11.597
 12.042  12.042  12.572  12.572  13.077  13.219  13.219  13.334
 13.465  13.465  13.675  13.675  13.750  13.750  13.912  14.940
 15.365  15.365  15.648  15.648  16.365  16.365  16.453  16.453
 16.692  17.100  17.100  18.073  19.092  19.092  20.800  22.485
 26.249  26.249  26.413  26.413  26.952  26.952  27.641  28.424
 36.662  36.662  37.416  37.416  37.561  38.084  41.583  41.583
 42.453  49.339  59.640  59.640  59.898  59.898  60.633  66.166
 66.166  67.745  79.535  91.288  91.288  92.431  97.191  97.191
 97.232  97.232  97.366  97.366  97.382  97.896  97.896  97.908
 97.908  97.976  97.976  98.109 111.367 111.367 111.397 111.397
111.440 111.440 111.494 114.319 114.319 114.692 114.692 115.381
123.082 144.833 144.833 145.521 155.905 155.905 156.316 156.316
156.633 165.361 223.991 223.991 225.325 249.795 249.795 249.931
249.931 250.333 269.293 308.204 308.204 309.155 492.092 492.092
492.647 508.290 685.2641112.721
 --------------------------------------------------------------
 
          Ground-State Mulliken Net Atomic Charges

     Atom                 Charge (a.u.)
  ----------------------------------------
      1 C                     0.756217
      2 F                    -0.288123
      3 N                    -0.468095
  ----------------------------------------
  Sum of atomic charges =     0.000000

 -----------------------------------------------------------------
                    Cartesian Multipole Moments
 -----------------------------------------------------------------
    Charge (ESU x 10^10)
                 0.0000
    Dipole Moment (Debye)
         X      -0.0000      Y       0.0000      Z      -2.2911
       Tot       2.2911
    Quadrupole Moments (Debye-Ang)
        XX     -15.2732     XY      -0.0000     YY     -15.2732
        XZ      -0.0000     YZ      -0.0000     ZZ     -18.6496
    Octopole Moments (Debye-Ang^2)
       XXX      -0.0000    XXY      -0.0000    XYY      -0.0000
       YYY      -0.0000    XXZ      -1.5461    XYZ      -0.0000
       YYZ      -1.5461    XZZ      -0.0000    YZZ       0.0000
       ZZZ      -7.2036
    Hexadecapole Moments (Debye-Ang^3)
      XXXX     -13.4606   XXXY       0.0000   XXYY      -4.4869
      XYYY      -0.0000   YYYY     -13.4606   XXXZ      -0.0000
      XXYZ      -0.0000   XYYZ      -0.0000   YYYZ      -0.0000
      XXZZ     -20.0919   XYZZ      -0.0000   YYZZ     -20.0919
      XZZZ      -0.0000   YZZZ      -0.0000   ZZZZ    -111.4008
 -----------------------------------------------------------------
Archival summary:
1\1\n0086.mhg0\SP\ProcedureUnspecified\BasisUnspecified\111\yhljason\SatOct300:26:122020SatOct300:26:122020\0\\#,ProcedureUnspecified,BasisUnspecified,\\0,1\C\N,1,1.159\F,1,1.262,2,180\\\@

 Total job time:  1765.53s(wall), 14000.98s(cpu) 
 Sat Oct  3 00:26:12 2020

        *************************************************************
        *                                                           *
        *  Thank you very much for using Q-Chem.  Have a nice day.  *
        *                                                           *
        *************************************************************


 
User input: 2 of 83 of 8 
 
Q-Chem Developer Version!
                  Welcome to Q-Chem
     A Quantum Leap Into The Future Of Chemistry


 Q-Chem 5.1, Q-Chem, Inc., Pleasanton, CA (2018)

 Yihan Shao,  Zhengting Gan,  E. Epifanovsky,  A. T. B. Gilbert,  M. Wormit,  
 J. Kussmann,  A. W. Lange,  A. Behn,  Jia Deng,  Xintian Feng,  D. Ghosh,  
 M. Goldey,  P. R. Horn,  L. D. Jacobson,  I. Kaliman,  T. Kus,  A. Landau,  
 Jie Liu,  E. I. Proynov,  R. M. Richard,  R. P. Steele,  E. J. Sundstrom,  
 H. L. Woodcock III,  P. M. Zimmerman,  D. Zuev,  B. Albrecht,  E. Alguire,  
 S. A. Baeppler,  D. Barton,  Z. Benda,  Y. A. Bernard,  E. J. Berquist,  
 K. B. Bravaya,  H. Burton,  D. Casanova,  Chun-Min Chang,  Yunqing Chen,  
 A. Chien,  K. D. Closser,  M. P. Coons,  S. Coriani,  S. Dasgupta,  
 A. L. Dempwolff,  M. Diedenhofen,  Hainam Do,  R. G. Edgar,  Po-Tung Fang,  
 S. Faraji,  S. Fatehi,  Qingguo Feng,  K. D. Fenk,  J. Fosso-Tande,  
 Qinghui Ge,  A. Ghysels,  G. Gidofalvi,  J. Gomes,  J. Gonthier,  A. Gunina,  
 D. Hait,  M. W. D. Hanson-Heine,  P. H. P. Harbach,  A. W. Hauser,  
 J. E. Herr,  E. G. Hohenstein,  Z. C. Holden,  Kerwin Hui,  B. C. Huynh,  
 T.-C. Jagau,  Hyunjun Ji,  B. Kaduk,  K. Khistyaev,  Jaehoon Kim,  
 P. Klunzinger,  K. Koh,  D. Kosenkov,  L. Koulias,  T. Kowalczyk,  
 C. M. Krauter,  A. Kunitsa,  Ka Un Lao,  A. Laurent,  K. V. Lawler,  
 Joonho Lee,  D. Lefrancois,  S. Lehtola,  D. S. Levine,  Yi-Pei Li,  
 You-Sheng Lin,  Fenglai Liu,  E. Livshits,  A. Luenser,  P. Manohar,  
 E. Mansoor,  S. F. Manzer,  Shan-Ping Mao,  Yuezhi Mao,  N. Mardirossian,  
 A. V. Marenich,  T. Markovich,  L. A. Martinez-Martinez,  S. A. Maurer,  
 N. J. Mayhall,  S. C. McKenzie,  J.-M. Mewes,  A. F. Morrison,  
 J. W. Mullinax,  K. Nanda,  T. S. Nguyen-Beck,  R. Olivares-Amaya,  
 J. A. Parkhill,  T. M. Perrine,  F. Plasser,  P. Pokhilko,  S. Prager,  
 A. Prociuk,  E. Ramos,  D. R. Rehn,  F. Rob,  M. Schneider,  N. Sergueev,  
 S. M. Sharada,  S. Sharma,  D. W. Small,  T. Stauch,  T. Stein,  
 Yu-Chuan Su,  A. J. W. Thom,  A. Tkatchenko,  T. Tsuchimochi,  N. M. Tubman,  
 L. Vogt,  M. L. Vidal,  O. Vydrov,  M. A. Watson,  J. Wenzel,  
 M. de Wergifosse,  T. A. Wesolowski,  A. White,  J. Witte,  A. Yamada,  
 Jun Yang,  K. Yao,  S. Yeganeh,  S. R. Yost,  Zhi-Qiang You,  A. Zech,  
 Igor Ying Zhang,  Xing Zhang,  Yan Zhao,  Ying Zhu,  B. R. Brooks,  
 G. K. L. Chan,  C. J. Cramer,  M. S. Gordon,  W. J. Hehre,  A. Klamt,  
 M. W. Schmidt,  C. D. Sherrill,  D. G. Truhlar,  A. Aspuru-Guzik,  R. Baer,  
 A. T. Bell,  N. A. Besley,  Jeng-Da Chai,  A. E. DePrince, III,  
 R. A. DiStasio Jr.,  A. Dreuw,  B. D. Dunietz,  T. R. Furlani,  
 Chao-Ping Hsu,  Yousung Jung,  Jing Kong,  D. S. Lambrecht,  WanZhen Liang,  
 C. Ochsenfeld,  V. A. Rassolov,  L. V. Slipchenko,  J. E. Subotnik,  
 T. Van Voorhis,  J. M. Herbert,  A. I. Krylov,  P. M. W. Gill,  M. Head-Gordon

 Contributors to earlier versions of Q-Chem not listed above: 
 R. D. Adamson,  B. Austin,  J. Baker,  G. J. O. Beran,  K. Brandhorst,  
 S. T. Brown,  E. F. C. Byrd,  A. K. Chakraborty,  C.-L. Cheng,  
 Siu Hung Chien,  D. M. Chipman,  D. L. Crittenden,  H. Dachsel,  
 R. J. Doerksen,  A. D. Dutoi,  L. Fusti-Molnar,  W. A. Goddard III,  
 A. Golubeva-Zadorozhnaya,  S. R. Gwaltney,  G. Hawkins,  A. Heyden,  
 S. Hirata,  G. Kedziora,  F. J. Keil,  C. Kelley,  Jihan Kim,  R. A. King,  
 R. Z. Khaliullin,  P. P. Korambath,  W. Kurlancheek,  A. M. Lee,  M. S. Lee,  
 S. V. Levchenko,  Ching Yeh Lin,  D. Liotard,  R. C. Lochan,  I. Lotan,  
 P. E. Maslen,  N. Nair,  D. P. O'Neill,  D. Neuhauser,  E. Neuscamman,  
 C. M. Oana,  R. Olson,  B. Peters,  R. Peverati,  P. A. Pieniazek,  
 Y. M. Rhee,  J. Ritchie,  M. A. Rohrdanz,  E. Rosta,  N. J. Russ,  
 H. F. Schaefer III,  N. E. Schultz,  N. Shenvi,  A. C. Simmonett,  A. Sodt,  
 D. Stuck,  K. S. Thanthiriwatte,  V. Vanovschi,  Tao Wang,  A. Warshel,  
 C. F. Williams,  Q. Wu,  X. Xu,  W. Zhang

 Please cite Q-Chem as follows:
 Y. Shao et al., Mol. Phys. 113, 184-215 (2015)
 DOI: 10.1080/00268976.2014.952696

 Q-Chem 5.1.1 for Intel X86 EM64T Linux

 Parts of Q-Chem use Armadillo 8.300.2 (Tropical Shenanigans).
 http://arma.sourceforge.net/

 Q-Chem begins on Sat Oct  3 00:26:45 2020  

Host: n0086.mhg0
0

     Scratch files written to /local/scratch/users/yhljason/FCN_B2PLYP_aug-cc-pcVQZ.inp20201002235645//
The previous job contains 0 fragments, simply inherited here
Input Ideriv = 0
Curr. Ideriv = -1
Max.  Ideriv = 0
Analytic post-HF gradients are not available with non-HF exchange
Input Ideriv = 0
Curr. Ideriv = 0
Max.  Ideriv = 0

Checking the input file for inconsistencies... 	...done.

--------------------------------------------------------------
User input:
--------------------------------------------------------------
$molecule
read
$end

$rem

jobtype sp
method B2PLYP
xc_grid 000099000590
basis aug-cc-pcVQZ
max_scf_cycles 200
thresh 14
scf_convergence 8
mem_total 128000
cc_memory 96000
cc_backend xm
mem_static 1500
symmetry false
sym_ignore true
scf_guess read
unrestricted false
scf_algorithm gdm
n_frozen_core 0
$end

$multipole_field
XX 0.0001
$end


--------------------------------------------------------------
 ----------------------------------------------------------------
             Standard Nuclear Orientation (Angstroms)
    I     Atom           X                Y                Z
 ----------------------------------------------------------------
    1      C       0.0000000000     0.0000000000     0.0000000000
    2      F       0.0000000000     0.0000000000    -1.2620000000
    3      N       0.0000000000     0.0000000000     1.1590000000
 ----------------------------------------------------------------
 Nuclear Repulsion Energy =    55.5898885148 hartrees
 There are       11 alpha and       11 beta electrons
 Requested basis set is aug-cc-pCVQZ
 There are 87 shells and 327 basis functions

 Total QAlloc Memory Limit 128000 MB
 Mega-Array Size      1467 MB
 MEM_STATIC part      1500 MB

                       Distance Matrix (Angstroms)
             C (  1)   F (  2)
   F (  2)  1.262000
   N (  3)  1.159000  2.421000
 
 Applying Cartesian multipole field
    Component          Value
    ---------          -----
     (2,0,0)        1.00000E-04
 A cutoff of  1.0D-14 yielded   3524 shell pairs
 There are     51188 function pairs (     84158 Cartesian)
 
 -------------------------------------------------------
 OpenMP Integral Computing Module                       
 Release: version 1.0, May 2013, Q-Chem Inc. Pittsburgh 
 -------------------------------------------------------
 Integral Job Info:
 Integral job number is                      11
 Integral operator is                         1
 short-range coefficients                     0
 long-range coefficients              100000000
 Omega coefficients                           0
 if combine SR and LR in K                    0
 Integral screening is                        0
 Integral computing path is                   2
 max size of driver memory is           3200000
 size of driver memory is               1704330
 size of scratch memory is             18511652
 max col of scratch BK array              50625
 max len of scratch array in speh3         2114
 max len of scratch index in speh4           50
 max int batch size is                      520
 min int batch size is                       52
 fixed nKL is                                52
 max L of basis functions is                  4
 order of int derivative is                   0
 number of shells is                         87
 number of basis is                         417
 number of cartesian basis is               417
 number of contracted shell pairs          3524
 number of primitive shell pairs           7911
 maxK2 (contraction) of shell pair           81
 max number of K2 of shell pair               1
 max number of CS2 of shell pair            406
 max number of PS2 of shell pair            792
 mem total for path MDJ                  807544
 -------------------------------------------------------
 Smallest overlap matrix eigenvalue = 3.65E-05
 Guess MOs from SCF MO coefficient file

 -----------------------------------------------------------------------
  General SCF calculation program by
  Eric Jon Sundstrom, Paul Horn, Yuezhi Mao, Dmitri Zuev, Alec White,
  David Stuck, Shaama M.S., Shane Yost, Joonho Lee, David Small,
  Daniel Levine, Susi Lehtola, Hugh Burton, Evgeny Epifanovsky
 -----------------------------------------------------------------------
 Exchange:     0.5300 Hartree-Fock + 0.4700 B88
 Correlation:  0.7300 LYP
 Using Euler-Maclaurin-Lebedev (99,590) quadrature formula
 using 8 threads for integral computing
 -------------------------------------------------------
 OpenMP Integral computing Module                
 Release: version 2.0, May 2017, Q-Chem Inc. Pleasanton 
 -------------------------------------------------------
 -------------------------------------------------------
 OpenMP BLAS3 based DFT computing Module                
 Release: version 1.0, May 2013, Q-Chem Inc. Pittsburgh 
 -------------------------------------------------------
 A restricted SCF calculation will be
 performed using GDM
 SCF converges when RMS gradient is below 1.0e-08
 ---------------------------------------
  Cycle       Energy        RMS Gradient
 ---------------------------------------
    1    -192.4164121055      2.20e-04   Normal BFGS step
    2    -192.4164123473      5.15e-05   Normal BFGS step
    3    -192.4164123664      5.13e-05   Normal BFGS step
    4    -192.4164123722      2.84e-05   Normal BFGS step
    5    -192.4164123745      5.78e-06   Normal BFGS step
    6    -192.4164123747      4.11e-06   Normal BFGS step
    7    -192.4164123748      8.30e-07   Normal BFGS step
    8    -192.4164123748      1.16e-07   Normal BFGS step
    9    -192.4164123748      3.73e-08   Normal BFGS step
   10    -192.4164123748      1.30e-08   Normal BFGS step
   11    -192.4164123748      1.74e-09  Convergence criterion met
 ---------------------------------------
 SCF time:   CPU 3018.55s  wall 380.00s 
 SCF   energy in the final basis set =     -192.4164123748
 Total energy in the final basis set =     -192.4164123748
 
 Components of the MP2 correlation energy:
        aaaa  correlation energy =        -0.0297528249 au
        abab  correlation energy =        -0.1978771631 au
        bbbb  correlation energy =        -0.0297528249 au
        non-Brillouin singles    =        -0.0000000000 au

 Total  MP2   correlation energy =                    -0.25738281 au
        MP2         total energy =                  -192.67379519 au
 
 --------------------------------------------------------------
 
                    Orbital Energies (a.u.)
 --------------------------------------------------------------
 
 Alpha MOs
 -- Occupied --
-25.495 -14.880 -10.776  -1.530  -1.076  -0.797  -0.678  -0.678
 -0.489  -0.424  -0.423
 -- Virtual --
 -0.001   0.045   0.047   0.047   0.086   0.087   0.093   0.119
  0.119   0.120   0.175   0.177   0.177   0.180   0.182   0.203
  0.275   0.292   0.293   0.303   0.347   0.347   0.347   0.348
  0.412   0.425   0.426   0.464   0.537   0.579   0.579   0.667
  0.667   0.676   0.681   0.682   0.713   0.713   0.743   0.743
  0.763   0.825   0.861   0.861   0.889   0.889   0.909   0.909
  0.920   0.982   1.046   1.046   1.093   1.093   1.128   1.128
  1.184   1.269   1.270   1.279   1.405   1.486   1.486   1.506
  1.577   1.577   1.690   1.751   1.751   1.767   1.767   1.792
  1.792   1.880   1.880   1.924   1.924   1.975   1.975   1.995
  2.074   2.099   2.099   2.180   2.180   2.225   2.226   2.345
  2.395   2.395   2.469   2.469   2.599   2.645   2.645   2.655
  2.655   2.843   2.843   2.866   2.908   2.908   2.976   2.997
  2.997   3.026   3.026   3.062   3.062   3.071   3.176   3.176
  3.339   3.425   3.425   3.565   3.565   3.728   3.728   3.864
  4.023   4.023   4.186   4.266   4.266   4.325   4.325   4.495
  4.495   4.502   4.641   4.641   4.780   4.882   4.918   4.918
  4.932   4.932   5.057   5.318   5.318   5.364   5.364   5.484
  5.484   5.609   5.609   5.666   5.693   5.693   5.764   5.764
  5.857   5.857   5.938   5.938   6.124   6.203   6.203   6.364
  6.364   6.419   6.419   6.480   6.541   6.541   6.778   6.778
  6.914   7.080   7.515   7.515   7.722   7.722   7.894   7.894
  8.049   8.049   8.396   8.396   8.464   8.464   8.464   8.773
  8.831   8.831   8.879   9.016   9.016   9.359   9.359   9.460
  9.690   9.690   9.981   9.981  10.404  10.404  11.059  11.596
 12.041  12.041  12.572  12.572  13.077  13.219  13.219  13.334
 13.464  13.464  13.674  13.674  13.749  13.750  13.912  14.939
 15.364  15.364  15.648  15.648  16.365  16.365  16.453  16.453
 16.692  17.100  17.100  18.072  19.092  19.092  20.800  22.485
 26.249  26.249  26.413  26.413  26.951  26.951  27.641  28.424
 36.662  36.662  37.415  37.415  37.561  38.083  41.583  41.583
 42.452  49.339  59.640  59.640  59.898  59.898  60.633  66.165
 66.165  67.745  79.535  91.288  91.288  92.430  97.190  97.190
 97.232  97.232  97.366  97.366  97.382  97.896  97.896  97.908
 97.908  97.976  97.976  98.109 111.367 111.367 111.397 111.397
111.440 111.440 111.494 114.319 114.319 114.692 114.692 115.380
123.081 144.833 144.833 145.521 155.905 155.905 156.316 156.316
156.632 165.360 223.991 223.991 225.325 249.795 249.795 249.930
249.930 250.333 269.293 308.204 308.204 309.155 492.091 492.091
492.646 508.289 685.2641112.721
 --------------------------------------------------------------
 
          Ground-State Mulliken Net Atomic Charges

     Atom                 Charge (a.u.)
  ----------------------------------------
      1 C                     0.755992
      2 F                    -0.288028
      3 N                    -0.467963
  ----------------------------------------
  Sum of atomic charges =    -0.000000

 -----------------------------------------------------------------
                    Cartesian Multipole Moments
 -----------------------------------------------------------------
    Charge (ESU x 10^10)
                -0.0000
    Dipole Moment (Debye)
         X       0.0000      Y       0.0000      Z      -2.2918
       Tot       2.2918
    Quadrupole Moments (Debye-Ang)
        XX     -15.2805     XY       0.0000     YY     -15.2748
        XZ       0.0000     YZ       0.0000     ZZ     -18.6500
    Octopole Moments (Debye-Ang^2)
       XXX       0.0000    XXY       0.0000    XYY       0.0000
       YYY       0.0000    XXZ      -1.5502    XYZ       0.0000
       YYZ      -1.5473    XZZ       0.0000    YZZ       0.0000
       ZZZ      -7.2062
    Hexadecapole Moments (Debye-Ang^3)
      XXXX     -13.4868   XXXY      -0.0000   XXYY      -4.4923
      XYYY       0.0000   YYYY     -13.4668   XXXZ       0.0000
      XXYZ       0.0000   XYYZ       0.0000   YYYZ       0.0000
      XXZZ     -20.1030   XYZZ       0.0000   YYZZ     -20.0948
      XZZZ       0.0000   YZZZ       0.0000   ZZZZ    -111.4068
 -----------------------------------------------------------------
Archival summary:
1\1\n0086.mhg0\SP\ProcedureUnspecified\BasisUnspecified\111\yhljason\SatOct300:39:502020SatOct300:39:502020\0\\#,ProcedureUnspecified,BasisUnspecified,\\0,1\C\N,1,1.159\F,1,1.262,2,180\\\@

 Total job time:  784.20s(wall), 6206.02s(cpu) 
 Sat Oct  3 00:39:50 2020

        *************************************************************
        *                                                           *
        *  Thank you very much for using Q-Chem.  Have a nice day.  *
        *                                                           *
        *************************************************************


 
User input: 4 of 8 
 
Q-Chem Developer Version!
                  Welcome to Q-Chem
     A Quantum Leap Into The Future Of Chemistry


 Q-Chem 5.1, Q-Chem, Inc., Pleasanton, CA (2018)

 Yihan Shao,  Zhengting Gan,  E. Epifanovsky,  A. T. B. Gilbert,  M. Wormit,  
 J. Kussmann,  A. W. Lange,  A. Behn,  Jia Deng,  Xintian Feng,  D. Ghosh,  
 M. Goldey,  P. R. Horn,  L. D. Jacobson,  I. Kaliman,  T. Kus,  A. Landau,  
 Jie Liu,  E. I. Proynov,  R. M. Richard,  R. P. Steele,  E. J. Sundstrom,  
 H. L. Woodcock III,  P. M. Zimmerman,  D. Zuev,  B. Albrecht,  E. Alguire,  
 S. A. Baeppler,  D. Barton,  Z. Benda,  Y. A. Bernard,  E. J. Berquist,  
 K. B. Bravaya,  H. Burton,  D. Casanova,  Chun-Min Chang,  Yunqing Chen,  
 A. Chien,  K. D. Closser,  M. P. Coons,  S. Coriani,  S. Dasgupta,  
 A. L. Dempwolff,  M. Diedenhofen,  Hainam Do,  R. G. Edgar,  Po-Tung Fang,  
 S. Faraji,  S. Fatehi,  Qingguo Feng,  K. D. Fenk,  J. Fosso-Tande,  
 Qinghui Ge,  A. Ghysels,  G. Gidofalvi,  J. Gomes,  J. Gonthier,  A. Gunina,  
 D. Hait,  M. W. D. Hanson-Heine,  P. H. P. Harbach,  A. W. Hauser,  
 J. E. Herr,  E. G. Hohenstein,  Z. C. Holden,  Kerwin Hui,  B. C. Huynh,  
 T.-C. Jagau,  Hyunjun Ji,  B. Kaduk,  K. Khistyaev,  Jaehoon Kim,  
 P. Klunzinger,  K. Koh,  D. Kosenkov,  L. Koulias,  T. Kowalczyk,  
 C. M. Krauter,  A. Kunitsa,  Ka Un Lao,  A. Laurent,  K. V. Lawler,  
 Joonho Lee,  D. Lefrancois,  S. Lehtola,  D. S. Levine,  Yi-Pei Li,  
 You-Sheng Lin,  Fenglai Liu,  E. Livshits,  A. Luenser,  P. Manohar,  
 E. Mansoor,  S. F. Manzer,  Shan-Ping Mao,  Yuezhi Mao,  N. Mardirossian,  
 A. V. Marenich,  T. Markovich,  L. A. Martinez-Martinez,  S. A. Maurer,  
 N. J. Mayhall,  S. C. McKenzie,  J.-M. Mewes,  A. F. Morrison,  
 J. W. Mullinax,  K. Nanda,  T. S. Nguyen-Beck,  R. Olivares-Amaya,  
 J. A. Parkhill,  T. M. Perrine,  F. Plasser,  P. Pokhilko,  S. Prager,  
 A. Prociuk,  E. Ramos,  D. R. Rehn,  F. Rob,  M. Schneider,  N. Sergueev,  
 S. M. Sharada,  S. Sharma,  D. W. Small,  T. Stauch,  T. Stein,  
 Yu-Chuan Su,  A. J. W. Thom,  A. Tkatchenko,  T. Tsuchimochi,  N. M. Tubman,  
 L. Vogt,  M. L. Vidal,  O. Vydrov,  M. A. Watson,  J. Wenzel,  
 M. de Wergifosse,  T. A. Wesolowski,  A. White,  J. Witte,  A. Yamada,  
 Jun Yang,  K. Yao,  S. Yeganeh,  S. R. Yost,  Zhi-Qiang You,  A. Zech,  
 Igor Ying Zhang,  Xing Zhang,  Yan Zhao,  Ying Zhu,  B. R. Brooks,  
 G. K. L. Chan,  C. J. Cramer,  M. S. Gordon,  W. J. Hehre,  A. Klamt,  
 M. W. Schmidt,  C. D. Sherrill,  D. G. Truhlar,  A. Aspuru-Guzik,  R. Baer,  
 A. T. Bell,  N. A. Besley,  Jeng-Da Chai,  A. E. DePrince, III,  
 R. A. DiStasio Jr.,  A. Dreuw,  B. D. Dunietz,  T. R. Furlani,  
 Chao-Ping Hsu,  Yousung Jung,  Jing Kong,  D. S. Lambrecht,  WanZhen Liang,  
 C. Ochsenfeld,  V. A. Rassolov,  L. V. Slipchenko,  J. E. Subotnik,  
 T. Van Voorhis,  J. M. Herbert,  A. I. Krylov,  P. M. W. Gill,  M. Head-Gordon

 Contributors to earlier versions of Q-Chem not listed above: 
 R. D. Adamson,  B. Austin,  J. Baker,  G. J. O. Beran,  K. Brandhorst,  
 S. T. Brown,  E. F. C. Byrd,  A. K. Chakraborty,  C.-L. Cheng,  
 Siu Hung Chien,  D. M. Chipman,  D. L. Crittenden,  H. Dachsel,  
 R. J. Doerksen,  A. D. Dutoi,  L. Fusti-Molnar,  W. A. Goddard III,  
 A. Golubeva-Zadorozhnaya,  S. R. Gwaltney,  G. Hawkins,  A. Heyden,  
 S. Hirata,  G. Kedziora,  F. J. Keil,  C. Kelley,  Jihan Kim,  R. A. King,  
 R. Z. Khaliullin,  P. P. Korambath,  W. Kurlancheek,  A. M. Lee,  M. S. Lee,  
 S. V. Levchenko,  Ching Yeh Lin,  D. Liotard,  R. C. Lochan,  I. Lotan,  
 P. E. Maslen,  N. Nair,  D. P. O'Neill,  D. Neuhauser,  E. Neuscamman,  
 C. M. Oana,  R. Olson,  B. Peters,  R. Peverati,  P. A. Pieniazek,  
 Y. M. Rhee,  J. Ritchie,  M. A. Rohrdanz,  E. Rosta,  N. J. Russ,  
 H. F. Schaefer III,  N. E. Schultz,  N. Shenvi,  A. C. Simmonett,  A. Sodt,  
 D. Stuck,  K. S. Thanthiriwatte,  V. Vanovschi,  Tao Wang,  A. Warshel,  
 C. F. Williams,  Q. Wu,  X. Xu,  W. Zhang

 Please cite Q-Chem as follows:
 Y. Shao et al., Mol. Phys. 113, 184-215 (2015)
 DOI: 10.1080/00268976.2014.952696

 Q-Chem 5.1.1 for Intel X86 EM64T Linux

 Parts of Q-Chem use Armadillo 8.300.2 (Tropical Shenanigans).
 http://arma.sourceforge.net/

 Q-Chem begins on Sat Oct  3 00:39:50 2020  

Host: n0086.mhg0
0

     Scratch files written to /local/scratch/users/yhljason/FCN_B2PLYP_aug-cc-pcVQZ.inp20201002235645//
The previous job contains 0 fragments, simply inherited here
Input Ideriv = 0
Curr. Ideriv = -1
Max.  Ideriv = 0
Analytic post-HF gradients are not available with non-HF exchange
Input Ideriv = 0
Curr. Ideriv = 0
Max.  Ideriv = 0

Checking the input file for inconsistencies... 	...done.

--------------------------------------------------------------
User input:
--------------------------------------------------------------
$molecule
read
$end

$rem

jobtype sp
method B2PLYP
xc_grid 000099000590
basis aug-cc-pcVQZ
max_scf_cycles 200
thresh 14
scf_convergence 8
mem_total 128000
cc_memory 96000
cc_backend xm
mem_static 1500
symmetry false
sym_ignore true
scf_guess read
unrestricted false
scf_algorithm gdm
n_frozen_core 0
$end

$multipole_field
XX -0.0001
$end


--------------------------------------------------------------
 ----------------------------------------------------------------
             Standard Nuclear Orientation (Angstroms)
    I     Atom           X                Y                Z
 ----------------------------------------------------------------
    1      C       0.0000000000     0.0000000000     0.0000000000
    2      F       0.0000000000     0.0000000000    -1.2620000000
    3      N       0.0000000000     0.0000000000     1.1590000000
 ----------------------------------------------------------------
 Nuclear Repulsion Energy =    55.5898885148 hartrees
 There are       11 alpha and       11 beta electrons
 Requested basis set is aug-cc-pCVQZ
 There are 87 shells and 327 basis functions

 Total QAlloc Memory Limit 128000 MB
 Mega-Array Size      1467 MB
 MEM_STATIC part      1500 MB

                       Distance Matrix (Angstroms)
             C (  1)   F (  2)
   F (  2)  1.262000
   N (  3)  1.159000  2.421000
 
 Applying Cartesian multipole field
    Component          Value
    ---------          -----
     (2,0,0)       -1.00000E-04
 A cutoff of  1.0D-14 yielded   3524 shell pairs
 There are     51188 function pairs (     84158 Cartesian)
 
 -------------------------------------------------------
 OpenMP Integral Computing Module                       
 Release: version 1.0, May 2013, Q-Chem Inc. Pittsburgh 
 -------------------------------------------------------
 Integral Job Info:
 Integral job number is                      11
 Integral operator is                         1
 short-range coefficients                     0
 long-range coefficients              100000000
 Omega coefficients                           0
 if combine SR and LR in K                    0
 Integral screening is                        0
 Integral computing path is                   2
 max size of driver memory is           3200000
 size of driver memory is               1704330
 size of scratch memory is             18511652
 max col of scratch BK array              50625
 max len of scratch array in speh3         2114
 max len of scratch index in speh4           50
 max int batch size is                      520
 min int batch size is                       52
 fixed nKL is                                52
 max L of basis functions is                  4
 order of int derivative is                   0
 number of shells is                         87
 number of basis is                         417
 number of cartesian basis is               417
 number of contracted shell pairs          3524
 number of primitive shell pairs           7911
 maxK2 (contraction) of shell pair           81
 max number of K2 of shell pair               1
 max number of CS2 of shell pair            406
 max number of PS2 of shell pair            792
 mem total for path MDJ                  807544
 -------------------------------------------------------
 Smallest overlap matrix eigenvalue = 3.65E-05
 Guess MOs from SCF MO coefficient file

 -----------------------------------------------------------------------
  General SCF calculation program by
  Eric Jon Sundstrom, Paul Horn, Yuezhi Mao, Dmitri Zuev, Alec White,
  David Stuck, Shaama M.S., Shane Yost, Joonho Lee, David Small,
  Daniel Levine, Susi Lehtola, Hugh Burton, Evgeny Epifanovsky
 -----------------------------------------------------------------------
 Exchange:     0.5300 Hartree-Fock + 0.4700 B88
 Correlation:  0.7300 LYP
 Using Euler-Maclaurin-Lebedev (99,590) quadrature formula
 using 8 threads for integral computing
 -------------------------------------------------------
 OpenMP Integral computing Module                
 Release: version 2.0, May 2017, Q-Chem Inc. Pleasanton 
 -------------------------------------------------------
 -------------------------------------------------------
 OpenMP BLAS3 based DFT computing Module                
 Release: version 1.0, May 2013, Q-Chem Inc. Pittsburgh 
 -------------------------------------------------------
 A restricted SCF calculation will be
 performed using GDM
 SCF converges when RMS gradient is below 1.0e-08
 ---------------------------------------
  Cycle       Energy        RMS Gradient
 ---------------------------------------
    1    -192.4141402422      4.37e-04   Normal BFGS step
    2    -192.4141412096      1.03e-04   Normal BFGS step
    3    -192.4141412859      1.08e-04   Normal BFGS step
    4    -192.4141413091      5.74e-05   Normal BFGS step
    5    -192.4141413181      1.16e-05   Normal BFGS step
    6    -192.4141413191      8.15e-06   Normal BFGS step
    7    -192.4141413194      1.67e-06   Normal BFGS step
    8    -192.4141413194      2.29e-07   Normal BFGS step
    9    -192.4141413194      7.82e-08   Normal BFGS step
   10    -192.4141413194      2.72e-08   Normal BFGS step
   11    -192.4141413194      3.57e-09  Convergence criterion met
 ---------------------------------------
 SCF time:   CPU 3023.53s  wall 381.00s 
 SCF   energy in the final basis set =     -192.4141413194
 Total energy in the final basis set =     -192.4141413194
 
 Components of the MP2 correlation energy:
        aaaa  correlation energy =        -0.0297521786 au
        abab  correlation energy =        -0.1978803443 au
        bbbb  correlation energy =        -0.0297521786 au
        non-Brillouin singles    =        -0.0000000000 au

 Total  MP2   correlation energy =                    -0.25738470 au
        MP2         total energy =                  -192.67152602 au
 
 --------------------------------------------------------------
 
                    Orbital Energies (a.u.)
 --------------------------------------------------------------
 
 Alpha MOs
 -- Occupied --
-25.495 -14.880 -10.775  -1.530  -1.076  -0.797  -0.678  -0.678
 -0.489  -0.423  -0.423
 -- Virtual --
  0.001   0.049   0.050   0.051   0.088   0.089   0.094   0.121
  0.122   0.122   0.177   0.180   0.180   0.184   0.186   0.205
  0.277   0.294   0.295   0.305   0.349   0.349   0.349   0.349
  0.414   0.427   0.428   0.466   0.539   0.581   0.581   0.668
  0.668   0.677   0.683   0.683   0.714   0.714   0.744   0.745
  0.764   0.826   0.863   0.863   0.890   0.890   0.910   0.910
  0.921   0.983   1.047   1.047   1.094   1.094   1.129   1.129
  1.185   1.270   1.270   1.280   1.406   1.487   1.487   1.507
  1.578   1.578   1.691   1.752   1.752   1.767   1.767   1.792
  1.792   1.881   1.881   1.924   1.925   1.976   1.976   1.996
  2.075   2.100   2.100   2.180   2.180   2.226   2.226   2.345
  2.396   2.396   2.469   2.469   2.599   2.646   2.646   2.656
  2.656   2.844   2.844   2.866   2.908   2.908   2.976   2.998
  2.998   3.026   3.026   3.062   3.062   3.072   3.176   3.176
  3.340   3.425   3.425   3.566   3.566   3.728   3.728   3.865
  4.024   4.024   4.187   4.266   4.266   4.326   4.326   4.495
  4.495   4.502   4.641   4.641   4.780   4.883   4.918   4.918
  4.932   4.932   5.058   5.318   5.318   5.364   5.364   5.485
  5.485   5.610   5.610   5.666   5.694   5.694   5.764   5.764
  5.857   5.857   5.939   5.939   6.124   6.204   6.204   6.364
  6.364   6.419   6.419   6.481   6.541   6.541   6.778   6.779
  6.914   7.081   7.515   7.515   7.723   7.723   7.895   7.895
  8.049   8.049   8.396   8.396   8.464   8.464   8.465   8.774
  8.831   8.831   8.879   9.016   9.016   9.360   9.360   9.461
  9.690   9.690   9.981   9.981  10.405  10.405  11.059  11.597
 12.042  12.042  12.572  12.572  13.078  13.220  13.220  13.334
 13.465  13.465  13.675  13.675  13.750  13.750  13.912  14.940
 15.365  15.365  15.648  15.648  16.365  16.365  16.453  16.453
 16.692  17.101  17.101  18.073  19.093  19.093  20.800  22.485
 26.249  26.249  26.413  26.413  26.952  26.952  27.641  28.424
 36.662  36.662  37.416  37.416  37.561  38.084  41.584  41.584
 42.453  49.339  59.640  59.640  59.899  59.899  60.633  66.166
 66.166  67.745  79.535  91.288  91.288  92.431  97.191  97.191
 97.232  97.232  97.366  97.366  97.382  97.896  97.896  97.908
 97.908  97.976  97.976  98.110 111.368 111.368 111.397 111.397
111.440 111.440 111.494 114.319 114.319 114.693 114.693 115.381
123.082 144.833 144.833 145.521 155.906 155.906 156.317 156.317
156.633 165.361 223.991 223.991 225.325 249.795 249.795 249.931
249.931 250.334 269.294 308.204 308.204 309.156 492.092 492.092
492.647 508.290 685.2641112.721
 --------------------------------------------------------------
 
          Ground-State Mulliken Net Atomic Charges

     Atom                 Charge (a.u.)
  ----------------------------------------
      1 C                     0.756445
      2 F                    -0.288214
      3 N                    -0.468230
  ----------------------------------------
  Sum of atomic charges =    -0.000000

 -----------------------------------------------------------------
                    Cartesian Multipole Moments
 -----------------------------------------------------------------
    Charge (ESU x 10^10)
                -0.0000
    Dipole Moment (Debye)
         X      -0.0000      Y      -0.0000      Z      -2.2905
       Tot       2.2905
    Quadrupole Moments (Debye-Ang)
        XX     -15.2660     XY       0.0000     YY     -15.2717
        XZ      -0.0000     YZ       0.0000     ZZ     -18.6492
    Octopole Moments (Debye-Ang^2)
       XXX      -0.0000    XXY      -0.0000    XYY      -0.0000
       YYY       0.0000    XXZ      -1.5420    XYZ       0.0000
       YYZ      -1.5449    XZZ      -0.0000    YZZ      -0.0000
       ZZZ      -7.2010
    Hexadecapole Moments (Debye-Ang^3)
      XXXX     -13.4346   XXXY      -0.0000   XXYY      -4.4815
      XYYY      -0.0000   YYYY     -13.4544   XXXZ      -0.0000
      XXYZ      -0.0000   XYYZ      -0.0000   YYYZ       0.0000
      XXZZ     -20.0809   XYZZ       0.0000   YYZZ     -20.0891
      XZZZ      -0.0000   YZZZ       0.0000   ZZZZ    -111.3949
 -----------------------------------------------------------------
Archival summary:
1\1\n0086.mhg0\SP\ProcedureUnspecified\BasisUnspecified\111\yhljason\SatOct300:52:542020SatOct300:52:542020\0\\#,ProcedureUnspecified,BasisUnspecified,\\0,1\C\N,1,1.159\F,1,1.262,2,180\\\@

 Total job time:  784.40s(wall), 6210.68s(cpu) 
 Sat Oct  3 00:52:54 2020

        *************************************************************
        *                                                           *
        *  Thank you very much for using Q-Chem.  Have a nice day.  *
        *                                                           *
        *************************************************************


 
User input: 5 of 8 
 
Q-Chem Developer Version!
                  Welcome to Q-Chem
     A Quantum Leap Into The Future Of Chemistry


 Q-Chem 5.1, Q-Chem, Inc., Pleasanton, CA (2018)

 Yihan Shao,  Zhengting Gan,  E. Epifanovsky,  A. T. B. Gilbert,  M. Wormit,  
 J. Kussmann,  A. W. Lange,  A. Behn,  Jia Deng,  Xintian Feng,  D. Ghosh,  
 M. Goldey,  P. R. Horn,  L. D. Jacobson,  I. Kaliman,  T. Kus,  A. Landau,  
 Jie Liu,  E. I. Proynov,  R. M. Richard,  R. P. Steele,  E. J. Sundstrom,  
 H. L. Woodcock III,  P. M. Zimmerman,  D. Zuev,  B. Albrecht,  E. Alguire,  
 S. A. Baeppler,  D. Barton,  Z. Benda,  Y. A. Bernard,  E. J. Berquist,  
 K. B. Bravaya,  H. Burton,  D. Casanova,  Chun-Min Chang,  Yunqing Chen,  
 A. Chien,  K. D. Closser,  M. P. Coons,  S. Coriani,  S. Dasgupta,  
 A. L. Dempwolff,  M. Diedenhofen,  Hainam Do,  R. G. Edgar,  Po-Tung Fang,  
 S. Faraji,  S. Fatehi,  Qingguo Feng,  K. D. Fenk,  J. Fosso-Tande,  
 Qinghui Ge,  A. Ghysels,  G. Gidofalvi,  J. Gomes,  J. Gonthier,  A. Gunina,  
 D. Hait,  M. W. D. Hanson-Heine,  P. H. P. Harbach,  A. W. Hauser,  
 J. E. Herr,  E. G. Hohenstein,  Z. C. Holden,  Kerwin Hui,  B. C. Huynh,  
 T.-C. Jagau,  Hyunjun Ji,  B. Kaduk,  K. Khistyaev,  Jaehoon Kim,  
 P. Klunzinger,  K. Koh,  D. Kosenkov,  L. Koulias,  T. Kowalczyk,  
 C. M. Krauter,  A. Kunitsa,  Ka Un Lao,  A. Laurent,  K. V. Lawler,  
 Joonho Lee,  D. Lefrancois,  S. Lehtola,  D. S. Levine,  Yi-Pei Li,  
 You-Sheng Lin,  Fenglai Liu,  E. Livshits,  A. Luenser,  P. Manohar,  
 E. Mansoor,  S. F. Manzer,  Shan-Ping Mao,  Yuezhi Mao,  N. Mardirossian,  
 A. V. Marenich,  T. Markovich,  L. A. Martinez-Martinez,  S. A. Maurer,  
 N. J. Mayhall,  S. C. McKenzie,  J.-M. Mewes,  A. F. Morrison,  
 J. W. Mullinax,  K. Nanda,  T. S. Nguyen-Beck,  R. Olivares-Amaya,  
 J. A. Parkhill,  T. M. Perrine,  F. Plasser,  P. Pokhilko,  S. Prager,  
 A. Prociuk,  E. Ramos,  D. R. Rehn,  F. Rob,  M. Schneider,  N. Sergueev,  
 S. M. Sharada,  S. Sharma,  D. W. Small,  T. Stauch,  T. Stein,  
 Yu-Chuan Su,  A. J. W. Thom,  A. Tkatchenko,  T. Tsuchimochi,  N. M. Tubman,  
 L. Vogt,  M. L. Vidal,  O. Vydrov,  M. A. Watson,  J. Wenzel,  
 M. de Wergifosse,  T. A. Wesolowski,  A. White,  J. Witte,  A. Yamada,  
 Jun Yang,  K. Yao,  S. Yeganeh,  S. R. Yost,  Zhi-Qiang You,  A. Zech,  
 Igor Ying Zhang,  Xing Zhang,  Yan Zhao,  Ying Zhu,  B. R. Brooks,  
 G. K. L. Chan,  C. J. Cramer,  M. S. Gordon,  W. J. Hehre,  A. Klamt,  
 M. W. Schmidt,  C. D. Sherrill,  D. G. Truhlar,  A. Aspuru-Guzik,  R. Baer,  
 A. T. Bell,  N. A. Besley,  Jeng-Da Chai,  A. E. DePrince, III,  
 R. A. DiStasio Jr.,  A. Dreuw,  B. D. Dunietz,  T. R. Furlani,  
 Chao-Ping Hsu,  Yousung Jung,  Jing Kong,  D. S. Lambrecht,  WanZhen Liang,  
 C. Ochsenfeld,  V. A. Rassolov,  L. V. Slipchenko,  J. E. Subotnik,  
 T. Van Voorhis,  J. M. Herbert,  A. I. Krylov,  P. M. W. Gill,  M. Head-Gordon

 Contributors to earlier versions of Q-Chem not listed above: 
 R. D. Adamson,  B. Austin,  J. Baker,  G. J. O. Beran,  K. Brandhorst,  
 S. T. Brown,  E. F. C. Byrd,  A. K. Chakraborty,  C.-L. Cheng,  
 Siu Hung Chien,  D. M. Chipman,  D. L. Crittenden,  H. Dachsel,  
 R. J. Doerksen,  A. D. Dutoi,  L. Fusti-Molnar,  W. A. Goddard III,  
 A. Golubeva-Zadorozhnaya,  S. R. Gwaltney,  G. Hawkins,  A. Heyden,  
 S. Hirata,  G. Kedziora,  F. J. Keil,  C. Kelley,  Jihan Kim,  R. A. King,  
 R. Z. Khaliullin,  P. P. Korambath,  W. Kurlancheek,  A. M. Lee,  M. S. Lee,  
 S. V. Levchenko,  Ching Yeh Lin,  D. Liotard,  R. C. Lochan,  I. Lotan,  
 P. E. Maslen,  N. Nair,  D. P. O'Neill,  D. Neuhauser,  E. Neuscamman,  
 C. M. Oana,  R. Olson,  B. Peters,  R. Peverati,  P. A. Pieniazek,  
 Y. M. Rhee,  J. Ritchie,  M. A. Rohrdanz,  E. Rosta,  N. J. Russ,  
 H. F. Schaefer III,  N. E. Schultz,  N. Shenvi,  A. C. Simmonett,  A. Sodt,  
 D. Stuck,  K. S. Thanthiriwatte,  V. Vanovschi,  Tao Wang,  A. Warshel,  
 C. F. Williams,  Q. Wu,  X. Xu,  W. Zhang

 Please cite Q-Chem as follows:
 Y. Shao et al., Mol. Phys. 113, 184-215 (2015)
 DOI: 10.1080/00268976.2014.952696

 Q-Chem 5.1.1 for Intel X86 EM64T Linux

 Parts of Q-Chem use Armadillo 8.300.2 (Tropical Shenanigans).
 http://arma.sourceforge.net/

 Q-Chem begins on Sat Oct  3 00:52:54 2020  

Host: n0086.mhg0
0

     Scratch files written to /local/scratch/users/yhljason/FCN_B2PLYP_aug-cc-pcVQZ.inp20201002235645//
The previous job contains 0 fragments, simply inherited here
Input Ideriv = 0
Curr. Ideriv = -1
Max.  Ideriv = 0
Analytic post-HF gradients are not available with non-HF exchange
Input Ideriv = 0
Curr. Ideriv = 0
Max.  Ideriv = 0

Checking the input file for inconsistencies... 	...done.

--------------------------------------------------------------
User input:
--------------------------------------------------------------
$molecule
read
$end

$rem

jobtype sp
method B2PLYP
xc_grid 000099000590
basis aug-cc-pcVQZ
max_scf_cycles 200
thresh 14
scf_convergence 8
mem_total 128000
cc_memory 96000
cc_backend xm
mem_static 1500
symmetry false
sym_ignore true
scf_guess read
unrestricted false
scf_algorithm gdm
n_frozen_core 0
$end

$multipole_field
YY 0.0001
$end


--------------------------------------------------------------
 ----------------------------------------------------------------
             Standard Nuclear Orientation (Angstroms)
    I     Atom           X                Y                Z
 ----------------------------------------------------------------
    1      C       0.0000000000     0.0000000000     0.0000000000
    2      F       0.0000000000     0.0000000000    -1.2620000000
    3      N       0.0000000000     0.0000000000     1.1590000000
 ----------------------------------------------------------------
 Nuclear Repulsion Energy =    55.5898885148 hartrees
 There are       11 alpha and       11 beta electrons
 Requested basis set is aug-cc-pCVQZ
 There are 87 shells and 327 basis functions

 Total QAlloc Memory Limit 128000 MB
 Mega-Array Size      1467 MB
 MEM_STATIC part      1500 MB

                       Distance Matrix (Angstroms)
             C (  1)   F (  2)
   F (  2)  1.262000
   N (  3)  1.159000  2.421000
 
 Applying Cartesian multipole field
    Component          Value
    ---------          -----
     (0,2,0)        1.00000E-04
 A cutoff of  1.0D-14 yielded   3524 shell pairs
 There are     51188 function pairs (     84158 Cartesian)
 
 -------------------------------------------------------
 OpenMP Integral Computing Module                       
 Release: version 1.0, May 2013, Q-Chem Inc. Pittsburgh 
 -------------------------------------------------------
 Integral Job Info:
 Integral job number is                      11
 Integral operator is                         1
 short-range coefficients                     0
 long-range coefficients              100000000
 Omega coefficients                           0
 if combine SR and LR in K                    0
 Integral screening is                        0
 Integral computing path is                   2
 max size of driver memory is           3200000
 size of driver memory is               1704330
 size of scratch memory is             18511652
 max col of scratch BK array              50625
 max len of scratch array in speh3         2114
 max len of scratch index in speh4           50
 max int batch size is                      520
 min int batch size is                       52
 fixed nKL is                                52
 max L of basis functions is                  4
 order of int derivative is                   0
 number of shells is                         87
 number of basis is                         417
 number of cartesian basis is               417
 number of contracted shell pairs          3524
 number of primitive shell pairs           7911
 maxK2 (contraction) of shell pair           81
 max number of K2 of shell pair               1
 max number of CS2 of shell pair            406
 max number of PS2 of shell pair            792
 mem total for path MDJ                  807544
 -------------------------------------------------------
 Smallest overlap matrix eigenvalue = 3.65E-05
 Guess MOs from SCF MO coefficient file

 -----------------------------------------------------------------------
  General SCF calculation program by
  Eric Jon Sundstrom, Paul Horn, Yuezhi Mao, Dmitri Zuev, Alec White,
  David Stuck, Shaama M.S., Shane Yost, Joonho Lee, David Small,
  Daniel Levine, Susi Lehtola, Hugh Burton, Evgeny Epifanovsky
 -----------------------------------------------------------------------
 Exchange:     0.5300 Hartree-Fock + 0.4700 B88
 Correlation:  0.7300 LYP
 Using Euler-Maclaurin-Lebedev (99,590) quadrature formula
 using 8 threads for integral computing
 -------------------------------------------------------
 OpenMP Integral computing Module                
 Release: version 2.0, May 2017, Q-Chem Inc. Pleasanton 
 -------------------------------------------------------
 -------------------------------------------------------
 OpenMP BLAS3 based DFT computing Module                
 Release: version 1.0, May 2013, Q-Chem Inc. Pittsburgh 
 -------------------------------------------------------
 A restricted SCF calculation will be
 performed using GDM
 SCF converges when RMS gradient is below 1.0e-08
 ---------------------------------------
  Cycle       Energy        RMS Gradient
 ---------------------------------------
    1    -192.4164117222      2.94e-04   Normal BFGS step
    2    -192.4164122799      8.49e-05   Normal BFGS step
    3    -192.4164123543      8.50e-05   Normal BFGS step
    4    -192.4164123649      5.32e-05   Normal BFGS step
    5    -192.4164123742      8.88e-06   Normal BFGS step
    6    -192.4164123745      7.93e-06   Normal BFGS step
    7    -192.4164123748      4.74e-07   Normal BFGS step
    8    -192.4164123748      8.51e-08   Normal BFGS step
    9    -192.4164123748      9.96e-09  Convergence criterion met
 ---------------------------------------
 SCF time:   CPU 2518.66s  wall 319.00s 
 SCF   energy in the final basis set =     -192.4164123748
 Total energy in the final basis set =     -192.4164123748
 
 Components of the MP2 correlation energy:
        aaaa  correlation energy =        -0.0297528249 au
        abab  correlation energy =        -0.1978771632 au
        bbbb  correlation energy =        -0.0297528249 au
        non-Brillouin singles    =        -0.0000000000 au

 Total  MP2   correlation energy =                    -0.25738281 au
        MP2         total energy =                  -192.67379519 au
 
 --------------------------------------------------------------
 
                    Orbital Energies (a.u.)
 --------------------------------------------------------------
 
 Alpha MOs
 -- Occupied --
-25.495 -14.880 -10.776  -1.530  -1.076  -0.797  -0.678  -0.678
 -0.489  -0.424  -0.423
 -- Virtual --
 -0.001   0.045   0.047   0.047   0.086   0.087   0.093   0.119
  0.119   0.120   0.175   0.177   0.177   0.180   0.182   0.203
  0.275   0.292   0.293   0.303   0.347   0.347   0.347   0.348
  0.412   0.425   0.426   0.464   0.537   0.579   0.579   0.667
  0.667   0.676   0.681   0.682   0.713   0.713   0.743   0.743
  0.763   0.825   0.861   0.861   0.889   0.889   0.909   0.909
  0.920   0.982   1.046   1.046   1.093   1.093   1.128   1.128
  1.184   1.269   1.270   1.279   1.405   1.486   1.486   1.506
  1.577   1.577   1.690   1.751   1.751   1.767   1.767   1.792
  1.792   1.880   1.880   1.924   1.924   1.975   1.975   1.995
  2.074   2.099   2.099   2.180   2.180   2.225   2.226   2.345
  2.395   2.395   2.469   2.469   2.599   2.645   2.645   2.655
  2.655   2.843   2.843   2.866   2.908   2.908   2.976   2.997
  2.997   3.026   3.026   3.062   3.062   3.071   3.176   3.176
  3.339   3.425   3.425   3.565   3.565   3.728   3.728   3.864
  4.023   4.023   4.186   4.266   4.266   4.325   4.325   4.495
  4.495   4.502   4.641   4.641   4.780   4.882   4.918   4.918
  4.932   4.932   5.057   5.318   5.318   5.364   5.364   5.484
  5.484   5.609   5.609   5.666   5.693   5.693   5.764   5.764
  5.857   5.857   5.938   5.938   6.124   6.203   6.203   6.364
  6.364   6.419   6.419   6.480   6.541   6.541   6.778   6.778
  6.914   7.080   7.515   7.515   7.722   7.722   7.894   7.894
  8.049   8.049   8.396   8.396   8.464   8.464   8.464   8.773
  8.831   8.831   8.879   9.016   9.016   9.359   9.359   9.460
  9.690   9.690   9.981   9.981  10.404  10.404  11.059  11.596
 12.041  12.041  12.572  12.572  13.077  13.219  13.219  13.334
 13.464  13.464  13.674  13.674  13.749  13.750  13.912  14.939
 15.364  15.364  15.648  15.648  16.365  16.365  16.453  16.453
 16.692  17.100  17.100  18.072  19.092  19.092  20.800  22.485
 26.249  26.249  26.413  26.413  26.951  26.951  27.641  28.424
 36.662  36.662  37.415  37.415  37.561  38.083  41.583  41.583
 42.452  49.339  59.640  59.640  59.898  59.898  60.633  66.165
 66.165  67.745  79.535  91.288  91.288  92.430  97.190  97.190
 97.232  97.232  97.366  97.366  97.382  97.896  97.896  97.908
 97.908  97.976  97.976  98.109 111.367 111.367 111.397 111.397
111.440 111.440 111.494 114.319 114.319 114.692 114.692 115.380
123.081 144.833 144.833 145.521 155.905 155.905 156.316 156.316
156.632 165.360 223.991 223.991 225.325 249.795 249.795 249.930
249.930 250.333 269.293 308.204 308.204 309.155 492.091 492.091
492.646 508.289 685.2641112.721
 --------------------------------------------------------------
 
          Ground-State Mulliken Net Atomic Charges

     Atom                 Charge (a.u.)
  ----------------------------------------
      1 C                     0.755992
      2 F                    -0.288028
      3 N                    -0.467963
  ----------------------------------------
  Sum of atomic charges =    -0.000000

 -----------------------------------------------------------------
                    Cartesian Multipole Moments
 -----------------------------------------------------------------
    Charge (ESU x 10^10)
                -0.0000
    Dipole Moment (Debye)
         X       0.0000      Y       0.0000      Z      -2.2918
       Tot       2.2918
    Quadrupole Moments (Debye-Ang)
        XX     -15.2748     XY       0.0000     YY     -15.2805
        XZ       0.0000     YZ       0.0000     ZZ     -18.6500
    Octopole Moments (Debye-Ang^2)
       XXX       0.0000    XXY       0.0000    XYY       0.0000
       YYY       0.0000    XXZ      -1.5473    XYZ       0.0000
       YYZ      -1.5502    XZZ       0.0000    YZZ       0.0000
       ZZZ      -7.2062
    Hexadecapole Moments (Debye-Ang^3)
      XXXX     -13.4668   XXXY      -0.0000   XXYY      -4.4923
      XYYY       0.0000   YYYY     -13.4868   XXXZ       0.0000
      XXYZ       0.0000   XYYZ       0.0000   YYYZ       0.0000
      XXZZ     -20.0948   XYZZ       0.0000   YYZZ     -20.1030
      XZZZ       0.0000   YZZZ       0.0000   ZZZZ    -111.4068
 -----------------------------------------------------------------
Archival summary:
1\1\n0086.mhg0\SP\ProcedureUnspecified\BasisUnspecified\111\yhljason\SatOct301:04:492020SatOct301:04:492020\0\\#,ProcedureUnspecified,BasisUnspecified,\\0,1\C\N,1,1.159\F,1,1.262,2,180\\\@

 Total job time:  715.02s(wall), 5652.92s(cpu) 
 Sat Oct  3 01:04:49 2020

        *************************************************************
        *                                                           *
        *  Thank you very much for using Q-Chem.  Have a nice day.  *
        *                                                           *
        *************************************************************


 
User input: 6 of 8 
 
Q-Chem Developer Version!
                  Welcome to Q-Chem
     A Quantum Leap Into The Future Of Chemistry


 Q-Chem 5.1, Q-Chem, Inc., Pleasanton, CA (2018)

 Yihan Shao,  Zhengting Gan,  E. Epifanovsky,  A. T. B. Gilbert,  M. Wormit,  
 J. Kussmann,  A. W. Lange,  A. Behn,  Jia Deng,  Xintian Feng,  D. Ghosh,  
 M. Goldey,  P. R. Horn,  L. D. Jacobson,  I. Kaliman,  T. Kus,  A. Landau,  
 Jie Liu,  E. I. Proynov,  R. M. Richard,  R. P. Steele,  E. J. Sundstrom,  
 H. L. Woodcock III,  P. M. Zimmerman,  D. Zuev,  B. Albrecht,  E. Alguire,  
 S. A. Baeppler,  D. Barton,  Z. Benda,  Y. A. Bernard,  E. J. Berquist,  
 K. B. Bravaya,  H. Burton,  D. Casanova,  Chun-Min Chang,  Yunqing Chen,  
 A. Chien,  K. D. Closser,  M. P. Coons,  S. Coriani,  S. Dasgupta,  
 A. L. Dempwolff,  M. Diedenhofen,  Hainam Do,  R. G. Edgar,  Po-Tung Fang,  
 S. Faraji,  S. Fatehi,  Qingguo Feng,  K. D. Fenk,  J. Fosso-Tande,  
 Qinghui Ge,  A. Ghysels,  G. Gidofalvi,  J. Gomes,  J. Gonthier,  A. Gunina,  
 D. Hait,  M. W. D. Hanson-Heine,  P. H. P. Harbach,  A. W. Hauser,  
 J. E. Herr,  E. G. Hohenstein,  Z. C. Holden,  Kerwin Hui,  B. C. Huynh,  
 T.-C. Jagau,  Hyunjun Ji,  B. Kaduk,  K. Khistyaev,  Jaehoon Kim,  
 P. Klunzinger,  K. Koh,  D. Kosenkov,  L. Koulias,  T. Kowalczyk,  
 C. M. Krauter,  A. Kunitsa,  Ka Un Lao,  A. Laurent,  K. V. Lawler,  
 Joonho Lee,  D. Lefrancois,  S. Lehtola,  D. S. Levine,  Yi-Pei Li,  
 You-Sheng Lin,  Fenglai Liu,  E. Livshits,  A. Luenser,  P. Manohar,  
 E. Mansoor,  S. F. Manzer,  Shan-Ping Mao,  Yuezhi Mao,  N. Mardirossian,  
 A. V. Marenich,  T. Markovich,  L. A. Martinez-Martinez,  S. A. Maurer,  
 N. J. Mayhall,  S. C. McKenzie,  J.-M. Mewes,  A. F. Morrison,  
 J. W. Mullinax,  K. Nanda,  T. S. Nguyen-Beck,  R. Olivares-Amaya,  
 J. A. Parkhill,  T. M. Perrine,  F. Plasser,  P. Pokhilko,  S. Prager,  
 A. Prociuk,  E. Ramos,  D. R. Rehn,  F. Rob,  M. Schneider,  N. Sergueev,  
 S. M. Sharada,  S. Sharma,  D. W. Small,  T. Stauch,  T. Stein,  
 Yu-Chuan Su,  A. J. W. Thom,  A. Tkatchenko,  T. Tsuchimochi,  N. M. Tubman,  
 L. Vogt,  M. L. Vidal,  O. Vydrov,  M. A. Watson,  J. Wenzel,  
 M. de Wergifosse,  T. A. Wesolowski,  A. White,  J. Witte,  A. Yamada,  
 Jun Yang,  K. Yao,  S. Yeganeh,  S. R. Yost,  Zhi-Qiang You,  A. Zech,  
 Igor Ying Zhang,  Xing Zhang,  Yan Zhao,  Ying Zhu,  B. R. Brooks,  
 G. K. L. Chan,  C. J. Cramer,  M. S. Gordon,  W. J. Hehre,  A. Klamt,  
 M. W. Schmidt,  C. D. Sherrill,  D. G. Truhlar,  A. Aspuru-Guzik,  R. Baer,  
 A. T. Bell,  N. A. Besley,  Jeng-Da Chai,  A. E. DePrince, III,  
 R. A. DiStasio Jr.,  A. Dreuw,  B. D. Dunietz,  T. R. Furlani,  
 Chao-Ping Hsu,  Yousung Jung,  Jing Kong,  D. S. Lambrecht,  WanZhen Liang,  
 C. Ochsenfeld,  V. A. Rassolov,  L. V. Slipchenko,  J. E. Subotnik,  
 T. Van Voorhis,  J. M. Herbert,  A. I. Krylov,  P. M. W. Gill,  M. Head-Gordon

 Contributors to earlier versions of Q-Chem not listed above: 
 R. D. Adamson,  B. Austin,  J. Baker,  G. J. O. Beran,  K. Brandhorst,  
 S. T. Brown,  E. F. C. Byrd,  A. K. Chakraborty,  C.-L. Cheng,  
 Siu Hung Chien,  D. M. Chipman,  D. L. Crittenden,  H. Dachsel,  
 R. J. Doerksen,  A. D. Dutoi,  L. Fusti-Molnar,  W. A. Goddard III,  
 A. Golubeva-Zadorozhnaya,  S. R. Gwaltney,  G. Hawkins,  A. Heyden,  
 S. Hirata,  G. Kedziora,  F. J. Keil,  C. Kelley,  Jihan Kim,  R. A. King,  
 R. Z. Khaliullin,  P. P. Korambath,  W. Kurlancheek,  A. M. Lee,  M. S. Lee,  
 S. V. Levchenko,  Ching Yeh Lin,  D. Liotard,  R. C. Lochan,  I. Lotan,  
 P. E. Maslen,  N. Nair,  D. P. O'Neill,  D. Neuhauser,  E. Neuscamman,  
 C. M. Oana,  R. Olson,  B. Peters,  R. Peverati,  P. A. Pieniazek,  
 Y. M. Rhee,  J. Ritchie,  M. A. Rohrdanz,  E. Rosta,  N. J. Russ,  
 H. F. Schaefer III,  N. E. Schultz,  N. Shenvi,  A. C. Simmonett,  A. Sodt,  
 D. Stuck,  K. S. Thanthiriwatte,  V. Vanovschi,  Tao Wang,  A. Warshel,  
 C. F. Williams,  Q. Wu,  X. Xu,  W. Zhang

 Please cite Q-Chem as follows:
 Y. Shao et al., Mol. Phys. 113, 184-215 (2015)
 DOI: 10.1080/00268976.2014.952696

 Q-Chem 5.1.1 for Intel X86 EM64T Linux

 Parts of Q-Chem use Armadillo 8.300.2 (Tropical Shenanigans).
 http://arma.sourceforge.net/

 Q-Chem begins on Sat Oct  3 01:04:50 2020  

Host: n0086.mhg0
0

     Scratch files written to /local/scratch/users/yhljason/FCN_B2PLYP_aug-cc-pcVQZ.inp20201002235645//
The previous job contains 0 fragments, simply inherited here
Input Ideriv = 0
Curr. Ideriv = -1
Max.  Ideriv = 0
Analytic post-HF gradients are not available with non-HF exchange
Input Ideriv = 0
Curr. Ideriv = 0
Max.  Ideriv = 0

Checking the input file for inconsistencies... 	...done.

--------------------------------------------------------------
User input:
--------------------------------------------------------------
$molecule
read
$end

$rem

jobtype sp
method B2PLYP
xc_grid 000099000590
basis aug-cc-pcVQZ
max_scf_cycles 200
thresh 14
scf_convergence 8
mem_total 128000
cc_memory 96000
cc_backend xm
mem_static 1500
symmetry false
sym_ignore true
scf_guess read
unrestricted false
scf_algorithm gdm
n_frozen_core 0
$end

$multipole_field
YY -0.0001
$end


--------------------------------------------------------------
 ----------------------------------------------------------------
             Standard Nuclear Orientation (Angstroms)
    I     Atom           X                Y                Z
 ----------------------------------------------------------------
    1      C       0.0000000000     0.0000000000     0.0000000000
    2      F       0.0000000000     0.0000000000    -1.2620000000
    3      N       0.0000000000     0.0000000000     1.1590000000
 ----------------------------------------------------------------
 Nuclear Repulsion Energy =    55.5898885148 hartrees
 There are       11 alpha and       11 beta electrons
 Requested basis set is aug-cc-pCVQZ
 There are 87 shells and 327 basis functions

 Total QAlloc Memory Limit 128000 MB
 Mega-Array Size      1467 MB
 MEM_STATIC part      1500 MB

                       Distance Matrix (Angstroms)
             C (  1)   F (  2)
   F (  2)  1.262000
   N (  3)  1.159000  2.421000
 
 Applying Cartesian multipole field
    Component          Value
    ---------          -----
     (0,2,0)       -1.00000E-04
 A cutoff of  1.0D-14 yielded   3524 shell pairs
 There are     51188 function pairs (     84158 Cartesian)
 
 -------------------------------------------------------
 OpenMP Integral Computing Module                       
 Release: version 1.0, May 2013, Q-Chem Inc. Pittsburgh 
 -------------------------------------------------------
 Integral Job Info:
 Integral job number is                      11
 Integral operator is                         1
 short-range coefficients                     0
 long-range coefficients              100000000
 Omega coefficients                           0
 if combine SR and LR in K                    0
 Integral screening is                        0
 Integral computing path is                   2
 max size of driver memory is           3200000
 size of driver memory is               1704330
 size of scratch memory is             18511652
 max col of scratch BK array              50625
 max len of scratch array in speh3         2114
 max len of scratch index in speh4           50
 max int batch size is                      520
 min int batch size is                       52
 fixed nKL is                                52
 max L of basis functions is                  4
 order of int derivative is                   0
 number of shells is                         87
 number of basis is                         417
 number of cartesian basis is               417
 number of contracted shell pairs          3524
 number of primitive shell pairs           7911
 maxK2 (contraction) of shell pair           81
 max number of K2 of shell pair               1
 max number of CS2 of shell pair            406
 max number of PS2 of shell pair            792
 mem total for path MDJ                  807544
 -------------------------------------------------------
 Smallest overlap matrix eigenvalue = 3.65E-05
 Guess MOs from SCF MO coefficient file

 -----------------------------------------------------------------------
  General SCF calculation program by
  Eric Jon Sundstrom, Paul Horn, Yuezhi Mao, Dmitri Zuev, Alec White,
  David Stuck, Shaama M.S., Shane Yost, Joonho Lee, David Small,
  Daniel Levine, Susi Lehtola, Hugh Burton, Evgeny Epifanovsky
 -----------------------------------------------------------------------
 Exchange:     0.5300 Hartree-Fock + 0.4700 B88
 Correlation:  0.7300 LYP
 Using Euler-Maclaurin-Lebedev (99,590) quadrature formula
 using 8 threads for integral computing
 -------------------------------------------------------
 OpenMP Integral computing Module                
 Release: version 2.0, May 2017, Q-Chem Inc. Pleasanton 
 -------------------------------------------------------
 -------------------------------------------------------
 OpenMP BLAS3 based DFT computing Module                
 Release: version 1.0, May 2013, Q-Chem Inc. Pittsburgh 
 -------------------------------------------------------
 A restricted SCF calculation will be
 performed using GDM
 SCF converges when RMS gradient is below 1.0e-08
 ---------------------------------------
  Cycle       Energy        RMS Gradient
 ---------------------------------------
    1    -192.4141402422      4.37e-04   Normal BFGS step
    2    -192.4141412096      1.03e-04   Normal BFGS step
    3    -192.4141412859      1.08e-04   Normal BFGS step
    4    -192.4141413091      5.74e-05   Normal BFGS step
    5    -192.4141413181      1.16e-05   Normal BFGS step
    6    -192.4141413191      8.15e-06   Normal BFGS step
    7    -192.4141413194      1.67e-06   Normal BFGS step
    8    -192.4141413194      2.29e-07   Normal BFGS step
    9    -192.4141413194      7.82e-08   Normal BFGS step
   10    -192.4141413194      2.72e-08   Normal BFGS step
   11    -192.4141413194      3.57e-09  Convergence criterion met
 ---------------------------------------
 SCF time:   CPU 3021.74s  wall 382.00s 
 SCF   energy in the final basis set =     -192.4141413194
 Total energy in the final basis set =     -192.4141413194
 
 Components of the MP2 correlation energy:
        aaaa  correlation energy =        -0.0297521786 au
        abab  correlation energy =        -0.1978803443 au
        bbbb  correlation energy =        -0.0297521786 au
        non-Brillouin singles    =        -0.0000000000 au

 Total  MP2   correlation energy =                    -0.25738470 au
        MP2         total energy =                  -192.67152602 au
 
 --------------------------------------------------------------
 
                    Orbital Energies (a.u.)
 --------------------------------------------------------------
 
 Alpha MOs
 -- Occupied --
-25.495 -14.880 -10.775  -1.530  -1.076  -0.797  -0.678  -0.678
 -0.489  -0.423  -0.423
 -- Virtual --
  0.001   0.049   0.050   0.051   0.088   0.089   0.094   0.121
  0.122   0.122   0.177   0.180   0.180   0.184   0.186   0.205
  0.277   0.294   0.295   0.305   0.349   0.349   0.349   0.349
  0.414   0.427   0.428   0.466   0.539   0.581   0.581   0.668
  0.668   0.677   0.683   0.683   0.714   0.714   0.744   0.745
  0.764   0.826   0.863   0.863   0.890   0.890   0.910   0.910
  0.921   0.983   1.047   1.047   1.094   1.094   1.129   1.129
  1.185   1.270   1.270   1.280   1.406   1.487   1.487   1.507
  1.578   1.578   1.691   1.752   1.752   1.767   1.767   1.792
  1.792   1.881   1.881   1.924   1.925   1.976   1.976   1.996
  2.075   2.100   2.100   2.180   2.180   2.226   2.226   2.345
  2.396   2.396   2.469   2.469   2.599   2.646   2.646   2.656
  2.656   2.844   2.844   2.866   2.908   2.908   2.976   2.998
  2.998   3.026   3.026   3.062   3.062   3.072   3.176   3.176
  3.340   3.425   3.425   3.566   3.566   3.728   3.728   3.865
  4.024   4.024   4.187   4.266   4.266   4.326   4.326   4.495
  4.495   4.502   4.641   4.641   4.780   4.883   4.918   4.918
  4.932   4.932   5.058   5.318   5.318   5.364   5.364   5.485
  5.485   5.610   5.610   5.666   5.694   5.694   5.764   5.764
  5.857   5.857   5.939   5.939   6.124   6.204   6.204   6.364
  6.364   6.419   6.419   6.481   6.541   6.541   6.778   6.779
  6.914   7.081   7.515   7.515   7.723   7.723   7.895   7.895
  8.049   8.049   8.396   8.396   8.464   8.464   8.465   8.774
  8.831   8.831   8.879   9.016   9.016   9.360   9.360   9.461
  9.690   9.690   9.981   9.981  10.405  10.405  11.059  11.597
 12.042  12.042  12.572  12.572  13.078  13.220  13.220  13.334
 13.465  13.465  13.675  13.675  13.750  13.750  13.912  14.940
 15.365  15.365  15.648  15.648  16.365  16.365  16.453  16.453
 16.692  17.101  17.101  18.073  19.093  19.093  20.800  22.485
 26.249  26.249  26.413  26.413  26.952  26.952  27.641  28.424
 36.662  36.662  37.416  37.416  37.561  38.084  41.584  41.584
 42.453  49.339  59.640  59.640  59.899  59.899  60.633  66.166
 66.166  67.745  79.535  91.288  91.288  92.431  97.191  97.191
 97.232  97.232  97.366  97.366  97.382  97.896  97.896  97.908
 97.908  97.976  97.976  98.110 111.368 111.368 111.397 111.397
111.440 111.440 111.494 114.319 114.319 114.693 114.693 115.381
123.082 144.833 144.833 145.521 155.906 155.906 156.317 156.317
156.633 165.361 223.991 223.991 225.325 249.795 249.795 249.931
249.931 250.334 269.294 308.204 308.204 309.156 492.092 492.092
492.647 508.290 685.2641112.721
 --------------------------------------------------------------
 
          Ground-State Mulliken Net Atomic Charges

     Atom                 Charge (a.u.)
  ----------------------------------------
      1 C                     0.756445
      2 F                    -0.288214
      3 N                    -0.468230
  ----------------------------------------
  Sum of atomic charges =    -0.000000

 -----------------------------------------------------------------
                    Cartesian Multipole Moments
 -----------------------------------------------------------------
    Charge (ESU x 10^10)
                -0.0000
    Dipole Moment (Debye)
         X       0.0000      Y      -0.0000      Z      -2.2905
       Tot       2.2905
    Quadrupole Moments (Debye-Ang)
        XX     -15.2717     XY       0.0000     YY     -15.2660
        XZ       0.0000     YZ       0.0000     ZZ     -18.6492
    Octopole Moments (Debye-Ang^2)
       XXX       0.0000    XXY      -0.0000    XYY       0.0000
       YYY      -0.0000    XXZ      -1.5449    XYZ       0.0000
       YYZ      -1.5420    XZZ       0.0000    YZZ       0.0000
       ZZZ      -7.2010
    Hexadecapole Moments (Debye-Ang^3)
      XXXX     -13.4544   XXXY       0.0000   XXYY      -4.4815
      XYYY       0.0000   YYYY     -13.4346   XXXZ       0.0000
      XXYZ      -0.0000   XYYZ       0.0000   YYYZ       0.0000
      XXZZ     -20.0891   XYZZ       0.0000   YYZZ     -20.0809
      XZZZ       0.0000   YZZZ       0.0000   ZZZZ    -111.3949
 -----------------------------------------------------------------
Archival summary:
1\1\n0086.mhg0\SP\ProcedureUnspecified\BasisUnspecified\111\yhljason\SatOct301:17:562020SatOct301:17:562020\0\\#,ProcedureUnspecified,BasisUnspecified,\\0,1\C\N,1,1.159\F,1,1.262,2,180\\\@

 Total job time:  786.64s(wall), 6213.20s(cpu) 
 Sat Oct  3 01:17:56 2020

        *************************************************************
[...]
  1.576   1.576   1.690   1.751   1.751   1.766   1.766   1.791
  1.791   1.880   1.880   1.923   1.923   1.975   1.975   1.994
  2.073   2.099   2.099   2.179   2.179   2.225   2.225   2.344
  2.395   2.395   2.468   2.468   2.598   2.645   2.645   2.654
  2.654   2.843   2.843   2.865   2.907   2.907   2.975   2.997
  2.997   3.025   3.025   3.061   3.061   3.071   3.175   3.175
  3.338   3.424   3.424   3.565   3.565   3.727   3.727   3.864
  4.023   4.023   4.185   4.265   4.265   4.325   4.325   4.494
  4.494   4.501   4.640   4.640   4.779   4.882   4.918   4.918
  4.931   4.931   5.057   5.317   5.317   5.363   5.363   5.484
  5.484   5.608   5.608   5.665   5.693   5.693   5.763   5.763
  5.857   5.857   5.938   5.938   6.123   6.203   6.203   6.363
  6.363   6.418   6.418   6.480   6.540   6.540   6.778   6.778
  6.913   7.080   7.515   7.515   7.722   7.722   7.894   7.894
  8.048   8.048   8.395   8.395   8.463   8.463   8.464   8.773
  8.830   8.830   8.878   9.015   9.015   9.359   9.359   9.460
  9.689   9.689   9.980   9.980  10.404  10.404  11.058  11.596
 12.041  12.041  12.571  12.571  13.077  13.219  13.219  13.333
 13.464  13.464  13.674  13.674  13.749  13.749  13.911  14.939
 15.364  15.364  15.647  15.647  16.364  16.364  16.452  16.452
 16.691  17.100  17.100  18.072  19.092  19.092  20.800  22.484
 26.248  26.248  26.412  26.412  26.951  26.951  27.640  28.423
 36.662  36.662  37.415  37.415  37.560  38.083  41.583  41.583
 42.452  49.338  59.639  59.639  59.898  59.898  60.632  66.165
 66.165  67.744  79.535  91.287  91.287  92.430  97.190  97.190
 97.231  97.231  97.365  97.365  97.381  97.896  97.896  97.907
 97.907  97.975  97.975  98.109 111.367 111.367 111.396 111.396
111.440 111.440 111.493 114.318 114.318 114.692 114.692 115.380
123.081 144.832 144.832 145.520 155.905 155.905 156.316 156.316
156.632 165.360 223.990 223.990 225.324 249.794 249.794 249.930
249.930 250.333 269.293 308.203 308.203 309.155 492.091 492.091
492.646 508.289 685.2641112.720
 --------------------------------------------------------------
 
          Ground-State Mulliken Net Atomic Charges

     Atom                 Charge (a.u.)
  ----------------------------------------
      1 C                     0.757599
      2 F                    -0.288734
      3 N                    -0.468865
  ----------------------------------------
  Sum of atomic charges =    -0.000000

 -----------------------------------------------------------------
                    Cartesian Multipole Moments
 -----------------------------------------------------------------
    Charge (ESU x 10^10)
                -0.0000
    Dipole Moment (Debye)
         X      -0.0000      Y      -0.0000      Z      -2.2970
       Tot       2.2970
    Quadrupole Moments (Debye-Ang)
        XX     -15.2736     XY       0.0000     YY     -15.2736
        XZ      -0.0000     YZ      -0.0000     ZZ     -18.6848
    Octopole Moments (Debye-Ang^2)
       XXX      -0.0000    XXY      -0.0000    XYY       0.0000
       YYY      -0.0000    XXZ      -1.5507    XYZ       0.0000
       YYZ      -1.5507    XZZ      -0.0000    YZZ      -0.0000
       ZZZ      -7.2400
    Hexadecapole Moments (Debye-Ang^3)
      XXXX     -13.4623   XXXY       0.0000   XXYY      -4.4874
      XYYY       0.0000   YYYY     -13.4623   XXXZ       0.0000
      XXYZ      -0.0000   XYYZ       0.0000   YYYZ      -0.0000
      XXZZ     -20.1118   XYZZ       0.0000   YYZZ     -20.1118
      XZZZ      -0.0000   YZZZ      -0.0000   ZZZZ    -111.6202
 -----------------------------------------------------------------
Archival summary:
1\1\n0086.mhg0\SP\ProcedureUnspecified\BasisUnspecified\111\yhljason\SatOct301:31:242020SatOct301:31:242020\0\\#,ProcedureUnspecified,BasisUnspecified,\\0,1\C\N,1,1.159\F,1,1.262,2,180\\\@

 Total job time:  807.62s(wall), 6139.24s(cpu) 
 Sat Oct  3 01:31:24 2020

        *************************************************************
        *                                                           *
        *  Thank you very much for using Q-Chem.  Have a nice day.  *
        *                                                           *
        *************************************************************


 
User input: 8 of 8 
 
Q-Chem Developer Version!
                  Welcome to Q-Chem
     A Quantum Leap Into The Future Of Chemistry


 Q-Chem 5.1, Q-Chem, Inc., Pleasanton, CA (2018)

 Yihan Shao,  Zhengting Gan,  E. Epifanovsky,  A. T. B. Gilbert,  M. Wormit,  
 J. Kussmann,  A. W. Lange,  A. Behn,  Jia Deng,  Xintian Feng,  D. Ghosh,  
 M. Goldey,  P. R. Horn,  L. D. Jacobson,  I. Kaliman,  T. Kus,  A. Landau,  
 Jie Liu,  E. I. Proynov,  R. M. Richard,  R. P. Steele,  E. J. Sundstrom,  
 H. L. Woodcock III,  P. M. Zimmerman,  D. Zuev,  B. Albrecht,  E. Alguire,  
 S. A. Baeppler,  D. Barton,  Z. Benda,  Y. A. Bernard,  E. J. Berquist,  
 K. B. Bravaya,  H. Burton,  D. Casanova,  Chun-Min Chang,  Yunqing Chen,  
 A. Chien,  K. D. Closser,  M. P. Coons,  S. Coriani,  S. Dasgupta,  
 A. L. Dempwolff,  M. Diedenhofen,  Hainam Do,  R. G. Edgar,  Po-Tung Fang,  
 S. Faraji,  S. Fatehi,  Qingguo Feng,  K. D. Fenk,  J. Fosso-Tande,  
 Qinghui Ge,  A. Ghysels,  G. Gidofalvi,  J. Gomes,  J. Gonthier,  A. Gunina,  
 D. Hait,  M. W. D. Hanson-Heine,  P. H. P. Harbach,  A. W. Hauser,  
 J. E. Herr,  E. G. Hohenstein,  Z. C. Holden,  Kerwin Hui,  B. C. Huynh,  
 T.-C. Jagau,  Hyunjun Ji,  B. Kaduk,  K. Khistyaev,  Jaehoon Kim,  
 P. Klunzinger,  K. Koh,  D. Kosenkov,  L. Koulias,  T. Kowalczyk,  
 C. M. Krauter,  A. Kunitsa,  Ka Un Lao,  A. Laurent,  K. V. Lawler,  
 Joonho Lee,  D. Lefrancois,  S. Lehtola,  D. S. Levine,  Yi-Pei Li,  
 You-Sheng Lin,  Fenglai Liu,  E. Livshits,  A. Luenser,  P. Manohar,  
 E. Mansoor,  S. F. Manzer,  Shan-Ping Mao,  Yuezhi Mao,  N. Mardirossian,  
 A. V. Marenich,  T. Markovich,  L. A. Martinez-Martinez,  S. A. Maurer,  
 N. J. Mayhall,  S. C. McKenzie,  J.-M. Mewes,  A. F. Morrison,  
 J. W. Mullinax,  K. Nanda,  T. S. Nguyen-Beck,  R. Olivares-Amaya,  
 J. A. Parkhill,  T. M. Perrine,  F. Plasser,  P. Pokhilko,  S. Prager,  
 A. Prociuk,  E. Ramos,  D. R. Rehn,  F. Rob,  M. Schneider,  N. Sergueev,  
 S. M. Sharada,  S. Sharma,  D. W. Small,  T. Stauch,  T. Stein,  
 Yu-Chuan Su,  A. J. W. Thom,  A. Tkatchenko,  T. Tsuchimochi,  N. M. Tubman,  
 L. Vogt,  M. L. Vidal,  O. Vydrov,  M. A. Watson,  J. Wenzel,  
 M. de Wergifosse,  T. A. Wesolowski,  A. White,  J. Witte,  A. Yamada,  
 Jun Yang,  K. Yao,  S. Yeganeh,  S. R. Yost,  Zhi-Qiang You,  A. Zech,  
 Igor Ying Zhang,  Xing Zhang,  Yan Zhao,  Ying Zhu,  B. R. Brooks,  
 G. K. L. Chan,  C. J. Cramer,  M. S. Gordon,  W. J. Hehre,  A. Klamt,  
 M. W. Schmidt,  C. D. Sherrill,  D. G. Truhlar,  A. Aspuru-Guzik,  R. Baer,  
 A. T. Bell,  N. A. Besley,  Jeng-Da Chai,  A. E. DePrince, III,  
 R. A. DiStasio Jr.,  A. Dreuw,  B. D. Dunietz,  T. R. Furlani,  
 Chao-Ping Hsu,  Yousung Jung,  Jing Kong,  D. S. Lambrecht,  WanZhen Liang,  
 C. Ochsenfeld,  V. A. Rassolov,  L. V. Slipchenko,  J. E. Subotnik,  
 T. Van Voorhis,  J. M. Herbert,  A. I. Krylov,  P. M. W. Gill,  M. Head-Gordon

 Contributors to earlier versions of Q-Chem not listed above: 
 R. D. Adamson,  B. Austin,  J. Baker,  G. J. O. Beran,  K. Brandhorst,  
 S. T. Brown,  E. F. C. Byrd,  A. K. Chakraborty,  C.-L. Cheng,  
 Siu Hung Chien,  D. M. Chipman,  D. L. Crittenden,  H. Dachsel,  
 R. J. Doerksen,  A. D. Dutoi,  L. Fusti-Molnar,  W. A. Goddard III,  
 A. Golubeva-Zadorozhnaya,  S. R. Gwaltney,  G. Hawkins,  A. Heyden,  
 S. Hirata,  G. Kedziora,  F. J. Keil,  C. Kelley,  Jihan Kim,  R. A. King,  
 R. Z. Khaliullin,  P. P. Korambath,  W. Kurlancheek,  A. M. Lee,  M. S. Lee,  
 S. V. Levchenko,  Ching Yeh Lin,  D. Liotard,  R. C. Lochan,  I. Lotan,  
 P. E. Maslen,  N. Nair,  D. P. O'Neill,  D. Neuhauser,  E. Neuscamman,  
 C. M. Oana,  R. Olson,  B. Peters,  R. Peverati,  P. A. Pieniazek,  
 Y. M. Rhee,  J. Ritchie,  M. A. Rohrdanz,  E. Rosta,  N. J. Russ,  
 H. F. Schaefer III,  N. E. Schultz,  N. Shenvi,  A. C. Simmonett,  A. Sodt,  
 D. Stuck,  K. S. Thanthiriwatte,  V. Vanovschi,  Tao Wang,  A. Warshel,  
 C. F. Williams,  Q. Wu,  X. Xu,  W. Zhang

 Please cite Q-Chem as follows:
 Y. Shao et al., Mol. Phys. 113, 184-215 (2015)
 DOI: 10.1080/00268976.2014.952696

 Q-Chem 5.1.1 for Intel X86 EM64T Linux

 Parts of Q-Chem use Armadillo 8.300.2 (Tropical Shenanigans).
 http://arma.sourceforge.net/

 Q-Chem begins on Sat Oct  3 01:31:24 2020  

Host: n0086.mhg0
0

     Scratch files written to /local/scratch/users/yhljason/FCN_B2PLYP_aug-cc-pcVQZ.inp20201002235645//
The previous job contains 0 fragments, simply inherited here
Input Ideriv = 0
Curr. Ideriv = -1
Max.  Ideriv = 0
Analytic post-HF gradients are not available with non-HF exchange
Input Ideriv = 0
Curr. Ideriv = 0
Max.  Ideriv = 0

Checking the input file for inconsistencies... 	...done.

--------------------------------------------------------------
User input:
--------------------------------------------------------------
$molecule
read
$end

$rem

jobtype sp
method B2PLYP
xc_grid 000099000590
basis aug-cc-pcVQZ
max_scf_cycles 200
thresh 14
scf_convergence 8
mem_total 128000
cc_memory 96000
cc_backend xm
mem_static 1500
symmetry false
sym_ignore true
scf_guess read
unrestricted false
scf_algorithm gdm
n_frozen_core 0
$end

$multipole_field
ZZ -0.0001
$end

--------------------------------------------------------------
 ----------------------------------------------------------------
             Standard Nuclear Orientation (Angstroms)
    I     Atom           X                Y                Z
 ----------------------------------------------------------------
    1      C       0.0000000000     0.0000000000     0.0000000000
    2      F       0.0000000000     0.0000000000    -1.2620000000
    3      N       0.0000000000     0.0000000000     1.1590000000
 ----------------------------------------------------------------
 Nuclear Repulsion Energy =    55.5898885148 hartrees
 There are       11 alpha and       11 beta electrons
 Requested basis set is aug-cc-pCVQZ
 There are 87 shells and 327 basis functions

 Total QAlloc Memory Limit 128000 MB
 Mega-Array Size      1467 MB
 MEM_STATIC part      1500 MB

                       Distance Matrix (Angstroms)
             C (  1)   F (  2)
   F (  2)  1.262000
   N (  3)  1.159000  2.421000
 
 Applying Cartesian multipole field
    Component          Value
    ---------          -----
     (0,0,2)       -1.00000E-04
 Nucleus-field energy     =    -0.0084765519 hartrees
 A cutoff of  1.0D-14 yielded   3524 shell pairs
 There are     51188 function pairs (     84158 Cartesian)
 
 -------------------------------------------------------
 OpenMP Integral Computing Module                       
 Release: version 1.0, May 2013, Q-Chem Inc. Pittsburgh 
 -------------------------------------------------------
 Integral Job Info:
 Integral job number is                      11
 Integral operator is                         1
 short-range coefficients                     0
 long-range coefficients              100000000
 Omega coefficients                           0
 if combine SR and LR in K                    0
 Integral screening is                        0
 Integral computing path is                   2
 max size of driver memory is           3200000
 size of driver memory is               1704330
 size of scratch memory is             18511652
 max col of scratch BK array              50625
 max len of scratch array in speh3         2114
 max len of scratch index in speh4           50
 max int batch size is                      520
 min int batch size is                       52
 fixed nKL is                                52
 max L of basis functions is                  4
 order of int derivative is                   0
 number of shells is                         87
 number of basis is                         417
 number of cartesian basis is               417
 number of contracted shell pairs          3524
 number of primitive shell pairs           7911
 maxK2 (contraction) of shell pair           81
 max number of K2 of shell pair               1
 max number of CS2 of shell pair            406
 max number of PS2 of shell pair            792
 mem total for path MDJ                  807544
 -------------------------------------------------------
 Smallest overlap matrix eigenvalue = 3.65E-05
 Guess MOs from SCF MO coefficient file

 -----------------------------------------------------------------------
  General SCF calculation program by
  Eric Jon Sundstrom, Paul Horn, Yuezhi Mao, Dmitri Zuev, Alec White,
  David Stuck, Shaama M.S., Shane Yost, Joonho Lee, David Small,
  Daniel Levine, Susi Lehtola, Hugh Burton, Evgeny Epifanovsky
 -----------------------------------------------------------------------
 Exchange:     0.5300 Hartree-Fock + 0.4700 B88
 Correlation:  0.7300 LYP
 Using Euler-Maclaurin-Lebedev (99,590) quadrature formula
 using 8 threads for integral computing
 -------------------------------------------------------
 OpenMP Integral computing Module                
 Release: version 2.0, May 2017, Q-Chem Inc. Pleasanton 
 -------------------------------------------------------
 -------------------------------------------------------
 OpenMP BLAS3 based DFT computing Module                
 Release: version 1.0, May 2013, Q-Chem Inc. Pittsburgh 
 -------------------------------------------------------
 A restricted SCF calculation will be
 performed using GDM
 SCF converges when RMS gradient is below 1.0e-08
 ---------------------------------------
  Cycle       Energy        RMS Gradient
 ---------------------------------------
    1    -192.4138860995      7.51e-04   Normal BFGS step
    2    -192.4138895214      6.90e-04   Normal BFGS step
    3    -192.4138908567      3.14e-04   Normal BFGS step
    4    -192.4138912467      1.00e-04   Normal BFGS step
    5    -192.4138913173      4.36e-05   Normal BFGS step
    6    -192.4138913252      1.15e-05   Normal BFGS step
    7    -192.4138913276      2.20e-06   Normal BFGS step
    8    -192.4138913276      2.82e-07   Normal BFGS step
    9    -192.4138913276      2.40e-08   Normal BFGS step
   10    -192.4138913276      7.39e-09  Convergence criterion met
 ---------------------------------------
 SCF time:   CPU 2747.47s  wall 363.00s 
 SCF   energy in the final basis set =     -192.4138913276
 Total energy in the final basis set =     -192.4138913276
 
 Components of the MP2 correlation energy:
        aaaa  correlation energy =        -0.0297536790 au
        abab  correlation energy =        -0.1978832587 au
        bbbb  correlation energy =        -0.0297536790 au
        non-Brillouin singles    =        -0.0000000000 au

 Total  MP2   correlation energy =                    -0.25739062 au
        MP2         total energy =                  -192.67128194 au
 
 --------------------------------------------------------------
 
                    Orbital Energies (a.u.)
 --------------------------------------------------------------
 
 Alpha MOs
 -- Occupied --
-25.494 -14.880 -10.775  -1.529  -1.076  -0.796  -0.677  -0.677
 -0.488  -0.423  -0.423
 -- Virtual --
  0.001   0.049   0.049   0.052   0.089   0.089   0.098   0.122
  0.122   0.122   0.179   0.179   0.179   0.184   0.184   0.207
  0.277   0.295   0.295   0.307   0.349   0.349   0.350   0.350
  0.415   0.428   0.428   0.467   0.540   0.581   0.581   0.668
  0.668   0.679   0.684   0.684   0.714   0.714   0.745   0.745
  0.765   0.827   0.863   0.863   0.891   0.891   0.910   0.910
  0.922   0.984   1.047   1.047   1.094   1.094   1.129   1.129
  1.186   1.271   1.271   1.281   1.407   1.487   1.487   1.508
  1.579   1.579   1.692   1.752   1.752   1.768   1.768   1.793
  1.793   1.881   1.881   1.925   1.925   1.976   1.976   1.997
  2.076   2.100   2.100   2.181   2.181   2.227   2.227   2.346
  2.396   2.396   2.470   2.470   2.600   2.646   2.646   2.656
  2.656   2.844   2.844   2.867   2.909   2.909   2.977   2.999
  2.999   3.027   3.027   3.063   3.063   3.072   3.177   3.177
  3.340   3.426   3.426   3.566   3.566   3.729   3.729   3.865
  4.024   4.024   4.188   4.267   4.267   4.326   4.326   4.496
  4.496   4.503   4.642   4.642   4.781   4.883   4.919   4.919
  4.933   4.933   5.058   5.319   5.319   5.365   5.365   5.485
  5.485   5.610   5.610   5.667   5.694   5.694   5.765   5.765
  5.858   5.858   5.939   5.939   6.125   6.204   6.204   6.365
  6.365   6.420   6.420   6.481   6.542   6.542   6.779   6.779
  6.915   7.081   7.516   7.516   7.723   7.723   7.895   7.895
  8.050   8.050   8.397   8.397   8.465   8.465   8.465   8.774
  8.832   8.832   8.880   9.016   9.016   9.360   9.360   9.461
  9.691   9.691   9.982   9.982  10.405  10.405  11.060  11.597
 12.042  12.042  12.573  12.573  13.078  13.220  13.220  13.335
 13.465  13.465  13.675  13.675  13.750  13.750  13.913  14.940
 15.365  15.365  15.649  15.649  16.366  16.366  16.454  16.454
 16.692  17.101  17.101  18.073  19.093  19.093  20.801  22.486
 26.250  26.250  26.414  26.414  26.952  26.952  27.641  28.425
 36.663  36.663  37.416  37.416  37.562  38.084  41.584  41.584
 42.453  49.340  59.641  59.641  59.899  59.899  60.634  66.166
 66.166  67.746  79.536  91.288  91.288  92.431  97.191  97.191
 97.233  97.233  97.367  97.367  97.383  97.897  97.897  97.909
 97.909  97.977  97.977  98.110 111.368 111.368 111.398 111.398
111.441 111.441 111.494 114.320 114.320 114.693 114.693 115.381
123.082 144.834 144.834 145.522 155.906 155.906 156.317 156.317
156.633 165.361 223.992 223.992 225.326 249.796 249.796 249.931
249.931 250.334 269.294 308.205 308.205 309.156 492.092 492.092
492.647 508.290 685.2651112.722
 --------------------------------------------------------------
 
          Ground-State Mulliken Net Atomic Charges

     Atom                 Charge (a.u.)
  ----------------------------------------
      1 C                     0.754811
      2 F                    -0.287508
      3 N                    -0.467302
  ----------------------------------------
  Sum of atomic charges =    -0.000000

 -----------------------------------------------------------------
                    Cartesian Multipole Moments
 -----------------------------------------------------------------
    Charge (ESU x 10^10)
                -0.0000
    Dipole Moment (Debye)
         X       0.0000      Y      -0.0000      Z      -2.2853
       Tot       2.2853
    Quadrupole Moments (Debye-Ang)
        XX     -15.2728     XY       0.0000     YY     -15.2728
        XZ       0.0000     YZ       0.0000     ZZ     -18.6146
    Octopole Moments (Debye-Ang^2)
       XXX       0.0000    XXY      -0.0000    XYY       0.0000
       YYY      -0.0000    XXZ      -1.5416    XYZ      -0.0000
       YYZ      -1.5416    XZZ       0.0000    YZZ      -0.0000
       ZZZ      -7.1677
    Hexadecapole Moments (Debye-Ang^3)
      XXXX     -13.4589   XXXY       0.0000   XXYY      -4.4863
      XYYY      -0.0000   YYYY     -13.4589   XXXZ      -0.0000
      XXYZ      -0.0000   XYYZ       0.0000   YYYZ      -0.0000
      XXZZ     -20.0722   XYZZ      -0.0000   YYZZ     -20.0722
      XZZZ       0.0000   YZZZ       0.0000   ZZZZ    -111.1833
 -----------------------------------------------------------------
Archival summary:
1\1\n0086.mhg0\SP\ProcedureUnspecified\BasisUnspecified\111\yhljason\SatOct301:44:132020SatOct301:44:132020\0\\#,ProcedureUnspecified,BasisUnspecified,\\0,1\C\N,1,1.159\F,1,1.262,2,180\\\@

 Total job time:  768.88s(wall), 5943.42s(cpu) 
 Sat Oct  3 01:44:13 2020

        *************************************************************
        *                                                           *
        *  Thank you very much for using Q-Chem.  Have a nice day.  *
        *                                                           *
        *************************************************************


