Q-Chem Developer Version!
                  Welcome to Q-Chem
     A Quantum Leap Into The Future Of Chemistry


 Q-Chem 5.1, Q-Chem, Inc., Pleasanton, CA (2018)

 Yihan Shao,  Zhengting Gan,  E. Epifanovsky,  A. T. B. Gilbert,  M. Wormit,  
 J. Kussmann,  A. W. Lange,  A. Behn,  Jia Deng,  Xintian Feng,  D. Ghosh,  
 M. Goldey,  P. R. Horn,  L. D. Jacobson,  I. Kaliman,  T. Kus,  A. Landau,  
 Jie Liu,  E. I. Proynov,  R. M. Richard,  R. P. Steele,  E. J. Sundstrom,  
 H. L. Woodcock III,  P. M. Zimmerman,  D. Zuev,  B. Albrecht,  E. Alguire,  
 S. A. Baeppler,  D. Barton,  Z. Benda,  Y. A. Bernard,  E. J. Berquist,  
 K. B. Bravaya,  H. Burton,  D. Casanova,  Chun-Min Chang,  Yunqing Chen,  
 A. Chien,  K. D. Closser,  M. P. Coons,  S. Coriani,  S. Dasgupta,  
 A. L. Dempwolff,  M. Diedenhofen,  Hainam Do,  R. G. Edgar,  Po-Tung Fang,  
 S. Faraji,  S. Fatehi,  Qingguo Feng,  K. D. Fenk,  J. Fosso-Tande,  
 Qinghui Ge,  A. Ghysels,  G. Gidofalvi,  J. Gomes,  J. Gonthier,  A. Gunina,  
 D. Hait,  M. W. D. Hanson-Heine,  P. H. P. Harbach,  A. W. Hauser,  
 J. E. Herr,  E. G. Hohenstein,  Z. C. Holden,  Kerwin Hui,  B. C. Huynh,  
 T.-C. Jagau,  Hyunjun Ji,  B. Kaduk,  K. Khistyaev,  Jaehoon Kim,  
 P. Klunzinger,  K. Koh,  D. Kosenkov,  L. Koulias,  T. Kowalczyk,  
 C. M. Krauter,  A. Kunitsa,  Ka Un Lao,  A. Laurent,  K. V. Lawler,  
 Joonho Lee,  D. Lefrancois,  S. Lehtola,  D. S. Levine,  Yi-Pei Li,  
 You-Sheng Lin,  Fenglai Liu,  E. Livshits,  A. Luenser,  P. Manohar,  
 E. Mansoor,  S. F. Manzer,  Shan-Ping Mao,  Yuezhi Mao,  N. Mardirossian,  
 A. V. Marenich,  T. Markovich,  L. A. Martinez-Martinez,  S. A. Maurer,  
 N. J. Mayhall,  S. C. McKenzie,  J.-M. Mewes,  A. F. Morrison,  
 J. W. Mullinax,  K. Nanda,  T. S. Nguyen-Beck,  R. Olivares-Amaya,  
 J. A. Parkhill,  T. M. Perrine,  F. Plasser,  P. Pokhilko,  S. Prager,  
 A. Prociuk,  E. Ramos,  D. R. Rehn,  F. Rob,  M. Schneider,  N. Sergueev,  
 S. M. Sharada,  S. Sharma,  D. W. Small,  T. Stauch,  T. Stein,  
 Yu-Chuan Su,  A. J. W. Thom,  A. Tkatchenko,  T. Tsuchimochi,  N. M. Tubman,  
 L. Vogt,  M. L. Vidal,  O. Vydrov,  M. A. Watson,  J. Wenzel,  
 M. de Wergifosse,  T. A. Wesolowski,  A. White,  J. Witte,  A. Yamada,  
 Jun Yang,  K. Yao,  S. Yeganeh,  S. R. Yost,  Zhi-Qiang You,  A. Zech,  
 Igor Ying Zhang,  Xing Zhang,  Yan Zhao,  Ying Zhu,  B. R. Brooks,  
 G. K. L. Chan,  C. J. Cramer,  M. S. Gordon,  W. J. Hehre,  A. Klamt,  
 M. W. Schmidt,  C. D. Sherrill,  D. G. Truhlar,  A. Aspuru-Guzik,  R. Baer,  
 A. T. Bell,  N. A. Besley,  Jeng-Da Chai,  A. E. DePrince, III,  
 R. A. DiStasio Jr.,  A. Dreuw,  B. D. Dunietz,  T. R. Furlani,  
 Chao-Ping Hsu,  Yousung Jung,  Jing Kong,  D. S. Lambrecht,  WanZhen Liang,  
 C. Ochsenfeld,  V. A. Rassolov,  L. V. Slipchenko,  J. E. Subotnik,  
 T. Van Voorhis,  J. M. Herbert,  A. I. Krylov,  P. M. W. Gill,  M. Head-Gordon

 Contributors to earlier versions of Q-Chem not listed above: 
 R. D. Adamson,  B. Austin,  J. Baker,  G. J. O. Beran,  K. Brandhorst,  
 S. T. Brown,  E. F. C. Byrd,  A. K. Chakraborty,  C.-L. Cheng,  
 Siu Hung Chien,  D. M. Chipman,  D. L. Crittenden,  H. Dachsel,  
 R. J. Doerksen,  A. D. Dutoi,  L. Fusti-Molnar,  W. A. Goddard III,  
 A. Golubeva-Zadorozhnaya,  S. R. Gwaltney,  G. Hawkins,  A. Heyden,  
 S. Hirata,  G. Kedziora,  F. J. Keil,  C. Kelley,  Jihan Kim,  R. A. King,  
 R. Z. Khaliullin,  P. P. Korambath,  W. Kurlancheek,  A. M. Lee,  M. S. Lee,  
 S. V. Levchenko,  Ching Yeh Lin,  D. Liotard,  R. C. Lochan,  I. Lotan,  
 P. E. Maslen,  N. Nair,  D. P. O'Neill,  D. Neuhauser,  E. Neuscamman,  
 C. M. Oana,  R. Olson,  B. Peters,  R. Peverati,  P. A. Pieniazek,  
 Y. M. Rhee,  J. Ritchie,  M. A. Rohrdanz,  E. Rosta,  N. J. Russ,  
 H. F. Schaefer III,  N. E. Schultz,  N. Shenvi,  A. C. Simmonett,  A. Sodt,  
 D. Stuck,  K. S. Thanthiriwatte,  V. Vanovschi,  Tao Wang,  A. Warshel,  
 C. F. Williams,  Q. Wu,  X. Xu,  W. Zhang

 Please cite Q-Chem as follows:
 Y. Shao et al., Mol. Phys. 113, 184-215 (2015)
 DOI: 10.1080/00268976.2014.952696

 Q-Chem 5.1.1 for Intel X86 EM64T Linux

 Parts of Q-Chem use Armadillo 8.300.2 (Tropical Shenanigans).
 http://arma.sourceforge.net/

 Q-Chem begins on Fri Oct  2 23:57:00 2020  

Host: n0099.mhg0
0

     Scratch files written to /local/scratch/users/yhljason/NH2_B2PLYP_aug-cc-pcVQZ.inp20201002235658//
Input Ideriv = 0
Curr. Ideriv = -1
Max.  Ideriv = 0
Input Ideriv = 1
Curr. Ideriv = 0
Max.  Ideriv = 0

Checking the input file for inconsistencies... 	...done.

--------------------------------------------------------------
User input:
--------------------------------------------------------------
$molecule
0 2
N1	0.0000	0.0000	0.0000
H2	0.0000	0.8036	0.6347
H3	0.0000	-0.8036	0.6347
$end

$rem
jobtype sp
method B2PLYP
xc_grid 000099000590
basis aug-cc-pcVQZ
max_scf_cycles 200
thresh 14
scf_convergence 8
scf_algorithm gdm
symmetry false
sym_ignore true
unrestricted false
gen_scfman true
internal_stability_iter 15
internal_stability_davidson_iter 200
mem_total 128000
cc_memory 96000
cc_backend xm
mem_static 1500
n_frozen_core 0
$end



--------------------------------------------------------------
 ----------------------------------------------------------------
             Standard Nuclear Orientation (Angstroms)
    I     Atom           X                Y                Z
 ----------------------------------------------------------------
    1      N       0.0000000000     0.0000000000     0.0000000000
    2      H       0.0000000000     0.8036000000     0.6347000000
    3      H       0.0000000000    -0.8036000000     0.6347000000
 ----------------------------------------------------------------
 Nuclear Repulsion Energy =     7.5639571803 hartrees
 There are        5 alpha and        4 beta electrons
 Requested basis set is aug-cc-pCVQZ
 There are 57 shells and 201 basis functions

 Total QAlloc Memory Limit 128000 MB
 Mega-Array Size      1467 MB
 MEM_STATIC part      1500 MB

                       Distance Matrix (Angstroms)
             N (  1)   H (  2)
   H (  2)  1.024020
   H (  3)  1.024020  1.607200
 
 A cutoff of  1.0D-14 yielded   1653 shell pairs
 There are     20709 function pairs (     31923 Cartesian)
 
 -------------------------------------------------------
 OpenMP Integral Computing Module                       
 Release: version 1.0, May 2013, Q-Chem Inc. Pittsburgh 
 -------------------------------------------------------
 Integral Job Info:
 Integral job number is                      11
 Integral operator is                         1
 short-range coefficients                     0
 long-range coefficients              100000000
 Omega coefficients                           0
 if combine SR and LR in K                    0
 Integral screening is                        0
 Integral computing path is                   2
 max size of driver memory is           3200000
 size of driver memory is               1704330
 size of scratch memory is             18511652
 max col of scratch BK array              50625
 max len of scratch array in speh3         2114
 max len of scratch index in speh4           50
 max int batch size is                      520
 min int batch size is                       52
 fixed nKL is                                52
 max L of basis functions is                  4
 order of int derivative is                   0
 number of shells is                         57
 number of basis is                         249
 number of cartesian basis is               249
 number of contracted shell pairs          1653
 number of primitive shell pairs           3157
 maxK2 (contraction) of shell pair           81
 max number of K2 of shell pair               1
 max number of CS2 of shell pair            227
 max number of PS2 of shell pair            288
 mem total for path MDJ                  643177
 -------------------------------------------------------
 Smallest overlap matrix eigenvalue = 8.93E-05

 Scale SEOQF with 1.000000e-01/1.000000e-01/1.000000e-01

 Standard Electronic Orientation quadrupole field applied
 Guess from superposition of atomic densities
 Warning:  Energy on first SCF cycle will be non-variational
 SAD guess density has 9.000000 electrons

 -----------------------------------------------------------------------
  General SCF calculation program by
  Eric Jon Sundstrom, Paul Horn, Yuezhi Mao, Dmitri Zuev, Alec White,
  David Stuck, Shaama M.S., Shane Yost, Joonho Lee, David Small,
  Daniel Levine, Susi Lehtola, Hugh Burton, Evgeny Epifanovsky
 -----------------------------------------------------------------------
 Exchange:     0.5300 Hartree-Fock + 0.4700 B88
 Correlation:  0.7300 LYP
 Using Euler-Maclaurin-Lebedev (99,590) quadrature formula
Running Object-Oriented ROKS (ROHF)
ROHF occupied orbitals are orthonormal
ROHF occupied orbitals are orthogonal to virtual orbitals
ROHF virtual orbitals are orthonormal
We will preform up to 15 macro iterations over saddle points until a stable solution is found
Energy prior to optimization (guess energy) = -54.726751123347
Begin Timing: Total SCF Calculation
Begin Timing: SCF Single Stationary Point Calculation
begin iterations for algorithm: GDM          
the SCF tolerance is set to 1.00e-08
    1     -54.7267511233      6.46e-01     00000  Descent step
    2     -54.9950747394      4.35e-01     00000  Descent step
    3     -55.1434430954      2.03e-01     00000  Dog-leg BFGS step
    4     -55.2115880769      2.65e-01     00000  Dog-leg BFGS step
    5     -55.3338082423      5.67e-01     00000  Descent step
Fro norm of D 1.314690692707e+00
transformation scaled by 2
    6     -55.5408147582      1.42e+00     00000  Descent step
    7     -55.6500989486      4.50e-01     00000  Descent step
    8     -55.7133611016      6.28e-02     00000  Normal BFGS step
    9     -55.7202279645      2.40e-02     00000  Normal BFGS step
   10     -55.7214330287      2.32e-02     00000  Normal BFGS step
   11     -55.7218760040      2.23e-03     00000  Normal BFGS step
   12     -55.7218957987      1.05e-03     00000  Normal BFGS step
   13     -55.7219001287      1.88e-04     00000  Normal BFGS step
   14     -55.7219002311      2.63e-05     00000  Normal BFGS step
   15     -55.7219002357      4.83e-06     00000  Normal BFGS step
   16     -55.7219002357      1.04e-06     00000  Normal BFGS step
   17     -55.7219002357      1.25e-07     00000  Normal BFGS step
   18     -55.7219002357      2.66e-08     00000  Normal BFGS step
   19     -55.7219002357      3.19e-09     00000 Convergence criterion met
The disked orbital energies are calculated using alpha and beta Focks
Timing for Single Stationary Point: 127.00s (wall), 997.49s (cpu)
Begin Timing: Stability
===================================================
Beginning Test for Internal Stability
===================================================
generating davidson guess vectors based on koopmans-like excitations
    1      3.79e-01     00000 Davidson Iteration
    2      8.15e-02     00000 Davidson Iteration
    3      1.92e-02     00000 Davidson Iteration
    4      2.67e-03     00000 Davidson Iteration
    5      5.79e-04     00000 Davidson Iteration
    6      1.48e-04     00000 Davidson Iteration
    7      1.87e-05     00000 Davidson Converged
converged_eigenvalues
  -0.1524
   0.3341
Threshold for negative eigenvalues: -1.0e-05
solution was a saddle point (unstable)
displacing from saddle point as requested
performing a line search along the lowest hessian eigenvector after a small displacement (1E-3) to give a non-zero gradient along this direction 
Fro norm of D 1.386362146050e+00
transformation scaled by 2
Fro norm of D 1.788854382000e+00
transformation scaled by 2
Fro norm of D 1.677207056100e+00
transformation scaled by 2
Fro norm of D 1.687885666338e+00
transformation scaled by 2
===================================================
End Test for Internal Stability
===================================================
Timing for Internal Stability: 144.00s (wall), 1143.28s (cpu)
The disked orbital energies are calculated using alpha and beta Focks
completed scf stability macro iteration 1
beginning next scf after displacing from saddle point
Begin Timing: SCF Single Stationary Point Calculation
begin iterations for algorithm: GDM          
the SCF tolerance is set to 1.00e-08
    1     -55.7684740290      6.26e-02     00000  Normal BFGS step
    2     -55.7924710018      9.81e-02     00000  Normal BFGS step
    3     -55.7953988708      6.62e-02     00000  Normal BFGS step
    4     -55.7983521397      1.02e-02     00000  Normal BFGS step
    5     -55.7984809266      2.73e-03     00000  Normal BFGS step
    6     -55.7984912196      4.08e-04     00000  Normal BFGS step
    7     -55.7984916631      2.10e-04     00000  Normal BFGS step
    8     -55.7984918318      5.53e-05     00000  Normal BFGS step
    9     -55.7984918374      2.83e-05     00000  Normal BFGS step
   10     -55.7984918381      2.69e-06     00000  Normal BFGS step
   11     -55.7984918381      2.92e-07     00000  Normal BFGS step
   12     -55.7984918381      5.88e-08     00000  Normal BFGS step
   13     -55.7984918381      5.00e-08     00000  Normal BFGS step
   14     -55.7984918381      2.41e-08     00000  Normal BFGS step
   15     -55.7984918381      1.01e-09     00000 Convergence criterion met
The disked orbital energies are calculated using alpha and beta Focks
Timing for Single Stationary Point: 100.00s (wall), 788.76s (cpu)
Begin Timing: Stability
===================================================
Beginning Test for Internal Stability
===================================================
generating davidson guess vectors based on koopmans-like excitations
    1      2.69e-01     00000 Davidson Iteration
    2      1.05e-01     00000 Davidson Iteration
    3      3.00e-02     00000 Davidson Iteration
    4      3.27e-03     00000 Davidson Iteration
    5      4.37e-04     00000 Davidson Iteration
    6      2.11e-04     00000 Davidson Iteration
    7      2.85e-05     00000 Davidson Converged
converged_eigenvalues
   0.1499
   0.4713
Threshold for negative eigenvalues: -1.0e-05
solution was a local minimum (stable)
===================================================
End Test for Internal Stability
===================================================
Our SCF solution is stable!
The disked orbital energies are calculated using alpha and beta Focks
Timing for Total SCF: 459.00s (wall), 3625.10s (cpu)
 Total energy in the final basis set =      -55.7984918381
<S^2> =          0.750000000
    ==================================================
              The end of Object-Oriented SCFman       
    ==================================================
 
 Components of the MP2 correlation energy:
        aaaa  correlation energy =        -0.0106651511 au
        abab  correlation energy =        -0.0651732147 au
        bbbb  correlation energy =        -0.0049037806 au
        non-Brillouin singles    =        -0.0021115245 au

 Total  MP2   correlation energy =                    -0.08285367 au
        MP2         total energy =                   -55.88134551 au
 
 --------------------------------------------------------------
 
                    Orbital Energies (a.u.)
 --------------------------------------------------------------
 
 Alpha MOs
 -- Occupied --
-14.871  -0.982  -0.551  -0.408  -0.397
 -- Virtual --
  0.004   0.031   0.078   0.079   0.100   0.120   0.140   0.155
  0.173   0.194   0.199   0.263   0.298   0.317   0.324   0.342
  0.346   0.386   0.392   0.487   0.513   0.528   0.563   0.573
  0.584   0.607   0.650   0.668   0.688   0.694   0.707   0.762
  0.779   0.784   0.881   0.921   0.955   0.967   1.055   1.055
  1.092   1.102   1.165   1.192   1.256   1.370   1.375   1.390
  1.403   1.445   1.520   1.524   1.531   1.569   1.595   1.698
  1.710   1.761   1.798   1.833   1.839   1.851   1.857   1.898
  1.940   1.995   2.024   2.078   2.137   2.246   2.513   2.522
  2.540   2.552   2.707   2.774   2.791   2.869   2.881   2.916
  2.933   2.947   2.951   3.008   3.051   3.058   3.100   3.123
  3.167   3.174   3.191   3.314   3.438   3.710   3.777   3.807
  3.820   3.834   3.969   3.991   4.050   4.121   4.242   4.400
  4.721   4.723   4.749   4.872   5.064   5.090   6.551   6.574
  6.579   6.597   6.913   7.054   7.064   7.131   7.138   7.256
  7.347   7.428   7.441   7.582   7.660   7.953   7.986   7.989
  7.997   8.050   8.098   8.220   8.227   8.245   8.289   8.533
  8.597   8.670   8.671   8.693   8.716   8.846   8.874   8.917
  9.030   9.171   9.240   9.258   9.405   9.436   9.535   9.606
  9.976  10.006  10.066  10.129  10.370  10.513  11.188  11.611
 11.838  11.850  11.965  12.372  13.392  14.325  15.489  26.136
 27.210  28.195  36.966  37.114  37.145  37.619  37.954  49.197
 91.084  91.870  92.613 111.394 111.399 111.404 111.422 111.425
111.481 111.499 156.087 156.159 156.186 156.432 156.615 165.256
308.046 308.678 309.286 685.206
 
 Beta MOs
 -- Occupied --
-14.850  -0.912  -0.533  -0.378
 -- Virtual --
 -0.007   0.006   0.031   0.079   0.087   0.104   0.120   0.142
  0.156   0.174   0.201   0.204   0.262   0.305   0.321   0.332
  0.342   0.357   0.392   0.393   0.490   0.534   0.529   0.571
  0.575   0.595   0.611   0.650   0.680   0.690   0.702   0.708
  0.763   0.781   0.784   0.894   0.941   0.972   0.992   1.061
  1.064   1.097   1.107   1.167   1.200   1.257   1.372   1.396
  1.417   1.405   1.456   1.524   1.534   1.534   1.574   1.597
  1.701   1.713   1.761   1.798   1.840   1.839   1.853   1.871
  1.900   1.944   2.000   2.026   2.080   2.146   2.305   2.526
  2.532   2.557   2.574   2.723   2.778   2.793   2.871   2.886
  2.925   2.942   2.979   2.965   3.046   3.081   3.083   3.134
  3.128   3.195   3.187   3.213   3.327   3.441   3.724   3.790
  3.819   3.842   3.855   3.989   3.994   4.068   4.130   4.254
  4.409   4.752   4.735   4.758   4.902   5.086   5.097   6.555
  6.578   6.583   6.600   6.921   7.081   7.074   7.145   7.140
  7.270   7.354   7.450   7.442   7.642   7.669   7.971   8.008
  7.993   8.022   8.084   8.106   8.233   8.250   8.257   8.297
  8.562   8.625   8.700   8.675   8.711   8.730   8.848   8.902
  8.950   9.044   9.181   9.262   9.290   9.434   9.450   9.563
  9.609   9.988  10.015  10.112  10.174  10.378  10.537  11.195
 11.645  11.872  11.856  11.969  12.379  13.427  14.330  15.507
 26.196  27.222  28.208  36.999  37.139  37.178  37.639  37.958
 49.219  91.108  91.875  92.618 111.412 111.417 111.423 111.440
111.438 111.486 111.502 156.096 156.167 156.195 156.437 156.615
165.264 308.054 308.679 309.287 685.208
 --------------------------------------------------------------
 
          Ground-State Mulliken Net Atomic Charges

     Atom                 Charge (a.u.)
  ----------------------------------------
      1 N                    -0.501818
      2 H                     0.250909
      3 H                     0.250909
  ----------------------------------------
  Sum of atomic charges =    -0.000000

 -----------------------------------------------------------------
                    Cartesian Multipole Moments
 -----------------------------------------------------------------
    Charge (ESU x 10^10)
                -0.0000
    Dipole Moment (Debye)
         X      -0.0000      Y       0.0000      Z       1.8214
       Tot       1.8214
    Quadrupole Moments (Debye-Ang)
        XX      -7.2412     XY       0.0000     YY      -5.5544
        XZ       0.0000     YZ       0.0000     ZZ      -7.1985
    Octopole Moments (Debye-Ang^2)
       XXX      -0.0000    XXY       0.0000    XYY      -0.0000
       YYY      -0.0000    XXZ      -0.6190    XYZ       0.0000
       YYZ       0.5630    XZZ      -0.0000    YZZ       0.0000
       ZZZ      -1.4912
    Hexadecapole Moments (Debye-Ang^3)
      XXXX      -7.0694   XXXY       0.0000   XXYY      -3.0718
      XYYY       0.0000   YYYY      -9.6116   XXXZ       0.0000
      XXYZ       0.0000   XYYZ       0.0000   YYYZ      -0.0000
      XXZZ      -3.1775   XYZZ       0.0000   YYZZ      -2.9652
      XZZZ       0.0000   YZZZ       0.0000   ZZZZ     -11.6315
 -----------------------------------------------------------------
Archival summary:
1\1\n0099.mhg0\SP\ROProcedureUnspecified\BasisUnspecified\12(2)\yhljason\SatOct300:06:522020SatOct300:06:522020\0\\#,ROProcedureUnspecified,BasisUnspecified,\\0,2\N\H,1,1.02402\H,1,1.02402,2,103.395\\\@

 Total job time:  592.61s(wall), 4685.67s(cpu) 
 Sat Oct  3 00:06:52 2020

        *************************************************************
        *                                                           *
        *  Thank you very much for using Q-Chem.  Have a nice day.  *
        *                                                           *
        *************************************************************


 
User input: 2 of 83 of 8 
 
Q-Chem Developer Version!
                  Welcome to Q-Chem
     A Quantum Leap Into The Future Of Chemistry


 Q-Chem 5.1, Q-Chem, Inc., Pleasanton, CA (2018)

 Yihan Shao,  Zhengting Gan,  E. Epifanovsky,  A. T. B. Gilbert,  M. Wormit,  
 J. Kussmann,  A. W. Lange,  A. Behn,  Jia Deng,  Xintian Feng,  D. Ghosh,  
 M. Goldey,  P. R. Horn,  L. D. Jacobson,  I. Kaliman,  T. Kus,  A. Landau,  
 Jie Liu,  E. I. Proynov,  R. M. Richard,  R. P. Steele,  E. J. Sundstrom,  
 H. L. Woodcock III,  P. M. Zimmerman,  D. Zuev,  B. Albrecht,  E. Alguire,  
 S. A. Baeppler,  D. Barton,  Z. Benda,  Y. A. Bernard,  E. J. Berquist,  
 K. B. Bravaya,  H. Burton,  D. Casanova,  Chun-Min Chang,  Yunqing Chen,  
 A. Chien,  K. D. Closser,  M. P. Coons,  S. Coriani,  S. Dasgupta,  
 A. L. Dempwolff,  M. Diedenhofen,  Hainam Do,  R. G. Edgar,  Po-Tung Fang,  
 S. Faraji,  S. Fatehi,  Qingguo Feng,  K. D. Fenk,  J. Fosso-Tande,  
 Qinghui Ge,  A. Ghysels,  G. Gidofalvi,  J. Gomes,  J. Gonthier,  A. Gunina,  
 D. Hait,  M. W. D. Hanson-Heine,  P. H. P. Harbach,  A. W. Hauser,  
 J. E. Herr,  E. G. Hohenstein,  Z. C. Holden,  Kerwin Hui,  B. C. Huynh,  
 T.-C. Jagau,  Hyunjun Ji,  B. Kaduk,  K. Khistyaev,  Jaehoon Kim,  
 P. Klunzinger,  K. Koh,  D. Kosenkov,  L. Koulias,  T. Kowalczyk,  
 C. M. Krauter,  A. Kunitsa,  Ka Un Lao,  A. Laurent,  K. V. Lawler,  
 Joonho Lee,  D. Lefrancois,  S. Lehtola,  D. S. Levine,  Yi-Pei Li,  
 You-Sheng Lin,  Fenglai Liu,  E. Livshits,  A. Luenser,  P. Manohar,  
 E. Mansoor,  S. F. Manzer,  Shan-Ping Mao,  Yuezhi Mao,  N. Mardirossian,  
 A. V. Marenich,  T. Markovich,  L. A. Martinez-Martinez,  S. A. Maurer,  
 N. J. Mayhall,  S. C. McKenzie,  J.-M. Mewes,  A. F. Morrison,  
 J. W. Mullinax,  K. Nanda,  T. S. Nguyen-Beck,  R. Olivares-Amaya,  
 J. A. Parkhill,  T. M. Perrine,  F. Plasser,  P. Pokhilko,  S. Prager,  
 A. Prociuk,  E. Ramos,  D. R. Rehn,  F. Rob,  M. Schneider,  N. Sergueev,  
 S. M. Sharada,  S. Sharma,  D. W. Small,  T. Stauch,  T. Stein,  
 Yu-Chuan Su,  A. J. W. Thom,  A. Tkatchenko,  T. Tsuchimochi,  N. M. Tubman,  
 L. Vogt,  M. L. Vidal,  O. Vydrov,  M. A. Watson,  J. Wenzel,  
 M. de Wergifosse,  T. A. Wesolowski,  A. White,  J. Witte,  A. Yamada,  
 Jun Yang,  K. Yao,  S. Yeganeh,  S. R. Yost,  Zhi-Qiang You,  A. Zech,  
 Igor Ying Zhang,  Xing Zhang,  Yan Zhao,  Ying Zhu,  B. R. Brooks,  
 G. K. L. Chan,  C. J. Cramer,  M. S. Gordon,  W. J. Hehre,  A. Klamt,  
 M. W. Schmidt,  C. D. Sherrill,  D. G. Truhlar,  A. Aspuru-Guzik,  R. Baer,  
 A. T. Bell,  N. A. Besley,  Jeng-Da Chai,  A. E. DePrince, III,  
 R. A. DiStasio Jr.,  A. Dreuw,  B. D. Dunietz,  T. R. Furlani,  
 Chao-Ping Hsu,  Yousung Jung,  Jing Kong,  D. S. Lambrecht,  WanZhen Liang,  
 C. Ochsenfeld,  V. A. Rassolov,  L. V. Slipchenko,  J. E. Subotnik,  
 T. Van Voorhis,  J. M. Herbert,  A. I. Krylov,  P. M. W. Gill,  M. Head-Gordon

 Contributors to earlier versions of Q-Chem not listed above: 
 R. D. Adamson,  B. Austin,  J. Baker,  G. J. O. Beran,  K. Brandhorst,  
 S. T. Brown,  E. F. C. Byrd,  A. K. Chakraborty,  C.-L. Cheng,  
 Siu Hung Chien,  D. M. Chipman,  D. L. Crittenden,  H. Dachsel,  
 R. J. Doerksen,  A. D. Dutoi,  L. Fusti-Molnar,  W. A. Goddard III,  
 A. Golubeva-Zadorozhnaya,  S. R. Gwaltney,  G. Hawkins,  A. Heyden,  
 S. Hirata,  G. Kedziora,  F. J. Keil,  C. Kelley,  Jihan Kim,  R. A. King,  
 R. Z. Khaliullin,  P. P. Korambath,  W. Kurlancheek,  A. M. Lee,  M. S. Lee,  
 S. V. Levchenko,  Ching Yeh Lin,  D. Liotard,  R. C. Lochan,  I. Lotan,  
 P. E. Maslen,  N. Nair,  D. P. O'Neill,  D. Neuhauser,  E. Neuscamman,  
 C. M. Oana,  R. Olson,  B. Peters,  R. Peverati,  P. A. Pieniazek,  
 Y. M. Rhee,  J. Ritchie,  M. A. Rohrdanz,  E. Rosta,  N. J. Russ,  
 H. F. Schaefer III,  N. E. Schultz,  N. Shenvi,  A. C. Simmonett,  A. Sodt,  
 D. Stuck,  K. S. Thanthiriwatte,  V. Vanovschi,  Tao Wang,  A. Warshel,  
 C. F. Williams,  Q. Wu,  X. Xu,  W. Zhang

 Please cite Q-Chem as follows:
 Y. Shao et al., Mol. Phys. 113, 184-215 (2015)
 DOI: 10.1080/00268976.2014.952696

 Q-Chem 5.1.1 for Intel X86 EM64T Linux

 Parts of Q-Chem use Armadillo 8.300.2 (Tropical Shenanigans).
 http://arma.sourceforge.net/

 Q-Chem begins on Sat Oct  3 00:06:59 2020  

Host: n0099.mhg0
0

     Scratch files written to /local/scratch/users/yhljason/NH2_B2PLYP_aug-cc-pcVQZ.inp20201002235658//
The previous job contains 0 fragments, simply inherited here
Input Ideriv = 0
Curr. Ideriv = -1
Max.  Ideriv = 0
Input Ideriv = 1
Curr. Ideriv = 0
Max.  Ideriv = 0

Checking the input file for inconsistencies... 	...done.

--------------------------------------------------------------
User input:
--------------------------------------------------------------
$molecule
read
$end

$rem

jobtype sp
method B2PLYP
xc_grid 000099000590
basis aug-cc-pcVQZ
max_scf_cycles 200
thresh 14
scf_convergence 8
mem_total 128000
cc_memory 96000
cc_backend xm
mem_static 1500
symmetry false
sym_ignore true
scf_guess read
unrestricted false
scf_algorithm gdm
n_frozen_core 0
$end

$multipole_field
XX 0.0001
$end


--------------------------------------------------------------
 ----------------------------------------------------------------
             Standard Nuclear Orientation (Angstroms)
    I     Atom           X                Y                Z
 ----------------------------------------------------------------
    1      N       0.0000000000     0.0000000000     0.0000000000
    2      H       0.0000000000     0.8036000000     0.6347000000
    3      H       0.0000000000    -0.8036000000     0.6347000000
 ----------------------------------------------------------------
 Nuclear Repulsion Energy =     7.5639571803 hartrees
 There are        5 alpha and        4 beta electrons
 Requested basis set is aug-cc-pCVQZ
 There are 57 shells and 201 basis functions

 Total QAlloc Memory Limit 128000 MB
 Mega-Array Size      1467 MB
 MEM_STATIC part      1500 MB

                       Distance Matrix (Angstroms)
             N (  1)   H (  2)
   H (  2)  1.024020
   H (  3)  1.024020  1.607200
 
 Applying Cartesian multipole field
    Component          Value
    ---------          -----
     (2,0,0)        1.00000E-04
 A cutoff of  1.0D-14 yielded   1653 shell pairs
 There are     20709 function pairs (     31923 Cartesian)
 
 -------------------------------------------------------
 OpenMP Integral Computing Module                       
 Release: version 1.0, May 2013, Q-Chem Inc. Pittsburgh 
 -------------------------------------------------------
 Integral Job Info:
 Integral job number is                      11
 Integral operator is                         1
 short-range coefficients                     0
 long-range coefficients              100000000
 Omega coefficients                           0
 if combine SR and LR in K                    0
 Integral screening is                        0
 Integral computing path is                   2
 max size of driver memory is           3200000
 size of driver memory is               1704330
 size of scratch memory is             18511652
 max col of scratch BK array              50625
 max len of scratch array in speh3         2114
 max len of scratch index in speh4           50
 max int batch size is                      520
 min int batch size is                       52
 fixed nKL is                                52
 max L of basis functions is                  4
 order of int derivative is                   0
 number of shells is                         57
 number of basis is                         249
 number of cartesian basis is               249
 number of contracted shell pairs          1653
 number of primitive shell pairs           3157
 maxK2 (contraction) of shell pair           81
 max number of K2 of shell pair               1
 max number of CS2 of shell pair            227
 max number of PS2 of shell pair            288
 mem total for path MDJ                  643177
 -------------------------------------------------------
 Smallest overlap matrix eigenvalue = 8.93E-05
 Guess MOs from SCF MO coefficient file
 Reading MOs from coefficient file
 Reading MOs from coefficient file
 A restricted hybrid HF-DFT SCF calculation will be
 performed using Geometric Direct Minimization
 Exchange:     0.5300 Hartree-Fock + 0.4700 B88
 Correlation:  0.7300 LYP
 Using Euler-Maclaurin-Lebedev (99,590) quadrature formula
 SCF converges when RMS gradient is below 1.0E-08
Using Q-Chem read-in guess as SCF_GUESS READ specified.

 using 8 threads for integral computing
 -------------------------------------------------------
 OpenMP Integral computing Module                
 Release: version 2.0, May 2017, Q-Chem Inc. Pleasanton 
 -------------------------------------------------------
TIMEINFO->: J/JK contribution 42.37 sec.
 -------------------------------------------------------
 OpenMP BLAS3 based DFT computing Module                
 Release: version 1.0, May 2013, Q-Chem Inc. Pittsburgh 
 -------------------------------------------------------
 ---------------------------------------
  Cycle       Energy        RMS Gradient
 ---------------------------------------
    1     -55.7990302001      4.95E-04 Normal BFGS step
TIMEINFO->: J/JK contribution 42.51 sec.
    2     -55.7990302982      4.29E-04 Normal BFGS step
TIMEINFO->: J/JK contribution 42.50 sec.
    3     -55.7990303749      2.23E-05 Normal BFGS step
TIMEINFO->: J/JK contribution 42.34 sec.
    4     -55.7990303766      2.31E-05 Normal BFGS step
TIMEINFO->: J/JK contribution 40.94 sec.
    5     -55.7990303770      4.20E-06 Normal BFGS step
TIMEINFO->: J/JK contribution 40.94 sec.
    6     -55.7990303770      1.27E-06 Normal BFGS step
TIMEINFO->: J/JK contribution 40.17 sec.
    7     -55.7990303770      1.37E-07 Normal BFGS step
TIMEINFO->: J/JK contribution 40.24 sec.
    8     -55.7990303770      2.50E-08 Normal BFGS step
TIMEINFO->: J/JK contribution 39.24 sec.
   GDM::WARNING energy changes are now smaller than effective accuracy.
   GDM::        calculation will continue, but THRESH should be increased
   GDM::        or SCF_CONVERGENCE decreased.
   GDM::        effective_thresh =   5.000000000000000E-011
    9     -55.7990303770      3.66E-09 Convergence criterion met
 ---------------------------------------
 SCF time:  CPU 478.87 s  wall 60.52 s
 SCF   energy in the final basis set = -55.79903038
 Total energy in the final basis set = -55.79903038
 
 Components of the MP2 correlation energy:
        aaaa  correlation energy =        -0.0106667686 au
        abab  correlation energy =        -0.0651760463 au
        bbbb  correlation energy =        -0.0049041963 au
        non-Brillouin singles    =        -0.0021104704 au

 Total  MP2   correlation energy =                    -0.08285748 au
        MP2         total energy =                   -55.88188786 au
 
 --------------------------------------------------------------
 
                    Orbital Energies (a.u.)
 --------------------------------------------------------------
 
 Alpha MOs
 -- Occupied --
-14.871  -0.983  -0.551  -0.408  -0.397
 -- Virtual --
  0.002   0.029   0.077   0.076   0.098   0.119   0.140   0.155
  0.171   0.193   0.198   0.262   0.298   0.316   0.323   0.341
  0.345   0.385   0.392   0.487   0.512   0.527   0.562   0.573
  0.584   0.607   0.649   0.667   0.688   0.694   0.707   0.762
  0.778   0.783   0.881   0.920   0.954   0.966   1.054   1.055
  1.091   1.102   1.164   1.192   1.255   1.370   1.375   1.389
  1.402   1.445   1.520   1.524   1.530   1.569   1.594   1.698
  1.710   1.760   1.798   1.833   1.838   1.851   1.857   1.897
  1.940   1.995   2.024   2.078   2.137   2.246   2.513   2.522
  2.540   2.552   2.707   2.774   2.791   2.869   2.881   2.915
  2.932   2.950   2.947   3.008   3.051   3.058   3.099   3.123
  3.167   3.174   3.190   3.313   3.438   3.710   3.777   3.807
  3.820   3.834   3.968   3.991   4.050   4.121   4.242   4.400
  4.723   4.720   4.749   4.871   5.064   5.090   6.551   6.573
  6.578   6.597   6.913   7.054   7.064   7.131   7.138   7.256
  7.347   7.428   7.441   7.582   7.660   7.952   7.988   7.986
  7.997   8.050   8.097   8.219   8.227   8.245   8.289   8.533
  8.597   8.671   8.670   8.693   8.716   8.846   8.874   8.917
  9.030   9.171   9.239   9.258   9.405   9.436   9.535   9.606
  9.976  10.006  10.066  10.129  10.369  10.513  11.187  11.611
 11.838  11.850  11.964  12.372  13.392  14.324  15.489  26.136
 27.210  28.194  36.966  37.114  37.144  37.619  37.953  49.197
 91.084  91.870  92.613 111.394 111.398 111.403 111.422 111.425
111.481 111.498 156.087 156.159 156.186 156.431 156.614 165.256
308.046 308.678 309.285 685.206
 
 Beta MOs
 -- Occupied --
-14.850  -0.912  -0.533  -0.378
 -- Virtual --
 -0.008   0.004   0.029   0.077   0.084   0.102   0.119   0.141
  0.155   0.172   0.199   0.202   0.261   0.304   0.320   0.331
  0.342   0.355   0.391   0.393   0.490   0.531   0.529   0.570
  0.575   0.595   0.611   0.649   0.680   0.690   0.701   0.708
  0.763   0.781   0.784   0.892   0.940   0.972   0.992   1.061
  1.064   1.097   1.107   1.167   1.200   1.257   1.372   1.395
  1.417   1.405   1.456   1.524   1.534   1.533   1.574   1.597
  1.701   1.713   1.760   1.798   1.839   1.839   1.853   1.870
  1.900   1.944   2.000   2.025   2.080   2.146   2.305   2.526
  2.531   2.556   2.574   2.723   2.778   2.793   2.871   2.886
  2.925   2.942   2.964   2.979   3.045   3.080   3.082   3.135
  3.127   3.194   3.187   3.213   3.327   3.440   3.723   3.790
  3.820   3.842   3.855   3.989   3.994   4.068   4.130   4.254
  4.409   4.735   4.751   4.757   4.902   5.086   5.097   6.555
  6.577   6.583   6.600   6.921   7.080   7.073   7.145   7.139
  7.270   7.354   7.449   7.442   7.642   7.669   7.971   7.993
  8.008   8.021   8.084   8.106   8.233   8.250   8.256   8.297
  8.561   8.623   8.675   8.700   8.711   8.731   8.848   8.902
  8.951   9.044   9.181   9.262   9.290   9.434   9.450   9.563
  9.609   9.988  10.015  10.112  10.174  10.378  10.537  11.194
 11.645  11.872  11.856  11.969  12.379  13.427  14.329  15.507
 26.196  27.221  28.207  36.999  37.138  37.178  37.639  37.957
 49.219  91.107  91.874  92.617 111.410 111.417 111.424 111.439
111.438 111.486 111.502 156.096 156.166 156.195 156.437 156.615
165.264 308.054 308.679 309.287 685.208
 --------------------------------------------------------------
 
          Ground-State Mulliken Net Atomic Charges

     Atom                 Charge (a.u.)
  ----------------------------------------
      1 N                    -0.503090
      2 H                     0.251545
      3 H                     0.251545
  ----------------------------------------
  Sum of atomic charges =     0.000000

 -----------------------------------------------------------------
                    Cartesian Multipole Moments
 -----------------------------------------------------------------
    Charge (ESU x 10^10)
                 0.0000
    Dipole Moment (Debye)
         X      -0.0000      Y       0.0000      Z       1.8216
       Tot       1.8216
    Quadrupole Moments (Debye-Ang)
        XX      -7.2459     XY       0.0000     YY      -5.5551
        XZ       0.0000     YZ       0.0000     ZZ      -7.1996
    Octopole Moments (Debye-Ang^2)
       XXX      -0.0000    XXY      -0.0000    XYY       0.0000
       YYY      -0.0000    XXZ      -0.6191    XYZ       0.0000
       YYZ       0.5634    XZZ       0.0000    YZZ       0.0000
       ZZZ      -1.4910
    Hexadecapole Moments (Debye-Ang^3)
      XXXX      -7.0878   XXXY       0.0000   XXYY      -3.0757
      XYYY       0.0000   YYYY      -9.6146   XXXZ       0.0000
      XXYZ       0.0000   XYYZ       0.0000   YYYZ      -0.0000
      XXZZ      -3.1820   XYZZ       0.0000   YYZZ      -2.9665
      XZZZ       0.0000   YZZZ       0.0000   ZZZZ     -11.6379
 -----------------------------------------------------------------
Archival summary:
1\1\n0099.mhg0\SP\ROProcedureUnspecified\BasisUnspecified\12(2)\yhljason\SatOct300:10:112020SatOct300:10:112020\0\\#,ROProcedureUnspecified,BasisUnspecified,\\0,2\N\H,1,1.02402\H,1,1.02402,2,103.395\\\@

 Total job time:  191.94s(wall), 1524.06s(cpu) 
 Sat Oct  3 00:10:11 2020

        *************************************************************
        *                                                           *
        *  Thank you very much for using Q-Chem.  Have a nice day.  *
        *                                                           *
        *************************************************************


 
User input: 4 of 8 
 
Q-Chem Developer Version!
                  Welcome to Q-Chem
     A Quantum Leap Into The Future Of Chemistry


 Q-Chem 5.1, Q-Chem, Inc., Pleasanton, CA (2018)

 Yihan Shao,  Zhengting Gan,  E. Epifanovsky,  A. T. B. Gilbert,  M. Wormit,  
 J. Kussmann,  A. W. Lange,  A. Behn,  Jia Deng,  Xintian Feng,  D. Ghosh,  
 M. Goldey,  P. R. Horn,  L. D. Jacobson,  I. Kaliman,  T. Kus,  A. Landau,  
 Jie Liu,  E. I. Proynov,  R. M. Richard,  R. P. Steele,  E. J. Sundstrom,  
 H. L. Woodcock III,  P. M. Zimmerman,  D. Zuev,  B. Albrecht,  E. Alguire,  
 S. A. Baeppler,  D. Barton,  Z. Benda,  Y. A. Bernard,  E. J. Berquist,  
 K. B. Bravaya,  H. Burton,  D. Casanova,  Chun-Min Chang,  Yunqing Chen,  
 A. Chien,  K. D. Closser,  M. P. Coons,  S. Coriani,  S. Dasgupta,  
 A. L. Dempwolff,  M. Diedenhofen,  Hainam Do,  R. G. Edgar,  Po-Tung Fang,  
 S. Faraji,  S. Fatehi,  Qingguo Feng,  K. D. Fenk,  J. Fosso-Tande,  
 Qinghui Ge,  A. Ghysels,  G. Gidofalvi,  J. Gomes,  J. Gonthier,  A. Gunina,  
 D. Hait,  M. W. D. Hanson-Heine,  P. H. P. Harbach,  A. W. Hauser,  
 J. E. Herr,  E. G. Hohenstein,  Z. C. Holden,  Kerwin Hui,  B. C. Huynh,  
 T.-C. Jagau,  Hyunjun Ji,  B. Kaduk,  K. Khistyaev,  Jaehoon Kim,  
 P. Klunzinger,  K. Koh,  D. Kosenkov,  L. Koulias,  T. Kowalczyk,  
 C. M. Krauter,  A. Kunitsa,  Ka Un Lao,  A. Laurent,  K. V. Lawler,  
 Joonho Lee,  D. Lefrancois,  S. Lehtola,  D. S. Levine,  Yi-Pei Li,  
 You-Sheng Lin,  Fenglai Liu,  E. Livshits,  A. Luenser,  P. Manohar,  
 E. Mansoor,  S. F. Manzer,  Shan-Ping Mao,  Yuezhi Mao,  N. Mardirossian,  
 A. V. Marenich,  T. Markovich,  L. A. Martinez-Martinez,  S. A. Maurer,  
 N. J. Mayhall,  S. C. McKenzie,  J.-M. Mewes,  A. F. Morrison,  
 J. W. Mullinax,  K. Nanda,  T. S. Nguyen-Beck,  R. Olivares-Amaya,  
 J. A. Parkhill,  T. M. Perrine,  F. Plasser,  P. Pokhilko,  S. Prager,  
 A. Prociuk,  E. Ramos,  D. R. Rehn,  F. Rob,  M. Schneider,  N. Sergueev,  
 S. M. Sharada,  S. Sharma,  D. W. Small,  T. Stauch,  T. Stein,  
 Yu-Chuan Su,  A. J. W. Thom,  A. Tkatchenko,  T. Tsuchimochi,  N. M. Tubman,  
 L. Vogt,  M. L. Vidal,  O. Vydrov,  M. A. Watson,  J. Wenzel,  
 M. de Wergifosse,  T. A. Wesolowski,  A. White,  J. Witte,  A. Yamada,  
 Jun Yang,  K. Yao,  S. Yeganeh,  S. R. Yost,  Zhi-Qiang You,  A. Zech,  
 Igor Ying Zhang,  Xing Zhang,  Yan Zhao,  Ying Zhu,  B. R. Brooks,  
 G. K. L. Chan,  C. J. Cramer,  M. S. Gordon,  W. J. Hehre,  A. Klamt,  
 M. W. Schmidt,  C. D. Sherrill,  D. G. Truhlar,  A. Aspuru-Guzik,  R. Baer,  
 A. T. Bell,  N. A. Besley,  Jeng-Da Chai,  A. E. DePrince, III,  
 R. A. DiStasio Jr.,  A. Dreuw,  B. D. Dunietz,  T. R. Furlani,  
 Chao-Ping Hsu,  Yousung Jung,  Jing Kong,  D. S. Lambrecht,  WanZhen Liang,  
 C. Ochsenfeld,  V. A. Rassolov,  L. V. Slipchenko,  J. E. Subotnik,  
 T. Van Voorhis,  J. M. Herbert,  A. I. Krylov,  P. M. W. Gill,  M. Head-Gordon

 Contributors to earlier versions of Q-Chem not listed above: 
 R. D. Adamson,  B. Austin,  J. Baker,  G. J. O. Beran,  K. Brandhorst,  
 S. T. Brown,  E. F. C. Byrd,  A. K. Chakraborty,  C.-L. Cheng,  
 Siu Hung Chien,  D. M. Chipman,  D. L. Crittenden,  H. Dachsel,  
 R. J. Doerksen,  A. D. Dutoi,  L. Fusti-Molnar,  W. A. Goddard III,  
 A. Golubeva-Zadorozhnaya,  S. R. Gwaltney,  G. Hawkins,  A. Heyden,  
 S. Hirata,  G. Kedziora,  F. J. Keil,  C. Kelley,  Jihan Kim,  R. A. King,  
 R. Z. Khaliullin,  P. P. Korambath,  W. Kurlancheek,  A. M. Lee,  M. S. Lee,  
 S. V. Levchenko,  Ching Yeh Lin,  D. Liotard,  R. C. Lochan,  I. Lotan,  
 P. E. Maslen,  N. Nair,  D. P. O'Neill,  D. Neuhauser,  E. Neuscamman,  
 C. M. Oana,  R. Olson,  B. Peters,  R. Peverati,  P. A. Pieniazek,  
 Y. M. Rhee,  J. Ritchie,  M. A. Rohrdanz,  E. Rosta,  N. J. Russ,  
 H. F. Schaefer III,  N. E. Schultz,  N. Shenvi,  A. C. Simmonett,  A. Sodt,  
 D. Stuck,  K. S. Thanthiriwatte,  V. Vanovschi,  Tao Wang,  A. Warshel,  
 C. F. Williams,  Q. Wu,  X. Xu,  W. Zhang

 Please cite Q-Chem as follows:
 Y. Shao et al., Mol. Phys. 113, 184-215 (2015)
 DOI: 10.1080/00268976.2014.952696

 Q-Chem 5.1.1 for Intel X86 EM64T Linux

 Parts of Q-Chem use Armadillo 8.300.2 (Tropical Shenanigans).
 http://arma.sourceforge.net/

 Q-Chem begins on Sat Oct  3 00:10:11 2020  

Host: n0099.mhg0
0

     Scratch files written to /local/scratch/users/yhljason/NH2_B2PLYP_aug-cc-pcVQZ.inp20201002235658//
The previous job contains 0 fragments, simply inherited here
Input Ideriv = 0
Curr. Ideriv = -1
Max.  Ideriv = 0
Input Ideriv = 1
Curr. Ideriv = 0
Max.  Ideriv = 0

Checking the input file for inconsistencies... 	...done.

--------------------------------------------------------------
User input:
--------------------------------------------------------------
$molecule
read
$end

$rem

jobtype sp
method B2PLYP
xc_grid 000099000590
basis aug-cc-pcVQZ
max_scf_cycles 200
thresh 14
scf_convergence 8
mem_total 128000
cc_memory 96000
cc_backend xm
mem_static 1500
symmetry false
sym_ignore true
scf_guess read
unrestricted false
scf_algorithm gdm
n_frozen_core 0
$end

$multipole_field
XX -0.0001
$end


--------------------------------------------------------------
 ----------------------------------------------------------------
             Standard Nuclear Orientation (Angstroms)
    I     Atom           X                Y                Z
 ----------------------------------------------------------------
    1      N       0.0000000000     0.0000000000     0.0000000000
    2      H       0.0000000000     0.8036000000     0.6347000000
    3      H       0.0000000000    -0.8036000000     0.6347000000
 ----------------------------------------------------------------
 Nuclear Repulsion Energy =     7.5639571803 hartrees
 There are        5 alpha and        4 beta electrons
 Requested basis set is aug-cc-pCVQZ
 There are 57 shells and 201 basis functions

 Total QAlloc Memory Limit 128000 MB
 Mega-Array Size      1467 MB
 MEM_STATIC part      1500 MB

                       Distance Matrix (Angstroms)
             N (  1)   H (  2)
   H (  2)  1.024020
   H (  3)  1.024020  1.607200
 
 Applying Cartesian multipole field
    Component          Value
    ---------          -----
     (2,0,0)       -1.00000E-04
 A cutoff of  1.0D-14 yielded   1653 shell pairs
 There are     20709 function pairs (     31923 Cartesian)
 
 -------------------------------------------------------
 OpenMP Integral Computing Module                       
 Release: version 1.0, May 2013, Q-Chem Inc. Pittsburgh 
 -------------------------------------------------------
 Integral Job Info:
 Integral job number is                      11
 Integral operator is                         1
 short-range coefficients                     0
 long-range coefficients              100000000
 Omega coefficients                           0
 if combine SR and LR in K                    0
 Integral screening is                        0
 Integral computing path is                   2
 max size of driver memory is           3200000
 size of driver memory is               1704330
 size of scratch memory is             18511652
 max col of scratch BK array              50625
 max len of scratch array in speh3         2114
 max len of scratch index in speh4           50
 max int batch size is                      520
 min int batch size is                       52
 fixed nKL is                                52
 max L of basis functions is                  4
 order of int derivative is                   0
 number of shells is                         57
 number of basis is                         249
 number of cartesian basis is               249
 number of contracted shell pairs          1653
 number of primitive shell pairs           3157
 maxK2 (contraction) of shell pair           81
 max number of K2 of shell pair               1
 max number of CS2 of shell pair            227
 max number of PS2 of shell pair            288
 mem total for path MDJ                  643177
 -------------------------------------------------------
 Smallest overlap matrix eigenvalue = 8.93E-05
 Guess MOs from SCF MO coefficient file
 Reading MOs from coefficient file
 Reading MOs from coefficient file
 A restricted hybrid HF-DFT SCF calculation will be
 performed using Geometric Direct Minimization
 Exchange:     0.5300 Hartree-Fock + 0.4700 B88
 Correlation:  0.7300 LYP
 Using Euler-Maclaurin-Lebedev (99,590) quadrature formula
 SCF converges when RMS gradient is below 1.0E-08
Using Q-Chem read-in guess as SCF_GUESS READ specified.

 using 8 threads for integral computing
 -------------------------------------------------------
 OpenMP Integral computing Module                
 Release: version 2.0, May 2017, Q-Chem Inc. Pleasanton 
 -------------------------------------------------------
TIMEINFO->: J/JK contribution 40.92 sec.
 -------------------------------------------------------
 OpenMP BLAS3 based DFT computing Module                
 Release: version 1.0, May 2013, Q-Chem Inc. Pittsburgh 
 -------------------------------------------------------
 ---------------------------------------
  Cycle       Energy        RMS Gradient
 ---------------------------------------
    1     -55.7979529443      9.90E-04 Normal BFGS step
TIMEINFO->: J/JK contribution 41.02 sec.
    2     -55.7979533456      8.38E-04 Normal BFGS step
TIMEINFO->: J/JK contribution 40.05 sec.
    3     -55.7979536433      4.53E-05 Normal BFGS step
TIMEINFO->: J/JK contribution 41.41 sec.
    4     -55.7979536505      4.78E-05 Normal BFGS step
TIMEINFO->: J/JK contribution 42.37 sec.
    5     -55.7979536520      8.02E-06 Normal BFGS step
TIMEINFO->: J/JK contribution 42.12 sec.
    6     -55.7979536521      2.35E-06 Normal BFGS step
TIMEINFO->: J/JK contribution 41.90 sec.
    7     -55.7979536521      2.55E-07 Normal BFGS step
TIMEINFO->: J/JK contribution 41.75 sec.
    8     -55.7979536521      4.71E-08 Normal BFGS step
TIMEINFO->: J/JK contribution 39.71 sec.
    9     -55.7979536521      7.09E-09 Convergence criterion met
 ---------------------------------------
 SCF time:  CPU 478.59 s  wall 61.21 s
 SCF   energy in the final basis set = -55.79795365
 Total energy in the final basis set = -55.79795365
 
 Components of the MP2 correlation energy:
        aaaa  correlation energy =        -0.0106635437 au
        abab  correlation energy =        -0.0651704007 au
        bbbb  correlation energy =        -0.0049033661 au
        non-Brillouin singles    =        -0.0021125730 au

 Total  MP2   correlation energy =                    -0.08284988 au
        MP2         total energy =                   -55.88080354 au
 
 --------------------------------------------------------------
 
                    Orbital Energies (a.u.)
 --------------------------------------------------------------
 
 Alpha MOs
 -- Occupied --
-14.871  -0.982  -0.551  -0.407  -0.397
 -- Virtual --
  0.005   0.032   0.079   0.081   0.101   0.121   0.141   0.156
  0.174   0.196   0.201   0.263   0.299   0.317   0.325   0.342
  0.348   0.387   0.393   0.487   0.514   0.528   0.564   0.574
  0.585   0.608   0.650   0.669   0.689   0.695   0.708   0.763
  0.779   0.784   0.882   0.921   0.955   0.967   1.055   1.056
  1.092   1.103   1.165   1.193   1.256   1.370   1.376   1.390
  1.403   1.445   1.521   1.525   1.531   1.570   1.595   1.698
  1.710   1.761   1.798   1.833   1.839   1.851   1.858   1.898
  1.940   1.995   2.024   2.078   2.138   2.246   2.513   2.522
  2.540   2.552   2.707   2.775   2.792   2.869   2.881   2.916
  2.933   2.951   2.947   3.009   3.052   3.058   3.100   3.123
  3.167   3.174   3.191   3.314   3.438   3.710   3.777   3.807
  3.820   3.834   3.969   3.992   4.050   4.121   4.242   4.401
  4.723   4.721   4.749   4.872   5.064   5.090   6.551   6.574
  6.579   6.597   6.913   7.055   7.064   7.131   7.138   7.257
  7.348   7.429   7.441   7.582   7.660   7.953   7.989   7.987
  7.997   8.051   8.098   8.220   8.227   8.246   8.289   8.534
  8.597   8.671   8.670   8.693   8.716   8.846   8.875   8.917
  9.030   9.171   9.240   9.258   9.405   9.436   9.535   9.606
  9.976  10.006  10.066  10.129  10.370  10.513  11.188  11.611
 11.839  11.850  11.965  12.372  13.392  14.325  15.489  26.136
 27.210  28.195  36.966  37.114  37.145  37.619  37.954  49.197
 91.084  91.871  92.614 111.394 111.399 111.404 111.422 111.425
111.482 111.499 156.087 156.160 156.186 156.432 156.615 165.256
308.047 308.678 309.286 685.206
 
 Beta MOs
 -- Occupied --
-14.850  -0.912  -0.533  -0.378
 -- Virtual --
 -0.007   0.007   0.032   0.080   0.089   0.105   0.122   0.142
  0.156   0.175   0.202   0.205   0.263   0.305   0.321   0.333
  0.343   0.358   0.392   0.394   0.490   0.533   0.530   0.571
  0.576   0.597   0.612   0.650   0.681   0.691   0.702   0.709
  0.764   0.782   0.785   0.893   0.941   0.973   0.993   1.062
  1.065   1.098   1.108   1.168   1.201   1.258   1.373   1.396
  1.418   1.406   1.456   1.524   1.535   1.534   1.575   1.597
  1.701   1.713   1.761   1.798   1.840   1.840   1.853   1.871
  1.901   1.944   2.000   2.026   2.080   2.147   2.306   2.527
  2.532   2.557   2.574   2.723   2.778   2.793   2.871   2.886
  2.925   2.942   2.965   2.980   3.045   3.081   3.083   3.136
  3.128   3.195   3.188   3.214   3.328   3.441   3.724   3.790
  3.820   3.842   3.855   3.989   3.994   4.069   4.130   4.254
  4.409   4.735   4.752   4.758   4.902   5.086   5.097   6.555
  6.578   6.583   6.600   6.921   7.081   7.074   7.145   7.140
  7.270   7.354   7.449   7.442   7.643   7.669   7.971   7.994
  8.008   8.022   8.085   8.106   8.234   8.250   8.257   8.297
  8.562   8.624   8.676   8.701   8.711   8.731   8.849   8.902
  8.951   9.045   9.182   9.262   9.290   9.434   9.451   9.564
  9.610   9.988  10.015  10.112  10.174  10.378  10.537  11.195
 11.645  11.873  11.856  11.969  12.379  13.427  14.330  15.508
 26.196  27.222  28.208  36.999  37.139  37.178  37.640  37.958
 49.220  91.108  91.875  92.618 111.411 111.417 111.424 111.439
111.438 111.487 111.503 156.097 156.167 156.196 156.437 156.616
165.264 308.054 308.679 309.287 685.208
 --------------------------------------------------------------
 
          Ground-State Mulliken Net Atomic Charges

     Atom                 Charge (a.u.)
  ----------------------------------------
      1 N                    -0.500561
      2 H                     0.250280
      3 H                     0.250280
  ----------------------------------------
  Sum of atomic charges =    -0.000000

 -----------------------------------------------------------------
                    Cartesian Multipole Moments
 -----------------------------------------------------------------
    Charge (ESU x 10^10)
                -0.0000
    Dipole Moment (Debye)
         X      -0.0000      Y      -0.0000      Z       1.8211
       Tot       1.8211
    Quadrupole Moments (Debye-Ang)
        XX      -7.2364     XY       0.0000     YY      -5.5538
        XZ       0.0000     YZ       0.0000     ZZ      -7.1974
    Octopole Moments (Debye-Ang^2)
       XXX      -0.0000    XXY      -0.0000    XYY      -0.0000
       YYY      -0.0000    XXZ      -0.6189    XYZ       0.0000
       YYZ       0.5626    XZZ      -0.0000    YZZ       0.0000
       ZZZ      -1.4914
    Hexadecapole Moments (Debye-Ang^3)
      XXXX      -7.0513   XXXY       0.0000   XXYY      -3.0680
      XYYY       0.0000   YYYY      -9.6087   XXXZ       0.0000
      XXYZ       0.0000   XYYZ       0.0000   YYYZ       0.0000
      XXZZ      -3.1730   XYZZ       0.0000   YYZZ      -2.9639
      XZZZ       0.0000   YZZZ       0.0000   ZZZZ     -11.6252
 -----------------------------------------------------------------
Archival summary:
1\1\n0099.mhg0\SP\ROProcedureUnspecified\BasisUnspecified\12(2)\yhljason\SatOct300:13:192020SatOct300:13:192020\0\\#,ROProcedureUnspecified,BasisUnspecified,\\0,2\N\H,1,1.02402\H,1,1.02402,2,103.395\\\@

 Total job time:  187.79s(wall), 1484.97s(cpu) 
 Sat Oct  3 00:13:19 2020

        *************************************************************
        *                                                           *
        *  Thank you very much for using Q-Chem.  Have a nice day.  *
        *                                                           *
        *************************************************************


 
User input: 5 of 8 
 
Q-Chem Developer Version!
                  Welcome to Q-Chem
     A Quantum Leap Into The Future Of Chemistry


 Q-Chem 5.1, Q-Chem, Inc., Pleasanton, CA (2018)

 Yihan Shao,  Zhengting Gan,  E. Epifanovsky,  A. T. B. Gilbert,  M. Wormit,  
 J. Kussmann,  A. W. Lange,  A. Behn,  Jia Deng,  Xintian Feng,  D. Ghosh,  
 M. Goldey,  P. R. Horn,  L. D. Jacobson,  I. Kaliman,  T. Kus,  A. Landau,  
 Jie Liu,  E. I. Proynov,  R. M. Richard,  R. P. Steele,  E. J. Sundstrom,  
 H. L. Woodcock III,  P. M. Zimmerman,  D. Zuev,  B. Albrecht,  E. Alguire,  
 S. A. Baeppler,  D. Barton,  Z. Benda,  Y. A. Bernard,  E. J. Berquist,  
 K. B. Bravaya,  H. Burton,  D. Casanova,  Chun-Min Chang,  Yunqing Chen,  
 A. Chien,  K. D. Closser,  M. P. Coons,  S. Coriani,  S. Dasgupta,  
 A. L. Dempwolff,  M. Diedenhofen,  Hainam Do,  R. G. Edgar,  Po-Tung Fang,  
 S. Faraji,  S. Fatehi,  Qingguo Feng,  K. D. Fenk,  J. Fosso-Tande,  
 Qinghui Ge,  A. Ghysels,  G. Gidofalvi,  J. Gomes,  J. Gonthier,  A. Gunina,  
 D. Hait,  M. W. D. Hanson-Heine,  P. H. P. Harbach,  A. W. Hauser,  
 J. E. Herr,  E. G. Hohenstein,  Z. C. Holden,  Kerwin Hui,  B. C. Huynh,  
 T.-C. Jagau,  Hyunjun Ji,  B. Kaduk,  K. Khistyaev,  Jaehoon Kim,  
 P. Klunzinger,  K. Koh,  D. Kosenkov,  L. Koulias,  T. Kowalczyk,  
 C. M. Krauter,  A. Kunitsa,  Ka Un Lao,  A. Laurent,  K. V. Lawler,  
 Joonho Lee,  D. Lefrancois,  S. Lehtola,  D. S. Levine,  Yi-Pei Li,  
 You-Sheng Lin,  Fenglai Liu,  E. Livshits,  A. Luenser,  P. Manohar,  
 E. Mansoor,  S. F. Manzer,  Shan-Ping Mao,  Yuezhi Mao,  N. Mardirossian,  
 A. V. Marenich,  T. Markovich,  L. A. Martinez-Martinez,  S. A. Maurer,  
 N. J. Mayhall,  S. C. McKenzie,  J.-M. Mewes,  A. F. Morrison,  
 J. W. Mullinax,  K. Nanda,  T. S. Nguyen-Beck,  R. Olivares-Amaya,  
 J. A. Parkhill,  T. M. Perrine,  F. Plasser,  P. Pokhilko,  S. Prager,  
 A. Prociuk,  E. Ramos,  D. R. Rehn,  F. Rob,  M. Schneider,  N. Sergueev,  
 S. M. Sharada,  S. Sharma,  D. W. Small,  T. Stauch,  T. Stein,  
 Yu-Chuan Su,  A. J. W. Thom,  A. Tkatchenko,  T. Tsuchimochi,  N. M. Tubman,  
 L. Vogt,  M. L. Vidal,  O. Vydrov,  M. A. Watson,  J. Wenzel,  
 M. de Wergifosse,  T. A. Wesolowski,  A. White,  J. Witte,  A. Yamada,  
 Jun Yang,  K. Yao,  S. Yeganeh,  S. R. Yost,  Zhi-Qiang You,  A. Zech,  
 Igor Ying Zhang,  Xing Zhang,  Yan Zhao,  Ying Zhu,  B. R. Brooks,  
 G. K. L. Chan,  C. J. Cramer,  M. S. Gordon,  W. J. Hehre,  A. Klamt,  
 M. W. Schmidt,  C. D. Sherrill,  D. G. Truhlar,  A. Aspuru-Guzik,  R. Baer,  
 A. T. Bell,  N. A. Besley,  Jeng-Da Chai,  A. E. DePrince, III,  
 R. A. DiStasio Jr.,  A. Dreuw,  B. D. Dunietz,  T. R. Furlani,  
 Chao-Ping Hsu,  Yousung Jung,  Jing Kong,  D. S. Lambrecht,  WanZhen Liang,  
 C. Ochsenfeld,  V. A. Rassolov,  L. V. Slipchenko,  J. E. Subotnik,  
 T. Van Voorhis,  J. M. Herbert,  A. I. Krylov,  P. M. W. Gill,  M. Head-Gordon

 Contributors to earlier versions of Q-Chem not listed above: 
 R. D. Adamson,  B. Austin,  J. Baker,  G. J. O. Beran,  K. Brandhorst,  
 S. T. Brown,  E. F. C. Byrd,  A. K. Chakraborty,  C.-L. Cheng,  
 Siu Hung Chien,  D. M. Chipman,  D. L. Crittenden,  H. Dachsel,  
 R. J. Doerksen,  A. D. Dutoi,  L. Fusti-Molnar,  W. A. Goddard III,  
 A. Golubeva-Zadorozhnaya,  S. R. Gwaltney,  G. Hawkins,  A. Heyden,  
 S. Hirata,  G. Kedziora,  F. J. Keil,  C. Kelley,  Jihan Kim,  R. A. King,  
 R. Z. Khaliullin,  P. P. Korambath,  W. Kurlancheek,  A. M. Lee,  M. S. Lee,  
 S. V. Levchenko,  Ching Yeh Lin,  D. Liotard,  R. C. Lochan,  I. Lotan,  
 P. E. Maslen,  N. Nair,  D. P. O'Neill,  D. Neuhauser,  E. Neuscamman,  
 C. M. Oana,  R. Olson,  B. Peters,  R. Peverati,  P. A. Pieniazek,  
 Y. M. Rhee,  J. Ritchie,  M. A. Rohrdanz,  E. Rosta,  N. J. Russ,  
 H. F. Schaefer III,  N. E. Schultz,  N. Shenvi,  A. C. Simmonett,  A. Sodt,  
 D. Stuck,  K. S. Thanthiriwatte,  V. Vanovschi,  Tao Wang,  A. Warshel,  
 C. F. Williams,  Q. Wu,  X. Xu,  W. Zhang

 Please cite Q-Chem as follows:
 Y. Shao et al., Mol. Phys. 113, 184-215 (2015)
 DOI: 10.1080/00268976.2014.952696

 Q-Chem 5.1.1 for Intel X86 EM64T Linux

 Parts of Q-Chem use Armadillo 8.300.2 (Tropical Shenanigans).
 http://arma.sourceforge.net/

 Q-Chem begins on Sat Oct  3 00:13:19 2020  

Host: n0099.mhg0
0

     Scratch files written to /local/scratch/users/yhljason/NH2_B2PLYP_aug-cc-pcVQZ.inp20201002235658//
The previous job contains 0 fragments, simply inherited here
Input Ideriv = 0
Curr. Ideriv = -1
Max.  Ideriv = 0
Input Ideriv = 1
Curr. Ideriv = 0
Max.  Ideriv = 0

Checking the input file for inconsistencies... 	...done.

--------------------------------------------------------------
User input:
--------------------------------------------------------------
$molecule
read
$end

$rem

jobtype sp
method B2PLYP
xc_grid 000099000590
basis aug-cc-pcVQZ
max_scf_cycles 200
thresh 14
scf_convergence 8
mem_total 128000
cc_memory 96000
cc_backend xm
mem_static 1500
symmetry false
sym_ignore true
scf_guess read
unrestricted false
scf_algorithm gdm
n_frozen_core 0
$end

$multipole_field
YY 0.0001
$end


--------------------------------------------------------------
 ----------------------------------------------------------------
             Standard Nuclear Orientation (Angstroms)
    I     Atom           X                Y                Z
 ----------------------------------------------------------------
    1      N       0.0000000000     0.0000000000     0.0000000000
    2      H       0.0000000000     0.8036000000     0.6347000000
    3      H       0.0000000000    -0.8036000000     0.6347000000
 ----------------------------------------------------------------
 Nuclear Repulsion Energy =     7.5639571803 hartrees
 There are        5 alpha and        4 beta electrons
 Requested basis set is aug-cc-pCVQZ
 There are 57 shells and 201 basis functions

 Total QAlloc Memory Limit 128000 MB
 Mega-Array Size      1467 MB
 MEM_STATIC part      1500 MB

                       Distance Matrix (Angstroms)
             N (  1)   H (  2)
   H (  2)  1.024020
   H (  3)  1.024020  1.607200
 
 Applying Cartesian multipole field
    Component          Value
    ---------          -----
     (0,2,0)        1.00000E-04
 Nucleus-field energy     =     0.0004612194 hartrees
 A cutoff of  1.0D-14 yielded   1653 shell pairs
 There are     20709 function pairs (     31923 Cartesian)
 
 -------------------------------------------------------
 OpenMP Integral Computing Module                       
 Release: version 1.0, May 2013, Q-Chem Inc. Pittsburgh 
 -------------------------------------------------------
 Integral Job Info:
 Integral job number is                      11
 Integral operator is                         1
 short-range coefficients                     0
 long-range coefficients              100000000
 Omega coefficients                           0
 if combine SR and LR in K                    0
 Integral screening is                        0
 Integral computing path is                   2
 max size of driver memory is           3200000
 size of driver memory is               1704330
 size of scratch memory is             18511652
 max col of scratch BK array              50625
 max len of scratch array in speh3         2114
 max len of scratch index in speh4           50
 max int batch size is                      520
 min int batch size is                       52
 fixed nKL is                                52
 max L of basis functions is                  4
 order of int derivative is                   0
 number of shells is                         57
 number of basis is                         249
 number of cartesian basis is               249
 number of contracted shell pairs          1653
 number of primitive shell pairs           3157
 maxK2 (contraction) of shell pair           81
 max number of K2 of shell pair               1
 max number of CS2 of shell pair            227
 max number of PS2 of shell pair            288
 mem total for path MDJ                  643177
 -------------------------------------------------------
 Smallest overlap matrix eigenvalue = 8.93E-05
 Guess MOs from SCF MO coefficient file
 Reading MOs from coefficient file
 Reading MOs from coefficient file
 A restricted hybrid HF-DFT SCF calculation will be
 performed using Geometric Direct Minimization
 Exchange:     0.5300 Hartree-Fock + 0.4700 B88
 Correlation:  0.7300 LYP
 Using Euler-Maclaurin-Lebedev (99,590) quadrature formula
 SCF converges when RMS gradient is below 1.0E-08
Using Q-Chem read-in guess as SCF_GUESS READ specified.

 using 8 threads for integral computing
 -------------------------------------------------------
 OpenMP Integral computing Module                
 Release: version 2.0, May 2017, Q-Chem Inc. Pleasanton 
 -------------------------------------------------------
TIMEINFO->: J/JK contribution 34.86 sec.
 -------------------------------------------------------
 OpenMP BLAS3 based DFT computing Module                
 Release: version 1.0, May 2013, Q-Chem Inc. Pittsburgh 
 -------------------------------------------------------
 ---------------------------------------
  Cycle       Energy        RMS Gradient
 ---------------------------------------
    1     -55.7989045724      6.42E-04 Normal BFGS step
TIMEINFO->: J/JK contribution 35.48 sec.
    2     -55.7989047732      6.61E-04 Normal BFGS step
TIMEINFO->: J/JK contribution 34.35 sec.
    3     -55.7989050386      2.26E-05 Normal BFGS step
TIMEINFO->: J/JK contribution 34.84 sec.
    4     -55.7989050408      1.45E-05 Normal BFGS step
TIMEINFO->: J/JK contribution 35.13 sec.
    5     -55.7989050410      3.87E-06 Normal BFGS step
TIMEINFO->: J/JK contribution 35.72 sec.
    6     -55.7989050410      1.17E-06 Normal BFGS step
TIMEINFO->: J/JK contribution 35.69 sec.
    7     -55.7989050410      1.02E-07 Normal BFGS step
TIMEINFO->: J/JK contribution 35.45 sec.
   GDM::WARNING energy changes are now smaller than effective accuracy.
   GDM::        calculation will continue, but THRESH should be increased
   GDM::        or SCF_CONVERGENCE decreased.
   GDM::        effective_thresh =   5.000000000000000E-011
    8     -55.7989050410      2.95E-08 Normal BFGS step
TIMEINFO->: J/JK contribution 34.66 sec.
    9     -55.7989050410      3.83E-09 Convergence criterion met
 ---------------------------------------
 SCF time:  CPU 406.58 s  wall 54.92 s
 SCF   energy in the final basis set = -55.79890504
 Total energy in the final basis set = -55.79890504
 
 Components of the MP2 correlation energy:
        aaaa  correlation energy =        -0.0106659471 au
        abab  correlation energy =        -0.0651757272 au
        bbbb  correlation energy =        -0.0049040232 au
        non-Brillouin singles    =        -0.0021115987 au

 Total  MP2   correlation energy =                    -0.08285730 au
        MP2         total energy =                   -55.88176234 au
 
 --------------------------------------------------------------
 
                    Orbital Energies (a.u.)
 --------------------------------------------------------------
 
 Alpha MOs
 -- Occupied --
-14.871  -0.983  -0.551  -0.408  -0.397
 -- Virtual --
  0.002   0.026   0.077   0.078   0.098   0.117   0.139   0.154
  0.171   0.194   0.199   0.261   0.297   0.315   0.323   0.340
  0.346   0.385   0.391   0.486   0.513   0.527   0.562   0.573
  0.584   0.607   0.648   0.667   0.687   0.693   0.706   0.761
  0.777   0.783   0.881   0.920   0.954   0.966   1.054   1.055
  1.091   1.102   1.164   1.192   1.255   1.369   1.375   1.389
  1.402   1.444   1.520   1.523   1.530   1.569   1.594   1.697
  1.709   1.760   1.797   1.832   1.838   1.850   1.857   1.897
  1.939   1.995   2.023   2.077   2.137   2.246   2.512   2.522
  2.540   2.552   2.707   2.774   2.791   2.868   2.881   2.915
  2.932   2.950   2.947   3.008   3.051   3.058   3.099   3.122
  3.167   3.174   3.190   3.313   3.438   3.709   3.777   3.807
  3.820   3.833   3.968   3.991   4.050   4.121   4.242   4.400
  4.723   4.720   4.749   4.871   5.063   5.090   6.551   6.573
  6.578   6.597   6.912   7.054   7.064   7.131   7.138   7.256
  7.347   7.428   7.440   7.582   7.660   7.952   7.988   7.986
  7.997   8.050   8.097   8.219   8.227   8.245   8.288   8.533
  8.596   8.671   8.670   8.693   8.715   8.845   8.874   8.916
  9.030   9.171   9.239   9.258   9.404   9.436   9.535   9.606
  9.975  10.006  10.066  10.129  10.369  10.513  11.187  11.611
 11.838  11.849  11.964  12.372  13.392  14.324  15.489  26.136
 27.210  28.194  36.966  37.114  37.144  37.619  37.953  49.196
 91.084  91.870  92.613 111.394 111.398 111.403 111.422 111.424
111.481 111.498 156.087 156.159 156.186 156.431 156.614 165.256
308.046 308.678 309.285 685.206
 
 Beta MOs
 -- Occupied --
-14.850  -0.912  -0.533  -0.378
 -- Virtual --
 -0.008   0.004   0.026   0.077   0.086   0.102   0.117   0.140
  0.154   0.172   0.200   0.203   0.260   0.303   0.319   0.331
  0.340   0.356   0.391   0.392   0.489   0.531   0.529   0.570
  0.574   0.595   0.611   0.648   0.680   0.689   0.700   0.707
  0.762   0.780   0.784   0.892   0.940   0.972   0.992   1.061
  1.064   1.097   1.107   1.167   1.200   1.257   1.372   1.395
  1.417   1.404   1.455   1.523   1.534   1.533   1.574   1.597
  1.700   1.712   1.760   1.797   1.839   1.839   1.852   1.870
  1.900   1.943   2.000   2.025   2.079   2.146   2.305   2.526
  2.531   2.556   2.574   2.723   2.778   2.793   2.870   2.886
  2.924   2.941   2.964   2.979   3.045   3.081   3.082   3.135
  3.127   3.194   3.187   3.213   3.327   3.440   3.723   3.790
  3.820   3.842   3.855   3.989   3.994   4.068   4.130   4.253
  4.409   4.735   4.751   4.757   4.902   5.086   5.097   6.555
  6.577   6.583   6.600   6.921   7.080   7.073   7.144   7.139
  7.270   7.354   7.449   7.442   7.642   7.668   7.971   7.993
  8.008   8.021   8.084   8.106   8.233   8.249   8.256   8.296
  8.561   8.623   8.675   8.700   8.711   8.731   8.848   8.902
  8.951   9.044   9.181   9.262   9.290   9.433   9.450   9.563
  9.609   9.988  10.014  10.112  10.174  10.378  10.537  11.194
 11.645  11.872  11.855  11.969  12.379  13.427  14.329  15.507
 26.196  27.221  28.207  36.999  37.138  37.177  37.639  37.957
 49.219  91.107  91.874  92.617 111.410 111.417 111.424 111.439
111.438 111.486 111.502 156.096 156.166 156.195 156.436 156.615
165.263 308.054 308.679 309.287 685.208
 --------------------------------------------------------------
 
          Ground-State Mulliken Net Atomic Charges

     Atom                 Charge (a.u.)
  ----------------------------------------
      1 N                    -0.501010
      2 H                     0.250505
      3 H                     0.250505
  ----------------------------------------
  Sum of atomic charges =     0.000000

 -----------------------------------------------------------------
                    Cartesian Multipole Moments
 -----------------------------------------------------------------
    Charge (ESU x 10^10)
                 0.0000
    Dipole Moment (Debye)
         X      -0.0000      Y       0.0000      Z       1.8205
       Tot       1.8205
    Quadrupole Moments (Debye-Ang)
        XX      -7.2418     XY       0.0000     YY      -5.5610
        XZ       0.0000     YZ       0.0000     ZZ      -7.1998
    Octopole Moments (Debye-Ang^2)
       XXX       0.0000    XXY      -0.0000    XYY       0.0000
       YYY      -0.0000    XXZ      -0.6195    XYZ       0.0000
       YYZ       0.5599    XZZ       0.0000    YZZ       0.0000
       ZZZ      -1.4930
    Hexadecapole Moments (Debye-Ang^3)
      XXXX      -7.0719   XXXY       0.0000   XXYY      -3.0754
      XYYY       0.0000   YYYY      -9.6360   XXXZ       0.0000
      XXYZ      -0.0000   XYYZ       0.0000   YYYZ       0.0000
      XXZZ      -3.1786   XYZZ       0.0000   YYZZ      -2.9714
      XZZZ       0.0000   YZZZ       0.0000   ZZZZ     -11.6366
 -----------------------------------------------------------------
Archival summary:
1\1\n0099.mhg0\SP\ROProcedureUnspecified\BasisUnspecified\12(2)\yhljason\SatOct300:16:092020SatOct300:16:092020\0\\#,ROProcedureUnspecified,BasisUnspecified,\\0,2\N\H,1,1.02402\H,1,1.02402,2,103.395\\\@

 Total job time:  170.54s(wall), 1327.22s(cpu) 
 Sat Oct  3 00:16:09 2020

        *************************************************************
        *                                                           *
        *  Thank you very much for using Q-Chem.  Have a nice day.  *
        *                                                           *
        *************************************************************


 
User input: 6 of 8 
 
Q-Chem Developer Version!
                  Welcome to Q-Chem
     A Quantum Leap Into The Future Of Chemistry


 Q-Chem 5.1, Q-Chem, Inc., Pleasanton, CA (2018)

 Yihan Shao,  Zhengting Gan,  E. Epifanovsky,  A. T. B. Gilbert,  M. Wormit,  
 J. Kussmann,  A. W. Lange,  A. Behn,  Jia Deng,  Xintian Feng,  D. Ghosh,  
 M. Goldey,  P. R. Horn,  L. D. Jacobson,  I. Kaliman,  T. Kus,  A. Landau,  
 Jie Liu,  E. I. Proynov,  R. M. Richard,  R. P. Steele,  E. J. Sundstrom,  
 H. L. Woodcock III,  P. M. Zimmerman,  D. Zuev,  B. Albrecht,  E. Alguire,  
 S. A. Baeppler,  D. Barton,  Z. Benda,  Y. A. Bernard,  E. J. Berquist,  
 K. B. Bravaya,  H. Burton,  D. Casanova,  Chun-Min Chang,  Yunqing Chen,  
 A. Chien,  K. D. Closser,  M. P. Coons,  S. Coriani,  S. Dasgupta,  
 A. L. Dempwolff,  M. Diedenhofen,  Hainam Do,  R. G. Edgar,  Po-Tung Fang,  
 S. Faraji,  S. Fatehi,  Qingguo Feng,  K. D. Fenk,  J. Fosso-Tande,  
 Qinghui Ge,  A. Ghysels,  G. Gidofalvi,  J. Gomes,  J. Gonthier,  A. Gunina,  
 D. Hait,  M. W. D. Hanson-Heine,  P. H. P. Harbach,  A. W. Hauser,  
 J. E. Herr,  E. G. Hohenstein,  Z. C. Holden,  Kerwin Hui,  B. C. Huynh,  
 T.-C. Jagau,  Hyunjun Ji,  B. Kaduk,  K. Khistyaev,  Jaehoon Kim,  
 P. Klunzinger,  K. Koh,  D. Kosenkov,  L. Koulias,  T. Kowalczyk,  
 C. M. Krauter,  A. Kunitsa,  Ka Un Lao,  A. Laurent,  K. V. Lawler,  
 Joonho Lee,  D. Lefrancois,  S. Lehtola,  D. S. Levine,  Yi-Pei Li,  
 You-Sheng Lin,  Fenglai Liu,  E. Livshits,  A. Luenser,  P. Manohar,  
 E. Mansoor,  S. F. Manzer,  Shan-Ping Mao,  Yuezhi Mao,  N. Mardirossian,  
 A. V. Marenich,  T. Markovich,  L. A. Martinez-Martinez,  S. A. Maurer,  
 N. J. Mayhall,  S. C. McKenzie,  J.-M. Mewes,  A. F. Morrison,  
 J. W. Mullinax,  K. Nanda,  T. S. Nguyen-Beck,  R. Olivares-Amaya,  
 J. A. Parkhill,  T. M. Perrine,  F. Plasser,  P. Pokhilko,  S. Prager,  
 A. Prociuk,  E. Ramos,  D. R. Rehn,  F. Rob,  M. Schneider,  N. Sergueev,  
 S. M. Sharada,  S. Sharma,  D. W. Small,  T. Stauch,  T. Stein,  
 Yu-Chuan Su,  A. J. W. Thom,  A. Tkatchenko,  T. Tsuchimochi,  N. M. Tubman,  
 L. Vogt,  M. L. Vidal,  O. Vydrov,  M. A. Watson,  J. Wenzel,  
 M. de Wergifosse,  T. A. Wesolowski,  A. White,  J. Witte,  A. Yamada,  
 Jun Yang,  K. Yao,  S. Yeganeh,  S. R. Yost,  Zhi-Qiang You,  A. Zech,  
 Igor Ying Zhang,  Xing Zhang,  Yan Zhao,  Ying Zhu,  B. R. Brooks,  
 G. K. L. Chan,  C. J. Cramer,  M. S. Gordon,  W. J. Hehre,  A. Klamt,  
 M. W. Schmidt,  C. D. Sherrill,  D. G. Truhlar,  A. Aspuru-Guzik,  R. Baer,  
 A. T. Bell,  N. A. Besley,  Jeng-Da Chai,  A. E. DePrince, III,  
 R. A. DiStasio Jr.,  A. Dreuw,  B. D. Dunietz,  T. R. Furlani,  
 Chao-Ping Hsu,  Yousung Jung,  Jing Kong,  D. S. Lambrecht,  WanZhen Liang,  
 C. Ochsenfeld,  V. A. Rassolov,  L. V. Slipchenko,  J. E. Subotnik,  
 T. Van Voorhis,  J. M. Herbert,  A. I. Krylov,  P. M. W. Gill,  M. Head-Gordon

 Contributors to earlier versions of Q-Chem not listed above: 
 R. D. Adamson,  B. Austin,  J. Baker,  G. J. O. Beran,  K. Brandhorst,  
 S. T. Brown,  E. F. C. Byrd,  A. K. Chakraborty,  C.-L. Cheng,  
 Siu Hung Chien,  D. M. Chipman,  D. L. Crittenden,  H. Dachsel,  
 R. J. Doerksen,  A. D. Dutoi,  L. Fusti-Molnar,  W. A. Goddard III,  
 A. Golubeva-Zadorozhnaya,  S. R. Gwaltney,  G. Hawkins,  A. Heyden,  
 S. Hirata,  G. Kedziora,  F. J. Keil,  C. Kelley,  Jihan Kim,  R. A. King,  
 R. Z. Khaliullin,  P. P. Korambath,  W. Kurlancheek,  A. M. Lee,  M. S. Lee,  
 S. V. Levchenko,  Ching Yeh Lin,  D. Liotard,  R. C. Lochan,  I. Lotan,  
 P. E. Maslen,  N. Nair,  D. P. O'Neill,  D. Neuhauser,  E. Neuscamman,  
 C. M. Oana,  R. Olson,  B. Peters,  R. Peverati,  P. A. Pieniazek,  
 Y. M. Rhee,  J. Ritchie,  M. A. Rohrdanz,  E. Rosta,  N. J. Russ,  
 H. F. Schaefer III,  N. E. Schultz,  N. Shenvi,  A. C. Simmonett,  A. Sodt,  
 D. Stuck,  K. S. Thanthiriwatte,  V. Vanovschi,  Tao Wang,  A. Warshel,  
 C. F. Williams,  Q. Wu,  X. Xu,  W. Zhang

 Please cite Q-Chem as follows:
 Y. Shao et al., Mol. Phys. 113, 184-215 (2015)
 DOI: 10.1080/00268976.2014.952696

 Q-Chem 5.1.1 for Intel X86 EM64T Linux

 Parts of Q-Chem use Armadillo 8.300.2 (Tropical Shenanigans).
 http://arma.sourceforge.net/

 Q-Chem begins on Sat Oct  3 00:16:09 2020  

Host: n0099.mhg0
0

     Scratch files written to /local/scratch/users/yhljason/NH2_B2PLYP_aug-cc-pcVQZ.inp20201002235658//
The previous job contains 0 fragments, simply inherited here
Input Ideriv = 0
Curr. Ideriv = -1
Max.  Ideriv = 0
Input Ideriv = 1
Curr. Ideriv = 0
Max.  Ideriv = 0

Checking the input file for inconsistencies... 	...done.

--------------------------------------------------------------
User input:
--------------------------------------------------------------
$molecule
read
$end

$rem

jobtype sp
method B2PLYP
xc_grid 000099000590
basis aug-cc-pcVQZ
max_scf_cycles 200
thresh 14
scf_convergence 8
mem_total 128000
cc_memory 96000
cc_backend xm
mem_static 1500
symmetry false
sym_ignore true
scf_guess read
unrestricted false
scf_algorithm gdm
n_frozen_core 0
$end

$multipole_field
YY -0.0001
$end


--------------------------------------------------------------
 ----------------------------------------------------------------
             Standard Nuclear Orientation (Angstroms)
    I     Atom           X                Y                Z
 ----------------------------------------------------------------
    1      N       0.0000000000     0.0000000000     0.0000000000
    2      H       0.0000000000     0.8036000000     0.6347000000
    3      H       0.0000000000    -0.8036000000     0.6347000000
 ----------------------------------------------------------------
 Nuclear Repulsion Energy =     7.5639571803 hartrees
 There are        5 alpha and        4 beta electrons
 Requested basis set is aug-cc-pCVQZ
 There are 57 shells and 201 basis functions

 Total QAlloc Memory Limit 128000 MB
 Mega-Array Size      1467 MB
 MEM_STATIC part      1500 MB

                       Distance Matrix (Angstroms)
             N (  1)   H (  2)
   H (  2)  1.024020
   H (  3)  1.024020  1.607200
 
 Applying Cartesian multipole field
    Component          Value
    ---------          -----
     (0,2,0)       -1.00000E-04
 Nucleus-field energy     =    -0.0004612194 hartrees
 A cutoff of  1.0D-14 yielded   1653 shell pairs
 There are     20709 function pairs (     31923 Cartesian)
 
 -------------------------------------------------------
 OpenMP Integral Computing Module                       
 Release: version 1.0, May 2013, Q-Chem Inc. Pittsburgh 
 -------------------------------------------------------
 Integral Job Info:
 Integral job number is                      11
 Integral operator is                         1
 short-range coefficients                     0
 long-range coefficients              100000000
 Omega coefficients                           0
 if combine SR and LR in K                    0
 Integral screening is                        0
 Integral computing path is                   2
 max size of driver memory is           3200000
 size of driver memory is               1704330
 size of scratch memory is             18511652
 max col of scratch BK array              50625
 max len of scratch array in speh3         2114
 max len of scratch index in speh4           50
 max int batch size is                      520
 min int batch size is                       52
 fixed nKL is                                52
 max L of basis functions is                  4
 order of int derivative is                   0
 number of shells is                         57
 number of basis is                         249
 number of cartesian basis is               249
 number of contracted shell pairs          1653
 number of primitive shell pairs           3157
 maxK2 (contraction) of shell pair           81
 max number of K2 of shell pair               1
 max number of CS2 of shell pair            227
 max number of PS2 of shell pair            288
 mem total for path MDJ                  643177
 -------------------------------------------------------
 Smallest overlap matrix eigenvalue = 8.93E-05
 Guess MOs from SCF MO coefficient file
 Reading MOs from coefficient file
 Reading MOs from coefficient file
 A restricted hybrid HF-DFT SCF calculation will be
 performed using Geometric Direct Minimization
 Exchange:     0.5300 Hartree-Fock + 0.4700 B88
 Correlation:  0.7300 LYP
 Using Euler-Maclaurin-Lebedev (99,590) quadrature formula
 SCF converges when RMS gradient is below 1.0E-08
Using Q-Chem read-in guess as SCF_GUESS READ specified.

 using 8 threads for integral computing
 -------------------------------------------------------
 OpenMP Integral computing Module                
 Release: version 2.0, May 2017, Q-Chem Inc. Pleasanton 
 -------------------------------------------------------
TIMEINFO->: J/JK contribution 36.47 sec.
 -------------------------------------------------------
 OpenMP BLAS3 based DFT computing Module                
 Release: version 1.0, May 2013, Q-Chem Inc. Pittsburgh 
 -------------------------------------------------------
 ---------------------------------------
  Cycle       Energy        RMS Gradient
 ---------------------------------------
    1     -55.7980781428      5.26E-04 Normal BFGS step
TIMEINFO->: J/JK contribution 36.15 sec.
    2     -55.7980788548      4.74E-04 Normal BFGS step
TIMEINFO->: J/JK contribution 36.11 sec.
    3     -55.7980791042      1.33E-04 Normal BFGS step
TIMEINFO->: J/JK contribution 36.01 sec.
    4     -55.7980791252      2.36E-05 Normal BFGS step
[...]
  0.763   0.781   0.784   0.892   0.940   0.972   0.992   1.061
  1.064   1.097   1.107   1.167   1.200   1.257   1.372   1.395
  1.417   1.405   1.455   1.523   1.534   1.533   1.574   1.597
  1.700   1.712   1.760   1.797   1.839   1.839   1.852   1.870
  1.900   1.944   2.000   2.025   2.079   2.146   2.305   2.526
  2.531   2.556   2.573   2.723   2.778   2.793   2.870   2.886
  2.925   2.941   2.964   2.979   3.045   3.080   3.082   3.135
  3.127   3.194   3.187   3.213   3.327   3.440   3.723   3.790
  3.820   3.842   3.855   3.989   3.994   4.068   4.130   4.253
  4.409   4.734   4.751   4.757   4.902   5.086   5.097   6.555
  6.577   6.583   6.600   6.921   7.080   7.073   7.145   7.139
  7.270   7.354   7.449   7.442   7.642   7.668   7.971   7.993
  8.008   8.021   8.084   8.106   8.233   8.250   8.256   8.296
  8.561   8.623   8.675   8.700   8.711   8.731   8.848   8.902
  8.951   9.044   9.181   9.262   9.290   9.433   9.450   9.563
  9.609   9.988  10.014  10.112  10.174  10.378  10.537  11.194
 11.645  11.872  11.855  11.969  12.379  13.427  14.329  15.507
 26.196  27.221  28.207  36.999  37.138  37.177  37.639  37.957
 49.219  91.107  91.874  92.617 111.410 111.417 111.424 111.439
111.438 111.486 111.502 156.096 156.166 156.195 156.436 156.615
165.263 308.054 308.679 309.287 685.208
 --------------------------------------------------------------
 
          Ground-State Mulliken Net Atomic Charges

     Atom                 Charge (a.u.)
  ----------------------------------------
      1 N                    -0.501197
      2 H                     0.250598
      3 H                     0.250598
  ----------------------------------------
  Sum of atomic charges =     0.000000

 -----------------------------------------------------------------
                    Cartesian Multipole Moments
 -----------------------------------------------------------------
    Charge (ESU x 10^10)
                 0.0000
    Dipole Moment (Debye)
         X       0.0000      Y       0.0000      Z       1.8195
       Tot       1.8195
    Quadrupole Moments (Debye-Ang)
        XX      -7.2422     XY       0.0000     YY      -5.5557
        XZ       0.0000     YZ       0.0000     ZZ      -7.2067
    Octopole Moments (Debye-Ang^2)
       XXX       0.0000    XXY      -0.0000    XYY       0.0000
       YYY       0.0000    XXZ      -0.6198    XYZ       0.0000
       YYZ       0.5610    XZZ       0.0000    YZZ       0.0000
       ZZZ      -1.4975
    Hexadecapole Moments (Debye-Ang^3)
      XXXX      -7.0734   XXXY       0.0000   XXYY      -3.0733
      XYYY       0.0000   YYYY      -9.6162   XXXZ       0.0000
      XXYZ       0.0000   XYYZ       0.0000   YYYZ       0.0000
      XXZZ      -3.1834   XYZZ       0.0000   YYZZ      -2.9728
      XZZZ       0.0000   YZZZ       0.0000   ZZZZ     -11.6677
 -----------------------------------------------------------------
Archival summary:
1\1\n0099.mhg0\SP\ROProcedureUnspecified\BasisUnspecified\12(2)\yhljason\SatOct300:21:452020SatOct300:21:452020\0\\#,ROProcedureUnspecified,BasisUnspecified,\\0,2\N\H,1,1.02402\H,1,1.02402,2,103.395\\\@

 Total job time:  167.61s(wall), 1334.60s(cpu) 
 Sat Oct  3 00:21:45 2020

        *************************************************************
        *                                                           *
        *  Thank you very much for using Q-Chem.  Have a nice day.  *
        *                                                           *
        *************************************************************


 
User input: 8 of 8 
 
Q-Chem Developer Version!
                  Welcome to Q-Chem
     A Quantum Leap Into The Future Of Chemistry


 Q-Chem 5.1, Q-Chem, Inc., Pleasanton, CA (2018)

 Yihan Shao,  Zhengting Gan,  E. Epifanovsky,  A. T. B. Gilbert,  M. Wormit,  
 J. Kussmann,  A. W. Lange,  A. Behn,  Jia Deng,  Xintian Feng,  D. Ghosh,  
 M. Goldey,  P. R. Horn,  L. D. Jacobson,  I. Kaliman,  T. Kus,  A. Landau,  
 Jie Liu,  E. I. Proynov,  R. M. Richard,  R. P. Steele,  E. J. Sundstrom,  
 H. L. Woodcock III,  P. M. Zimmerman,  D. Zuev,  B. Albrecht,  E. Alguire,  
 S. A. Baeppler,  D. Barton,  Z. Benda,  Y. A. Bernard,  E. J. Berquist,  
 K. B. Bravaya,  H. Burton,  D. Casanova,  Chun-Min Chang,  Yunqing Chen,  
 A. Chien,  K. D. Closser,  M. P. Coons,  S. Coriani,  S. Dasgupta,  
 A. L. Dempwolff,  M. Diedenhofen,  Hainam Do,  R. G. Edgar,  Po-Tung Fang,  
 S. Faraji,  S. Fatehi,  Qingguo Feng,  K. D. Fenk,  J. Fosso-Tande,  
 Qinghui Ge,  A. Ghysels,  G. Gidofalvi,  J. Gomes,  J. Gonthier,  A. Gunina,  
 D. Hait,  M. W. D. Hanson-Heine,  P. H. P. Harbach,  A. W. Hauser,  
 J. E. Herr,  E. G. Hohenstein,  Z. C. Holden,  Kerwin Hui,  B. C. Huynh,  
 T.-C. Jagau,  Hyunjun Ji,  B. Kaduk,  K. Khistyaev,  Jaehoon Kim,  
 P. Klunzinger,  K. Koh,  D. Kosenkov,  L. Koulias,  T. Kowalczyk,  
 C. M. Krauter,  A. Kunitsa,  Ka Un Lao,  A. Laurent,  K. V. Lawler,  
 Joonho Lee,  D. Lefrancois,  S. Lehtola,  D. S. Levine,  Yi-Pei Li,  
 You-Sheng Lin,  Fenglai Liu,  E. Livshits,  A. Luenser,  P. Manohar,  
 E. Mansoor,  S. F. Manzer,  Shan-Ping Mao,  Yuezhi Mao,  N. Mardirossian,  
 A. V. Marenich,  T. Markovich,  L. A. Martinez-Martinez,  S. A. Maurer,  
 N. J. Mayhall,  S. C. McKenzie,  J.-M. Mewes,  A. F. Morrison,  
 J. W. Mullinax,  K. Nanda,  T. S. Nguyen-Beck,  R. Olivares-Amaya,  
 J. A. Parkhill,  T. M. Perrine,  F. Plasser,  P. Pokhilko,  S. Prager,  
 A. Prociuk,  E. Ramos,  D. R. Rehn,  F. Rob,  M. Schneider,  N. Sergueev,  
 S. M. Sharada,  S. Sharma,  D. W. Small,  T. Stauch,  T. Stein,  
 Yu-Chuan Su,  A. J. W. Thom,  A. Tkatchenko,  T. Tsuchimochi,  N. M. Tubman,  
 L. Vogt,  M. L. Vidal,  O. Vydrov,  M. A. Watson,  J. Wenzel,  
 M. de Wergifosse,  T. A. Wesolowski,  A. White,  J. Witte,  A. Yamada,  
 Jun Yang,  K. Yao,  S. Yeganeh,  S. R. Yost,  Zhi-Qiang You,  A. Zech,  
 Igor Ying Zhang,  Xing Zhang,  Yan Zhao,  Ying Zhu,  B. R. Brooks,  
 G. K. L. Chan,  C. J. Cramer,  M. S. Gordon,  W. J. Hehre,  A. Klamt,  
 M. W. Schmidt,  C. D. Sherrill,  D. G. Truhlar,  A. Aspuru-Guzik,  R. Baer,  
 A. T. Bell,  N. A. Besley,  Jeng-Da Chai,  A. E. DePrince, III,  
 R. A. DiStasio Jr.,  A. Dreuw,  B. D. Dunietz,  T. R. Furlani,  
 Chao-Ping Hsu,  Yousung Jung,  Jing Kong,  D. S. Lambrecht,  WanZhen Liang,  
 C. Ochsenfeld,  V. A. Rassolov,  L. V. Slipchenko,  J. E. Subotnik,  
 T. Van Voorhis,  J. M. Herbert,  A. I. Krylov,  P. M. W. Gill,  M. Head-Gordon

 Contributors to earlier versions of Q-Chem not listed above: 
 R. D. Adamson,  B. Austin,  J. Baker,  G. J. O. Beran,  K. Brandhorst,  
 S. T. Brown,  E. F. C. Byrd,  A. K. Chakraborty,  C.-L. Cheng,  
 Siu Hung Chien,  D. M. Chipman,  D. L. Crittenden,  H. Dachsel,  
 R. J. Doerksen,  A. D. Dutoi,  L. Fusti-Molnar,  W. A. Goddard III,  
 A. Golubeva-Zadorozhnaya,  S. R. Gwaltney,  G. Hawkins,  A. Heyden,  
 S. Hirata,  G. Kedziora,  F. J. Keil,  C. Kelley,  Jihan Kim,  R. A. King,  
 R. Z. Khaliullin,  P. P. Korambath,  W. Kurlancheek,  A. M. Lee,  M. S. Lee,  
 S. V. Levchenko,  Ching Yeh Lin,  D. Liotard,  R. C. Lochan,  I. Lotan,  
 P. E. Maslen,  N. Nair,  D. P. O'Neill,  D. Neuhauser,  E. Neuscamman,  
 C. M. Oana,  R. Olson,  B. Peters,  R. Peverati,  P. A. Pieniazek,  
 Y. M. Rhee,  J. Ritchie,  M. A. Rohrdanz,  E. Rosta,  N. J. Russ,  
 H. F. Schaefer III,  N. E. Schultz,  N. Shenvi,  A. C. Simmonett,  A. Sodt,  
 D. Stuck,  K. S. Thanthiriwatte,  V. Vanovschi,  Tao Wang,  A. Warshel,  
 C. F. Williams,  Q. Wu,  X. Xu,  W. Zhang

 Please cite Q-Chem as follows:
 Y. Shao et al., Mol. Phys. 113, 184-215 (2015)
 DOI: 10.1080/00268976.2014.952696

 Q-Chem 5.1.1 for Intel X86 EM64T Linux

 Parts of Q-Chem use Armadillo 8.300.2 (Tropical Shenanigans).
 http://arma.sourceforge.net/

 Q-Chem begins on Sat Oct  3 00:21:45 2020  

Host: n0099.mhg0
0

     Scratch files written to /local/scratch/users/yhljason/NH2_B2PLYP_aug-cc-pcVQZ.inp20201002235658//
The previous job contains 0 fragments, simply inherited here
Input Ideriv = 0
Curr. Ideriv = -1
Max.  Ideriv = 0
Input Ideriv = 1
Curr. Ideriv = 0
Max.  Ideriv = 0

Checking the input file for inconsistencies... 	...done.

--------------------------------------------------------------
User input:
--------------------------------------------------------------
$molecule
read
$end

$rem

jobtype sp
method B2PLYP
xc_grid 000099000590
basis aug-cc-pcVQZ
max_scf_cycles 200
thresh 14
scf_convergence 8
mem_total 128000
cc_memory 96000
cc_backend xm
mem_static 1500
symmetry false
sym_ignore true
scf_guess read
unrestricted false
scf_algorithm gdm
n_frozen_core 0
$end

$multipole_field
ZZ -0.0001
$end

--------------------------------------------------------------
 ----------------------------------------------------------------
             Standard Nuclear Orientation (Angstroms)
    I     Atom           X                Y                Z
 ----------------------------------------------------------------
    1      N       0.0000000000     0.0000000000     0.0000000000
    2      H       0.0000000000     0.8036000000     0.6347000000
    3      H       0.0000000000    -0.8036000000     0.6347000000
 ----------------------------------------------------------------
 Nuclear Repulsion Energy =     7.5639571803 hartrees
 There are        5 alpha and        4 beta electrons
 Requested basis set is aug-cc-pCVQZ
 There are 57 shells and 201 basis functions

 Total QAlloc Memory Limit 128000 MB
 Mega-Array Size      1467 MB
 MEM_STATIC part      1500 MB

                       Distance Matrix (Angstroms)
             N (  1)   H (  2)
   H (  2)  1.024020
   H (  3)  1.024020  1.607200
 
 Applying Cartesian multipole field
    Component          Value
    ---------          -----
     (0,0,2)       -1.00000E-04
 Nucleus-field energy     =    -0.0002877165 hartrees
 A cutoff of  1.0D-14 yielded   1653 shell pairs
 There are     20709 function pairs (     31923 Cartesian)
 
 -------------------------------------------------------
 OpenMP Integral Computing Module                       
 Release: version 1.0, May 2013, Q-Chem Inc. Pittsburgh 
 -------------------------------------------------------
 Integral Job Info:
 Integral job number is                      11
 Integral operator is                         1
 short-range coefficients                     0
 long-range coefficients              100000000
 Omega coefficients                           0
 if combine SR and LR in K                    0
 Integral screening is                        0
 Integral computing path is                   2
 max size of driver memory is           3200000
 size of driver memory is               1704330
 size of scratch memory is             18511652
 max col of scratch BK array              50625
 max len of scratch array in speh3         2114
 max len of scratch index in speh4           50
 max int batch size is                      520
 min int batch size is                       52
 fixed nKL is                                52
 max L of basis functions is                  4
 order of int derivative is                   0
 number of shells is                         57
 number of basis is                         249
 number of cartesian basis is               249
 number of contracted shell pairs          1653
 number of primitive shell pairs           3157
 maxK2 (contraction) of shell pair           81
 max number of K2 of shell pair               1
 max number of CS2 of shell pair            227
 max number of PS2 of shell pair            288
 mem total for path MDJ                  643177
 -------------------------------------------------------
 Smallest overlap matrix eigenvalue = 8.93E-05
 Guess MOs from SCF MO coefficient file
 Reading MOs from coefficient file
 Reading MOs from coefficient file
 A restricted hybrid HF-DFT SCF calculation will be
 performed using Geometric Direct Minimization
 Exchange:     0.5300 Hartree-Fock + 0.4700 B88
 Correlation:  0.7300 LYP
 Using Euler-Maclaurin-Lebedev (99,590) quadrature formula
 SCF converges when RMS gradient is below 1.0E-08
Using Q-Chem read-in guess as SCF_GUESS READ specified.

 using 8 threads for integral computing
 -------------------------------------------------------
 OpenMP Integral computing Module                
 Release: version 2.0, May 2017, Q-Chem Inc. Pleasanton 
 -------------------------------------------------------
TIMEINFO->: J/JK contribution 36.48 sec.
 -------------------------------------------------------
 OpenMP BLAS3 based DFT computing Module                
 Release: version 1.0, May 2013, Q-Chem Inc. Pittsburgh 
 -------------------------------------------------------
 ---------------------------------------
  Cycle       Energy        RMS Gradient
 ---------------------------------------
    1     -55.7979557305      9.31E-04 Normal BFGS step
TIMEINFO->: J/JK contribution 36.02 sec.
    2     -55.7979566373      4.85E-04 Normal BFGS step
TIMEINFO->: J/JK contribution 35.89 sec.
    3     -55.7979569222      1.54E-04 Normal BFGS step
TIMEINFO->: J/JK contribution 35.96 sec.
    4     -55.7979569501      2.90E-05 Normal BFGS step
TIMEINFO->: J/JK contribution 35.83 sec.
    5     -55.7979569506      1.52E-05 Normal BFGS step
TIMEINFO->: J/JK contribution 35.86 sec.
    6     -55.7979569508      1.11E-06 Normal BFGS step
TIMEINFO->: J/JK contribution 35.70 sec.
    7     -55.7979569508      2.03E-07 Normal BFGS step
TIMEINFO->: J/JK contribution 35.16 sec.
    8     -55.7979569508      1.56E-08 Normal BFGS step
TIMEINFO->: J/JK contribution 33.92 sec.
    9     -55.7979569508      3.80E-09 Convergence criterion met
 ---------------------------------------
 SCF time:  CPU 414.28 s  wall 52.20 s
 SCF   energy in the final basis set = -55.79795695
 Total energy in the final basis set = -55.79795695
 
 Components of the MP2 correlation energy:
        aaaa  correlation energy =        -0.0106637355 au
        abab  correlation energy =        -0.0651694287 au
        bbbb  correlation energy =        -0.0049030896 au
        non-Brillouin singles    =        -0.0021113346 au

 Total  MP2   correlation energy =                    -0.08284759 au
        MP2         total energy =                   -55.88080454 au
 
 --------------------------------------------------------------
 
                    Orbital Energies (a.u.)
 --------------------------------------------------------------
 
 Alpha MOs
 -- Occupied --
-14.871  -0.982  -0.551  -0.407  -0.397
 -- Virtual --
  0.006   0.032   0.081   0.080   0.102   0.122   0.142   0.157
  0.173   0.195   0.201   0.264   0.300   0.318   0.325   0.343
  0.347   0.386   0.393   0.488   0.514   0.528   0.564   0.574
  0.585   0.608   0.651   0.668   0.689   0.695   0.708   0.763
  0.779   0.785   0.882   0.921   0.956   0.967   1.055   1.056
  1.092   1.103   1.165   1.193   1.256   1.371   1.376   1.390
  1.403   1.446   1.521   1.525   1.531   1.570   1.595   1.698
  1.711   1.761   1.799   1.833   1.839   1.852   1.858   1.898
  1.940   1.996   2.025   2.078   2.138   2.246   2.513   2.522
  2.540   2.552   2.708   2.775   2.792   2.869   2.882   2.916
  2.933   2.951   2.947   3.009   3.052   3.058   3.100   3.123
  3.167   3.175   3.191   3.314   3.438   3.710   3.778   3.807
  3.821   3.834   3.969   3.992   4.050   4.121   4.242   4.401
  4.724   4.721   4.749   4.872   5.064   5.091   6.551   6.574
  6.579   6.598   6.913   7.055   7.064   7.131   7.139   7.257
  7.348   7.429   7.441   7.582   7.660   7.953   7.989   7.987
  7.997   8.051   8.098   8.220   8.227   8.246   8.289   8.534
  8.597   8.671   8.670   8.693   8.716   8.846   8.875   8.917
  9.030   9.172   9.240   9.258   9.405   9.436   9.535   9.606
  9.976  10.007  10.066  10.130  10.370  10.513  11.188  11.611
 11.839  11.850  11.965  12.373  13.392  14.325  15.490  26.136
 27.210  28.195  36.966  37.115  37.145  37.620  37.954  49.197
 91.084  91.871  92.614 111.394 111.399 111.404 111.422 111.425
111.482 111.499 156.087 156.160 156.186 156.432 156.615 165.256
308.047 308.678 309.286 685.207
 
 Beta MOs
 -- Occupied --
-14.850  -0.911  -0.533  -0.378
 -- Virtual --
 -0.007   0.007   0.032   0.081   0.087   0.106   0.122   0.143
  0.157   0.174   0.202   0.205   0.263   0.306   0.322   0.333
  0.343   0.357   0.392   0.395   0.491   0.533   0.530   0.571
  0.576   0.597   0.612   0.651   0.681   0.691   0.703   0.709
  0.764   0.782   0.785   0.894   0.941   0.973   0.993   1.062
  1.065   1.098   1.108   1.168   1.201   1.258   1.373   1.396
  1.418   1.406   1.457   1.524   1.535   1.534   1.575   1.597
  1.701   1.713   1.761   1.799   1.840   1.840   1.853   1.871
  1.901   1.945   2.001   2.026   2.080   2.147   2.306   2.527
  2.532   2.557   2.574   2.723   2.779   2.794   2.871   2.886
  2.925   2.942   2.965   2.980   3.045   3.081   3.083   3.136
  3.128   3.195   3.188   3.214   3.328   3.441   3.724   3.790
  3.820   3.842   3.855   3.990   3.994   4.069   4.130   4.254
  4.409   4.735   4.752   4.758   4.903   5.086   5.098   6.555
  6.578   6.583   6.600   6.921   7.081   7.074   7.145   7.140
  7.271   7.354   7.450   7.443   7.643   7.669   7.971   7.994
  8.008   8.022   8.085   8.107   8.234   8.250   8.257   8.297
  8.562   8.624   8.676   8.701   8.711   8.731   8.849   8.903
  8.951   9.045   9.182   9.263   9.290   9.434   9.451   9.564
  9.610   9.989  10.015  10.112  10.174  10.378  10.537  11.195
 11.646  11.873  11.856  11.969  12.379  13.428  14.330  15.508
 26.196  27.222  28.208  36.999  37.139  37.178  37.640  37.958
 49.220  91.108  91.875  92.618 111.411 111.417 111.424 111.440
111.439 111.487 111.503 156.097 156.167 156.196 156.437 156.616
165.264 308.054 308.680 309.287 685.209
 --------------------------------------------------------------
 
          Ground-State Mulliken Net Atomic Charges

     Atom                 Charge (a.u.)
  ----------------------------------------
      1 N                    -0.502435
      2 H                     0.251218
      3 H                     0.251218
  ----------------------------------------
  Sum of atomic charges =     0.000000

 -----------------------------------------------------------------
                    Cartesian Multipole Moments
 -----------------------------------------------------------------
    Charge (ESU x 10^10)
                 0.0000
    Dipole Moment (Debye)
         X      -0.0000      Y      -0.0000      Z       1.8233
       Tot       1.8233
    Quadrupole Moments (Debye-Ang)
        XX      -7.2401     XY      -0.0000     YY      -5.5531
        XZ       0.0000     YZ      -0.0000     ZZ      -7.1903
    Octopole Moments (Debye-Ang^2)
       XXX      -0.0000    XXY      -0.0000    XYY      -0.0000
       YYY      -0.0000    XXZ      -0.6182    XYZ       0.0000
       YYZ       0.5650    XZZ      -0.0000    YZZ       0.0000
       ZZZ      -1.4850
    Hexadecapole Moments (Debye-Ang^3)
      XXXX      -7.0655   XXXY       0.0000   XXYY      -3.0703
      XYYY       0.0000   YYYY      -9.6071   XXXZ       0.0000
      XXYZ      -0.0000   XYYZ       0.0000   YYYZ       0.0000
      XXZZ      -3.1717   XYZZ       0.0000   YYZZ      -2.9576
      XZZZ       0.0000   YZZZ       0.0000   ZZZZ     -11.5958
 -----------------------------------------------------------------
Archival summary:
1\1\n0099.mhg0\SP\ROProcedureUnspecified\BasisUnspecified\12(2)\yhljason\SatOct300:24:342020SatOct300:24:342020\0\\#,ROProcedureUnspecified,BasisUnspecified,\\0,2\N\H,1,1.02402\H,1,1.02402,2,103.395\\\@

 Total job time:  168.14s(wall), 1337.88s(cpu) 
 Sat Oct  3 00:24:34 2020

        *************************************************************
        *                                                           *
        *  Thank you very much for using Q-Chem.  Have a nice day.  *
        *                                                           *
        *************************************************************


