Q-Chem Developer Version!
                  Welcome to Q-Chem
     A Quantum Leap Into The Future Of Chemistry


 Q-Chem 5.1, Q-Chem, Inc., Pleasanton, CA (2018)

 Yihan Shao,  Zhengting Gan,  E. Epifanovsky,  A. T. B. Gilbert,  M. Wormit,  
 J. Kussmann,  A. W. Lange,  A. Behn,  Jia Deng,  Xintian Feng,  D. Ghosh,  
 M. Goldey,  P. R. Horn,  L. D. Jacobson,  I. Kaliman,  T. Kus,  A. Landau,  
 Jie Liu,  E. I. Proynov,  R. M. Richard,  R. P. Steele,  E. J. Sundstrom,  
 H. L. Woodcock III,  P. M. Zimmerman,  D. Zuev,  B. Albrecht,  E. Alguire,  
 S. A. Baeppler,  D. Barton,  Z. Benda,  Y. A. Bernard,  E. J. Berquist,  
 K. B. Bravaya,  H. Burton,  D. Casanova,  Chun-Min Chang,  Yunqing Chen,  
 A. Chien,  K. D. Closser,  M. P. Coons,  S. Coriani,  S. Dasgupta,  
 A. L. Dempwolff,  M. Diedenhofen,  Hainam Do,  R. G. Edgar,  Po-Tung Fang,  
 S. Faraji,  S. Fatehi,  Qingguo Feng,  K. D. Fenk,  J. Fosso-Tande,  
 Qinghui Ge,  A. Ghysels,  G. Gidofalvi,  J. Gomes,  J. Gonthier,  A. Gunina,  
 D. Hait,  M. W. D. Hanson-Heine,  P. H. P. Harbach,  A. W. Hauser,  
 J. E. Herr,  E. G. Hohenstein,  Z. C. Holden,  Kerwin Hui,  B. C. Huynh,  
 T.-C. Jagau,  Hyunjun Ji,  B. Kaduk,  K. Khistyaev,  Jaehoon Kim,  
 P. Klunzinger,  K. Koh,  D. Kosenkov,  L. Koulias,  T. Kowalczyk,  
 C. M. Krauter,  A. Kunitsa,  Ka Un Lao,  A. Laurent,  K. V. Lawler,  
 Joonho Lee,  D. Lefrancois,  S. Lehtola,  D. S. Levine,  Yi-Pei Li,  
 You-Sheng Lin,  Fenglai Liu,  E. Livshits,  A. Luenser,  P. Manohar,  
 E. Mansoor,  S. F. Manzer,  Shan-Ping Mao,  Yuezhi Mao,  N. Mardirossian,  
 A. V. Marenich,  T. Markovich,  L. A. Martinez-Martinez,  S. A. Maurer,  
 N. J. Mayhall,  S. C. McKenzie,  J.-M. Mewes,  A. F. Morrison,  
 J. W. Mullinax,  K. Nanda,  T. S. Nguyen-Beck,  R. Olivares-Amaya,  
 J. A. Parkhill,  T. M. Perrine,  F. Plasser,  P. Pokhilko,  S. Prager,  
 A. Prociuk,  E. Ramos,  D. R. Rehn,  F. Rob,  M. Schneider,  N. Sergueev,  
 S. M. Sharada,  S. Sharma,  D. W. Small,  T. Stauch,  T. Stein,  
 Yu-Chuan Su,  A. J. W. Thom,  A. Tkatchenko,  T. Tsuchimochi,  N. M. Tubman,  
 L. Vogt,  M. L. Vidal,  O. Vydrov,  M. A. Watson,  J. Wenzel,  
 M. de Wergifosse,  T. A. Wesolowski,  A. White,  J. Witte,  A. Yamada,  
 Jun Yang,  K. Yao,  S. Yeganeh,  S. R. Yost,  Zhi-Qiang You,  A. Zech,  
 Igor Ying Zhang,  Xing Zhang,  Yan Zhao,  Ying Zhu,  B. R. Brooks,  
 G. K. L. Chan,  C. J. Cramer,  M. S. Gordon,  W. J. Hehre,  A. Klamt,  
 M. W. Schmidt,  C. D. Sherrill,  D. G. Truhlar,  A. Aspuru-Guzik,  R. Baer,  
 A. T. Bell,  N. A. Besley,  Jeng-Da Chai,  A. E. DePrince, III,  
 R. A. DiStasio Jr.,  A. Dreuw,  B. D. Dunietz,  T. R. Furlani,  
 Chao-Ping Hsu,  Yousung Jung,  Jing Kong,  D. S. Lambrecht,  WanZhen Liang,  
 C. Ochsenfeld,  V. A. Rassolov,  L. V. Slipchenko,  J. E. Subotnik,  
 T. Van Voorhis,  J. M. Herbert,  A. I. Krylov,  P. M. W. Gill,  M. Head-Gordon

 Contributors to earlier versions of Q-Chem not listed above: 
 R. D. Adamson,  B. Austin,  J. Baker,  G. J. O. Beran,  K. Brandhorst,  
 S. T. Brown,  E. F. C. Byrd,  A. K. Chakraborty,  C.-L. Cheng,  
 Siu Hung Chien,  D. M. Chipman,  D. L. Crittenden,  H. Dachsel,  
 R. J. Doerksen,  A. D. Dutoi,  L. Fusti-Molnar,  W. A. Goddard III,  
 A. Golubeva-Zadorozhnaya,  S. R. Gwaltney,  G. Hawkins,  A. Heyden,  
 S. Hirata,  G. Kedziora,  F. J. Keil,  C. Kelley,  Jihan Kim,  R. A. King,  
 R. Z. Khaliullin,  P. P. Korambath,  W. Kurlancheek,  A. M. Lee,  M. S. Lee,  
 S. V. Levchenko,  Ching Yeh Lin,  D. Liotard,  R. C. Lochan,  I. Lotan,  
 P. E. Maslen,  N. Nair,  D. P. O'Neill,  D. Neuhauser,  E. Neuscamman,  
 C. M. Oana,  R. Olson,  B. Peters,  R. Peverati,  P. A. Pieniazek,  
 Y. M. Rhee,  J. Ritchie,  M. A. Rohrdanz,  E. Rosta,  N. J. Russ,  
 H. F. Schaefer III,  N. E. Schultz,  N. Shenvi,  A. C. Simmonett,  A. Sodt,  
 D. Stuck,  K. S. Thanthiriwatte,  V. Vanovschi,  Tao Wang,  A. Warshel,  
 C. F. Williams,  Q. Wu,  X. Xu,  W. Zhang

 Please cite Q-Chem as follows:
 Y. Shao et al., Mol. Phys. 113, 184-215 (2015)
 DOI: 10.1080/00268976.2014.952696

 Q-Chem 5.1.1 for Intel X86 EM64T Linux

 Parts of Q-Chem use Armadillo 8.300.2 (Tropical Shenanigans).
 http://arma.sourceforge.net/

 Q-Chem begins on Sat Oct  3 00:02:23 2020  

Host: n0089.mhg0
0

     Scratch files written to /local/scratch/users/yhljason/SiH4_B2PLYP_aug-cc-pcVQZ.inp20201002235720//
Input Ideriv = 0
Curr. Ideriv = -1
Max.  Ideriv = 0
Analytic post-HF gradients are not available with non-HF exchange
Input Ideriv = 0
Curr. Ideriv = 0
Max.  Ideriv = 0

Checking the input file for inconsistencies... 	...done.

--------------------------------------------------------------
User input:
--------------------------------------------------------------
$molecule 
0 1
Si1	0.0000	0.0000	0.0000
H2	0.8544	0.8544	0.8544
H3	-0.8544	-0.8544	0.8544
H4	-0.8544	0.8544	-0.8544
H5	0.8544	-0.8544	-0.8544
$end

$rem
jobtype sp
method B2PLYP
xc_grid 000099000590
basis aug-cc-pcVQZ
max_scf_cycles 200
thresh 14
scf_convergence 8
scf_algorithm gdm
symmetry false
sym_ignore true
unrestricted false
gen_scfman true
internal_stability_iter 15
internal_stability_davidson_iter 200
mem_total 128000
cc_memory 96000
cc_backend xm
mem_static 1500
n_frozen_core 0
$end



--------------------------------------------------------------
 ----------------------------------------------------------------
             Standard Nuclear Orientation (Angstroms)
    I     Atom           X                Y                Z
 ----------------------------------------------------------------
    1      Si      0.0000000000     0.0000000000     0.0000000000
    2      H       0.8544000000     0.8544000000     0.8544000000
    3      H      -0.8544000000    -0.8544000000     0.8544000000
    4      H      -0.8544000000     0.8544000000    -0.8544000000
    5      H       0.8544000000    -0.8544000000    -0.8544000000
 ----------------------------------------------------------------
 Nuclear Repulsion Energy =    21.3386098648 hartrees
 There are        9 alpha and        9 beta electrons
 Requested basis set is aug-cc-pCVQZ
 There are 90 shells and 318 basis functions

 Total QAlloc Memory Limit 128000 MB
 Mega-Array Size      1467 MB
 MEM_STATIC part      1500 MB

                       Distance Matrix (Angstroms)
             Si(  1)   H (  2)   H (  3)   H (  4)
   H (  2)  1.479864
   H (  3)  1.479864  2.416608
   H (  4)  1.479864  2.416608  2.416608
   H (  5)  1.479864  2.416608  2.416608  2.416608
 
 A cutoff of  1.0D-14 yielded   4095 shell pairs
 There are     51367 function pairs (     79075 Cartesian)
 
 -------------------------------------------------------
 OpenMP Integral Computing Module                       
 Release: version 1.0, May 2013, Q-Chem Inc. Pittsburgh 
 -------------------------------------------------------
 Integral Job Info:
 Integral job number is                      11
 Integral operator is                         1
 short-range coefficients                     0
 long-range coefficients              100000000
 Omega coefficients                           0
 if combine SR and LR in K                    0
 Integral screening is                        0
 Integral computing path is                   2
 max size of driver memory is           3200000
 size of driver memory is               1704330
 size of scratch memory is             29435624
 max col of scratch BK array              50625
 max len of scratch array in speh3         2114
 max len of scratch index in speh4           50
 max int batch size is                      520
 min int batch size is                       52
 fixed nKL is                                22
 max L of basis functions is                  4
 order of int derivative is                   0
 number of shells is                         90
 number of basis is                         394
 number of cartesian basis is               394
 number of contracted shell pairs          4095
 number of primitive shell pairs          10824
 maxK2 (contraction) of shell pair          169
 max number of K2 of shell pair               1
 max number of CS2 of shell pair            545
 max number of PS2 of shell pair           1014
 mem total for path MDJ                  768868
 -------------------------------------------------------
 Smallest overlap matrix eigenvalue = 7.27E-06

 Scale SEOQF with 1.000000e-01/1.000000e-01/1.000000e-01

 Standard Electronic Orientation quadrupole field applied
 Guess from superposition of atomic densities
 Warning:  Energy on first SCF cycle will be non-variational
 SAD guess density has 18.000000 electrons

 -----------------------------------------------------------------------
  General SCF calculation program by
  Eric Jon Sundstrom, Paul Horn, Yuezhi Mao, Dmitri Zuev, Alec White,
  David Stuck, Shaama M.S., Shane Yost, Joonho Lee, David Small,
  Daniel Levine, Susi Lehtola, Hugh Burton, Evgeny Epifanovsky
 -----------------------------------------------------------------------
 Exchange:     0.5300 Hartree-Fock + 0.4700 B88
 Correlation:  0.7300 LYP
 Using Euler-Maclaurin-Lebedev (99,590) quadrature formula
Running Object-Oriented RKS (RHF)
We will preform up to 15 macro iterations over saddle points until a stable solution is found
Energy prior to optimization (guess energy) = -291.718692961439
Begin Timing: Total SCF Calculation
Begin Timing: SCF Single Stationary Point Calculation
begin iterations for algorithm: GDM          
the SCF tolerance is set to 1.00e-08
    1    -291.7186929614      2.05e-02     00000  Normal BFGS step
    2    -291.7224255259      2.82e-03     00000  Normal BFGS step
    3    -291.7225839944      3.78e-04     00000  Normal BFGS step
    4    -291.7225856748      2.24e-04     00000  Normal BFGS step
    5    -291.7225859317      2.06e-05     00000  Normal BFGS step
    6    -291.7225859337      1.93e-06     00000  Normal BFGS step
    7    -291.7225859338      2.40e-07     00000  Normal BFGS step
    8    -291.7225859338      2.50e-08     00000  Normal BFGS step
    9    -291.7225859338      2.33e-09     00000 Convergence criterion met
Timing for Single Stationary Point: 350.00s (wall), 2771.77s (cpu)
Begin Timing: Stability
===================================================
Beginning Test for Internal Stability
===================================================
generating davidson guess vectors based on koopmans excitations
    1      1.33e+00     00000 Davidson Iteration
    2      6.33e-01     00000 Davidson Iteration
    3      6.58e-02     00000 Davidson Iteration
    4      6.17e-02     00000 Davidson Iteration
    5      2.56e-02     00000 Davidson Iteration
    6      7.06e-03     00000 Davidson Iteration
    7      1.02e-03     00000 Davidson Iteration
    8      5.46e-04     00000 Davidson Iteration
    9      3.02e-04     00000 Davidson Iteration
   10      1.12e-04     00000 Davidson Iteration
   11      4.52e-05     00000 Davidson Converged
converged_eigenvalues
   1.3615
   1.3615
Threshold for negative eigenvalues: -1.0e-05
solution was a local minimum (stable)
===================================================
End Test for Internal Stability
===================================================
Our SCF solution is stable!
Timing for Total SCF: 940.00s (wall), 7453.04s (cpu)
 Total energy in the final basis set =     -291.7225859338
    ==================================================
              The end of Object-Oriented SCFman       
    ==================================================
 
 Components of the MP2 correlation energy:
        aaaa  correlation energy =        -0.0163778256 au
        abab  correlation energy =        -0.1239816062 au
        bbbb  correlation energy =        -0.0163778256 au
        non-Brillouin singles    =        -0.0000000000 au

 Total  MP2   correlation energy =                    -0.15673726 au
        MP2         total energy =                  -291.87932319 au
 
 --------------------------------------------------------------
 
                    Orbital Energies (a.u.)
 --------------------------------------------------------------
 
 Alpha MOs
 -- Occupied --
-67.217  -5.623  -3.877  -3.877  -3.877  -0.625  -0.409  -0.409
 -0.409
 -- Virtual --
  0.009   0.028   0.028   0.028   0.049   0.049   0.049   0.081
  0.081   0.086   0.086   0.086   0.088   0.157   0.160   0.160
  0.160   0.182   0.182   0.182   0.202   0.202   0.222   0.222
  0.222   0.281   0.281   0.281   0.288   0.313   0.313   0.313
  0.324   0.391   0.391   0.391   0.393   0.393   0.393   0.407
  0.407   0.415   0.434   0.434   0.434   0.569   0.569   0.569
  0.592   0.592   0.627   0.664   0.664   0.664   0.700   0.700
  0.700   0.772   0.772   0.772   0.775   0.775   0.834   0.834
  0.834   0.841   0.841   0.841   0.859   0.891   0.891   0.891
  0.898   0.898   0.910   0.953   0.953   0.953   1.081   1.081
  1.081   1.119   1.164   1.164   1.164   1.169   1.169   1.169
  1.262   1.262   1.358   1.419   1.419   1.419   1.426   1.426
  1.467   1.467   1.467   1.597   1.597   1.597   1.604   1.604
  1.604   1.762   1.780   1.780   1.780   1.922   1.922   1.923
  1.923   1.923   1.925   1.925   1.925   1.928   1.945   1.945
  1.945   1.966   1.966   2.029   2.045   2.045   2.045   2.138
  2.138   2.138   2.165   2.165   2.165   2.180   2.279   2.279
  2.279   2.326   2.439   2.439   2.475   2.475   2.475   2.508
  2.508   2.508   2.598   2.598   2.598   2.625   2.625   2.662
  2.720   2.720   2.720   2.761   2.761   2.761   2.897   2.897
  2.985   2.985   2.985   3.047   3.047   3.047   3.054   3.271
  3.271   3.271   3.320   3.320   3.320   3.404   3.404   3.404
  3.609   3.609   3.775   3.775   3.823   3.847   3.847   3.847
  4.020   4.020   4.020   4.040   4.040   4.040   4.337   4.901
  4.901   4.901   6.250   6.250   6.504   6.505   6.508   6.508
  6.508   6.555   6.555   6.555   6.594   6.594   6.594   6.634
  6.758   6.758   6.758   6.804   6.804   6.804   6.824   6.824
  6.824   7.002   7.002   7.208   7.208   7.208   7.319   7.319
  7.351   7.700   7.700   7.700   7.948   7.948   7.948   8.176
  8.298   8.298   8.414   8.414   8.414   8.416   8.416   8.416
  8.579   8.579   8.579   8.585   8.585   8.585   8.780   8.780
  9.101   9.101   9.101   9.183   9.183   9.183   9.310   9.310
  9.417   9.417   9.417   9.691   9.856   9.856   9.856   9.900
 12.394  12.394  12.394  13.900  13.900  13.900  14.108  14.108
 14.108  14.543  19.815  21.606  21.606  22.255  22.255  22.255
 33.090  33.090  33.090  38.560  38.560  38.560  38.561  38.561
 38.563  38.567  38.567  38.567  47.986  47.986  47.986  48.087
 48.087  48.087  48.295  56.142  64.083  64.083  64.540  64.540
 64.540 101.633 101.633 101.633 271.788
 --------------------------------------------------------------
 
          Ground-State Mulliken Net Atomic Charges

     Atom                 Charge (a.u.)
  ----------------------------------------
      1 Si                    0.441147
      2 H                    -0.110287
      3 H                    -0.110287
      4 H                    -0.110287
      5 H                    -0.110287
  ----------------------------------------
  Sum of atomic charges =    -0.000000

 -----------------------------------------------------------------
                    Cartesian Multipole Moments
 -----------------------------------------------------------------
    Charge (ESU x 10^10)
                 0.0000
    Dipole Moment (Debye)
         X      -0.0000      Y      -0.0000      Z       0.0000
       Tot       0.0000
    Quadrupole Moments (Debye-Ang)
        XX     -16.6761     XY      -0.0000     YY     -16.6761
        XZ      -0.0000     YZ      -0.0000     ZZ     -16.6761
    Octopole Moments (Debye-Ang^2)
       XXX      -0.0000    XXY      -0.0000    XYY      -0.0000
       YYY       0.0000    XXZ      -0.0000    XYZ      -1.3133
       YYZ       0.0000    XZZ      -0.0000    YZZ      -0.0000
       ZZZ       0.0000
    Hexadecapole Moments (Debye-Ang^3)
      XXXX     -43.1732   XXXY      -0.0000   XXYY     -14.2288
      XYYY      -0.0000   YYYY     -43.1732   XXXZ      -0.0000
      XXYZ      -0.0000   XYYZ      -0.0000   YYYZ      -0.0000
      XXZZ     -14.2288   XYZZ      -0.0000   YYZZ     -14.2288
      XZZZ      -0.0000   YZZZ      -0.0000   ZZZZ     -43.1732
 -----------------------------------------------------------------
Archival summary:
1\1\n0089.mhg0\SP\ProcedureUnspecified\BasisUnspecified\i14\yhljason\SatOct300:26:242020SatOct300:26:242020\0\\#,ProcedureUnspecified,BasisUnspecified,\\0,1\Si\H,1,1.47986\H,1,1.47986,2,109.471\H,1,1.47986,2,109.471,3,120,0\H,1,1.47986,2,109.471,3,-120,0\\\@

 Total job time:  1441.80s(wall), 11418.42s(cpu) 
 Sat Oct  3 00:26:24 2020

        *************************************************************
        *                                                           *
        *  Thank you very much for using Q-Chem.  Have a nice day.  *
        *                                                           *
        *************************************************************


 
User input: 2 of 83 of 8 
 
Q-Chem Developer Version!
                  Welcome to Q-Chem
     A Quantum Leap Into The Future Of Chemistry


 Q-Chem 5.1, Q-Chem, Inc., Pleasanton, CA (2018)

 Yihan Shao,  Zhengting Gan,  E. Epifanovsky,  A. T. B. Gilbert,  M. Wormit,  
 J. Kussmann,  A. W. Lange,  A. Behn,  Jia Deng,  Xintian Feng,  D. Ghosh,  
 M. Goldey,  P. R. Horn,  L. D. Jacobson,  I. Kaliman,  T. Kus,  A. Landau,  
 Jie Liu,  E. I. Proynov,  R. M. Richard,  R. P. Steele,  E. J. Sundstrom,  
 H. L. Woodcock III,  P. M. Zimmerman,  D. Zuev,  B. Albrecht,  E. Alguire,  
 S. A. Baeppler,  D. Barton,  Z. Benda,  Y. A. Bernard,  E. J. Berquist,  
 K. B. Bravaya,  H. Burton,  D. Casanova,  Chun-Min Chang,  Yunqing Chen,  
 A. Chien,  K. D. Closser,  M. P. Coons,  S. Coriani,  S. Dasgupta,  
 A. L. Dempwolff,  M. Diedenhofen,  Hainam Do,  R. G. Edgar,  Po-Tung Fang,  
 S. Faraji,  S. Fatehi,  Qingguo Feng,  K. D. Fenk,  J. Fosso-Tande,  
 Qinghui Ge,  A. Ghysels,  G. Gidofalvi,  J. Gomes,  J. Gonthier,  A. Gunina,  
 D. Hait,  M. W. D. Hanson-Heine,  P. H. P. Harbach,  A. W. Hauser,  
 J. E. Herr,  E. G. Hohenstein,  Z. C. Holden,  Kerwin Hui,  B. C. Huynh,  
 T.-C. Jagau,  Hyunjun Ji,  B. Kaduk,  K. Khistyaev,  Jaehoon Kim,  
 P. Klunzinger,  K. Koh,  D. Kosenkov,  L. Koulias,  T. Kowalczyk,  
 C. M. Krauter,  A. Kunitsa,  Ka Un Lao,  A. Laurent,  K. V. Lawler,  
 Joonho Lee,  D. Lefrancois,  S. Lehtola,  D. S. Levine,  Yi-Pei Li,  
 You-Sheng Lin,  Fenglai Liu,  E. Livshits,  A. Luenser,  P. Manohar,  
 E. Mansoor,  S. F. Manzer,  Shan-Ping Mao,  Yuezhi Mao,  N. Mardirossian,  
 A. V. Marenich,  T. Markovich,  L. A. Martinez-Martinez,  S. A. Maurer,  
 N. J. Mayhall,  S. C. McKenzie,  J.-M. Mewes,  A. F. Morrison,  
 J. W. Mullinax,  K. Nanda,  T. S. Nguyen-Beck,  R. Olivares-Amaya,  
 J. A. Parkhill,  T. M. Perrine,  F. Plasser,  P. Pokhilko,  S. Prager,  
 A. Prociuk,  E. Ramos,  D. R. Rehn,  F. Rob,  M. Schneider,  N. Sergueev,  
 S. M. Sharada,  S. Sharma,  D. W. Small,  T. Stauch,  T. Stein,  
 Yu-Chuan Su,  A. J. W. Thom,  A. Tkatchenko,  T. Tsuchimochi,  N. M. Tubman,  
 L. Vogt,  M. L. Vidal,  O. Vydrov,  M. A. Watson,  J. Wenzel,  
 M. de Wergifosse,  T. A. Wesolowski,  A. White,  J. Witte,  A. Yamada,  
 Jun Yang,  K. Yao,  S. Yeganeh,  S. R. Yost,  Zhi-Qiang You,  A. Zech,  
 Igor Ying Zhang,  Xing Zhang,  Yan Zhao,  Ying Zhu,  B. R. Brooks,  
 G. K. L. Chan,  C. J. Cramer,  M. S. Gordon,  W. J. Hehre,  A. Klamt,  
 M. W. Schmidt,  C. D. Sherrill,  D. G. Truhlar,  A. Aspuru-Guzik,  R. Baer,  
 A. T. Bell,  N. A. Besley,  Jeng-Da Chai,  A. E. DePrince, III,  
 R. A. DiStasio Jr.,  A. Dreuw,  B. D. Dunietz,  T. R. Furlani,  
 Chao-Ping Hsu,  Yousung Jung,  Jing Kong,  D. S. Lambrecht,  WanZhen Liang,  
 C. Ochsenfeld,  V. A. Rassolov,  L. V. Slipchenko,  J. E. Subotnik,  
 T. Van Voorhis,  J. M. Herbert,  A. I. Krylov,  P. M. W. Gill,  M. Head-Gordon

 Contributors to earlier versions of Q-Chem not listed above: 
 R. D. Adamson,  B. Austin,  J. Baker,  G. J. O. Beran,  K. Brandhorst,  
 S. T. Brown,  E. F. C. Byrd,  A. K. Chakraborty,  C.-L. Cheng,  
 Siu Hung Chien,  D. M. Chipman,  D. L. Crittenden,  H. Dachsel,  
 R. J. Doerksen,  A. D. Dutoi,  L. Fusti-Molnar,  W. A. Goddard III,  
 A. Golubeva-Zadorozhnaya,  S. R. Gwaltney,  G. Hawkins,  A. Heyden,  
 S. Hirata,  G. Kedziora,  F. J. Keil,  C. Kelley,  Jihan Kim,  R. A. King,  
 R. Z. Khaliullin,  P. P. Korambath,  W. Kurlancheek,  A. M. Lee,  M. S. Lee,  
 S. V. Levchenko,  Ching Yeh Lin,  D. Liotard,  R. C. Lochan,  I. Lotan,  
 P. E. Maslen,  N. Nair,  D. P. O'Neill,  D. Neuhauser,  E. Neuscamman,  
 C. M. Oana,  R. Olson,  B. Peters,  R. Peverati,  P. A. Pieniazek,  
 Y. M. Rhee,  J. Ritchie,  M. A. Rohrdanz,  E. Rosta,  N. J. Russ,  
 H. F. Schaefer III,  N. E. Schultz,  N. Shenvi,  A. C. Simmonett,  A. Sodt,  
 D. Stuck,  K. S. Thanthiriwatte,  V. Vanovschi,  Tao Wang,  A. Warshel,  
 C. F. Williams,  Q. Wu,  X. Xu,  W. Zhang

 Please cite Q-Chem as follows:
 Y. Shao et al., Mol. Phys. 113, 184-215 (2015)
 DOI: 10.1080/00268976.2014.952696

 Q-Chem 5.1.1 for Intel X86 EM64T Linux

 Parts of Q-Chem use Armadillo 8.300.2 (Tropical Shenanigans).
 http://arma.sourceforge.net/

 Q-Chem begins on Sat Oct  3 00:27:04 2020  

Host: n0089.mhg0
0

     Scratch files written to /local/scratch/users/yhljason/SiH4_B2PLYP_aug-cc-pcVQZ.inp20201002235720//
The previous job contains 0 fragments, simply inherited here
Input Ideriv = 0
Curr. Ideriv = -1
Max.  Ideriv = 0
Analytic post-HF gradients are not available with non-HF exchange
Input Ideriv = 0
Curr. Ideriv = 0
Max.  Ideriv = 0

Checking the input file for inconsistencies... 	...done.

--------------------------------------------------------------
User input:
--------------------------------------------------------------
$molecule
read
$end

$rem

jobtype sp
method B2PLYP
xc_grid 000099000590
basis aug-cc-pcVQZ
max_scf_cycles 200
thresh 14
scf_convergence 8
mem_total 128000
cc_memory 96000
cc_backend xm
mem_static 1500
symmetry false
sym_ignore true
scf_guess read
unrestricted false
scf_algorithm gdm
n_frozen_core 0
$end

$multipole_field
XX 0.0001
$end


--------------------------------------------------------------
 ----------------------------------------------------------------
             Standard Nuclear Orientation (Angstroms)
    I     Atom           X                Y                Z
 ----------------------------------------------------------------
    1      Si      0.0000000000     0.0000000000     0.0000000000
    2      H       0.8544000000     0.8544000000     0.8544000000
    3      H      -0.8544000000    -0.8544000000     0.8544000000
    4      H      -0.8544000000     0.8544000000    -0.8544000000
    5      H       0.8544000000    -0.8544000000    -0.8544000000
 ----------------------------------------------------------------
 Nuclear Repulsion Energy =    21.3386098648 hartrees
 There are        9 alpha and        9 beta electrons
 Requested basis set is aug-cc-pCVQZ
 There are 90 shells and 318 basis functions

 Total QAlloc Memory Limit 128000 MB
 Mega-Array Size      1467 MB
 MEM_STATIC part      1500 MB

                       Distance Matrix (Angstroms)
             Si(  1)   H (  2)   H (  3)   H (  4)
   H (  2)  1.479864
   H (  3)  1.479864  2.416608
   H (  4)  1.479864  2.416608  2.416608
   H (  5)  1.479864  2.416608  2.416608  2.416608
 
 Applying Cartesian multipole field
    Component          Value
    ---------          -----
     (2,0,0)        1.00000E-04
 Nucleus-field energy     =     0.0010427500 hartrees
 A cutoff of  1.0D-14 yielded   4095 shell pairs
 There are     51367 function pairs (     79075 Cartesian)
 
 -------------------------------------------------------
 OpenMP Integral Computing Module                       
 Release: version 1.0, May 2013, Q-Chem Inc. Pittsburgh 
 -------------------------------------------------------
 Integral Job Info:
 Integral job number is                      11
 Integral operator is                         1
 short-range coefficients                     0
 long-range coefficients              100000000
 Omega coefficients                           0
 if combine SR and LR in K                    0
 Integral screening is                        0
 Integral computing path is                   2
 max size of driver memory is           3200000
 size of driver memory is               1704330
 size of scratch memory is             29435624
 max col of scratch BK array              50625
 max len of scratch array in speh3         2114
 max len of scratch index in speh4           50
 max int batch size is                      520
 min int batch size is                       52
 fixed nKL is                                22
 max L of basis functions is                  4
 order of int derivative is                   0
 number of shells is                         90
 number of basis is                         394
 number of cartesian basis is               394
 number of contracted shell pairs          4095
 number of primitive shell pairs          10824
 maxK2 (contraction) of shell pair          169
 max number of K2 of shell pair               1
 max number of CS2 of shell pair            545
 max number of PS2 of shell pair           1014
 mem total for path MDJ                  768868
 -------------------------------------------------------
 Smallest overlap matrix eigenvalue = 7.27E-06
 Guess MOs from SCF MO coefficient file

 -----------------------------------------------------------------------
  General SCF calculation program by
  Eric Jon Sundstrom, Paul Horn, Yuezhi Mao, Dmitri Zuev, Alec White,
  David Stuck, Shaama M.S., Shane Yost, Joonho Lee, David Small,
  Daniel Levine, Susi Lehtola, Hugh Burton, Evgeny Epifanovsky
 -----------------------------------------------------------------------
 Exchange:     0.5300 Hartree-Fock + 0.4700 B88
 Correlation:  0.7300 LYP
 Using Euler-Maclaurin-Lebedev (99,590) quadrature formula
 using 8 threads for integral computing
 -------------------------------------------------------
 OpenMP Integral computing Module                
 Release: version 2.0, May 2017, Q-Chem Inc. Pleasanton 
 -------------------------------------------------------
 -------------------------------------------------------
 OpenMP BLAS3 based DFT computing Module                
 Release: version 1.0, May 2013, Q-Chem Inc. Pittsburgh 
 -------------------------------------------------------
 A restricted SCF calculation will be
 performed using GDM
 SCF converges when RMS gradient is below 1.0e-08
 ---------------------------------------
  Cycle       Energy        RMS Gradient
 ---------------------------------------
    1    -291.7238257608      3.71e-04   Normal BFGS step
    2    -291.7238269198      7.05e-05   Normal BFGS step
    3    -291.7238269750      1.52e-05   Normal BFGS step
    4    -291.7238269781      1.67e-06   Normal BFGS step
    5    -291.7238269782      3.87e-07   Normal BFGS step
    6    -291.7238269782      4.41e-08   Normal BFGS step
    7    -291.7238269782      6.28e-09  Convergence criterion met
 ---------------------------------------
 SCF time:   CPU 2468.58s  wall 311.00s 
 SCF   energy in the final basis set =     -291.7238269782
 Total energy in the final basis set =     -291.7238269782
 
 Components of the MP2 correlation energy:
        aaaa  correlation energy =        -0.0163773524 au
        abab  correlation energy =        -0.1239782731 au
        bbbb  correlation energy =        -0.0163773524 au
        non-Brillouin singles    =        -0.0000000000 au

 Total  MP2   correlation energy =                    -0.15673298 au
        MP2         total energy =                  -291.88055996 au
 
 --------------------------------------------------------------
 
                    Orbital Energies (a.u.)
 --------------------------------------------------------------
 
 Alpha MOs
 -- Occupied --
-67.217  -5.624  -3.878  -3.878  -3.878  -0.625  -0.410  -0.410
 -0.410
 -- Virtual --
  0.006   0.023   0.027   0.027   0.045   0.045   0.047   0.078
  0.080   0.084   0.084   0.084   0.086   0.156   0.157   0.159
  0.159   0.180   0.180   0.181   0.200   0.202   0.220   0.220
  0.221   0.279   0.279   0.279   0.287   0.311   0.311   0.311
  0.322   0.390   0.390   0.390   0.391   0.391   0.392   0.405
  0.406   0.414   0.432   0.433   0.433   0.568   0.568   0.568
  0.591   0.591   0.625   0.663   0.664   0.664   0.699   0.699
  0.699   0.771   0.771   0.772   0.774   0.774   0.833   0.833
  0.833   0.840   0.840   0.840   0.857   0.890   0.890   0.890
  0.897   0.897   0.909   0.952   0.952   0.952   1.080   1.080
  1.080   1.118   1.163   1.163   1.163   1.168   1.168   1.168
  1.261   1.262   1.357   1.418   1.418   1.418   1.425   1.426
  1.466   1.466   1.466   1.596   1.596   1.597   1.603   1.603
  1.603   1.761   1.779   1.779   1.779   1.921   1.922   1.922
  1.922   1.923   1.925   1.925   1.925   1.927   1.944   1.944
  1.944   1.966   1.966   2.029   2.044   2.044   2.044   2.137
  2.137   2.137   2.165   2.165   2.165   2.180   2.278   2.278
  2.278   2.326   2.439   2.439   2.474   2.474   2.474   2.507
  2.507   2.507   2.597   2.597   2.597   2.625   2.625   2.662
  2.720   2.720   2.720   2.760   2.760   2.760   2.897   2.897
  2.984   2.984   2.984   3.047   3.047   3.047   3.054   3.271
  3.271   3.271   3.320   3.320   3.320   3.403   3.403   3.403
  3.608   3.608   3.775   3.775   3.822   3.847   3.847   3.847
  4.019   4.019   4.019   4.040   4.040   4.040   4.336   4.900
  4.900   4.900   6.250   6.250   6.504   6.504   6.507   6.507
  6.507   6.555   6.555   6.555   6.594   6.594   6.594   6.633
  6.757   6.757   6.757   6.804   6.804   6.804   6.823   6.823
  6.823   7.002   7.002   7.208   7.208   7.208   7.318   7.318
  7.350   7.699   7.699   7.700   7.948   7.948   7.948   8.175
  8.297   8.297   8.414   8.414   8.414   8.415   8.416   8.416
  8.579   8.579   8.579   8.585   8.585   8.585   8.780   8.780
  9.100   9.100   9.100   9.182   9.182   9.182   9.310   9.310
  9.416   9.416   9.416   9.691   9.856   9.856   9.856   9.900
 12.394  12.394  12.394  13.900  13.900  13.900  14.108  14.108
 14.108  14.543  19.814  21.606  21.606  22.255  22.255  22.255
 33.090  33.090  33.090  38.560  38.560  38.560  38.560  38.560
 38.562  38.566  38.566  38.566  47.986  47.986  47.986  48.086
 48.086  48.086  48.295  56.142  64.082  64.082  64.539  64.539
 64.539 101.632 101.632 101.632 271.788
 --------------------------------------------------------------
 
          Ground-State Mulliken Net Atomic Charges

     Atom                 Charge (a.u.)
  ----------------------------------------
      1 Si                    0.440279
      2 H                    -0.110070
      3 H                    -0.110070
      4 H                    -0.110070
      5 H                    -0.110070
  ----------------------------------------
  Sum of atomic charges =     0.000000

 -----------------------------------------------------------------
                    Cartesian Multipole Moments
 -----------------------------------------------------------------
    Charge (ESU x 10^10)
                 0.0000
    Dipole Moment (Debye)
         X       0.0000      Y       0.0000      Z      -0.0000
       Tot       0.0000
    Quadrupole Moments (Debye-Ang)
        XX     -16.7089     XY      -0.0000     YY     -16.6770
        XZ      -0.0000     YZ      -0.0000     ZZ     -16.6770
    Octopole Moments (Debye-Ang^2)
       XXX      -0.0000    XXY      -0.0000    XYY      -0.0000
       YYY      -0.0000    XXZ      -0.0000    XYZ      -1.3217
       YYZ      -0.0000    XZZ      -0.0000    YZZ      -0.0000
       ZZZ      -0.0000
    Hexadecapole Moments (Debye-Ang^3)
      XXXX     -43.3417   XXXY      -0.0000   XXYY     -14.2672
      XYYY      -0.0000   YYYY     -43.1824   XXXZ      -0.0000
      XXYZ      -0.0000   XYYZ      -0.0000   YYYZ      -0.0000
      XXZZ     -14.2672   XYZZ      -0.0000   YYZZ     -14.2310
      XZZZ      -0.0000   YZZZ      -0.0000   ZZZZ     -43.1824
 -----------------------------------------------------------------
Archival summary:
1\1\n0089.mhg0\SP\ProcedureUnspecified\BasisUnspecified\i14\yhljason\SatOct300:39:422020SatOct300:39:422020\0\\#,ProcedureUnspecified,BasisUnspecified,\\0,1\Si\H,1,1.47986\H,1,1.47986,2,109.471\H,1,1.47986,2,109.471,3,120,0\H,1,1.47986,2,109.471,3,-120,0\\\@

 Total job time:  757.93s(wall), 5994.93s(cpu) 
 Sat Oct  3 00:39:42 2020

        *************************************************************
        *                                                           *
        *  Thank you very much for using Q-Chem.  Have a nice day.  *
        *                                                           *
        *************************************************************


 
User input: 4 of 8 
 
Q-Chem Developer Version!
                  Welcome to Q-Chem
     A Quantum Leap Into The Future Of Chemistry


 Q-Chem 5.1, Q-Chem, Inc., Pleasanton, CA (2018)

 Yihan Shao,  Zhengting Gan,  E. Epifanovsky,  A. T. B. Gilbert,  M. Wormit,  
 J. Kussmann,  A. W. Lange,  A. Behn,  Jia Deng,  Xintian Feng,  D. Ghosh,  
 M. Goldey,  P. R. Horn,  L. D. Jacobson,  I. Kaliman,  T. Kus,  A. Landau,  
 Jie Liu,  E. I. Proynov,  R. M. Richard,  R. P. Steele,  E. J. Sundstrom,  
 H. L. Woodcock III,  P. M. Zimmerman,  D. Zuev,  B. Albrecht,  E. Alguire,  
 S. A. Baeppler,  D. Barton,  Z. Benda,  Y. A. Bernard,  E. J. Berquist,  
 K. B. Bravaya,  H. Burton,  D. Casanova,  Chun-Min Chang,  Yunqing Chen,  
 A. Chien,  K. D. Closser,  M. P. Coons,  S. Coriani,  S. Dasgupta,  
 A. L. Dempwolff,  M. Diedenhofen,  Hainam Do,  R. G. Edgar,  Po-Tung Fang,  
 S. Faraji,  S. Fatehi,  Qingguo Feng,  K. D. Fenk,  J. Fosso-Tande,  
 Qinghui Ge,  A. Ghysels,  G. Gidofalvi,  J. Gomes,  J. Gonthier,  A. Gunina,  
 D. Hait,  M. W. D. Hanson-Heine,  P. H. P. Harbach,  A. W. Hauser,  
 J. E. Herr,  E. G. Hohenstein,  Z. C. Holden,  Kerwin Hui,  B. C. Huynh,  
 T.-C. Jagau,  Hyunjun Ji,  B. Kaduk,  K. Khistyaev,  Jaehoon Kim,  
 P. Klunzinger,  K. Koh,  D. Kosenkov,  L. Koulias,  T. Kowalczyk,  
 C. M. Krauter,  A. Kunitsa,  Ka Un Lao,  A. Laurent,  K. V. Lawler,  
 Joonho Lee,  D. Lefrancois,  S. Lehtola,  D. S. Levine,  Yi-Pei Li,  
 You-Sheng Lin,  Fenglai Liu,  E. Livshits,  A. Luenser,  P. Manohar,  
 E. Mansoor,  S. F. Manzer,  Shan-Ping Mao,  Yuezhi Mao,  N. Mardirossian,  
 A. V. Marenich,  T. Markovich,  L. A. Martinez-Martinez,  S. A. Maurer,  
 N. J. Mayhall,  S. C. McKenzie,  J.-M. Mewes,  A. F. Morrison,  
 J. W. Mullinax,  K. Nanda,  T. S. Nguyen-Beck,  R. Olivares-Amaya,  
 J. A. Parkhill,  T. M. Perrine,  F. Plasser,  P. Pokhilko,  S. Prager,  
 A. Prociuk,  E. Ramos,  D. R. Rehn,  F. Rob,  M. Schneider,  N. Sergueev,  
 S. M. Sharada,  S. Sharma,  D. W. Small,  T. Stauch,  T. Stein,  
 Yu-Chuan Su,  A. J. W. Thom,  A. Tkatchenko,  T. Tsuchimochi,  N. M. Tubman,  
 L. Vogt,  M. L. Vidal,  O. Vydrov,  M. A. Watson,  J. Wenzel,  
 M. de Wergifosse,  T. A. Wesolowski,  A. White,  J. Witte,  A. Yamada,  
 Jun Yang,  K. Yao,  S. Yeganeh,  S. R. Yost,  Zhi-Qiang You,  A. Zech,  
 Igor Ying Zhang,  Xing Zhang,  Yan Zhao,  Ying Zhu,  B. R. Brooks,  
 G. K. L. Chan,  C. J. Cramer,  M. S. Gordon,  W. J. Hehre,  A. Klamt,  
 M. W. Schmidt,  C. D. Sherrill,  D. G. Truhlar,  A. Aspuru-Guzik,  R. Baer,  
 A. T. Bell,  N. A. Besley,  Jeng-Da Chai,  A. E. DePrince, III,  
 R. A. DiStasio Jr.,  A. Dreuw,  B. D. Dunietz,  T. R. Furlani,  
 Chao-Ping Hsu,  Yousung Jung,  Jing Kong,  D. S. Lambrecht,  WanZhen Liang,  
 C. Ochsenfeld,  V. A. Rassolov,  L. V. Slipchenko,  J. E. Subotnik,  
 T. Van Voorhis,  J. M. Herbert,  A. I. Krylov,  P. M. W. Gill,  M. Head-Gordon

 Contributors to earlier versions of Q-Chem not listed above: 
 R. D. Adamson,  B. Austin,  J. Baker,  G. J. O. Beran,  K. Brandhorst,  
 S. T. Brown,  E. F. C. Byrd,  A. K. Chakraborty,  C.-L. Cheng,  
 Siu Hung Chien,  D. M. Chipman,  D. L. Crittenden,  H. Dachsel,  
 R. J. Doerksen,  A. D. Dutoi,  L. Fusti-Molnar,  W. A. Goddard III,  
 A. Golubeva-Zadorozhnaya,  S. R. Gwaltney,  G. Hawkins,  A. Heyden,  
 S. Hirata,  G. Kedziora,  F. J. Keil,  C. Kelley,  Jihan Kim,  R. A. King,  
 R. Z. Khaliullin,  P. P. Korambath,  W. Kurlancheek,  A. M. Lee,  M. S. Lee,  
 S. V. Levchenko,  Ching Yeh Lin,  D. Liotard,  R. C. Lochan,  I. Lotan,  
 P. E. Maslen,  N. Nair,  D. P. O'Neill,  D. Neuhauser,  E. Neuscamman,  
 C. M. Oana,  R. Olson,  B. Peters,  R. Peverati,  P. A. Pieniazek,  
 Y. M. Rhee,  J. Ritchie,  M. A. Rohrdanz,  E. Rosta,  N. J. Russ,  
 H. F. Schaefer III,  N. E. Schultz,  N. Shenvi,  A. C. Simmonett,  A. Sodt,  
 D. Stuck,  K. S. Thanthiriwatte,  V. Vanovschi,  Tao Wang,  A. Warshel,  
 C. F. Williams,  Q. Wu,  X. Xu,  W. Zhang

 Please cite Q-Chem as follows:
 Y. Shao et al., Mol. Phys. 113, 184-215 (2015)
 DOI: 10.1080/00268976.2014.952696

 Q-Chem 5.1.1 for Intel X86 EM64T Linux

 Parts of Q-Chem use Armadillo 8.300.2 (Tropical Shenanigans).
 http://arma.sourceforge.net/

 Q-Chem begins on Sat Oct  3 00:39:42 2020  

Host: n0089.mhg0
0

     Scratch files written to /local/scratch/users/yhljason/SiH4_B2PLYP_aug-cc-pcVQZ.inp20201002235720//
The previous job contains 0 fragments, simply inherited here
Input Ideriv = 0
Curr. Ideriv = -1
Max.  Ideriv = 0
Analytic post-HF gradients are not available with non-HF exchange
Input Ideriv = 0
Curr. Ideriv = 0
Max.  Ideriv = 0

Checking the input file for inconsistencies... 	...done.

--------------------------------------------------------------
User input:
--------------------------------------------------------------
$molecule
read
$end

$rem

jobtype sp
method B2PLYP
xc_grid 000099000590
basis aug-cc-pcVQZ
max_scf_cycles 200
thresh 14
scf_convergence 8
mem_total 128000
cc_memory 96000
cc_backend xm
mem_static 1500
symmetry false
sym_ignore true
scf_guess read
unrestricted false
scf_algorithm gdm
n_frozen_core 0
$end

$multipole_field
XX -0.0001
$end


--------------------------------------------------------------
 ----------------------------------------------------------------
             Standard Nuclear Orientation (Angstroms)
    I     Atom           X                Y                Z
 ----------------------------------------------------------------
    1      Si      0.0000000000     0.0000000000     0.0000000000
    2      H       0.8544000000     0.8544000000     0.8544000000
    3      H      -0.8544000000    -0.8544000000     0.8544000000
    4      H      -0.8544000000     0.8544000000    -0.8544000000
    5      H       0.8544000000    -0.8544000000    -0.8544000000
 ----------------------------------------------------------------
 Nuclear Repulsion Energy =    21.3386098648 hartrees
 There are        9 alpha and        9 beta electrons
 Requested basis set is aug-cc-pCVQZ
 There are 90 shells and 318 basis functions

 Total QAlloc Memory Limit 128000 MB
 Mega-Array Size      1467 MB
 MEM_STATIC part      1500 MB

                       Distance Matrix (Angstroms)
             Si(  1)   H (  2)   H (  3)   H (  4)
   H (  2)  1.479864
   H (  3)  1.479864  2.416608
   H (  4)  1.479864  2.416608  2.416608
   H (  5)  1.479864  2.416608  2.416608  2.416608
 
 Applying Cartesian multipole field
    Component          Value
    ---------          -----
     (2,0,0)       -1.00000E-04
 Nucleus-field energy     =    -0.0010427500 hartrees
 A cutoff of  1.0D-14 yielded   4095 shell pairs
 There are     51367 function pairs (     79075 Cartesian)
 
 -------------------------------------------------------
 OpenMP Integral Computing Module                       
 Release: version 1.0, May 2013, Q-Chem Inc. Pittsburgh 
 -------------------------------------------------------
 Integral Job Info:
 Integral job number is                      11
 Integral operator is                         1
 short-range coefficients                     0
 long-range coefficients              100000000
 Omega coefficients                           0
 if combine SR and LR in K                    0
 Integral screening is                        0
 Integral computing path is                   2
 max size of driver memory is           3200000
 size of driver memory is               1704330
 size of scratch memory is             29435624
 max col of scratch BK array              50625
 max len of scratch array in speh3         2114
 max len of scratch index in speh4           50
 max int batch size is                      520
 min int batch size is                       52
 fixed nKL is                                22
 max L of basis functions is                  4
 order of int derivative is                   0
 number of shells is                         90
 number of basis is                         394
 number of cartesian basis is               394
 number of contracted shell pairs          4095
 number of primitive shell pairs          10824
 maxK2 (contraction) of shell pair          169
 max number of K2 of shell pair               1
 max number of CS2 of shell pair            545
 max number of PS2 of shell pair           1014
 mem total for path MDJ                  768868
 -------------------------------------------------------
 Smallest overlap matrix eigenvalue = 7.27E-06
 Guess MOs from SCF MO coefficient file

 -----------------------------------------------------------------------
  General SCF calculation program by
  Eric Jon Sundstrom, Paul Horn, Yuezhi Mao, Dmitri Zuev, Alec White,
  David Stuck, Shaama M.S., Shane Yost, Joonho Lee, David Small,
  Daniel Levine, Susi Lehtola, Hugh Burton, Evgeny Epifanovsky
 -----------------------------------------------------------------------
 Exchange:     0.5300 Hartree-Fock + 0.4700 B88
 Correlation:  0.7300 LYP
 Using Euler-Maclaurin-Lebedev (99,590) quadrature formula
 using 8 threads for integral computing
 -------------------------------------------------------
 OpenMP Integral computing Module                
 Release: version 2.0, May 2017, Q-Chem Inc. Pleasanton 
 -------------------------------------------------------
 -------------------------------------------------------
 OpenMP BLAS3 based DFT computing Module                
 Release: version 1.0, May 2013, Q-Chem Inc. Pittsburgh 
 -------------------------------------------------------
 A restricted SCF calculation will be
 performed using GDM
 SCF converges when RMS gradient is below 1.0e-08
 ---------------------------------------
  Cycle       Energy        RMS Gradient
 ---------------------------------------
    1    -291.7213424487      7.72e-04   Normal BFGS step
    2    -291.7213470859      1.39e-04   Normal BFGS step
    3    -291.7213473058      3.02e-05   Normal BFGS step
    4    -291.7213473180      3.26e-06   Normal BFGS step
    5    -291.7213473182      7.55e-07   Normal BFGS step
    6    -291.7213473182      8.58e-08   Normal BFGS step
    7    -291.7213473182      1.27e-08   Normal BFGS step
    8    -291.7213473182      1.37e-09  Convergence criterion met
 ---------------------------------------
 SCF time:   CPU 2771.73s  wall 349.00s 
 SCF   energy in the final basis set =     -291.7213473182
 Total energy in the final basis set =     -291.7213473182
 
 Components of the MP2 correlation energy:
        aaaa  correlation energy =        -0.0163783047 au
        abab  correlation energy =        -0.1239849477 au
        bbbb  correlation energy =        -0.0163783047 au
        non-Brillouin singles    =        -0.0000000000 au

 Total  MP2   correlation energy =                    -0.15674156 au
        MP2         total energy =                  -291.87808888 au
 
 --------------------------------------------------------------
 
                    Orbital Energies (a.u.)
 --------------------------------------------------------------
 
 Alpha MOs
 -- Occupied --
-67.216  -5.623  -3.877  -3.877  -3.877  -0.625  -0.409  -0.409
 -0.409
 -- Virtual --
  0.011   0.030   0.030   0.033   0.051   0.052   0.052   0.082
  0.084   0.088   0.088   0.088   0.091   0.159   0.162   0.162
  0.164   0.184   0.185   0.185   0.203   0.205   0.223   0.223
  0.223   0.282   0.282   0.282   0.289   0.314   0.314   0.314
  0.325   0.392   0.393   0.393   0.393   0.394   0.394   0.408
  0.408   0.416   0.436   0.436   0.436   0.570   0.570   0.570
  0.593   0.593   0.628   0.665   0.665   0.666   0.701   0.701
  0.701   0.773   0.774   0.774   0.776   0.776   0.835   0.835
  0.835   0.842   0.842   0.842   0.860   0.892   0.892   0.892
  0.898   0.899   0.911   0.954   0.954   0.954   1.081   1.081
  1.081   1.120   1.164   1.164   1.165   1.169   1.170   1.170
  1.263   1.263   1.359   1.419   1.419   1.419   1.427   1.427
  1.467   1.467   1.467   1.598   1.598   1.598   1.605   1.605
  1.605   1.763   1.780   1.780   1.780   1.923   1.923   1.924
  1.924   1.924   1.926   1.926   1.926   1.928   1.945   1.945
  1.945   1.967   1.967   2.030   2.046   2.046   2.046   2.139
  2.139   2.139   2.166   2.166   2.166   2.181   2.280   2.280
  2.280   2.327   2.440   2.440   2.476   2.476   2.476   2.508
  2.508   2.508   2.599   2.599   2.599   2.626   2.626   2.663
  2.721   2.721   2.721   2.761   2.761   2.761   2.898   2.898
  2.985   2.985   2.985   3.048   3.048   3.048   3.055   3.272
  3.272   3.272   3.321   3.321   3.321   3.404   3.404   3.404
  3.609   3.609   3.776   3.776   3.823   3.848   3.848   3.848
  4.020   4.020   4.020   4.041   4.041   4.041   4.337   4.901
  4.901   4.901   6.251   6.251   6.505   6.505   6.508   6.508
  6.508   6.556   6.556   6.556   6.595   6.595   6.595   6.634
  6.758   6.758   6.758   6.805   6.805   6.805   6.824   6.824
  6.824   7.003   7.003   7.209   7.209   7.209   7.319   7.319
  7.351   7.700   7.700   7.700   7.949   7.949   7.949   8.176
  8.298   8.298   8.415   8.415   8.415   8.416   8.416   8.417
  8.580   8.580   8.580   8.586   8.586   8.586   8.780   8.780
  9.101   9.101   9.101   9.183   9.183   9.183   9.311   9.311
  9.417   9.417   9.417   9.692   9.857   9.857   9.857   9.901
 12.395  12.395  12.395  13.901  13.901  13.901  14.109  14.109
 14.109  14.543  19.815  21.606  21.606  22.256  22.256  22.256
 33.091  33.091  33.091  38.561  38.561  38.561  38.561  38.561
 38.563  38.567  38.567  38.567  47.987  47.987  47.987  48.087
 48.087  48.087  48.296  56.143  64.083  64.083  64.540  64.540
 64.540 101.633 101.633 101.633 271.788
 --------------------------------------------------------------
 
          Ground-State Mulliken Net Atomic Charges

     Atom                 Charge (a.u.)
  ----------------------------------------
      1 Si                    0.441964
      2 H                    -0.110491
      3 H                    -0.110491
      4 H                    -0.110491
      5 H                    -0.110491
  ----------------------------------------
  Sum of atomic charges =     0.000000

 -----------------------------------------------------------------
                    Cartesian Multipole Moments
 -----------------------------------------------------------------
    Charge (ESU x 10^10)
                 0.0000
    Dipole Moment (Debye)
         X      -0.0000      Y      -0.0000      Z      -0.0000
       Tot       0.0000
    Quadrupole Moments (Debye-Ang)
        XX     -16.6435     XY      -0.0000     YY     -16.6752
        XZ      -0.0000     YZ      -0.0000     ZZ     -16.6752
    Octopole Moments (Debye-Ang^2)
       XXX      -0.0000    XXY      -0.0000    XYY      -0.0000
       YYY      -0.0000    XXZ      -0.0000    XYZ      -1.3049
       YYZ      -0.0000    XZZ      -0.0000    YZZ      -0.0000
       ZZZ      -0.0000
    Hexadecapole Moments (Debye-Ang^3)
      XXXX     -43.0068   XXXY      -0.0000   XXYY     -14.1908
      XYYY      -0.0000   YYYY     -43.1641   XXXZ      -0.0000
      XXYZ      -0.0000   XYYZ      -0.0000   YYYZ      -0.0000
      XXZZ     -14.1908   XYZZ      -0.0000   YYZZ     -14.2266
      XZZZ      -0.0000   YZZZ      -0.0000   ZZZZ     -43.1641
 -----------------------------------------------------------------
Archival summary:
1\1\n0089.mhg0\SP\ProcedureUnspecified\BasisUnspecified\i14\yhljason\SatOct300:52:342020SatOct300:52:342020\0\\#,ProcedureUnspecified,BasisUnspecified,\\0,1\Si\H,1,1.47986\H,1,1.47986,2,109.471\H,1,1.47986,2,109.471,3,120,0\H,1,1.47986,2,109.471,3,-120,0\\\@

 Total job time:  772.36s(wall), 6116.40s(cpu) 
 Sat Oct  3 00:52:34 2020

        *************************************************************
        *                                                           *
        *  Thank you very much for using Q-Chem.  Have a nice day.  *
        *                                                           *
        *************************************************************


 
User input: 5 of 8 
 
Q-Chem Developer Version!
                  Welcome to Q-Chem
     A Quantum Leap Into The Future Of Chemistry


 Q-Chem 5.1, Q-Chem, Inc., Pleasanton, CA (2018)

 Yihan Shao,  Zhengting Gan,  E. Epifanovsky,  A. T. B. Gilbert,  M. Wormit,  
 J. Kussmann,  A. W. Lange,  A. Behn,  Jia Deng,  Xintian Feng,  D. Ghosh,  
 M. Goldey,  P. R. Horn,  L. D. Jacobson,  I. Kaliman,  T. Kus,  A. Landau,  
 Jie Liu,  E. I. Proynov,  R. M. Richard,  R. P. Steele,  E. J. Sundstrom,  
 H. L. Woodcock III,  P. M. Zimmerman,  D. Zuev,  B. Albrecht,  E. Alguire,  
 S. A. Baeppler,  D. Barton,  Z. Benda,  Y. A. Bernard,  E. J. Berquist,  
 K. B. Bravaya,  H. Burton,  D. Casanova,  Chun-Min Chang,  Yunqing Chen,  
 A. Chien,  K. D. Closser,  M. P. Coons,  S. Coriani,  S. Dasgupta,  
 A. L. Dempwolff,  M. Diedenhofen,  Hainam Do,  R. G. Edgar,  Po-Tung Fang,  
 S. Faraji,  S. Fatehi,  Qingguo Feng,  K. D. Fenk,  J. Fosso-Tande,  
 Qinghui Ge,  A. Ghysels,  G. Gidofalvi,  J. Gomes,  J. Gonthier,  A. Gunina,  
 D. Hait,  M. W. D. Hanson-Heine,  P. H. P. Harbach,  A. W. Hauser,  
 J. E. Herr,  E. G. Hohenstein,  Z. C. Holden,  Kerwin Hui,  B. C. Huynh,  
 T.-C. Jagau,  Hyunjun Ji,  B. Kaduk,  K. Khistyaev,  Jaehoon Kim,  
 P. Klunzinger,  K. Koh,  D. Kosenkov,  L. Koulias,  T. Kowalczyk,  
 C. M. Krauter,  A. Kunitsa,  Ka Un Lao,  A. Laurent,  K. V. Lawler,  
 Joonho Lee,  D. Lefrancois,  S. Lehtola,  D. S. Levine,  Yi-Pei Li,  
 You-Sheng Lin,  Fenglai Liu,  E. Livshits,  A. Luenser,  P. Manohar,  
 E. Mansoor,  S. F. Manzer,  Shan-Ping Mao,  Yuezhi Mao,  N. Mardirossian,  
 A. V. Marenich,  T. Markovich,  L. A. Martinez-Martinez,  S. A. Maurer,  
 N. J. Mayhall,  S. C. McKenzie,  J.-M. Mewes,  A. F. Morrison,  
 J. W. Mullinax,  K. Nanda,  T. S. Nguyen-Beck,  R. Olivares-Amaya,  
 J. A. Parkhill,  T. M. Perrine,  F. Plasser,  P. Pokhilko,  S. Prager,  
 A. Prociuk,  E. Ramos,  D. R. Rehn,  F. Rob,  M. Schneider,  N. Sergueev,  
 S. M. Sharada,  S. Sharma,  D. W. Small,  T. Stauch,  T. Stein,  
 Yu-Chuan Su,  A. J. W. Thom,  A. Tkatchenko,  T. Tsuchimochi,  N. M. Tubman,  
 L. Vogt,  M. L. Vidal,  O. Vydrov,  M. A. Watson,  J. Wenzel,  
 M. de Wergifosse,  T. A. Wesolowski,  A. White,  J. Witte,  A. Yamada,  
 Jun Yang,  K. Yao,  S. Yeganeh,  S. R. Yost,  Zhi-Qiang You,  A. Zech,  
 Igor Ying Zhang,  Xing Zhang,  Yan Zhao,  Ying Zhu,  B. R. Brooks,  
 G. K. L. Chan,  C. J. Cramer,  M. S. Gordon,  W. J. Hehre,  A. Klamt,  
 M. W. Schmidt,  C. D. Sherrill,  D. G. Truhlar,  A. Aspuru-Guzik,  R. Baer,  
 A. T. Bell,  N. A. Besley,  Jeng-Da Chai,  A. E. DePrince, III,  
 R. A. DiStasio Jr.,  A. Dreuw,  B. D. Dunietz,  T. R. Furlani,  
 Chao-Ping Hsu,  Yousung Jung,  Jing Kong,  D. S. Lambrecht,  WanZhen Liang,  
 C. Ochsenfeld,  V. A. Rassolov,  L. V. Slipchenko,  J. E. Subotnik,  
 T. Van Voorhis,  J. M. Herbert,  A. I. Krylov,  P. M. W. Gill,  M. Head-Gordon

 Contributors to earlier versions of Q-Chem not listed above: 
 R. D. Adamson,  B. Austin,  J. Baker,  G. J. O. Beran,  K. Brandhorst,  
 S. T. Brown,  E. F. C. Byrd,  A. K. Chakraborty,  C.-L. Cheng,  
 Siu Hung Chien,  D. M. Chipman,  D. L. Crittenden,  H. Dachsel,  
 R. J. Doerksen,  A. D. Dutoi,  L. Fusti-Molnar,  W. A. Goddard III,  
 A. Golubeva-Zadorozhnaya,  S. R. Gwaltney,  G. Hawkins,  A. Heyden,  
 S. Hirata,  G. Kedziora,  F. J. Keil,  C. Kelley,  Jihan Kim,  R. A. King,  
 R. Z. Khaliullin,  P. P. Korambath,  W. Kurlancheek,  A. M. Lee,  M. S. Lee,  
 S. V. Levchenko,  Ching Yeh Lin,  D. Liotard,  R. C. Lochan,  I. Lotan,  
 P. E. Maslen,  N. Nair,  D. P. O'Neill,  D. Neuhauser,  E. Neuscamman,  
 C. M. Oana,  R. Olson,  B. Peters,  R. Peverati,  P. A. Pieniazek,  
 Y. M. Rhee,  J. Ritchie,  M. A. Rohrdanz,  E. Rosta,  N. J. Russ,  
 H. F. Schaefer III,  N. E. Schultz,  N. Shenvi,  A. C. Simmonett,  A. Sodt,  
 D. Stuck,  K. S. Thanthiriwatte,  V. Vanovschi,  Tao Wang,  A. Warshel,  
 C. F. Williams,  Q. Wu,  X. Xu,  W. Zhang

 Please cite Q-Chem as follows:
 Y. Shao et al., Mol. Phys. 113, 184-215 (2015)
 DOI: 10.1080/00268976.2014.952696

 Q-Chem 5.1.1 for Intel X86 EM64T Linux

 Parts of Q-Chem use Armadillo 8.300.2 (Tropical Shenanigans).
 http://arma.sourceforge.net/

 Q-Chem begins on Sat Oct  3 00:52:34 2020  

Host: n0089.mhg0
0

     Scratch files written to /local/scratch/users/yhljason/SiH4_B2PLYP_aug-cc-pcVQZ.inp20201002235720//
The previous job contains 0 fragments, simply inherited here
Input Ideriv = 0
Curr. Ideriv = -1
Max.  Ideriv = 0
Analytic post-HF gradients are not available with non-HF exchange
Input Ideriv = 0
Curr. Ideriv = 0
Max.  Ideriv = 0

Checking the input file for inconsistencies... 	...done.

--------------------------------------------------------------
User input:
--------------------------------------------------------------
$molecule
read
$end

$rem

jobtype sp
method B2PLYP
xc_grid 000099000590
basis aug-cc-pcVQZ
max_scf_cycles 200
thresh 14
scf_convergence 8
mem_total 128000
cc_memory 96000
cc_backend xm
mem_static 1500
symmetry false
sym_ignore true
scf_guess read
unrestricted false
scf_algorithm gdm
n_frozen_core 0
$end

$multipole_field
YY 0.0001
$end


--------------------------------------------------------------
 ----------------------------------------------------------------
             Standard Nuclear Orientation (Angstroms)
    I     Atom           X                Y                Z
 ----------------------------------------------------------------
    1      Si      0.0000000000     0.0000000000     0.0000000000
    2      H       0.8544000000     0.8544000000     0.8544000000
    3      H      -0.8544000000    -0.8544000000     0.8544000000
    4      H      -0.8544000000     0.8544000000    -0.8544000000
    5      H       0.8544000000    -0.8544000000    -0.8544000000
 ----------------------------------------------------------------
 Nuclear Repulsion Energy =    21.3386098648 hartrees
 There are        9 alpha and        9 beta electrons
 Requested basis set is aug-cc-pCVQZ
 There are 90 shells and 318 basis functions

 Total QAlloc Memory Limit 128000 MB
 Mega-Array Size      1467 MB
 MEM_STATIC part      1500 MB

                       Distance Matrix (Angstroms)
             Si(  1)   H (  2)   H (  3)   H (  4)
   H (  2)  1.479864
   H (  3)  1.479864  2.416608
   H (  4)  1.479864  2.416608  2.416608
   H (  5)  1.479864  2.416608  2.416608  2.416608
 
 Applying Cartesian multipole field
    Component          Value
    ---------          -----
     (0,2,0)        1.00000E-04
 Nucleus-field energy     =     0.0010427500 hartrees
 A cutoff of  1.0D-14 yielded   4095 shell pairs
 There are     51367 function pairs (     79075 Cartesian)
 
 -------------------------------------------------------
 OpenMP Integral Computing Module                       
 Release: version 1.0, May 2013, Q-Chem Inc. Pittsburgh 
 -------------------------------------------------------
 Integral Job Info:
 Integral job number is                      11
 Integral operator is                         1
 short-range coefficients                     0
 long-range coefficients              100000000
 Omega coefficients                           0
 if combine SR and LR in K                    0
 Integral screening is                        0
 Integral computing path is                   2
 max size of driver memory is           3200000
 size of driver memory is               1704330
 size of scratch memory is             29435624
 max col of scratch BK array              50625
 max len of scratch array in speh3         2114
 max len of scratch index in speh4           50
 max int batch size is                      520
 min int batch size is                       52
 fixed nKL is                                22
 max L of basis functions is                  4
 order of int derivative is                   0
 number of shells is                         90
 number of basis is                         394
 number of cartesian basis is               394
 number of contracted shell pairs          4095
 number of primitive shell pairs          10824
 maxK2 (contraction) of shell pair          169
 max number of K2 of shell pair               1
 max number of CS2 of shell pair            545
 max number of PS2 of shell pair           1014
 mem total for path MDJ                  768868
 -------------------------------------------------------
 Smallest overlap matrix eigenvalue = 7.27E-06
 Guess MOs from SCF MO coefficient file

 -----------------------------------------------------------------------
  General SCF calculation program by
  Eric Jon Sundstrom, Paul Horn, Yuezhi Mao, Dmitri Zuev, Alec White,
  David Stuck, Shaama M.S., Shane Yost, Joonho Lee, David Small,
  Daniel Levine, Susi Lehtola, Hugh Burton, Evgeny Epifanovsky
 -----------------------------------------------------------------------
 Exchange:     0.5300 Hartree-Fock + 0.4700 B88
 Correlation:  0.7300 LYP
 Using Euler-Maclaurin-Lebedev (99,590) quadrature formula
 using 8 threads for integral computing
 -------------------------------------------------------
 OpenMP Integral computing Module                
 Release: version 2.0, May 2017, Q-Chem Inc. Pleasanton 
 -------------------------------------------------------
 -------------------------------------------------------
 OpenMP BLAS3 based DFT computing Module                
 Release: version 1.0, May 2013, Q-Chem Inc. Pittsburgh 
 -------------------------------------------------------
 A restricted SCF calculation will be
 performed using GDM
 SCF converges when RMS gradient is below 1.0e-08
 ---------------------------------------
  Cycle       Energy        RMS Gradient
 ---------------------------------------
    1    -291.7238244876      5.46e-04   Normal BFGS step
    2    -291.7238268054      1.41e-04   Normal BFGS step
    3    -291.7238269737      1.10e-05   Normal BFGS step
    4    -291.7238269780      3.14e-06   Normal BFGS step
    5    -291.7238269782      5.11e-07   Normal BFGS step
    6    -291.7238269782      1.08e-07   Normal BFGS step
    7    -291.7238269782      1.36e-08   Normal BFGS step
    8    -291.7238269782      1.20e-09  Convergence criterion met
 ---------------------------------------
 SCF time:   CPU 2762.20s  wall 358.00s 
 SCF   energy in the final basis set =     -291.7238269782
 Total energy in the final basis set =     -291.7238269782
 
 Components of the MP2 correlation energy:
        aaaa  correlation energy =        -0.0163773524 au
        abab  correlation energy =        -0.1239782731 au
        bbbb  correlation energy =        -0.0163773524 au
        non-Brillouin singles    =        -0.0000000000 au

 Total  MP2   correlation energy =                    -0.15673298 au
        MP2         total energy =                  -291.88055996 au
 
 --------------------------------------------------------------
 
                    Orbital Energies (a.u.)
 --------------------------------------------------------------
 
 Alpha MOs
 -- Occupied --
-67.217  -5.624  -3.878  -3.878  -3.878  -0.625  -0.410  -0.410
 -0.410
 -- Virtual --
  0.006   0.023   0.027   0.027   0.045   0.045   0.047   0.078
  0.080   0.084   0.084   0.084   0.086   0.156   0.157   0.159
  0.159   0.180   0.180   0.181   0.200   0.202   0.220   0.220
  0.221   0.279   0.279   0.279   0.287   0.311   0.311   0.311
  0.322   0.390   0.390   0.390   0.391   0.391   0.392   0.405
  0.406   0.414   0.432   0.433   0.433   0.568   0.568   0.568
  0.591   0.591   0.625   0.663   0.664   0.664   0.699   0.699
  0.699   0.771   0.771   0.772   0.774   0.774   0.833   0.833
  0.833   0.840   0.840   0.840   0.857   0.890   0.890   0.890
  0.897   0.897   0.909   0.952   0.952   0.952   1.080   1.080
  1.080   1.118   1.163   1.163   1.163   1.168   1.168   1.168
  1.261   1.262   1.357   1.418   1.418   1.418   1.425   1.426
  1.466   1.466   1.466   1.596   1.596   1.597   1.603   1.603
  1.603   1.761   1.779   1.779   1.779   1.921   1.922   1.922
  1.922   1.923   1.925   1.925   1.925   1.927   1.944   1.944
  1.944   1.966   1.966   2.029   2.044   2.044   2.044   2.137
  2.137   2.137   2.165   2.165   2.165   2.180   2.278   2.278
  2.278   2.326   2.439   2.439   2.474   2.474   2.474   2.507
  2.507   2.507   2.597   2.597   2.597   2.625   2.625   2.662
  2.720   2.720   2.720   2.760   2.760   2.760   2.897   2.897
  2.984   2.984   2.984   3.047   3.047   3.047   3.054   3.271
  3.271   3.271   3.320   3.320   3.320   3.403   3.403   3.403
  3.608   3.608   3.775   3.775   3.822   3.847   3.847   3.847
  4.019   4.019   4.019   4.040   4.040   4.040   4.336   4.900
  4.900   4.900   6.250   6.250   6.504   6.504   6.507   6.507
  6.507   6.555   6.555   6.555   6.594   6.594   6.594   6.633
  6.757   6.757   6.757   6.804   6.804   6.804   6.823   6.823
  6.823   7.002   7.002   7.208   7.208   7.208   7.318   7.318
  7.350   7.699   7.699   7.700   7.948   7.948   7.948   8.175
  8.297   8.297   8.414   8.414   8.414   8.415   8.416   8.416
  8.579   8.579   8.579   8.585   8.585   8.585   8.780   8.780
  9.100   9.100   9.100   9.182   9.182   9.182   9.310   9.310
  9.416   9.416   9.416   9.691   9.856   9.856   9.856   9.900
 12.394  12.394  12.394  13.900  13.900  13.900  14.108  14.108
 14.108  14.543  19.814  21.606  21.606  22.255  22.255  22.255
 33.090  33.090  33.090  38.560  38.560  38.560  38.560  38.560
 38.562  38.566  38.566  38.566  47.986  47.986  47.986  48.086
 48.086  48.086  48.295  56.142  64.082  64.082  64.539  64.539
 64.539 101.632 101.632 101.632 271.788
 --------------------------------------------------------------
 
          Ground-State Mulliken Net Atomic Charges

     Atom                 Charge (a.u.)
  ----------------------------------------
      1 Si                    0.440279
      2 H                    -0.110070
      3 H                    -0.110070
      4 H                    -0.110070
      5 H                    -0.110070
  ----------------------------------------
  Sum of atomic charges =     0.000000

 -----------------------------------------------------------------
                    Cartesian Multipole Moments
 -----------------------------------------------------------------
    Charge (ESU x 10^10)
                 0.0000
    Dipole Moment (Debye)
         X       0.0000      Y       0.0000      Z      -0.0000
       Tot       0.0000
    Quadrupole Moments (Debye-Ang)
        XX     -16.6770     XY       0.0000     YY     -16.7089
        XZ       0.0000     YZ      -0.0000     ZZ     -16.6770
    Octopole Moments (Debye-Ang^2)
       XXX       0.0000    XXY       0.0000    XYY       0.0000
       YYY       0.0000    XXZ      -0.0000    XYZ      -1.3217
       YYZ      -0.0000    XZZ       0.0000    YZZ       0.0000
       ZZZ      -0.0000
    Hexadecapole Moments (Debye-Ang^3)
      XXXX     -43.1824   XXXY      -0.0000   XXYY     -14.2672
      XYYY      -0.0000   YYYY     -43.3417   XXXZ      -0.0000
      XXYZ       0.0000   XYYZ       0.0000   YYYZ       0.0000
      XXZZ     -14.2310   XYZZ      -0.0000   YYZZ     -14.2672
      XZZZ       0.0000   YZZZ       0.0000   ZZZZ     -43.1824
 -----------------------------------------------------------------
Archival summary:
1\1\n0089.mhg0\SP\ProcedureUnspecified\BasisUnspecified\i14\yhljason\SatOct301:05:592020SatOct301:05:592020\0\\#,ProcedureUnspecified,BasisUnspecified,\\0,1\Si\H,1,1.47986\H,1,1.47986,2,109.471\H,1,1.47986,2,109.471,3,120,0\H,1,1.47986,2,109.471,3,-120,0\\\@

 Total job time:  804.93s(wall), 6297.45s(cpu) 
 Sat Oct  3 01:05:59 2020

        *************************************************************
        *                                                           *
        *  Thank you very much for using Q-Chem.  Have a nice day.  *
        *                                                           *
        *************************************************************


 
User input: 6 of 8 
 
Q-Chem Developer Version!
                  Welcome to Q-Chem
     A Quantum Leap Into The Future Of Chemistry


 Q-Chem 5.1, Q-Chem, Inc., Pleasanton, CA (2018)

 Yihan Shao,  Zhengting Gan,  E. Epifanovsky,  A. T. B. Gilbert,  M. Wormit,  
 J. Kussmann,  A. W. Lange,  A. Behn,  Jia Deng,  Xintian Feng,  D. Ghosh,  
 M. Goldey,  P. R. Horn,  L. D. Jacobson,  I. Kaliman,  T. Kus,  A. Landau,  
 Jie Liu,  E. I. Proynov,  R. M. Richard,  R. P. Steele,  E. J. Sundstrom,  
 H. L. Woodcock III,  P. M. Zimmerman,  D. Zuev,  B. Albrecht,  E. Alguire,  
 S. A. Baeppler,  D. Barton,  Z. Benda,  Y. A. Bernard,  E. J. Berquist,  
 K. B. Bravaya,  H. Burton,  D. Casanova,  Chun-Min Chang,  Yunqing Chen,  
 A. Chien,  K. D. Closser,  M. P. Coons,  S. Coriani,  S. Dasgupta,  
 A. L. Dempwolff,  M. Diedenhofen,  Hainam Do,  R. G. Edgar,  Po-Tung Fang,  
 S. Faraji,  S. Fatehi,  Qingguo Feng,  K. D. Fenk,  J. Fosso-Tande,  
 Qinghui Ge,  A. Ghysels,  G. Gidofalvi,  J. Gomes,  J. Gonthier,  A. Gunina,  
 D. Hait,  M. W. D. Hanson-Heine,  P. H. P. Harbach,  A. W. Hauser,  
 J. E. Herr,  E. G. Hohenstein,  Z. C. Holden,  Kerwin Hui,  B. C. Huynh,  
 T.-C. Jagau,  Hyunjun Ji,  B. Kaduk,  K. Khistyaev,  Jaehoon Kim,  
 P. Klunzinger,  K. Koh,  D. Kosenkov,  L. Koulias,  T. Kowalczyk,  
 C. M. Krauter,  A. Kunitsa,  Ka Un Lao,  A. Laurent,  K. V. Lawler,  
 Joonho Lee,  D. Lefrancois,  S. Lehtola,  D. S. Levine,  Yi-Pei Li,  
 You-Sheng Lin,  Fenglai Liu,  E. Livshits,  A. Luenser,  P. Manohar,  
 E. Mansoor,  S. F. Manzer,  Shan-Ping Mao,  Yuezhi Mao,  N. Mardirossian,  
 A. V. Marenich,  T. Markovich,  L. A. Martinez-Martinez,  S. A. Maurer,  
 N. J. Mayhall,  S. C. McKenzie,  J.-M. Mewes,  A. F. Morrison,  
 J. W. Mullinax,  K. Nanda,  T. S. Nguyen-Beck,  R. Olivares-Amaya,  
 J. A. Parkhill,  T. M. Perrine,  F. Plasser,  P. Pokhilko,  S. Prager,  
 A. Prociuk,  E. Ramos,  D. R. Rehn,  F. Rob,  M. Schneider,  N. Sergueev,  
 S. M. Sharada,  S. Sharma,  D. W. Small,  T. Stauch,  T. Stein,  
 Yu-Chuan Su,  A. J. W. Thom,  A. Tkatchenko,  T. Tsuchimochi,  N. M. Tubman,  
 L. Vogt,  M. L. Vidal,  O. Vydrov,  M. A. Watson,  J. Wenzel,  
 M. de Wergifosse,  T. A. Wesolowski,  A. White,  J. Witte,  A. Yamada,  
 Jun Yang,  K. Yao,  S. Yeganeh,  S. R. Yost,  Zhi-Qiang You,  A. Zech,  
 Igor Ying Zhang,  Xing Zhang,  Yan Zhao,  Ying Zhu,  B. R. Brooks,  
 G. K. L. Chan,  C. J. Cramer,  M. S. Gordon,  W. J. Hehre,  A. Klamt,  
 M. W. Schmidt,  C. D. Sherrill,  D. G. Truhlar,  A. Aspuru-Guzik,  R. Baer,  
 A. T. Bell,  N. A. Besley,  Jeng-Da Chai,  A. E. DePrince, III,  
 R. A. DiStasio Jr.,  A. Dreuw,  B. D. Dunietz,  T. R. Furlani,  
 Chao-Ping Hsu,  Yousung Jung,  Jing Kong,  D. S. Lambrecht,  WanZhen Liang,  
 C. Ochsenfeld,  V. A. Rassolov,  L. V. Slipchenko,  J. E. Subotnik,  
 T. Van Voorhis,  J. M. Herbert,  A. I. Krylov,  P. M. W. Gill,  M. Head-Gordon

 Contributors to earlier versions of Q-Chem not listed above: 
 R. D. Adamson,  B. Austin,  J. Baker,  G. J. O. Beran,  K. Brandhorst,  
 S. T. Brown,  E. F. C. Byrd,  A. K. Chakraborty,  C.-L. Cheng,  
 Siu Hung Chien,  D. M. Chipman,  D. L. Crittenden,  H. Dachsel,  
 R. J. Doerksen,  A. D. Dutoi,  L. Fusti-Molnar,  W. A. Goddard III,  
 A. Golubeva-Zadorozhnaya,  S. R. Gwaltney,  G. Hawkins,  A. Heyden,  
 S. Hirata,  G. Kedziora,  F. J. Keil,  C. Kelley,  Jihan Kim,  R. A. King,  
 R. Z. Khaliullin,  P. P. Korambath,  W. Kurlancheek,  A. M. Lee,  M. S. Lee,  
 S. V. Levchenko,  Ching Yeh Lin,  D. Liotard,  R. C. Lochan,  I. Lotan,  
 P. E. Maslen,  N. Nair,  D. P. O'Neill,  D. Neuhauser,  E. Neuscamman,  
 C. M. Oana,  R. Olson,  B. Peters,  R. Peverati,  P. A. Pieniazek,  
 Y. M. Rhee,  J. Ritchie,  M. A. Rohrdanz,  E. Rosta,  N. J. Russ,  
 H. F. Schaefer III,  N. E. Schultz,  N. Shenvi,  A. C. Simmonett,  A. Sodt,  
 D. Stuck,  K. S. Thanthiriwatte,  V. Vanovschi,  Tao Wang,  A. Warshel,  
 C. F. Williams,  Q. Wu,  X. Xu,  W. Zhang

 Please cite Q-Chem as follows:
 Y. Shao et al., Mol. Phys. 113, 184-215 (2015)
 DOI: 10.1080/00268976.2014.952696

 Q-Chem 5.1.1 for Intel X86 EM64T Linux

 Parts of Q-Chem use Armadillo 8.300.2 (Tropical Shenanigans).
 http://arma.sourceforge.net/

 Q-Chem begins on Sat Oct  3 01:05:59 2020  

Host: n0089.mhg0
0

     Scratch files written to /local/scratch/users/yhljason/SiH4_B2PLYP_aug-cc-pcVQZ.inp20201002235720//
The previous job contains 0 fragments, simply inherited here
Input Ideriv = 0
Curr. Ideriv = -1
Max.  Ideriv = 0
Analytic post-HF gradients are not available with non-HF exchange
Input Ideriv = 0
Curr. Ideriv = 0
Max.  Ideriv = 0

Checking the input file for inconsistencies... 	...done.

--------------------------------------------------------------
User input:
--------------------------------------------------------------
$molecule
read
$end

$rem

jobtype sp
method B2PLYP
xc_grid 000099000590
basis aug-cc-pcVQZ
max_scf_cycles 200
thresh 14
scf_convergence 8
mem_total 128000
cc_memory 96000
cc_backend xm
mem_static 1500
symmetry false
sym_ignore true
scf_guess read
unrestricted false
scf_algorithm gdm
n_frozen_core 0
$end

$multipole_field
YY -0.0001
$end


--------------------------------------------------------------
 ----------------------------------------------------------------
             Standard Nuclear Orientation (Angstroms)
    I     Atom           X                Y                Z
 ----------------------------------------------------------------
    1      Si      0.0000000000     0.0000000000     0.0000000000
    2      H       0.8544000000     0.8544000000     0.8544000000
    3      H      -0.8544000000    -0.8544000000     0.8544000000
    4      H      -0.8544000000     0.8544000000    -0.8544000000
    5      H       0.8544000000    -0.8544000000    -0.8544000000
 ----------------------------------------------------------------
 Nuclear Repulsion Energy =    21.3386098648 hartrees
 There are        9 alpha and        9 beta electrons
 Requested basis set is aug-cc-pCVQZ
 There are 90 shells and 318 basis functions

 Total QAlloc Memory Limit 128000 MB
 Mega-Array Size      1467 MB
 MEM_STATIC part      1500 MB

                       Distance Matrix (Angstroms)
             Si(  1)   H (  2)   H (  3)   H (  4)
   H (  2)  1.479864
   H (  3)  1.479864  2.416608
   H (  4)  1.479864  2.416608  2.416608
   H (  5)  1.479864  2.416608  2.416608  2.416608
 
 Applying Cartesian multipole field
    Component          Value
    ---------          -----
     (0,2,0)       -1.00000E-04
 Nucleus-field energy     =    -0.0010427500 hartrees
 A cutoff of  1.0D-14 yielded   4095 shell pairs
 There are     51367 function pairs (     79075 Cartesian)
 
 -------------------------------------------------------
 OpenMP Integral Computing Module                       
 Release: version 1.0, May 2013, Q-Chem Inc. Pittsburgh 
 -------------------------------------------------------
 Integral Job Info:
 Integral job number is                      11
 Integral operator is                         1
 short-range coefficients                     0
 long-range coefficients              100000000
 Omega coefficients                           0
 if combine SR and LR in K                    0
 Integral screening is                        0
 Integral computing path is                   2
 max size of driver memory is           3200000
 size of driver memory is               1704330
 size of scratch memory is             29435624
 max col of scratch BK array              50625
 max len of scratch array in speh3         2114
 max len of scratch index in speh4           50
 max int batch size is                      520
 min int batch size is                       52
 fixed nKL is                                22
 max L of basis functions is                  4
 order of int derivative is                   0
 number of shells is                         90
 number of basis is                         394
 number of cartesian basis is               394
 number of contracted shell pairs          4095
 number of primitive shell pairs          10824
 maxK2 (contraction) of shell pair          169
 max number of K2 of shell pair               1
 max number of CS2 of shell pair            545
 max number of PS2 of shell pair           1014
 mem total for path MDJ                  768868
 -------------------------------------------------------
 Smallest overlap matrix eigenvalue = 7.27E-06
 Guess MOs from SCF MO coefficient file

 -----------------------------------------------------------------------
  General SCF calculation program by
  Eric Jon Sundstrom, Paul Horn, Yuezhi Mao, Dmitri Zuev, Alec White,
  David Stuck, Shaama M.S., Shane Yost, Joonho Lee, David Small,
  Daniel Levine, Susi Lehtola, Hugh Burton, Evgeny Epifanovsky
 -----------------------------------------------------------------------
 Exchange:     0.5300 Hartree-Fock + 0.4700 B88
 Correlation:  0.7300 LYP
 Using Euler-Maclaurin-Lebedev (99,590) quadrature formula
 using 8 threads for integral computing
 -------------------------------------------------------
 OpenMP Integral computing Module                
 Release: version 2.0, May 2017, Q-Chem Inc. Pleasanton 
 -------------------------------------------------------
 -------------------------------------------------------
 OpenMP BLAS3 based DFT computing Module                
 Release: version 1.0, May 2013, Q-Chem Inc. Pittsburgh 
 -------------------------------------------------------
 A restricted SCF calculation will be
 performed using GDM
 SCF converges when RMS gradient is below 1.0e-08
 ---------------------------------------
  Cycle       Energy        RMS Gradient
 ---------------------------------------
    1    -291.7213424487      7.72e-04   Normal BFGS step
    2    -291.7213470859      1.39e-04   Normal BFGS step
    3    -291.7213473058      3.02e-05   Normal BFGS step
    4    -291.7213473180      3.26e-06   Normal BFGS step
    5    -291.7213473182      7.55e-07   Normal BFGS step
    6    -291.7213473182      8.58e-08   Normal BFGS step
    7    -291.7213473182      1.27e-08   Normal BFGS step
    8    -291.7213473182      1.37e-09  Convergence criterion met
 ---------------------------------------
 SCF time:   CPU 2775.25s  wall 354.00s 
 SCF   energy in the final basis set =     -291.7213473182
 Total energy in the final basis set =     -291.7213473182
 
 Components of the MP2 correlation energy:
        aaaa  correlation energy =        -0.0163783047 au
        abab  correlation energy =        -0.1239849477 au
        bbbb  correlation energy =        -0.0163783047 au
        non-Brillouin singles    =        -0.0000000000 au

 Total  MP2   correlation energy =                    -0.15674156 au
        MP2         total energy =                  -291.87808888 au
 
 --------------------------------------------------------------
 
                    Orbital Energies (a.u.)
 --------------------------------------------------------------
 
 Alpha MOs
 -- Occupied --
-67.216  -5.623  -3.877  -3.877  -3.877  -0.625  -0.409  -0.409
 -0.409
 -- Virtual --
  0.011   0.030   0.030   0.033   0.051   0.052   0.052   0.082
  0.084   0.088   0.088   0.088   0.091   0.159   0.162   0.162
  0.164   0.184   0.185   0.185   0.203   0.205   0.223   0.223
  0.223   0.282   0.282   0.282   0.289   0.314   0.314   0.314
  0.325   0.392   0.393   0.393   0.393   0.394   0.394   0.408
  0.408   0.416   0.436   0.436   0.436   0.570   0.570   0.570
  0.593   0.593   0.628   0.665   0.665   0.666   0.701   0.701
  0.701   0.773   0.774   0.774   0.776   0.776   0.835   0.835
  0.835   0.842   0.842   0.842   0.860   0.892   0.892   0.892
  0.898   0.899   0.911   0.954   0.954   0.954   1.081   1.081
  1.081   1.120   1.164   1.164   1.165   1.169   1.170   1.170
  1.263   1.263   1.359   1.419   1.419   1.419   1.427   1.427
  1.467   1.467   1.467   1.598   1.598   1.598   1.605   1.605
  1.605   1.763   1.780   1.780   1.780   1.923   1.923   1.924
  1.924   1.924   1.926   1.926   1.926   1.928   1.945   1.945
  1.945   1.967   1.967   2.030   2.046   2.046   2.046   2.139
  2.139   2.139   2.166   2.166   2.166   2.181   2.280   2.280
  2.280   2.327   2.440   2.440   2.476   2.476   2.476   2.508
  2.508   2.508   2.599   2.599   2.599   2.626   2.626   2.663
  2.721   2.721   2.721   2.761   2.761   2.761   2.898   2.898
  2.985   2.985   2.985   3.048   3.048   3.048   3.055   3.272
  3.272   3.272   3.321   3.321   3.321   3.404   3.404   3.404
  3.609   3.609   3.776   3.776   3.823   3.848   3.848   3.848
  4.020   4.020   4.020   4.041   4.041   4.041   4.337   4.901
  4.901   4.901   6.251   6.251   6.505   6.505   6.508   6.508
  6.508   6.556   6.556   6.556   6.595   6.595   6.595   6.634
  6.758   6.758   6.758   6.805   6.805   6.805   6.824   6.824
  6.824   7.003   7.003   7.209   7.209   7.209   7.319   7.319
  7.351   7.700   7.700   7.700   7.949   7.949   7.949   8.176
  8.298   8.298   8.415   8.415   8.415   8.416   8.416   8.417
  8.580   8.580   8.580   8.586   8.586   8.586   8.780   8.780
  9.101   9.101   9.101   9.183   9.183   9.183   9.311   9.311
  9.417   9.417   9.417   9.692   9.857   9.857   9.857   9.901
 12.395  12.395  12.395  13.901  13.901  13.901  14.109  14.109
 14.109  14.543  19.815  21.606  21.606  22.256  22.256  22.256
 33.091  33.091  33.091  38.561  38.561  38.561  38.561  38.561
 38.563  38.567  38.567  38.567  47.987  47.987  47.987  48.087
 48.087  48.087  48.296  56.143  64.083  64.083  64.540  64.540
 64.540 101.633 101.633 101.633 271.788
 --------------------------------------------------------------
 
          Ground-State Mulliken Net Atomic Charges

     Atom                 Charge (a.u.)
  ----------------------------------------
      1 Si                    0.441964
      2 H                    -0.110491
      3 H                    -0.110491
      4 H                    -0.110491
      5 H                    -0.110491
  ----------------------------------------
  Sum of atomic charges =     0.000000

 -----------------------------------------------------------------
                    Cartesian Multipole Moments
 -----------------------------------------------------------------
    Charge (ESU x 10^10)
                 0.0000
    Dipole Moment (Debye)
         X      -0.0000      Y       0.0000      Z      -0.0000
       Tot       0.0000
    Quadrupole Moments (Debye-Ang)
        XX     -16.6752     XY      -0.0000     YY     -16.6435
        XZ       0.0000     YZ      -0.0000     ZZ     -16.6752
    Octopole Moments (Debye-Ang^2)
       XXX      -0.0000    XXY       0.0000    XYY      -0.0000
       YYY       0.0000    XXZ      -0.0000    XYZ      -1.3049
       YYZ      -0.0000    XZZ      -0.0000    YZZ       0.0000
       ZZZ      -0.0000
    Hexadecapole Moments (Debye-Ang^3)
      XXXX     -43.1641   XXXY      -0.0000   XXYY     -14.1908
      XYYY      -0.0000   YYYY     -43.0068   XXXZ       0.0000
      XXYZ      -0.0000   XYYZ       0.0000   YYYZ      -0.0000
      XXZZ     -14.2266   XYZZ      -0.0000   YYZZ     -14.1908
      XZZZ       0.0000   YZZZ      -0.0000   ZZZZ     -43.1641
[...]
  1.603   1.761   1.779   1.779   1.779   1.921   1.922   1.922
  1.922   1.923   1.925   1.925   1.925   1.927   1.944   1.944
  1.944   1.966   1.966   2.029   2.044   2.044   2.044   2.137
  2.137   2.137   2.165   2.165   2.165   2.180   2.278   2.278
  2.278   2.326   2.439   2.439   2.474   2.474   2.474   2.507
  2.507   2.507   2.597   2.597   2.597   2.625   2.625   2.662
  2.720   2.720   2.720   2.760   2.760   2.760   2.897   2.897
  2.984   2.984   2.984   3.047   3.047   3.047   3.054   3.271
  3.271   3.271   3.320   3.320   3.320   3.403   3.403   3.403
  3.608   3.608   3.775   3.775   3.822   3.847   3.847   3.847
  4.019   4.019   4.019   4.040   4.040   4.040   4.336   4.900
  4.900   4.900   6.250   6.250   6.504   6.504   6.507   6.507
  6.507   6.555   6.555   6.555   6.594   6.594   6.594   6.633
  6.757   6.757   6.757   6.804   6.804   6.804   6.823   6.823
  6.823   7.002   7.002   7.208   7.208   7.208   7.318   7.318
  7.350   7.699   7.699   7.700   7.948   7.948   7.948   8.175
  8.297   8.297   8.414   8.414   8.414   8.415   8.416   8.416
  8.579   8.579   8.579   8.585   8.585   8.585   8.780   8.780
  9.100   9.100   9.100   9.182   9.182   9.182   9.310   9.310
  9.416   9.416   9.416   9.691   9.856   9.856   9.856   9.900
 12.394  12.394  12.394  13.900  13.900  13.900  14.108  14.108
 14.108  14.543  19.814  21.606  21.606  22.255  22.255  22.255
 33.090  33.090  33.090  38.560  38.560  38.560  38.560  38.560
 38.562  38.566  38.566  38.566  47.986  47.986  47.986  48.086
 48.086  48.086  48.295  56.142  64.082  64.082  64.539  64.539
 64.539 101.632 101.632 101.632 271.788
 --------------------------------------------------------------
 
          Ground-State Mulliken Net Atomic Charges

     Atom                 Charge (a.u.)
  ----------------------------------------
      1 Si                    0.440279
      2 H                    -0.110070
      3 H                    -0.110070
      4 H                    -0.110070
      5 H                    -0.110070
  ----------------------------------------
  Sum of atomic charges =     0.000000

 -----------------------------------------------------------------
                    Cartesian Multipole Moments
 -----------------------------------------------------------------
    Charge (ESU x 10^10)
                 0.0000
    Dipole Moment (Debye)
         X       0.0000      Y      -0.0000      Z      -0.0000
       Tot       0.0000
    Quadrupole Moments (Debye-Ang)
        XX     -16.6770     XY      -0.0000     YY     -16.6770
        XZ       0.0000     YZ       0.0000     ZZ     -16.7089
    Octopole Moments (Debye-Ang^2)
       XXX       0.0000    XXY      -0.0000    XYY       0.0000
       YYY      -0.0000    XXZ      -0.0000    XYZ      -1.3217
       YYZ      -0.0000    XZZ       0.0000    YZZ      -0.0000
       ZZZ      -0.0000
    Hexadecapole Moments (Debye-Ang^3)
      XXXX     -43.1824   XXXY      -0.0000   XXYY     -14.2310
      XYYY      -0.0000   YYYY     -43.1824   XXXZ      -0.0000
      XXYZ       0.0000   XYYZ      -0.0000   YYYZ       0.0000
      XXZZ     -14.2672   XYZZ      -0.0000   YYZZ     -14.2672
      XZZZ      -0.0000   YZZZ       0.0000   ZZZZ     -43.3417
 -----------------------------------------------------------------
Archival summary:
1\1\n0089.mhg0\SP\ProcedureUnspecified\BasisUnspecified\i14\yhljason\SatOct301:32:392020SatOct301:32:392020\0\\#,ProcedureUnspecified,BasisUnspecified,\\0,1\Si\H,1,1.47986\H,1,1.47986,2,109.471\H,1,1.47986,2,109.471,3,120,0\H,1,1.47986,2,109.471,3,-120,0\\\@

 Total job time:  798.29s(wall), 6319.69s(cpu) 
 Sat Oct  3 01:32:39 2020

        *************************************************************
        *                                                           *
        *  Thank you very much for using Q-Chem.  Have a nice day.  *
        *                                                           *
        *************************************************************


 
User input: 8 of 8 
 
Q-Chem Developer Version!
                  Welcome to Q-Chem
     A Quantum Leap Into The Future Of Chemistry


 Q-Chem 5.1, Q-Chem, Inc., Pleasanton, CA (2018)

 Yihan Shao,  Zhengting Gan,  E. Epifanovsky,  A. T. B. Gilbert,  M. Wormit,  
 J. Kussmann,  A. W. Lange,  A. Behn,  Jia Deng,  Xintian Feng,  D. Ghosh,  
 M. Goldey,  P. R. Horn,  L. D. Jacobson,  I. Kaliman,  T. Kus,  A. Landau,  
 Jie Liu,  E. I. Proynov,  R. M. Richard,  R. P. Steele,  E. J. Sundstrom,  
 H. L. Woodcock III,  P. M. Zimmerman,  D. Zuev,  B. Albrecht,  E. Alguire,  
 S. A. Baeppler,  D. Barton,  Z. Benda,  Y. A. Bernard,  E. J. Berquist,  
 K. B. Bravaya,  H. Burton,  D. Casanova,  Chun-Min Chang,  Yunqing Chen,  
 A. Chien,  K. D. Closser,  M. P. Coons,  S. Coriani,  S. Dasgupta,  
 A. L. Dempwolff,  M. Diedenhofen,  Hainam Do,  R. G. Edgar,  Po-Tung Fang,  
 S. Faraji,  S. Fatehi,  Qingguo Feng,  K. D. Fenk,  J. Fosso-Tande,  
 Qinghui Ge,  A. Ghysels,  G. Gidofalvi,  J. Gomes,  J. Gonthier,  A. Gunina,  
 D. Hait,  M. W. D. Hanson-Heine,  P. H. P. Harbach,  A. W. Hauser,  
 J. E. Herr,  E. G. Hohenstein,  Z. C. Holden,  Kerwin Hui,  B. C. Huynh,  
 T.-C. Jagau,  Hyunjun Ji,  B. Kaduk,  K. Khistyaev,  Jaehoon Kim,  
 P. Klunzinger,  K. Koh,  D. Kosenkov,  L. Koulias,  T. Kowalczyk,  
 C. M. Krauter,  A. Kunitsa,  Ka Un Lao,  A. Laurent,  K. V. Lawler,  
 Joonho Lee,  D. Lefrancois,  S. Lehtola,  D. S. Levine,  Yi-Pei Li,  
 You-Sheng Lin,  Fenglai Liu,  E. Livshits,  A. Luenser,  P. Manohar,  
 E. Mansoor,  S. F. Manzer,  Shan-Ping Mao,  Yuezhi Mao,  N. Mardirossian,  
 A. V. Marenich,  T. Markovich,  L. A. Martinez-Martinez,  S. A. Maurer,  
 N. J. Mayhall,  S. C. McKenzie,  J.-M. Mewes,  A. F. Morrison,  
 J. W. Mullinax,  K. Nanda,  T. S. Nguyen-Beck,  R. Olivares-Amaya,  
 J. A. Parkhill,  T. M. Perrine,  F. Plasser,  P. Pokhilko,  S. Prager,  
 A. Prociuk,  E. Ramos,  D. R. Rehn,  F. Rob,  M. Schneider,  N. Sergueev,  
 S. M. Sharada,  S. Sharma,  D. W. Small,  T. Stauch,  T. Stein,  
 Yu-Chuan Su,  A. J. W. Thom,  A. Tkatchenko,  T. Tsuchimochi,  N. M. Tubman,  
 L. Vogt,  M. L. Vidal,  O. Vydrov,  M. A. Watson,  J. Wenzel,  
 M. de Wergifosse,  T. A. Wesolowski,  A. White,  J. Witte,  A. Yamada,  
 Jun Yang,  K. Yao,  S. Yeganeh,  S. R. Yost,  Zhi-Qiang You,  A. Zech,  
 Igor Ying Zhang,  Xing Zhang,  Yan Zhao,  Ying Zhu,  B. R. Brooks,  
 G. K. L. Chan,  C. J. Cramer,  M. S. Gordon,  W. J. Hehre,  A. Klamt,  
 M. W. Schmidt,  C. D. Sherrill,  D. G. Truhlar,  A. Aspuru-Guzik,  R. Baer,  
 A. T. Bell,  N. A. Besley,  Jeng-Da Chai,  A. E. DePrince, III,  
 R. A. DiStasio Jr.,  A. Dreuw,  B. D. Dunietz,  T. R. Furlani,  
 Chao-Ping Hsu,  Yousung Jung,  Jing Kong,  D. S. Lambrecht,  WanZhen Liang,  
 C. Ochsenfeld,  V. A. Rassolov,  L. V. Slipchenko,  J. E. Subotnik,  
 T. Van Voorhis,  J. M. Herbert,  A. I. Krylov,  P. M. W. Gill,  M. Head-Gordon

 Contributors to earlier versions of Q-Chem not listed above: 
 R. D. Adamson,  B. Austin,  J. Baker,  G. J. O. Beran,  K. Brandhorst,  
 S. T. Brown,  E. F. C. Byrd,  A. K. Chakraborty,  C.-L. Cheng,  
 Siu Hung Chien,  D. M. Chipman,  D. L. Crittenden,  H. Dachsel,  
 R. J. Doerksen,  A. D. Dutoi,  L. Fusti-Molnar,  W. A. Goddard III,  
 A. Golubeva-Zadorozhnaya,  S. R. Gwaltney,  G. Hawkins,  A. Heyden,  
 S. Hirata,  G. Kedziora,  F. J. Keil,  C. Kelley,  Jihan Kim,  R. A. King,  
 R. Z. Khaliullin,  P. P. Korambath,  W. Kurlancheek,  A. M. Lee,  M. S. Lee,  
 S. V. Levchenko,  Ching Yeh Lin,  D. Liotard,  R. C. Lochan,  I. Lotan,  
 P. E. Maslen,  N. Nair,  D. P. O'Neill,  D. Neuhauser,  E. Neuscamman,  
 C. M. Oana,  R. Olson,  B. Peters,  R. Peverati,  P. A. Pieniazek,  
 Y. M. Rhee,  J. Ritchie,  M. A. Rohrdanz,  E. Rosta,  N. J. Russ,  
 H. F. Schaefer III,  N. E. Schultz,  N. Shenvi,  A. C. Simmonett,  A. Sodt,  
 D. Stuck,  K. S. Thanthiriwatte,  V. Vanovschi,  Tao Wang,  A. Warshel,  
 C. F. Williams,  Q. Wu,  X. Xu,  W. Zhang

 Please cite Q-Chem as follows:
 Y. Shao et al., Mol. Phys. 113, 184-215 (2015)
 DOI: 10.1080/00268976.2014.952696

 Q-Chem 5.1.1 for Intel X86 EM64T Linux

 Parts of Q-Chem use Armadillo 8.300.2 (Tropical Shenanigans).
 http://arma.sourceforge.net/

 Q-Chem begins on Sat Oct  3 01:32:39 2020  

Host: n0089.mhg0
0

     Scratch files written to /local/scratch/users/yhljason/SiH4_B2PLYP_aug-cc-pcVQZ.inp20201002235720//
The previous job contains 0 fragments, simply inherited here
Input Ideriv = 0
Curr. Ideriv = -1
Max.  Ideriv = 0
Analytic post-HF gradients are not available with non-HF exchange
Input Ideriv = 0
Curr. Ideriv = 0
Max.  Ideriv = 0

Checking the input file for inconsistencies... 	...done.

--------------------------------------------------------------
User input:
--------------------------------------------------------------
$molecule
read
$end

$rem

jobtype sp
method B2PLYP
xc_grid 000099000590
basis aug-cc-pcVQZ
max_scf_cycles 200
thresh 14
scf_convergence 8
mem_total 128000
cc_memory 96000
cc_backend xm
mem_static 1500
symmetry false
sym_ignore true
scf_guess read
unrestricted false
scf_algorithm gdm
n_frozen_core 0
$end

$multipole_field
ZZ -0.0001
$end

--------------------------------------------------------------
 ----------------------------------------------------------------
             Standard Nuclear Orientation (Angstroms)
    I     Atom           X                Y                Z
 ----------------------------------------------------------------
    1      Si      0.0000000000     0.0000000000     0.0000000000
    2      H       0.8544000000     0.8544000000     0.8544000000
    3      H      -0.8544000000    -0.8544000000     0.8544000000
    4      H      -0.8544000000     0.8544000000    -0.8544000000
    5      H       0.8544000000    -0.8544000000    -0.8544000000
 ----------------------------------------------------------------
 Nuclear Repulsion Energy =    21.3386098648 hartrees
 There are        9 alpha and        9 beta electrons
 Requested basis set is aug-cc-pCVQZ
 There are 90 shells and 318 basis functions

 Total QAlloc Memory Limit 128000 MB
 Mega-Array Size      1467 MB
 MEM_STATIC part      1500 MB

                       Distance Matrix (Angstroms)
             Si(  1)   H (  2)   H (  3)   H (  4)
   H (  2)  1.479864
   H (  3)  1.479864  2.416608
   H (  4)  1.479864  2.416608  2.416608
   H (  5)  1.479864  2.416608  2.416608  2.416608
 
 Applying Cartesian multipole field
    Component          Value
    ---------          -----
     (0,0,2)       -1.00000E-04
 Nucleus-field energy     =    -0.0010427500 hartrees
 A cutoff of  1.0D-14 yielded   4095 shell pairs
 There are     51367 function pairs (     79075 Cartesian)
 
 -------------------------------------------------------
 OpenMP Integral Computing Module                       
 Release: version 1.0, May 2013, Q-Chem Inc. Pittsburgh 
 -------------------------------------------------------
 Integral Job Info:
 Integral job number is                      11
 Integral operator is                         1
 short-range coefficients                     0
 long-range coefficients              100000000
 Omega coefficients                           0
 if combine SR and LR in K                    0
 Integral screening is                        0
 Integral computing path is                   2
 max size of driver memory is           3200000
 size of driver memory is               1704330
 size of scratch memory is             29435624
 max col of scratch BK array              50625
 max len of scratch array in speh3         2114
 max len of scratch index in speh4           50
 max int batch size is                      520
 min int batch size is                       52
 fixed nKL is                                22
 max L of basis functions is                  4
 order of int derivative is                   0
 number of shells is                         90
 number of basis is                         394
 number of cartesian basis is               394
 number of contracted shell pairs          4095
 number of primitive shell pairs          10824
 maxK2 (contraction) of shell pair          169
 max number of K2 of shell pair               1
 max number of CS2 of shell pair            545
 max number of PS2 of shell pair           1014
 mem total for path MDJ                  768868
 -------------------------------------------------------
 Smallest overlap matrix eigenvalue = 7.27E-06
 Guess MOs from SCF MO coefficient file

 -----------------------------------------------------------------------
  General SCF calculation program by
  Eric Jon Sundstrom, Paul Horn, Yuezhi Mao, Dmitri Zuev, Alec White,
  David Stuck, Shaama M.S., Shane Yost, Joonho Lee, David Small,
  Daniel Levine, Susi Lehtola, Hugh Burton, Evgeny Epifanovsky
 -----------------------------------------------------------------------
 Exchange:     0.5300 Hartree-Fock + 0.4700 B88
 Correlation:  0.7300 LYP
 Using Euler-Maclaurin-Lebedev (99,590) quadrature formula
 using 8 threads for integral computing
 -------------------------------------------------------
 OpenMP Integral computing Module                
 Release: version 2.0, May 2017, Q-Chem Inc. Pleasanton 
 -------------------------------------------------------
 -------------------------------------------------------
 OpenMP BLAS3 based DFT computing Module                
 Release: version 1.0, May 2013, Q-Chem Inc. Pittsburgh 
 -------------------------------------------------------
 A restricted SCF calculation will be
 performed using GDM
 SCF converges when RMS gradient is below 1.0e-08
 ---------------------------------------
  Cycle       Energy        RMS Gradient
 ---------------------------------------
    1    -291.7213424487      7.72e-04   Normal BFGS step
    2    -291.7213470859      1.39e-04   Normal BFGS step
    3    -291.7213473058      3.02e-05   Normal BFGS step
    4    -291.7213473180      3.31e-06   Normal BFGS step
    5    -291.7213473182      7.55e-07   Normal BFGS step
    6    -291.7213473182      8.58e-08   Normal BFGS step
    7    -291.7213473182      1.27e-08   Normal BFGS step
    8    -291.7213473182      1.37e-09  Convergence criterion met
 ---------------------------------------
 SCF time:   CPU 2741.26s  wall 361.00s 
 SCF   energy in the final basis set =     -291.7213473182
 Total energy in the final basis set =     -291.7213473182
 
 Components of the MP2 correlation energy:
        aaaa  correlation energy =        -0.0163783047 au
        abab  correlation energy =        -0.1239849477 au
        bbbb  correlation energy =        -0.0163783047 au
        non-Brillouin singles    =        -0.0000000000 au

 Total  MP2   correlation energy =                    -0.15674156 au
        MP2         total energy =                  -291.87808888 au
 
 --------------------------------------------------------------
 
                    Orbital Energies (a.u.)
 --------------------------------------------------------------
 
 Alpha MOs
 -- Occupied --
-67.216  -5.623  -3.877  -3.877  -3.877  -0.625  -0.409  -0.409
 -0.409
 -- Virtual --
  0.011   0.030   0.030   0.033   0.051   0.052   0.052   0.082
  0.084   0.088   0.088   0.088   0.091   0.159   0.162   0.162
  0.164   0.184   0.185   0.185   0.203   0.205   0.223   0.223
  0.223   0.282   0.282   0.282   0.289   0.314   0.314   0.314
  0.325   0.392   0.393   0.393   0.393   0.394   0.394   0.408
  0.408   0.416   0.436   0.436   0.436   0.570   0.570   0.570
  0.593   0.593   0.628   0.665   0.665   0.666   0.701   0.701
  0.701   0.773   0.774   0.774   0.776   0.776   0.835   0.835
  0.835   0.842   0.842   0.842   0.860   0.892   0.892   0.892
  0.898   0.899   0.911   0.954   0.954   0.954   1.081   1.081
  1.081   1.120   1.164   1.164   1.165   1.169   1.170   1.170
  1.263   1.263   1.359   1.419   1.419   1.419   1.427   1.427
  1.467   1.467   1.467   1.598   1.598   1.598   1.605   1.605
  1.605   1.763   1.780   1.780   1.780   1.923   1.923   1.924
  1.924   1.924   1.926   1.926   1.926   1.928   1.945   1.945
  1.945   1.967   1.967   2.030   2.046   2.046   2.046   2.139
  2.139   2.139   2.166   2.166   2.166   2.181   2.280   2.280
  2.280   2.327   2.440   2.440   2.476   2.476   2.476   2.508
  2.508   2.508   2.599   2.599   2.599   2.626   2.626   2.663
  2.721   2.721   2.721   2.761   2.761   2.761   2.898   2.898
  2.985   2.985   2.985   3.048   3.048   3.048   3.055   3.272
  3.272   3.272   3.321   3.321   3.321   3.404   3.404   3.404
  3.609   3.609   3.776   3.776   3.823   3.848   3.848   3.848
  4.020   4.020   4.020   4.041   4.041   4.041   4.337   4.901
  4.901   4.901   6.251   6.251   6.505   6.505   6.508   6.508
  6.508   6.556   6.556   6.556   6.595   6.595   6.595   6.634
  6.758   6.758   6.758   6.805   6.805   6.805   6.824   6.824
  6.824   7.003   7.003   7.209   7.209   7.209   7.319   7.319
  7.351   7.700   7.700   7.700   7.949   7.949   7.949   8.176
  8.298   8.298   8.415   8.415   8.415   8.416   8.416   8.417
  8.580   8.580   8.580   8.586   8.586   8.586   8.780   8.780
  9.101   9.101   9.101   9.183   9.183   9.183   9.311   9.311
  9.417   9.417   9.417   9.692   9.857   9.857   9.857   9.901
 12.395  12.395  12.395  13.901  13.901  13.901  14.109  14.109
 14.109  14.543  19.815  21.606  21.606  22.256  22.256  22.256
 33.091  33.091  33.091  38.561  38.561  38.561  38.561  38.561
 38.563  38.567  38.567  38.567  47.987  47.987  47.987  48.087
 48.087  48.087  48.296  56.143  64.083  64.083  64.540  64.540
 64.540 101.633 101.633 101.633 271.788
 --------------------------------------------------------------
 
          Ground-State Mulliken Net Atomic Charges

     Atom                 Charge (a.u.)
  ----------------------------------------
      1 Si                    0.441964
      2 H                    -0.110491
      3 H                    -0.110491
      4 H                    -0.110491
      5 H                    -0.110491
  ----------------------------------------
  Sum of atomic charges =     0.000000

 -----------------------------------------------------------------
                    Cartesian Multipole Moments
 -----------------------------------------------------------------
    Charge (ESU x 10^10)
                 0.0000
    Dipole Moment (Debye)
         X      -0.0000      Y      -0.0000      Z       0.0000
       Tot       0.0000
    Quadrupole Moments (Debye-Ang)
        XX     -16.6752     XY      -0.0000     YY     -16.6752
        XZ       0.0000     YZ      -0.0000     ZZ     -16.6435
    Octopole Moments (Debye-Ang^2)
       XXX      -0.0000    XXY       0.0000    XYY      -0.0000
       YYY      -0.0000    XXZ       0.0000    XYZ      -1.3049
       YYZ       0.0000    XZZ      -0.0000    YZZ      -0.0000
       ZZZ       0.0000
    Hexadecapole Moments (Debye-Ang^3)
      XXXX     -43.1641   XXXY      -0.0000   XXYY     -14.2266
      XYYY      -0.0000   YYYY     -43.1641   XXXZ       0.0000
      XXYZ       0.0000   XYYZ       0.0000   YYYZ      -0.0000
      XXZZ     -14.1908   XYZZ      -0.0000   YYZZ     -14.1908
      XZZZ       0.0000   YZZZ       0.0000   ZZZZ     -43.0068
 -----------------------------------------------------------------
Archival summary:
1\1\n0089.mhg0\SP\ProcedureUnspecified\BasisUnspecified\i14\yhljason\SatOct301:46:082020SatOct301:46:082020\0\\#,ProcedureUnspecified,BasisUnspecified,\\0,1\Si\H,1,1.47986\H,1,1.47986,2,109.471\H,1,1.47986,2,109.471,3,120,0\H,1,1.47986,2,109.471,3,-120,0\\\@

 Total job time:  809.49s(wall), 6292.10s(cpu) 
 Sat Oct  3 01:46:08 2020

        *************************************************************
        *                                                           *
        *  Thank you very much for using Q-Chem.  Have a nice day.  *
        *                                                           *
        *************************************************************


