                  Welcome to Q-Chem
     A Quantum Leap Into The Future Of Chemistry


 Q-Chem 5.3 (devel), Q-Chem, Inc., Pleasanton, CA (2020)

 Yihan Shao,  Zhengting Gan,  E. Epifanovsky,  A. T. B. Gilbert,  M. Wormit,  
 J. Kussmann,  A. W. Lange,  A. Behn,  Jia Deng,  Xintian Feng,  D. Ghosh,  
 M. Goldey,  P. R. Horn,  L. D. Jacobson,  I. Kaliman,  T. Kus,  A. Landau,  
 Jie Liu,  E. I. Proynov,  R. M. Richard,  R. P. Steele,  E. J. Sundstrom,  
 H. L. Woodcock III,  P. M. Zimmerman,  D. Zuev,  B. Alam,  B. Albrecht,  
 E. Alguire,  S. A. Baeppler,  D. Barton,  Z. Benda,  Y. A. Bernard,  
 E. J. Berquist,  K. B. Bravaya,  H. Burton,  K. Carter-Fenk,  D. Casanova,  
 Chun-Min Chang,  Yunqing Chen,  A. Chien,  K. D. Closser,  M. P. Coons,  
 S. Coriani,  S. Dasgupta,  A. L. Dempwolff,  M. Diedenhofen,  Hainam Do,  
 R. G. Edgar,  Po-Tung Fang,  S. Faraji,  S. Fatehi,  Qingguo Feng,  
 J. Fosso-Tande,  J. Gayvert,  Qinghui Ge,  A. Ghysels,  G. Gidofalvi,  
 J. Gomes,  J. Gonthier,  A. Gunina,  D. Hait,  M. W. D. Hanson-Heine,  
 P. H. P. Harbach,  A. W. Hauser,  M. F. Herbst,  J. E. Herr,  
 E. G. Hohenstein,  Z. C. Holden,  Kerwin Hui,  B. C. Huynh,  T.-C. Jagau,  
 Hyunjun Ji,  B. Kaduk,  K. Khistyaev,  Jaehoon Kim,  P. Klunzinger,  K. Koh,  
 D. Kosenkov,  L. Koulias,  T. Kowalczyk,  C. M. Krauter,  A. Kunitsa,  
 Ka Un Lao,  A. Laurent,  K. V. Lawler,  Joonho Lee,  D. Lefrancois,  
 S. Lehtola,  D. S. Levine,  Yi-Pei Li,  You-Sheng Lin,  Fenglai Liu,  
 Kuan-Yu Liu,  E. Livshits,  M. Loipersberger,  A. Luenser,  P. Manohar,  
 E. Mansoor,  S. F. Manzer,  Shan-Ping Mao,  Yuezhi Mao,  N. Mardirossian,  
 A. V. Marenich,  T. Markovich,  L. A. Martinez-Martinez,  S. A. Maurer,  
 N. J. Mayhall,  S. C. McKenzie,  J.-M. Mewes,  P. Morgante,  A. F. Morrison,  
 J. W. Mullinax,  K. Nanda,  T. S. Nguyen-Beck,  R. Olivares-Amaya,  
 K. J. Oosterbaan,  J. A. Parkhill,  S. K. Paul,  F. Pavosevic,  Zheng Pei,  
 T. M. Perrine,  F. Plasser,  P. Pokhilko,  S. Prager,  A. Prociuk,  
 E. Ramos,  B. Rana,  D. R. Rehn,  F. Rob,  M. Scheurer,  M. Schneider,  
 N. Sergueev,  S. M. Sharada,  S. Sharma,  D. W. Small,  T. Stauch,  
 C. J. Stein,  T. Stein,  Yu-Chuan Su,  S. P. Veccham,  Zhen Tao,  
 A. J. W. Thom,  A. Tkatchenko,  T. Tsuchimochi,  N. M. Tubman,  L. Vogt,  
 M. L. Vidal,  O. Vydrov,  M. A. Watson,  J. Wenzel,  M. de Wergifosse,  
 T. A. Wesolowski,  A. White,  J. Witte,  A. Yamada,  Jun Yang,  K. Yao,  
 S. Yeganeh,  S. R. Yost,  Zhi-Qiang You,  A. Zech,  Igor Ying Zhang,  
 Xing Zhang,  Yan Zhao,  Ying Zhu,  B. R. Brooks,  G. K. L. Chan,  
 C. J. Cramer,  M. S. Gordon,  W. J. Hehre,  A. Klamt,  M. W. Schmidt,  
 C. D. Sherrill,  D. G. Truhlar,  A. Aspuru-Guzik,  R. Baer,  A. T. Bell,  
 N. A. Besley,  Jeng-Da Chai,  A. E. DePrince, III,  R. A. DiStasio Jr.,  
 A. Dreuw,  B. D. Dunietz,  T. R. Furlani,  Chao-Ping Hsu,  Yousung Jung,  
 Jing Kong,  D. S. Lambrecht,  WanZhen Liang,  C. Ochsenfeld,  
 V. A. Rassolov,  L. V. Slipchenko,  J. E. Subotnik,  T. Van Voorhis,  
 J. M. Herbert,  A. I. Krylov,  P. M. W. Gill,  M. Head-Gordon

 Contributors to earlier versions of Q-Chem not listed above: 
 R. D. Adamson,  B. Austin,  J. Baker,  G. J. O. Beran,  K. Brandhorst,  
 S. T. Brown,  E. F. C. Byrd,  A. K. Chakraborty,  C.-L. Cheng,  
 Siu Hung Chien,  D. M. Chipman,  D. L. Crittenden,  H. Dachsel,  
 R. J. Doerksen,  A. D. Dutoi,  L. Fusti-Molnar,  W. A. Goddard III,  
 A. Golubeva-Zadorozhnaya,  S. R. Gwaltney,  G. Hawkins,  A. Heyden,  
 S. Hirata,  G. Kedziora,  F. J. Keil,  C. Kelley,  Jihan Kim,  R. A. King,  
 R. Z. Khaliullin,  P. P. Korambath,  W. Kurlancheek,  A. M. Lee,  M. S. Lee,  
 S. V. Levchenko,  Ching Yeh Lin,  D. Liotard,  R. C. Lochan,  I. Lotan,  
 P. E. Maslen,  N. Nair,  D. P. O'Neill,  D. Neuhauser,  E. Neuscamman,  
 C. M. Oana,  R. Olson,  B. Peters,  R. Peverati,  P. A. Pieniazek,  
 Y. M. Rhee,  J. Ritchie,  M. A. Rohrdanz,  E. Rosta,  N. J. Russ,  
 H. F. Schaefer III,  N. E. Schultz,  N. Shenvi,  A. C. Simmonett,  A. Sodt,  
 D. Stuck,  K. S. Thanthiriwatte,  V. Vanovschi,  Tao Wang,  A. Warshel,  
 C. F. Williams,  Q. Wu,  X. Xu,  W. Zhang

 Please cite Q-Chem as follows:
 Y. Shao et al., Mol. Phys. 113, 184-215 (2015)
 DOI: 10.1080/00268976.2014.952696

 Q-Chem 5.3.0 for Intel X86 EM64T Linux

 Parts of Q-Chem use Armadillo 9.800.1 (Horizon Scraper).
 http://arma.sourceforge.net/

 Q-Chem begins on Thu Sep  3 08:09:49 2020  

n0072.mhg0
Host: 0

     Scratch files written to /local/scratch/users/yhljason/SiH3_MN15-L_aug-pc-4.inp20200903022633//
Processing $rem in /clusterfs/mhg/diptarka/qchem_transmom//config/preferences:
Processing $rem in /global/home/users/yhljason/.qchemrc:

Checking the input file for inconsistencies... 	...done.

--------------------------------------------------------------
User input:
--------------------------------------------------------------
$molecule
0 2
Si1   0.0000   0.0000   0.0819
H2 0.0000   1.3928   -0.3820
H3 1.2062   -0.6964  -0.3820
H4 -1.2062  -0.6964  -0.3820
$end

$rem
jobtype sp
method mn15-l
xc_grid 000099000590
basis aug-pc-4
max_scf_cycles 200
thresh 14
scf_convergence 8
scf_algorithm gdm
gen_scfman false
stability_analysis true
symmetry false
sym_ignore true
unrestricted true
gen_scfman true
mem_total 64000
mem_static 1500
n_frozen_core 0
max_cis_cycles 200
$end
--------------------------------------------------------------
 ----------------------------------------------------------------
             Standard Nuclear Orientation (Angstroms)
    I     Atom           X                Y                Z
 ----------------------------------------------------------------
    1      Si      0.0000000000     0.0000000000     0.0819000000
    2      H       0.0000000000     1.3928000000    -0.3820000000
    3      H       1.2062000000    -0.6964000000    -0.3820000000
    4      H      -1.2062000000    -0.6964000000    -0.3820000000
 ----------------------------------------------------------------
 Nuclear Repulsion Energy =          15.79777033 hartrees
 There are        9 alpha and        8 beta electrons
 Requested basis set is aug-pc-4
 There are 103 shells and 405 basis functions

 Total QAlloc Memory Limit  64000 MB
 Mega-Array Size      1467 MB
 MEM_STATIC part      1500 MB

                       Distance Matrix (Angstroms)
             Si(  1)   H (  2)   H (  3)
   H (  2)  1.468024
   H (  3)  1.468024  2.412400
   H (  4)  1.468024  2.412400  2.412400

 A cutoff of  1.0D-14 yielded   5242 shell pairs
 There are     82080 function pairs (    145242 Cartesian)
 Smallest overlap matrix eigenvalue = 2.05E-06

 Scale SEOQF with 1.000000e-01/1.000000e-01/1.000000e-01

 Standard Electronic Orientation quadrupole field applied
 Nucleus-field energy     =     0.0000000003 hartrees
 Guess from superposition of atomic densities
 Warning:  Energy on first SCF cycle will be non-variational
 SAD guess density has 17.000000 electrons

 -----------------------------------------------------------------------
  General SCF calculation program by
  Eric Jon Sundstrom, Paul Horn, Yuezhi Mao, Dmitri Zuev, Alec White,
  David Stuck, Shaama M.S., Shane Yost, Joonho Lee, David Small,
  Daniel Levine, Susi Lehtola, Hugh Burton, Evgeny Epifanovsky,
  Bang C. Huynh
 -----------------------------------------------------------------------
 Exchange:  MN15-L      Correlation:  MN15-L
 Using Euler-Maclaurin-Lebedev (99,590) quadrature formula
 A unrestricted SCF calculation will be
 performed using Roothaan-Hall, GDM
 SCF converges when RMS gradient is below 1.0e-08
 ---------------------------------------
  Cycle       Energy         DIIS error
 ---------------------------------------
    1    -291.0580761289      3.46e-03  Roothaan Step
 ---------------------------------------
  Cycle       Energy        RMS Gradient
 ---------------------------------------
    1    -291.1793106775      3.86e-02   Normal BFGS step
    2    -291.1932639916      4.53e-02   Normal BFGS step
    3    -291.1974578717      5.13e-03   Normal BFGS step
    4    -291.1976012480      1.40e-03   Normal BFGS step
    5    -291.1976298682      2.79e-04   Normal BFGS step
    6    -291.1976305521      1.17e-04   Normal BFGS step
    7    -291.1976306923      4.28e-05   Normal BFGS step
    8    -291.1976307034      8.30e-06   Normal BFGS step
    9    -291.1976307047      3.00e-06   Normal BFGS step
   10    -291.1976307048      1.33e-06   Normal BFGS step
   11    -291.1976307049      7.58e-07   Normal BFGS step
   12    -291.1976307049      9.74e-08   Normal BFGS step
   13    -291.1976307049      1.83e-08   Normal BFGS step
   14    -291.1976307049      3.96e-09  Convergence criterion met
 ---------------------------------------
 SCF time:   CPU 17728.27s  wall 2237.00s 
<S^2> =          0.756936043
 SCF   energy in the final basis set =     -291.1976307049
 Total energy in the final basis set =     -291.1976307049

 Direct TDDFT/TDA calculation will be performed
 Exchange:  MN15-L      Correlation:  MN15-L
 Using Euler-Maclaurin-Lebedev (99,590) quadrature formula
 CIS energy converged when residual is below 10e- 6
 ---------------------------------------------------
 Iter    Rts Conv    Rts Left    Ttl Dev     Max Dev
 ---------------------------------------------------
   1         0           1      0.000412    0.000412
   2         0           1      0.000101    0.000101
   3         0           1      0.000032    0.000032
   4         0           1      0.000011    0.000011
   5         0           1      0.000003    0.000003
   6         1           0      0.000001    0.000001    Roots Converged
 ---------------------------------------------------

 ---------------------------------------------------
         TDDFT/TDA Excitation Energies              
 ---------------------------------------------------

 Excited state   1: excitation energy (eV) =    5.1548
 Total energy for state  1:                  -291.00819390 au
    <S**2>     :  0.7656
    Trans. Mom.: -0.0000 X   0.0000 Y   0.6294 Z
    Strength   :     0.0500240963
    S(    1) --> V(    1) amplitude =  0.9970 alpha

 ---------------------------------------------------

 Stability analysis will be performed
 ---------------------------------------------------
 Iter    Rts Conv    Rts Left    Ttl Dev     Max Dev
 ---------------------------------------------------
   1         1           1      0.000903    0.000451
   2         1           1      0.000261    0.000240
   3         1           1      0.000156    0.000135
   4         1           1      0.000138    0.000116
   5         1           1      0.000073    0.000054
   6         1           1      0.000041    0.000021
   7         1           1      0.000037    0.000021
   8         1           1      0.000038    0.000022
   9         1           1      0.000030    0.000023
  10         1           1      0.000021    0.000019
  11         2           0      0.000020    0.000019    Roots Converged
 UKS-> UKS   stable,    smallest eigenvalue:      0.1821499
 UKS->CUKS   stable,    smallest eigenvalue:      0.1940274
 ---------------------------------------------------
  SETman timing summary (seconds)
  CPU time             26560.85s
  System time              0.00s
  Wall time             3332.31s

 --------------------------------------------------------------

                    Orbital Energies (a.u.)
 --------------------------------------------------------------

 Alpha MOs
 -- Occupied --
-65.8774  -5.3120  -3.6209  -3.6167  -3.6167  -0.5160  -0.3445  -0.3445
 -0.2118
 -- Virtual --
 -0.0178  -0.0026  -0.0026   0.0053   0.0099   0.0099   0.0188   0.0339
  0.0339   0.0348   0.0348   0.0377   0.0572   0.0604   0.0605   0.0782
  0.0966   0.0966   0.0993   0.1030   0.1073   0.1073   0.1083   0.1083
  0.1151   0.1176   0.1176   0.1344   0.1550   0.1550   0.1578   0.1609
  0.1745   0.1745   0.1802   0.1903   0.1903   0.1977   0.1977   0.2082
  0.2155   0.2332   0.2332   0.2502   0.2507   0.2507   0.2520   0.2551
  0.2551   0.2731   0.2731   0.2786   0.2834   0.2834   0.2942   0.3088
  0.3088   0.3249   0.3249   0.3266   0.3293   0.3406   0.3411   0.3411
  0.3526   0.3534   0.3534   0.3782   0.3874   0.3874   0.3974   0.3974
  0.4052   0.4268   0.4451   0.4463   0.4463   0.4651   0.4740   0.4740
  0.4799   0.4799   0.4829   0.4945   0.4945   0.4959   0.5081   0.5081
  0.5202   0.5202   0.5215   0.5378   0.5378   0.5524   0.5634   0.5634
  0.5705   0.5816   0.5841   0.5841   0.6021   0.6021   0.6049   0.6049
  0.6049   0.6104   0.6240   0.6614   0.6614   0.6793   0.6844   0.6844
  0.7027   0.7027   0.7075   0.7093   0.7176   0.7176   0.7309   0.7408
  0.7488   0.7593   0.7593   0.7655   0.7655   0.7700   0.7905   0.7905
  0.8071   0.8071   0.8160   0.8160   0.8413   0.8413   0.8421   0.8962
  0.9182   0.9444   0.9444   0.9454   0.9454   0.9936   1.0495   1.0495
  1.0530   1.0800   1.0800   1.1338   1.1635   1.1635   1.1974   1.2020
  1.2217   1.2217   1.2722   1.2722   1.3411   1.3522   1.3522   1.3838
  1.3970   1.3970   1.4522   1.5031   1.5250   1.5250   1.5915   1.6001
  1.6546   1.6546   1.6643   1.6643   1.6851   1.7374   1.7374   1.7571
  1.7858   1.7858   1.8279   1.9617   1.9617   2.1583   2.2581   2.2582
  2.3292   2.3707   2.3707   2.4084   2.4375   2.4375   2.5641   2.5983
  2.6055   2.6056   2.6616   2.6616   2.7026   2.7134   2.7134   2.7675
  2.7675   2.8383   2.8538   2.8538   2.8880   2.9684   3.3438   3.3438
  3.3701   3.4573   3.4573   3.4807   3.5733   3.5801   3.5801   3.6019
  3.6900   3.6900   3.7758   3.7758   3.8296   3.9027   3.9121   3.9121
  3.9706   3.9706   4.0049   4.0264   4.0376   4.0376   4.0940   4.0940
  4.2408   4.3200   4.3200   4.3453   4.4034   4.4078   4.4078   4.4506
  4.6915   4.6915   4.9222   5.0278   5.0279   5.0872   5.1193   5.1193
  5.1737   5.1737   5.2386   5.3214   5.3214   5.5405   5.5851   5.5851
  5.6637   5.6637   5.6843   5.8793   5.8850   5.8850   5.9538   5.9956
  5.9957   6.2209   6.2209   6.3548   6.4216   6.6452   6.6453   6.8873
  6.8875   7.3146   7.3146   7.3218   7.4964   7.4964   7.5393   7.6082
  7.9053   7.9054   8.6645   8.8612   8.8612   9.0525   9.0539   9.0539
  9.0712   9.2348   9.2348   9.8855   9.9728   9.9728  10.0123  10.0218
 10.0218  10.0386  10.0976  10.0976  10.1038  10.2121  10.2122  10.2426
 10.3645  10.4666  10.4666  10.5063  10.5064  10.8102  11.1999  11.1999
 11.4912  11.6351  12.0881  12.0881  13.7292  13.7304  13.7305  13.7923
 13.8163  13.8259  13.8259  13.8500  13.8501  13.9172  13.9224  13.9224
 13.9740  14.1180  14.1181  14.1580  14.2723  14.2724  14.3036  14.3111
 14.3112  16.2525  16.2578  16.2578  17.0856  17.0857  18.0179  18.7573
 18.7713  18.7713  18.8800  18.8801  18.9093  18.9940  18.9942  19.0022
 19.0491  19.0491  19.1119  19.1378  19.1379  19.3115  19.3269  19.3478
 19.3479  19.5598  19.5598  19.5686  19.5688  19.5716  19.5721  19.6099
 19.6099  23.5491  25.0291  25.0291  25.6001  25.7121  25.7292  25.7292
 25.7602  25.8713  25.8713  40.3121  40.5156  40.5156  56.8055  56.8055
 56.8897  57.2379  57.2379  92.4753  92.4753  92.6164  94.3020  94.3167
 94.3167  94.3441  94.4201  94.4202

 Beta MOs
 -- Occupied --
-65.8732  -5.3106  -3.6147  -3.6145  -3.6145  -0.4926  -0.3390  -0.3390
 -- Virtual --
 -0.1036  -0.0172  -0.0004  -0.0004   0.0065   0.0161   0.0161   0.0325
  0.0326   0.0326   0.0371   0.0371   0.0399   0.0609   0.0646   0.0646
  0.0868   0.0946   0.0946   0.1013   0.1035   0.1035   0.1096   0.1140
  0.1140   0.1145   0.1206   0.1206   0.1380   0.1535   0.1535   0.1553
  0.1634   0.1752   0.1752   0.1836   0.1882   0.1882   0.1942   0.1942
  0.2066   0.2270   0.2313   0.2313   0.2471   0.2523   0.2523   0.2548
  0.2548   0.2606   0.2743   0.2747   0.2747   0.2817   0.2817   0.2956
  0.3046   0.3046   0.3215   0.3223   0.3223   0.3254   0.3342   0.3342
  0.3349   0.3491   0.3491   0.3509   0.3837   0.3837   0.3890   0.3959
  0.3959   0.4066   0.4313   0.4368   0.4400   0.4400   0.4609   0.4639
  0.4639   0.4739   0.4746   0.4746   0.4902   0.4902   0.4944   0.5008
  0.5008   0.5200   0.5200   0.5224   0.5329   0.5329   0.5405   0.5544
  0.5544   0.5662   0.5741   0.5777   0.5777   0.5902   0.5904   0.5904
  0.5949   0.6008   0.6008   0.6244   0.6523   0.6523   0.6748   0.6748
  0.6780   0.6887   0.6957   0.6957   0.6983   0.7064   0.7064   0.7181
  0.7296   0.7387   0.7462   0.7462   0.7519   0.7519   0.7672   0.7871
  0.7871   0.7925   0.7925   0.8004   0.8004   0.8235   0.8235   0.8377
  0.8959   0.8990   0.9284   0.9284   0.9359   0.9359   0.9787   1.0372
  1.0372   1.0783   1.0783   1.0848   1.1469   1.1964   1.2040   1.2040
  1.2312   1.2343   1.2343   1.2800   1.2800   1.3305   1.3456   1.3456
  1.3862   1.4169   1.4169   1.4621   1.5100   1.5100   1.5198   1.5802
  1.6073   1.6418   1.6418   1.6666   1.6666   1.6733   1.7241   1.7241
  1.7922   1.8098   1.8098   1.8592   1.9623   1.9623   2.1990   2.3598
  2.3633   2.3633   2.4400   2.4400   2.4438   2.4525   2.4525   2.5810
  2.6382   2.6650   2.6650   2.6971   2.6971   2.7463   2.7585   2.7585
  2.8804   2.8804   2.9104   2.9204   2.9204   3.0010   3.0101   3.3622
  3.3622   3.3950   3.4912   3.4912   3.5593   3.5643   3.5884   3.5884
  3.6489   3.7144   3.7144   3.8120   3.8120   3.8156   3.9142   3.9142
  3.9265   3.9730   3.9730   4.0233   4.0464   4.0809   4.0809   4.1138
  4.1138   4.2665   4.3237   4.3237   4.3995   4.4359   4.4359   4.4789
  4.4799   4.7345   4.7345   4.9201   5.0917   5.0917   5.1107   5.1683
  5.1684   5.2165   5.2165   5.2806   5.3987   5.3987   5.6390   5.6968
  5.6968   5.7169   5.7169   5.7410   5.8749   5.9494   5.9495   6.0468
  6.0468   6.0570   6.2559   6.2559   6.4506   6.4965   6.6927   6.6927
  6.9084   6.9085   7.2868   7.2869   7.3090   7.4706   7.4706   7.5422
  7.5791   7.8850   7.8850   8.7680   8.9553   8.9554   9.0444   9.0466
  9.0467   9.0678   9.2267   9.2267   9.8816   9.9545   9.9545  10.0113
 10.0118  10.0266  10.0266  10.0788  10.0906  10.0906  10.2172  10.2172
 10.2616  10.3769  10.4790  10.4790  10.5080  10.5080  10.8136  11.2166
 11.2166  11.4770  11.6522  12.0991  12.0991  13.7324  13.7658  13.7658
 13.7926  13.8015  13.8015  13.8400  13.8905  13.8906  13.9340  13.9646
 13.9646  13.9983  14.0874  14.0874  14.1327  14.2446  14.2446  14.2789
 14.2822  14.2822  16.2556  16.2557  16.2561  17.0906  17.0907  18.0519
 18.7747  18.7769  18.7770  18.8556  18.8556  18.8895  18.9525  18.9526
 18.9601  19.0356  19.0356  19.1215  19.1793  19.1795  19.3051  19.3464
 19.3810  19.3811  19.5406  19.5407  19.5426  19.5427  19.5450  19.5468
 19.6359  19.6360  23.5677  24.9834  24.9835  25.5476  25.6653  25.6793
 25.6793  25.6930  25.8030  25.8030  40.2271  40.4320  40.4321  56.8272
 56.8272  56.9220  57.2496  57.2497  92.3209  92.3210  92.4618  94.1402
 94.1546  94.1548  94.1684  94.2444  94.2445
 --------------------------------------------------------------

          Ground-State Mulliken Net Atomic Charges

     Atom                 Charge (a.u.)    Spin (a.u.)
  --------------------------------------------------------
      1 Si                    3.390354       0.809414
      2 H                    -1.129920       0.063343
      3 H                    -1.130217       0.063622
      4 H                    -1.130217       0.063622
  --------------------------------------------------------
  Sum of atomic charges =    -0.000000
  Sum of spin   charges =     1.000000

 -----------------------------------------------------------------
                    Cartesian Multipole Moments
 -----------------------------------------------------------------
    Charge (ESU x 10^10)
                -0.0000
    Dipole Moment (Debye)
         X       0.0000      Y      -0.0001      Z       0.1620
       Tot       0.1620
    Quadrupole Moments (Debye-Ang)
        XX     -16.4224     XY      -0.0000     YY     -16.4223
        XZ       0.0000     YZ      -0.0001     ZZ     -16.5517
    Octopole Moments (Debye-Ang^2)
       XXX       0.0000    XXY       1.1136    XYY      -0.0000
       YYY      -1.1135    XXZ       0.4895    XYZ       0.0000
       YYZ       0.4896    XZZ       0.0000    YZZ      -0.0001
       ZZZ      -1.5294
    Hexadecapole Moments (Debye-Ang^3)
      XXXX     -44.2313   XXXY      -0.0000   XXYY     -14.7438
      XYYY      -0.0000   YYYY     -44.2311   XXXZ      -0.0000
      XXYZ       0.1098   XYYZ      -0.0000   YYYZ      -0.1099
      XXZZ     -13.0252   XYZZ      -0.0000   YYZZ     -13.0251
      XZZZ       0.0000   YZZZ      -0.0001   ZZZZ     -34.7055
 -----------------------------------------------------------------
Archival summary:
1\1\n0072.mhg0\SP\ProcedureUnspecified\BasisUnspecified\i13(2)\yhljason\ThuSep309:42:422020ThuSep309:42:422020\0\\#,ProcedureUnspecified,BasisUnspecified,\\0,2\Si\H,1,1.46802\H,1,1.46802,2,110.5\H,1,1.46802,2,110.5,3,122.613,0\\\@

 Total job time:  5572.36s(wall), 44305.09s(cpu) 
 Thu Sep  3 09:42:42 2020

        *************************************************************
        *                                                           *
        *  Thank you very much for using Q-Chem.  Have a nice day.  *
        *                                                           *
        *************************************************************


