Q-Chem Developer Version!
                  Welcome to Q-Chem
     A Quantum Leap Into The Future Of Chemistry


 Q-Chem 5.1, Q-Chem, Inc., Pleasanton, CA (2018)

 Yihan Shao,  Zhengting Gan,  E. Epifanovsky,  A. T. B. Gilbert,  M. Wormit,  
 J. Kussmann,  A. W. Lange,  A. Behn,  Jia Deng,  Xintian Feng,  D. Ghosh,  
 M. Goldey,  P. R. Horn,  L. D. Jacobson,  I. Kaliman,  T. Kus,  A. Landau,  
 Jie Liu,  E. I. Proynov,  R. M. Richard,  R. P. Steele,  E. J. Sundstrom,  
 H. L. Woodcock III,  P. M. Zimmerman,  D. Zuev,  B. Albrecht,  E. Alguire,  
 S. A. Baeppler,  D. Barton,  Z. Benda,  Y. A. Bernard,  E. J. Berquist,  
 K. B. Bravaya,  H. Burton,  D. Casanova,  Chun-Min Chang,  Yunqing Chen,  
 A. Chien,  K. D. Closser,  M. P. Coons,  S. Coriani,  S. Dasgupta,  
 A. L. Dempwolff,  M. Diedenhofen,  Hainam Do,  R. G. Edgar,  Po-Tung Fang,  
 S. Faraji,  S. Fatehi,  Qingguo Feng,  K. D. Fenk,  J. Fosso-Tande,  
 Qinghui Ge,  A. Ghysels,  G. Gidofalvi,  J. Gomes,  J. Gonthier,  A. Gunina,  
 D. Hait,  M. W. D. Hanson-Heine,  P. H. P. Harbach,  A. W. Hauser,  
 J. E. Herr,  E. G. Hohenstein,  Z. C. Holden,  Kerwin Hui,  B. C. Huynh,  
 T.-C. Jagau,  Hyunjun Ji,  B. Kaduk,  K. Khistyaev,  Jaehoon Kim,  
 P. Klunzinger,  K. Koh,  D. Kosenkov,  L. Koulias,  T. Kowalczyk,  
 C. M. Krauter,  A. Kunitsa,  Ka Un Lao,  A. Laurent,  K. V. Lawler,  
 Joonho Lee,  D. Lefrancois,  S. Lehtola,  D. S. Levine,  Yi-Pei Li,  
 You-Sheng Lin,  Fenglai Liu,  E. Livshits,  A. Luenser,  P. Manohar,  
 E. Mansoor,  S. F. Manzer,  Shan-Ping Mao,  Yuezhi Mao,  N. Mardirossian,  
 A. V. Marenich,  T. Markovich,  L. A. Martinez-Martinez,  S. A. Maurer,  
 N. J. Mayhall,  S. C. McKenzie,  J.-M. Mewes,  A. F. Morrison,  
 J. W. Mullinax,  K. Nanda,  T. S. Nguyen-Beck,  R. Olivares-Amaya,  
 J. A. Parkhill,  T. M. Perrine,  F. Plasser,  P. Pokhilko,  S. Prager,  
 A. Prociuk,  E. Ramos,  D. R. Rehn,  F. Rob,  M. Schneider,  N. Sergueev,  
 S. M. Sharada,  S. Sharma,  D. W. Small,  T. Stauch,  T. Stein,  
 Yu-Chuan Su,  A. J. W. Thom,  A. Tkatchenko,  T. Tsuchimochi,  N. M. Tubman,  
 L. Vogt,  M. L. Vidal,  O. Vydrov,  M. A. Watson,  J. Wenzel,  
 M. de Wergifosse,  T. A. Wesolowski,  A. White,  J. Witte,  A. Yamada,  
 Jun Yang,  K. Yao,  S. Yeganeh,  S. R. Yost,  Zhi-Qiang You,  A. Zech,  
 Igor Ying Zhang,  Xing Zhang,  Yan Zhao,  Ying Zhu,  B. R. Brooks,  
 G. K. L. Chan,  C. J. Cramer,  M. S. Gordon,  W. J. Hehre,  A. Klamt,  
 M. W. Schmidt,  C. D. Sherrill,  D. G. Truhlar,  A. Aspuru-Guzik,  R. Baer,  
 A. T. Bell,  N. A. Besley,  Jeng-Da Chai,  A. E. DePrince, III,  
 R. A. DiStasio Jr.,  A. Dreuw,  B. D. Dunietz,  T. R. Furlani,  
 Chao-Ping Hsu,  Yousung Jung,  Jing Kong,  D. S. Lambrecht,  WanZhen Liang,  
 C. Ochsenfeld,  V. A. Rassolov,  L. V. Slipchenko,  J. E. Subotnik,  
 T. Van Voorhis,  J. M. Herbert,  A. I. Krylov,  P. M. W. Gill,  M. Head-Gordon

 Contributors to earlier versions of Q-Chem not listed above: 
 R. D. Adamson,  B. Austin,  J. Baker,  G. J. O. Beran,  K. Brandhorst,  
 S. T. Brown,  E. F. C. Byrd,  A. K. Chakraborty,  C.-L. Cheng,  
 Siu Hung Chien,  D. M. Chipman,  D. L. Crittenden,  H. Dachsel,  
 R. J. Doerksen,  A. D. Dutoi,  L. Fusti-Molnar,  W. A. Goddard III,  
 A. Golubeva-Zadorozhnaya,  S. R. Gwaltney,  G. Hawkins,  A. Heyden,  
 S. Hirata,  G. Kedziora,  F. J. Keil,  C. Kelley,  Jihan Kim,  R. A. King,  
 R. Z. Khaliullin,  P. P. Korambath,  W. Kurlancheek,  A. M. Lee,  M. S. Lee,  
 S. V. Levchenko,  Ching Yeh Lin,  D. Liotard,  R. C. Lochan,  I. Lotan,  
 P. E. Maslen,  N. Nair,  D. P. O'Neill,  D. Neuhauser,  E. Neuscamman,  
 C. M. Oana,  R. Olson,  B. Peters,  R. Peverati,  P. A. Pieniazek,  
 Y. M. Rhee,  J. Ritchie,  M. A. Rohrdanz,  E. Rosta,  N. J. Russ,  
 H. F. Schaefer III,  N. E. Schultz,  N. Shenvi,  A. C. Simmonett,  A. Sodt,  
 D. Stuck,  K. S. Thanthiriwatte,  V. Vanovschi,  Tao Wang,  A. Warshel,  
 C. F. Williams,  Q. Wu,  X. Xu,  W. Zhang

 Please cite Q-Chem as follows:
 Y. Shao et al., Mol. Phys. 113, 184-215 (2015)
 DOI: 10.1080/00268976.2014.952696

 Q-Chem 5.1.1 for Intel X86 EM64T Linux

 Parts of Q-Chem use Armadillo 8.300.2 (Tropical Shenanigans).
 http://arma.sourceforge.net/

 Q-Chem begins on Thu Nov 12 14:46:47 2020  

Host: n0041.mhg0
0

     Scratch files written to /local/scratch/users/yhljason/BHCl2_B97-D3_aug-pc-4.inp20201112144646//
Input Ideriv = 2
Curr. Ideriv = -1
Max.  Ideriv = 2

Checking the input file for inconsistencies... 	...done.

--------------------------------------------------------------
User input:
--------------------------------------------------------------
$molecule
0 1
B1      0.0000  0.0000  0.7189
H2      0.0000  0.0000  1.8489
Cl3     0.0000  1.5132  -0.1601
Cl4     0.0000  -1.5132 -0.1601
$end

$rem
jobtype sp
method B97-D3
xc_grid 000099000590
basis aug-pc-4
max_scf_cycles 200
thresh 14
scf_convergence 8
scf_algorithm gdm
symmetry false
sym_ignore true
unrestricted True
gen_scfman true
internal_stability_iter 15
internal_stability_davidson_iter 200
mem_total 64000
mem_static 1500
n_frozen_core 0
$end



--------------------------------------------------------------
 Adding empirical dispersion correction 
 ----------------------------------------------------------------
 Doing -D3(0) with
 s6  =   1.00000
 s8  =   0.90900
 rs6 =   0.89200
 rs8 =   1.00000
 -D3 energy without 3body term =     -0.0032272374 hartrees
 ----------------------------------------------------------------
             Standard Nuclear Orientation (Angstroms)
    I     Atom           X                Y                Z
 ----------------------------------------------------------------
    1      B       0.0000000000     0.0000000000     0.7189000000
    2      H       0.0000000000     0.0000000000     1.8489000000
    3      Cl      0.0000000000     1.5132000000    -0.1601000000
    4      Cl      0.0000000000    -1.5132000000    -0.1601000000
 ----------------------------------------------------------------
 Nuclear Repulsion Energy =   111.4310095273 hartrees
 There are       20 alpha and       20 beta electrons
 Requested basis set is aug-pc-4
 There are 119 shells and 515 basis functions

 Total QAlloc Memory Limit  64000 MB
 Mega-Array Size      1467 MB
 MEM_STATIC part      1500 MB

                       Distance Matrix (Angstroms)
             B (  1)   H (  2)   Cl(  3)
   H (  2)  1.130000
   Cl(  3)  1.749976  2.515125
   Cl(  4)  1.749976  2.515125  3.026400
 
 A cutoff of  1.0D-14 yielded   6957 shell pairs
 There are    131855 function pairs (    252797 Cartesian)
 
 -------------------------------------------------------
 OpenMP Integral Computing Module                       
 Release: version 1.0, May 2013, Q-Chem Inc. Pittsburgh 
 -------------------------------------------------------
 Integral Job Info:
 Integral job number is                      11
 Integral operator is                         1
 short-range coefficients                     0
 long-range coefficients              100000000
 Omega coefficients                           0
 if combine SR and LR in K                    0
 Integral screening is                        0
 Integral computing path is                   2
 max size of driver memory is           6400000
 size of driver memory is               5498286
 size of scratch memory is             27847117
 max col of scratch BK array             194481
 max len of scratch array in speh3         5572
 max len of scratch index in speh4           72
 max int batch size is                      520
 min int batch size is                       52
 fixed nKL is                                 7
 max L of basis functions is                  5
 order of int derivative is                   0
 number of shells is                        119
 number of basis is                         711
 number of cartesian basis is               711
 number of contracted shell pairs          6957
 number of primitive shell pairs          24795
 maxK2 (contraction) of shell pair          225
 max number of K2 of shell pair               1
 max number of CS2 of shell pair            600
 max number of PS2 of shell pair           1232
 mem total for path MDJ                 1338632
 -------------------------------------------------------
 Smallest overlap matrix eigenvalue = 1.14E-06

 Scale SEOQF with 1.000000e-01/1.000000e-01/1.000000e-01

 Standard Electronic Orientation quadrupole field applied
 Nucleus-field energy     =     0.0000000048 hartrees
 Guess from superposition of atomic densities
 Warning:  Energy on first SCF cycle will be non-variational
 SAD guess density has 40.000000 electrons

 -----------------------------------------------------------------------
  General SCF calculation program by
  Eric Jon Sundstrom, Paul Horn, Yuezhi Mao, Dmitri Zuev, Alec White,
  David Stuck, Shaama M.S., Shane Yost, Joonho Lee, David Small,
  Daniel Levine, Susi Lehtola, Hugh Burton, Evgeny Epifanovsky
 -----------------------------------------------------------------------
 Exchange:  B97-D      Correlation:  B97-D
 Using Euler-Maclaurin-Lebedev (99,590) quadrature formula
 Dispersion:   Grimme D3
Running Object-Oriented UKS (UHF)
performing a single roothaan step with Fock from read density so that orbitals are available to all algorithms
energy of the guess density (C=0) -946.263365381295
We will preform up to 15 macro iterations over saddle points until a stable solution is found
Energy prior to optimization (guess energy) = -946.007651353992
Begin Timing: Total SCF Calculation
Begin Timing: SCF Single Stationary Point Calculation
begin iterations for algorithm: GDM          
the SCF tolerance is set to 1.00e-08
    1    -946.0076513540      3.77e-02     00000  Normal BFGS step
    2    -946.0052151944      7.03e-02     00000 Line search: overstep
    3    -946.0250922495      1.95e-02     00000  Normal BFGS step
    4    -946.0246007899      3.30e-02     00000 Line search: overstep
    5    -946.0263261330      4.60e-03     00000  Normal BFGS step
    6    -946.0263867405      4.00e-03     00000  Normal BFGS step
    7    -946.0264578199      2.75e-04     00000  Normal BFGS step
    8    -946.0264580783      1.68e-04     00000  Normal BFGS step
    9    -946.0264584847      2.70e-05     00000  Normal BFGS step
   10    -946.0264584980      1.49e-05     00000  Normal BFGS step
   11    -946.0264585017      1.09e-06     00000  Normal BFGS step
   12    -946.0264585017      5.14e-07     00000  Normal BFGS step
   13    -946.0264585017      7.83e-09     00000 Convergence criterion met
Timing for Single Stationary Point: 1157.00s (wall), 9199.90s (cpu)
Begin Timing: Stability
===================================================
Beginning Test for Internal Stability
===================================================
generating davidson guess vectors based on koopmans excitations
    1      7.58e-01     00000 Davidson Iteration
    2      1.82e-01     00000 Davidson Iteration
    3      1.80e-02     00000 Davidson Iteration
    4      6.51e-03     00000 Davidson Iteration
    5      3.35e-03     00000 Davidson Iteration
    6      1.23e-03     00000 Davidson Iteration
    7      4.71e-04     00000 Davidson Iteration
    8      2.50e-04     00000 Davidson Iteration
    9      5.86e-05     00000 Davidson Iteration
   10      1.22e-03     00000 Davidson Iteration
   11      6.58e-04     00000 Davidson Iteration
   12      5.81e-04     00000 Davidson Iteration
   13      2.71e-04     00000 Davidson Iteration
   14      2.04e-04     00000 Davidson Iteration
   15      6.21e-05     00000 Davidson Converged
converged_eigenvalues
   0.3667
   0.3539
Threshold for negative eigenvalues: -1.0e-05
solution was a local minimum (stable)
===================================================
End Test for Internal Stability
===================================================
Our SCF solution is stable!
Timing for Total SCF: 20262.00s (wall), 161197.73s (cpu)
 Total energy in the final basis set =     -946.0264585017
<S^2> =         -0.000000000
    ==================================================
              The end of Object-Oriented SCFman       
    ==================================================
 
 --------------------------------------------------------------
 
                    Orbital Energies (a.u.)
 --------------------------------------------------------------
 
 Alpha MOs
 -- Occupied --
*******-100.630  -9.236  -9.236  -7.068  -7.068  -7.064  -7.064
 -7.061  -7.061  -6.626  -0.799  -0.768  -0.482  -0.398  -0.394
 -0.346  -0.307  -0.293  -0.290
 -- Virtual --
 -0.097  -0.013   0.004   0.004   0.011   0.018   0.032   0.034
  0.039   0.041   0.042   0.045   0.047   0.049   0.052   0.064
  0.072   0.076   0.077   0.084   0.084   0.094   0.104   0.110
  0.112   0.118   0.122   0.125   0.128   0.130   0.131   0.140
  0.150   0.151   0.155   0.157   0.158   0.162   0.183   0.185
  0.186   0.190   0.193   0.195   0.204   0.206   0.210   0.218
  0.231   0.237   0.237   0.247   0.251   0.255   0.257   0.263
  0.263   0.268   0.269   0.271   0.285   0.292   0.295   0.297
  0.301   0.301   0.306   0.311   0.319   0.321   0.325   0.327
  0.328   0.345   0.346   0.349   0.355   0.357   0.367   0.371
  0.375   0.376   0.390   0.393   0.397   0.398   0.398   0.422
  0.424   0.427   0.434   0.436   0.460   0.467   0.476   0.486
  0.486   0.508   0.508   0.508   0.524   0.530   0.534   0.541
  0.544   0.554   0.560   0.562   0.564   0.569   0.581   0.586
  0.589   0.608   0.610   0.625   0.627   0.628   0.633   0.637
  0.643   0.646   0.651   0.663   0.672   0.678   0.678   0.679
  0.680   0.692   0.701   0.706   0.710   0.719   0.721   0.737
  0.740   0.745   0.751   0.759   0.762   0.763   0.781   0.799
  0.801   0.808   0.809   0.813   0.817   0.819   0.830   0.842
  0.851   0.857   0.869   0.880   0.882   0.895   0.913   0.914
  0.931   0.934   0.942   0.950   0.957   0.958   0.961   0.974
  0.981   0.987   0.990   1.003   1.027   1.033   1.047   1.048
  1.054   1.062   1.077   1.084   1.098   1.125   1.125   1.130
  1.131   1.132   1.140   1.151   1.156   1.166   1.198   1.213
  1.216   1.222   1.260   1.262   1.339   1.343   1.376   1.379
  1.414   1.416   1.432   1.451   1.453   1.471   1.508   1.513
  1.536   1.543   1.562   1.562   1.588   1.594   1.601   1.620
  1.702   1.705   1.723   1.727   1.749   1.798   1.816   1.839
  1.843   1.857   1.873   1.933   1.990   1.995   2.020   2.022
  2.056   2.064   2.066   2.086   2.106   2.124   2.175   2.176
  2.281   2.320   2.334   2.383   2.409   2.469   2.483   2.489
  2.501   2.559   2.649   2.713   2.798   2.830   2.869   2.871
  2.874   2.878   2.880   2.929   2.951   2.957   2.999   3.002
  3.008   3.040   3.075   3.148   3.237   3.242   3.278   3.278
  3.283   3.331   3.378   3.405   3.463   3.510   3.531   3.536
  3.576   3.588   3.614   3.629   3.661   3.677   3.679   3.719
  3.769   3.783   3.811   3.815   3.878   3.895   3.907   3.926
  3.943   3.958   3.976   3.992   4.013   4.033   4.066   4.124
  4.147   4.197   4.239   4.248   4.257   4.305   4.313   4.532
  4.601   4.655   4.704   4.711   4.767   4.778   4.892   4.901
  4.911   4.971   4.987   5.019   5.048   5.083   5.145   5.367
  5.544   5.651   5.651   5.665   5.671   5.672   5.672   5.672
  5.673   5.704   5.765   5.786   5.807   5.812   5.815   5.875
  5.908   5.910   5.936   5.938   5.979   6.024   6.030   6.104
  6.163   6.225   6.253   6.338   6.365   6.385   6.471   6.576
  6.622   6.769   6.927   6.966   7.025   7.134   7.808   7.817
  7.873   8.311   8.397   8.488   8.494   8.678   8.795   8.829
  8.848   9.006   9.049   9.088   9.094   9.096   9.099   9.119
  9.168   9.193   9.238   9.286   9.313   9.569   9.572   9.572
  9.580   9.605   9.667   9.708   9.734   9.785   9.789   9.804
  9.844   9.946   9.990  10.045  10.081  10.097  10.140  10.149
 10.215  10.230  10.332  10.579  10.629  10.688  10.725  10.813
 10.949  11.203  11.342  11.351  11.352  11.362  11.477  11.633
 11.756  12.051  12.216  12.336  12.413  12.571  12.859  12.869
 12.876  12.878  12.886  12.945  12.982  13.025  13.093  13.145
 13.179  13.228  13.239  13.433  13.821  14.027  14.030  14.660
 14.758  15.868  16.733  16.734  17.000  17.006  17.619  17.657
 17.674  17.691  17.745  17.758  17.838  17.915  18.188  18.211
 18.365  18.454  18.904  19.753  19.849  19.870  20.428  20.640
 20.871  21.217  22.582  23.438  23.681  25.152  40.873  40.915
 41.407  65.741  65.762  65.775  65.785  65.814  65.826  65.867
 65.909  66.173  66.219  79.204  90.996  91.166  92.175
 
 Beta MOs
 -- Occupied --
*******-100.630  -9.236  -9.236  -7.068  -7.068  -7.064  -7.064
 -7.061  -7.061  -6.626  -0.799  -0.768  -0.482  -0.398  -0.394
 -0.346  -0.307  -0.293  -0.290
 -- Virtual --
 -0.097  -0.013   0.004   0.004   0.011   0.018   0.032   0.034
  0.039   0.041   0.042   0.045   0.047   0.049   0.052   0.064
  0.072   0.076   0.077   0.084   0.084   0.094   0.104   0.110
  0.112   0.118   0.122   0.125   0.128   0.130   0.131   0.140
  0.150   0.151   0.155   0.157   0.158   0.162   0.183   0.185
  0.186   0.190   0.193   0.195   0.204   0.206   0.210   0.218
  0.231   0.237   0.237   0.247   0.251   0.255   0.257   0.263
  0.263   0.268   0.269   0.271   0.285   0.292   0.295   0.297
  0.301   0.301   0.306   0.311   0.319   0.321   0.325   0.327
  0.328   0.345   0.346   0.349   0.355   0.357   0.367   0.371
  0.375   0.376   0.390   0.393   0.397   0.398   0.398   0.422
  0.424   0.427   0.434   0.436   0.460   0.467   0.476   0.486
  0.486   0.508   0.508   0.508   0.524   0.530   0.534   0.541
  0.544   0.554   0.560   0.562   0.564   0.569   0.581   0.586
  0.589   0.608   0.610   0.625   0.627   0.628   0.633   0.637
  0.643   0.646   0.651   0.663   0.672   0.678   0.678   0.679
  0.680   0.692   0.701   0.706   0.710   0.719   0.721   0.737
  0.740   0.745   0.751   0.759   0.762   0.763   0.781   0.799
  0.801   0.808   0.809   0.813   0.817   0.819   0.830   0.842
  0.851   0.857   0.869   0.880   0.882   0.895   0.913   0.914
  0.931   0.934   0.942   0.950   0.957   0.958   0.961   0.974
  0.981   0.987   0.990   1.003   1.027   1.033   1.047   1.048
  1.054   1.062   1.077   1.084   1.098   1.125   1.125   1.130
  1.131   1.132   1.140   1.151   1.156   1.166   1.198   1.213
  1.216   1.222   1.260   1.262   1.339   1.343   1.376   1.379
  1.414   1.416   1.432   1.451   1.453   1.471   1.508   1.513
  1.536   1.543   1.562   1.562   1.588   1.594   1.601   1.620
  1.702   1.705   1.723   1.727   1.749   1.798   1.816   1.839
  1.843   1.857   1.873   1.933   1.990   1.995   2.020   2.022
  2.056   2.064   2.066   2.086   2.106   2.124   2.175   2.176
  2.281   2.320   2.334   2.383   2.409   2.469   2.483   2.489
  2.501   2.559   2.649   2.713   2.798   2.830   2.869   2.871
  2.874   2.878   2.880   2.929   2.951   2.957   2.999   3.002
  3.008   3.040   3.075   3.148   3.237   3.242   3.278   3.278
  3.283   3.331   3.378   3.405   3.463   3.510   3.531   3.536
  3.576   3.588   3.614   3.629   3.661   3.677   3.679   3.719
  3.769   3.783   3.811   3.815   3.878   3.895   3.907   3.926
  3.943   3.958   3.976   3.992   4.013   4.033   4.066   4.124
  4.147   4.197   4.239   4.248   4.257   4.305   4.313   4.532
  4.601   4.655   4.704   4.711   4.767   4.778   4.892   4.901
  4.911   4.971   4.987   5.019   5.048   5.083   5.145   5.367
  5.544   5.651   5.651   5.665   5.671   5.672   5.672   5.672
  5.673   5.704   5.765   5.786   5.807   5.812   5.815   5.875
  5.908   5.910   5.936   5.938   5.979   6.024   6.030   6.104
  6.163   6.225   6.253   6.338   6.365   6.385   6.471   6.576
  6.622   6.769   6.927   6.966   7.025   7.134   7.808   7.817
  7.873   8.311   8.397   8.488   8.494   8.678   8.795   8.829
  8.848   9.006   9.049   9.088   9.094   9.096   9.099   9.119
  9.168   9.193   9.238   9.286   9.313   9.569   9.572   9.572
  9.580   9.605   9.667   9.708   9.734   9.785   9.789   9.804
  9.844   9.946   9.990  10.045  10.081  10.097  10.140  10.149
 10.215  10.230  10.332  10.579  10.629  10.688  10.725  10.813
 10.949  11.203  11.342  11.351  11.352  11.362  11.477  11.633
 11.756  12.051  12.216  12.336  12.413  12.571  12.859  12.869
 12.876  12.878  12.886  12.945  12.982  13.025  13.093  13.145
 13.179  13.228  13.239  13.433  13.821  14.027  14.030  14.660
 14.758  15.868  16.733  16.734  17.000  17.006  17.619  17.657
 17.674  17.691  17.745  17.758  17.838  17.915  18.188  18.211
 18.365  18.454  18.904  19.753  19.849  19.870  20.428  20.640
 20.871  21.217  22.582  23.438  23.681  25.152  40.873  40.915
 41.407  65.741  65.762  65.775  65.785  65.814  65.826  65.867
 65.909  66.173  66.219  79.204  90.996  91.166  92.175
 --------------------------------------------------------------
 
          Ground-State Mulliken Net Atomic Charges

     Atom                 Charge (a.u.)    Spin (a.u.)
  --------------------------------------------------------
      1 B                     0.061063       0.000000
      2 H                     0.430146      -0.000000
      3 Cl                   -0.245605      -0.000000
      4 Cl                   -0.245605       0.000000
  --------------------------------------------------------
  Sum of atomic charges =    -0.000000
  Sum of spin   charges =     0.000000

 -----------------------------------------------------------------
                    Cartesian Multipole Moments
 -----------------------------------------------------------------
    Charge (ESU x 10^10)
                -0.0000
    Dipole Moment (Debye)
         X      -0.0000      Y       0.0000      Z       0.5386
       Tot       0.5386
    Quadrupole Moments (Debye-Ang)
        XX     -30.5394     XY      -0.0000     YY     -32.0896
        XZ       0.0000     YZ      -0.0000     ZZ     -31.0003
    Octopole Moments (Debye-Ang^2)
       XXX      -0.0000    XXY       0.0000    XYY      -0.0000
       YYY       0.0000    XXZ      -0.9938    XYZ      -0.0000
       YYZ      -4.7269    XZZ      -0.0000    YZZ       0.0000
       ZZZ      -4.1414
    Hexadecapole Moments (Debye-Ang^3)
      XXXX     -35.4886   XXXY      -0.0000   XXYY     -69.1640
      XYYY      -0.0000   YYYY    -366.4941   XXXZ       0.0000
      XXYZ      -0.0000   XYYZ       0.0000   YYYZ       0.0000
      XXZZ     -18.2269   XYZZ      -0.0000   YYZZ     -74.6065
      XZZZ      -0.0000   YZZZ       0.0000   ZZZZ     -75.0920
 -----------------------------------------------------------------
Archival summary:
1\1\n0041.mhg0\SP\ProcedureUnspecified\BasisUnspecified\l211\yhljason\ThuNov1220:26:332020ThuNov1220:26:332020\0\\#,ProcedureUnspecified,BasisUnspecified,\\0,1\Cl\B,1,1.74998\H,2,1.13,1,120.152\Cl,2,1.74998,1,119.696,3,-180,0\\\@

 Total job time:  20385.68s(wall), 162102.45s(cpu) 
 Thu Nov 12 20:26:33 2020

        *************************************************************
        *                                                           *
        *  Thank you very much for using Q-Chem.  Have a nice day.  *
        *                                                           *
        *************************************************************


