Q-Chem Developer Version!
                  Welcome to Q-Chem
     A Quantum Leap Into The Future Of Chemistry


 Q-Chem 5.1, Q-Chem, Inc., Pleasanton, CA (2018)

 Yihan Shao,  Zhengting Gan,  E. Epifanovsky,  A. T. B. Gilbert,  M. Wormit,  
 J. Kussmann,  A. W. Lange,  A. Behn,  Jia Deng,  Xintian Feng,  D. Ghosh,  
 M. Goldey,  P. R. Horn,  L. D. Jacobson,  I. Kaliman,  T. Kus,  A. Landau,  
 Jie Liu,  E. I. Proynov,  R. M. Richard,  R. P. Steele,  E. J. Sundstrom,  
 H. L. Woodcock III,  P. M. Zimmerman,  D. Zuev,  B. Albrecht,  E. Alguire,  
 S. A. Baeppler,  D. Barton,  Z. Benda,  Y. A. Bernard,  E. J. Berquist,  
 K. B. Bravaya,  H. Burton,  D. Casanova,  Chun-Min Chang,  Yunqing Chen,  
 A. Chien,  K. D. Closser,  M. P. Coons,  S. Coriani,  S. Dasgupta,  
 A. L. Dempwolff,  M. Diedenhofen,  Hainam Do,  R. G. Edgar,  Po-Tung Fang,  
 S. Faraji,  S. Fatehi,  Qingguo Feng,  K. D. Fenk,  J. Fosso-Tande,  
 Qinghui Ge,  A. Ghysels,  G. Gidofalvi,  J. Gomes,  J. Gonthier,  A. Gunina,  
 D. Hait,  M. W. D. Hanson-Heine,  P. H. P. Harbach,  A. W. Hauser,  
 J. E. Herr,  E. G. Hohenstein,  Z. C. Holden,  Kerwin Hui,  B. C. Huynh,  
 T.-C. Jagau,  Hyunjun Ji,  B. Kaduk,  K. Khistyaev,  Jaehoon Kim,  
 P. Klunzinger,  K. Koh,  D. Kosenkov,  L. Koulias,  T. Kowalczyk,  
 C. M. Krauter,  A. Kunitsa,  Ka Un Lao,  A. Laurent,  K. V. Lawler,  
 Joonho Lee,  D. Lefrancois,  S. Lehtola,  D. S. Levine,  Yi-Pei Li,  
 You-Sheng Lin,  Fenglai Liu,  E. Livshits,  A. Luenser,  P. Manohar,  
 E. Mansoor,  S. F. Manzer,  Shan-Ping Mao,  Yuezhi Mao,  N. Mardirossian,  
 A. V. Marenich,  T. Markovich,  L. A. Martinez-Martinez,  S. A. Maurer,  
 N. J. Mayhall,  S. C. McKenzie,  J.-M. Mewes,  A. F. Morrison,  
 J. W. Mullinax,  K. Nanda,  T. S. Nguyen-Beck,  R. Olivares-Amaya,  
 J. A. Parkhill,  T. M. Perrine,  F. Plasser,  P. Pokhilko,  S. Prager,  
 A. Prociuk,  E. Ramos,  D. R. Rehn,  F. Rob,  M. Schneider,  N. Sergueev,  
 S. M. Sharada,  S. Sharma,  D. W. Small,  T. Stauch,  T. Stein,  
 Yu-Chuan Su,  A. J. W. Thom,  A. Tkatchenko,  T. Tsuchimochi,  N. M. Tubman,  
 L. Vogt,  M. L. Vidal,  O. Vydrov,  M. A. Watson,  J. Wenzel,  
 M. de Wergifosse,  T. A. Wesolowski,  A. White,  J. Witte,  A. Yamada,  
 Jun Yang,  K. Yao,  S. Yeganeh,  S. R. Yost,  Zhi-Qiang You,  A. Zech,  
 Igor Ying Zhang,  Xing Zhang,  Yan Zhao,  Ying Zhu,  B. R. Brooks,  
 G. K. L. Chan,  C. J. Cramer,  M. S. Gordon,  W. J. Hehre,  A. Klamt,  
 M. W. Schmidt,  C. D. Sherrill,  D. G. Truhlar,  A. Aspuru-Guzik,  R. Baer,  
 A. T. Bell,  N. A. Besley,  Jeng-Da Chai,  A. E. DePrince, III,  
 R. A. DiStasio Jr.,  A. Dreuw,  B. D. Dunietz,  T. R. Furlani,  
 Chao-Ping Hsu,  Yousung Jung,  Jing Kong,  D. S. Lambrecht,  WanZhen Liang,  
 C. Ochsenfeld,  V. A. Rassolov,  L. V. Slipchenko,  J. E. Subotnik,  
 T. Van Voorhis,  J. M. Herbert,  A. I. Krylov,  P. M. W. Gill,  M. Head-Gordon

 Contributors to earlier versions of Q-Chem not listed above: 
 R. D. Adamson,  B. Austin,  J. Baker,  G. J. O. Beran,  K. Brandhorst,  
 S. T. Brown,  E. F. C. Byrd,  A. K. Chakraborty,  C.-L. Cheng,  
 Siu Hung Chien,  D. M. Chipman,  D. L. Crittenden,  H. Dachsel,  
 R. J. Doerksen,  A. D. Dutoi,  L. Fusti-Molnar,  W. A. Goddard III,  
 A. Golubeva-Zadorozhnaya,  S. R. Gwaltney,  G. Hawkins,  A. Heyden,  
 S. Hirata,  G. Kedziora,  F. J. Keil,  C. Kelley,  Jihan Kim,  R. A. King,  
 R. Z. Khaliullin,  P. P. Korambath,  W. Kurlancheek,  A. M. Lee,  M. S. Lee,  
 S. V. Levchenko,  Ching Yeh Lin,  D. Liotard,  R. C. Lochan,  I. Lotan,  
 P. E. Maslen,  N. Nair,  D. P. O'Neill,  D. Neuhauser,  E. Neuscamman,  
 C. M. Oana,  R. Olson,  B. Peters,  R. Peverati,  P. A. Pieniazek,  
 Y. M. Rhee,  J. Ritchie,  M. A. Rohrdanz,  E. Rosta,  N. J. Russ,  
 H. F. Schaefer III,  N. E. Schultz,  N. Shenvi,  A. C. Simmonett,  A. Sodt,  
 D. Stuck,  K. S. Thanthiriwatte,  V. Vanovschi,  Tao Wang,  A. Warshel,  
 C. F. Williams,  Q. Wu,  X. Xu,  W. Zhang

 Please cite Q-Chem as follows:
 Y. Shao et al., Mol. Phys. 113, 184-215 (2015)
 DOI: 10.1080/00268976.2014.952696

 Q-Chem 5.1.1 for Intel X86 EM64T Linux

 Parts of Q-Chem use Armadillo 8.300.2 (Tropical Shenanigans).
 http://arma.sourceforge.net/

 Q-Chem begins on Thu Nov 12 14:46:48 2020  

Host: n0054.mhg0
0

     Scratch files written to /local/scratch/users/yhljason/BHCl2_LRC-wPBEh_aug-pc-4.inp20201112144647//
Input Ideriv = 2
Curr. Ideriv = -1
Max.  Ideriv = 2

Checking the input file for inconsistencies... 	...done.

--------------------------------------------------------------
User input:
--------------------------------------------------------------
$molecule
0 1
B1      0.0000  0.0000  0.7189
H2      0.0000  0.0000  1.8489
Cl3     0.0000  1.5132  -0.1601
Cl4     0.0000  -1.5132 -0.1601
$end

$rem
jobtype sp
method LRC-wPBEh
xc_grid 000099000590
basis aug-pc-4
max_scf_cycles 200
thresh 14
scf_convergence 8
scf_algorithm gdm
symmetry false
sym_ignore true
unrestricted True
gen_scfman true
internal_stability_iter 15
internal_stability_davidson_iter 200
mem_total 64000
mem_static 1500
n_frozen_core 0
$end



--------------------------------------------------------------
 ----------------------------------------------------------------
             Standard Nuclear Orientation (Angstroms)
    I     Atom           X                Y                Z
 ----------------------------------------------------------------
    1      B       0.0000000000     0.0000000000     0.7189000000
    2      H       0.0000000000     0.0000000000     1.8489000000
    3      Cl      0.0000000000     1.5132000000    -0.1601000000
    4      Cl      0.0000000000    -1.5132000000    -0.1601000000
 ----------------------------------------------------------------
 Nuclear Repulsion Energy =   111.4342367647 hartrees
 There are       20 alpha and       20 beta electrons
 Requested basis set is aug-pc-4
 There are 119 shells and 515 basis functions

 Total QAlloc Memory Limit  64000 MB
 Mega-Array Size      1467 MB
 MEM_STATIC part      1500 MB

                       Distance Matrix (Angstroms)
             B (  1)   H (  2)   Cl(  3)
   H (  2)  1.130000
   Cl(  3)  1.749976  2.515125
   Cl(  4)  1.749976  2.515125  3.026400
 
 A cutoff of  1.0D-14 yielded   6957 shell pairs
 There are    131855 function pairs (    252797 Cartesian)
 
 -------------------------------------------------------
 OpenMP Integral Computing Module                       
 Release: version 1.0, May 2013, Q-Chem Inc. Pittsburgh 
 -------------------------------------------------------
 Integral Job Info:
 Integral job number is                      11
 Integral operator is                         1
 short-range coefficients              20000000
 long-range coefficients              100000000
 Omega coefficients                         200
 if combine SR and LR in K                    1
 Integral screening is                        0
 Integral computing path is                   2
 max size of driver memory is           6400000
 size of driver memory is               5498286
 size of scratch memory is             28418842
 max col of scratch BK array             194481
 max len of scratch array in speh3         5572
 max len of scratch index in speh4           72
 max int batch size is                      520
 min int batch size is                       52
 fixed nKL is                                 7
 max L of basis functions is                  5
 order of int derivative is                   0
 number of shells is                        119
 number of basis is                         711
 number of cartesian basis is               711
 number of contracted shell pairs          6957
 number of primitive shell pairs          24795
 maxK2 (contraction) of shell pair          225
 max number of K2 of shell pair               1
 max number of CS2 of shell pair            600
 max number of PS2 of shell pair           1232
 mem total for path MDJ                 1338632
 -------------------------------------------------------
 Smallest overlap matrix eigenvalue = 1.14E-06

 Scale SEOQF with 1.000000e-01/1.000000e-01/1.000000e-01

 Standard Electronic Orientation quadrupole field applied
 Nucleus-field energy     =     0.0000000048 hartrees
 Guess from superposition of atomic densities
 Warning:  Energy on first SCF cycle will be non-variational
 SAD guess density has 40.000000 electrons

 -----------------------------------------------------------------------
  General SCF calculation program by
  Eric Jon Sundstrom, Paul Horn, Yuezhi Mao, Dmitri Zuev, Alec White,
  David Stuck, Shaama M.S., Shane Yost, Joonho Lee, David Small,
  Daniel Levine, Susi Lehtola, Hugh Burton, Evgeny Epifanovsky
 -----------------------------------------------------------------------
 Exchange:     0.2000 Hartree-Fock + 0.8000 wPBE + LR-HF
 Correlation:  1.0000 PBE
 Using Euler-Maclaurin-Lebedev (99,590) quadrature formula
Running Object-Oriented UKS (UHF)
performing a single roothaan step with Fock from read density so that orbitals are available to all algorithms
energy of the guess density (C=0) -945.977853438416
We will preform up to 15 macro iterations over saddle points until a stable solution is found
Energy prior to optimization (guess energy) = -945.642721564990
Begin Timing: Total SCF Calculation
Begin Timing: SCF Single Stationary Point Calculation
begin iterations for algorithm: GDM          
the SCF tolerance is set to 1.00e-08
    1    -945.6427215650      7.52e-02     00000  Normal BFGS step
    2    -945.6489211306      5.75e-02     00000  Normal BFGS step
    3    -945.6614259953      2.58e-03     00000  Normal BFGS step
    4    -945.6615138104      1.01e-03     00000  Normal BFGS step
    5    -945.6615238684      1.08e-04     00000  Normal BFGS step
    6    -945.6615243757      4.88e-05     00000  Normal BFGS step
    7    -945.6615243996      2.06e-05     00000  Normal BFGS step
    8    -945.6615244019      3.95e-06     00000  Normal BFGS step
    9    -945.6615244021      7.10e-07     00000  Normal BFGS step
   10    -945.6615244021      2.60e-07     00000  Normal BFGS step
   11    -945.6615244021      6.53e-08     00000  Normal BFGS step
   12    -945.6615244021      1.79e-08     00000  Normal BFGS step
   13    -945.6615244021      6.64e-09     00000 Convergence criterion met
Timing for Single Stationary Point: 14077.00s (wall), 111945.66s (cpu)
Begin Timing: Stability
===================================================
Beginning Test for Internal Stability
===================================================
generating davidson guess vectors based on koopmans excitations
    1      7.68e-01     00000 Davidson Iteration
    2      1.02e-01     00000 Davidson Iteration
    3      7.12e-02     00000 Davidson Iteration
    4      7.02e-03     00000 Davidson Iteration
    5      3.44e-03     00000 Davidson Iteration
    6      1.34e-03     00000 Davidson Iteration
    7      8.02e-04     00000 Davidson Iteration
    8      1.66e-04     00000 Davidson Iteration
    9      2.11e-04     00000 Davidson Iteration
   10      5.42e-04     00000 Davidson Iteration
   11      2.27e-04     00000 Davidson Iteration
   12      6.31e-05     00000 Davidson Iteration
   13      6.13e-05     00000 Davidson Iteration
   14      1.67e-02     00000 Davidson Iteration
   15      1.94e-02     00000 Davidson Iteration
   16      1.73e-02     00000 Davidson Iteration
   17      6.72e-03     00000 Davidson Iteration
   18      3.40e-03     00000 Davidson Iteration
   19      1.85e-03     00000 Davidson Iteration
   20      1.46e-03     00000 Davidson Iteration
   21      1.09e-03     00000 Davidson Iteration
   22      7.02e-04     00000 Davidson Iteration
   23      4.40e-04     00000 Davidson Iteration
   24      3.13e-04     00000 Davidson Iteration
   25      1.01e-04     00000 Davidson Iteration
   26      6.05e-05     00000 Davidson Converged
converged_eigenvalues
   0.4330
   0.3948
   0.3628
Threshold for negative eigenvalues: -1.0e-05
solution was a local minimum (stable)
===================================================
End Test for Internal Stability
===================================================
Our SCF solution is stable!
Timing for Total SCF: 79927.00s (wall), 635722.30s (cpu)
 Total energy in the final basis set =     -945.6615244021
<S^2> =         -0.000000000
    ==================================================
              The end of Object-Oriented SCFman       
    ==================================================
 
 --------------------------------------------------------------
 
                    Orbital Energies (a.u.)
 --------------------------------------------------------------
 
 Alpha MOs
 -- Occupied --
*******-101.586  -9.567  -9.567  -7.315  -7.315  -7.311  -7.311
 -7.309  -7.309  -6.922  -0.969  -0.934  -0.624  -0.532  -0.519
 -0.473  -0.426  -0.414  -0.412
 -- Virtual --
 -0.007   0.016   0.019   0.020   0.020   0.048   0.052   0.057
  0.059   0.061   0.064   0.066   0.072   0.073   0.082   0.090
  0.097   0.099   0.103   0.112   0.118   0.133   0.136   0.137
  0.145   0.158   0.162   0.163   0.168   0.170   0.174   0.179
  0.186   0.192   0.193   0.194   0.196   0.203   0.213   0.215
  0.218   0.230   0.232   0.239   0.242   0.248   0.254   0.268
  0.273   0.277   0.281   0.285   0.289   0.293   0.295   0.301
  0.306   0.308   0.315   0.316   0.332   0.338   0.343   0.344
  0.345   0.346   0.353   0.356   0.363   0.363   0.366   0.375
  0.378   0.378   0.391   0.393   0.398   0.403   0.404   0.416
  0.425   0.426   0.431   0.452   0.454   0.458   0.460   0.483
  0.491   0.491   0.496   0.513   0.524   0.528   0.536   0.546
  0.554   0.567   0.571   0.574   0.585   0.594   0.601   0.603
  0.606   0.622   0.626   0.627   0.633   0.636   0.649   0.657
  0.658   0.676   0.679   0.695   0.697   0.699   0.700   0.708
  0.712   0.716   0.720   0.728   0.742   0.742   0.747   0.754
  0.762   0.763   0.772   0.776   0.790   0.792   0.797   0.807
  0.813   0.820   0.822   0.830   0.835   0.842   0.856   0.863
  0.872   0.874   0.878   0.882   0.885   0.888   0.899   0.916
  0.922   0.929   0.939   0.958   0.960   0.985   0.990   0.999
  1.006   1.015   1.026   1.028   1.035   1.040   1.042   1.065
  1.067   1.067   1.074   1.086   1.108   1.126   1.130   1.131
  1.137   1.150   1.154   1.174   1.175   1.208   1.210   1.216
  1.219   1.232   1.245   1.246   1.262   1.273   1.287   1.313
  1.313   1.315   1.353   1.357   1.431   1.458   1.480   1.493
  1.515   1.532   1.545   1.558   1.561   1.586   1.612   1.621
  1.650   1.650   1.670   1.681   1.699   1.704   1.707   1.727
  1.813   1.817   1.831   1.839   1.871   1.916   1.938   1.948
  1.955   1.979   2.002   2.054   2.116   2.120   2.138   2.147
  2.186   2.191   2.191   2.207   2.239   2.253   2.295   2.307
  2.411   2.470   2.472   2.525   2.560   2.618   2.618   2.624
  2.649   2.703   2.796   2.851   2.943   2.977   3.017   3.019
  3.021   3.021   3.027   3.076   3.091   3.103   3.141   3.143
  3.156   3.174   3.209   3.284   3.382   3.394   3.416   3.418
  3.427   3.476   3.513   3.547   3.609   3.661   3.676   3.687
  3.747   3.751   3.782   3.790   3.808   3.827   3.845   3.872
  3.917   3.919   3.942   3.966   4.004   4.036   4.051   4.059
  4.086   4.109   4.131   4.143   4.155   4.193   4.198   4.281
  4.301   4.354   4.383   4.397   4.409   4.453   4.466   4.682
  4.739   4.819   4.854   4.855   4.931   4.932   5.053   5.065
  5.086   5.134   5.150   5.185   5.214   5.271   5.323   5.536
  5.701   5.814   5.820   5.833   5.840   5.840   5.840   5.841
  5.841   5.873   5.927   5.953   5.980   5.992   5.998   6.052
  6.099   6.110   6.116   6.131   6.176   6.194   6.210   6.284
  6.326   6.408   6.421   6.512   6.539   6.571   6.652   6.744
  6.791   6.945   7.118   7.158   7.201   7.312   7.937   7.956
  8.018   8.470   8.561   8.655   8.663   8.850   8.965   9.007
  9.022   9.183   9.237   9.296   9.302   9.304   9.306   9.324
  9.371   9.396   9.439   9.483   9.515   9.745   9.747   9.756
  9.769   9.782   9.823   9.874   9.902   9.940   9.946   9.982
 10.036  10.121  10.158  10.201  10.256  10.267  10.308  10.321
 10.388  10.411  10.491  10.757  10.794  10.855  10.936  10.977
 11.121  11.372  11.516  11.518  11.533  11.538  11.674  11.851
 11.967  12.226  12.405  12.549  12.586  12.746  13.102  13.117
 13.124  13.124  13.126  13.192  13.228  13.271  13.286  13.343
 13.419  13.469  13.482  13.650  14.036  14.258  14.276  14.838
 14.943  16.060  16.908  16.908  17.178  17.185  17.947  17.985
 18.003  18.020  18.072  18.085  18.164  18.232  18.371  18.405
 18.683  18.776  19.098  19.943  20.062  20.083  20.657  20.872
 21.105  21.454  22.818  23.661  23.903  25.384  41.177  41.214
 41.702  66.309  66.331  66.344  66.353  66.382  66.395  66.436
 66.477  66.742  66.788  79.566  91.299  91.469  92.488
 
 Beta MOs
 -- Occupied --
*******-101.586  -9.567  -9.567  -7.315  -7.315  -7.311  -7.311
 -7.309  -7.309  -6.922  -0.969  -0.934  -0.624  -0.532  -0.519
 -0.473  -0.426  -0.414  -0.412
 -- Virtual --
 -0.007   0.016   0.019   0.020   0.020   0.048   0.052   0.057
  0.059   0.061   0.064   0.066   0.072   0.073   0.082   0.090
  0.097   0.099   0.103   0.112   0.118   0.133   0.136   0.137
  0.145   0.158   0.162   0.163   0.168   0.170   0.174   0.179
  0.186   0.192   0.193   0.194   0.196   0.203   0.213   0.215
  0.218   0.230   0.232   0.239   0.242   0.248   0.254   0.268
  0.273   0.277   0.281   0.285   0.289   0.293   0.295   0.301
  0.306   0.308   0.315   0.316   0.332   0.338   0.343   0.344
  0.345   0.346   0.353   0.356   0.363   0.363   0.366   0.375
  0.378   0.378   0.391   0.393   0.398   0.403   0.404   0.416
  0.425   0.426   0.431   0.452   0.454   0.458   0.460   0.483
  0.491   0.491   0.496   0.513   0.524   0.528   0.536   0.546
  0.554   0.567   0.571   0.574   0.585   0.594   0.601   0.603
  0.606   0.622   0.626   0.627   0.633   0.636   0.649   0.657
  0.658   0.676   0.679   0.695   0.697   0.699   0.700   0.708
  0.712   0.716   0.720   0.728   0.742   0.742   0.747   0.754
  0.762   0.763   0.772   0.776   0.790   0.792   0.797   0.807
  0.813   0.820   0.822   0.830   0.835   0.842   0.856   0.863
  0.872   0.874   0.878   0.882   0.885   0.888   0.899   0.916
  0.922   0.929   0.939   0.958   0.960   0.985   0.990   0.999
  1.006   1.015   1.026   1.028   1.035   1.040   1.042   1.065
  1.067   1.067   1.074   1.086   1.108   1.126   1.130   1.131
  1.137   1.150   1.154   1.174   1.175   1.208   1.210   1.216
  1.219   1.232   1.245   1.246   1.262   1.273   1.287   1.313
  1.313   1.315   1.353   1.357   1.431   1.458   1.480   1.493
  1.515   1.532   1.545   1.558   1.561   1.586   1.612   1.621
  1.650   1.650   1.670   1.681   1.699   1.704   1.707   1.727
  1.813   1.817   1.831   1.839   1.871   1.916   1.938   1.948
  1.955   1.979   2.002   2.054   2.116   2.120   2.138   2.147
  2.186   2.191   2.191   2.207   2.239   2.253   2.295   2.307
  2.411   2.470   2.472   2.525   2.560   2.618   2.618   2.624
  2.649   2.703   2.796   2.851   2.943   2.977   3.017   3.019
  3.021   3.021   3.027   3.076   3.091   3.103   3.141   3.143
  3.156   3.174   3.209   3.284   3.382   3.394   3.416   3.418
  3.427   3.476   3.513   3.547   3.609   3.661   3.676   3.687
  3.747   3.751   3.782   3.790   3.808   3.827   3.845   3.872
  3.917   3.919   3.942   3.966   4.004   4.036   4.051   4.059
  4.086   4.109   4.131   4.143   4.155   4.193   4.198   4.281
  4.301   4.354   4.383   4.397   4.409   4.453   4.466   4.682
  4.739   4.819   4.854   4.855   4.931   4.932   5.053   5.065
  5.086   5.134   5.150   5.185   5.214   5.271   5.323   5.536
  5.701   5.814   5.820   5.833   5.840   5.840   5.840   5.841
  5.841   5.873   5.927   5.953   5.980   5.992   5.998   6.052
  6.099   6.110   6.116   6.131   6.176   6.194   6.210   6.284
  6.326   6.408   6.421   6.512   6.539   6.571   6.652   6.744
  6.791   6.945   7.118   7.158   7.201   7.312   7.937   7.956
  8.018   8.470   8.561   8.655   8.663   8.850   8.965   9.007
  9.022   9.183   9.237   9.296   9.302   9.304   9.306   9.324
  9.371   9.396   9.439   9.483   9.515   9.745   9.747   9.756
  9.769   9.782   9.823   9.874   9.902   9.940   9.946   9.982
 10.036  10.121  10.158  10.201  10.256  10.267  10.308  10.321
 10.388  10.411  10.491  10.757  10.794  10.855  10.936  10.977
 11.121  11.372  11.516  11.518  11.533  11.538  11.674  11.851
 11.967  12.226  12.405  12.549  12.586  12.746  13.102  13.117
 13.124  13.124  13.126  13.192  13.228  13.271  13.286  13.343
 13.419  13.469  13.482  13.650  14.036  14.258  14.276  14.838
 14.943  16.060  16.908  16.908  17.178  17.185  17.947  17.985
 18.003  18.020  18.072  18.085  18.164  18.232  18.371  18.405
 18.683  18.776  19.098  19.943  20.062  20.083  20.657  20.872
 21.105  21.454  22.818  23.661  23.903  25.384  41.177  41.214
 41.702  66.309  66.331  66.344  66.353  66.382  66.395  66.436
 66.477  66.742  66.788  79.566  91.299  91.469  92.488
 --------------------------------------------------------------
 
          Ground-State Mulliken Net Atomic Charges

     Atom                 Charge (a.u.)    Spin (a.u.)
  --------------------------------------------------------
      1 B                     0.147513       0.000000
      2 H                     0.169233      -0.000000
      3 Cl                   -0.158373       0.000000
      4 Cl                   -0.158373      -0.000000
  --------------------------------------------------------
  Sum of atomic charges =     0.000000
  Sum of spin   charges =    -0.000000

 -----------------------------------------------------------------
                    Cartesian Multipole Moments
 -----------------------------------------------------------------
    Charge (ESU x 10^10)
                -0.0000
    Dipole Moment (Debye)
         X      -0.0000      Y      -0.0000      Z       0.6072
       Tot       0.6072
    Quadrupole Moments (Debye-Ang)
        XX     -30.6097     XY      -0.0000     YY     -32.1243
        XZ       0.0000     YZ       0.0000     ZZ     -30.8899
    Octopole Moments (Debye-Ang^2)
       XXX       0.0000    XXY      -0.0000    XYY       0.0000
       YYY      -0.0000    XXZ      -0.9318    XYZ      -0.0000
       YYZ      -4.8538    XZZ       0.0000    YZZ      -0.0000
       ZZZ      -3.7080
    Hexadecapole Moments (Debye-Ang^3)
      XXXX     -35.1904   XXXY      -0.0000   XXYY     -69.2924
      XYYY      -0.0000   YYYY    -366.3919   XXXZ       0.0000
      XXYZ       0.0000   XYYZ       0.0000   YYYZ       0.0000
      XXZZ     -18.0693   XYZZ      -0.0000   YYZZ     -74.5900
      XZZZ       0.0000   YZZZ       0.0000   ZZZZ     -73.7442
 -----------------------------------------------------------------
Archival summary:
1\1\n0054.mhg0\SP\ProcedureUnspecified\BasisUnspecified\l211\yhljason\FriNov1313:18:542020FriNov1313:18:542020\0\\#,ProcedureUnspecified,BasisUnspecified,\\0,1\Cl\B,1,1.74998\H,2,1.13,1,120.152\Cl,2,1.74998,1,119.696,3,-180,0\\\@

 Total job time:  81126.15s(wall), 645167.76s(cpu) 
 Fri Nov 13 13:18:54 2020

        *************************************************************
        *                                                           *
        *  Thank you very much for using Q-Chem.  Have a nice day.  *
        *                                                           *
        *************************************************************


