Q-Chem Developer Version!
                  Welcome to Q-Chem
     A Quantum Leap Into The Future Of Chemistry


 Q-Chem 5.1, Q-Chem, Inc., Pleasanton, CA (2018)

 Yihan Shao,  Zhengting Gan,  E. Epifanovsky,  A. T. B. Gilbert,  M. Wormit,  
 J. Kussmann,  A. W. Lange,  A. Behn,  Jia Deng,  Xintian Feng,  D. Ghosh,  
 M. Goldey,  P. R. Horn,  L. D. Jacobson,  I. Kaliman,  T. Kus,  A. Landau,  
 Jie Liu,  E. I. Proynov,  R. M. Richard,  R. P. Steele,  E. J. Sundstrom,  
 H. L. Woodcock III,  P. M. Zimmerman,  D. Zuev,  B. Albrecht,  E. Alguire,  
 S. A. Baeppler,  D. Barton,  Z. Benda,  Y. A. Bernard,  E. J. Berquist,  
 K. B. Bravaya,  H. Burton,  D. Casanova,  Chun-Min Chang,  Yunqing Chen,  
 A. Chien,  K. D. Closser,  M. P. Coons,  S. Coriani,  S. Dasgupta,  
 A. L. Dempwolff,  M. Diedenhofen,  Hainam Do,  R. G. Edgar,  Po-Tung Fang,  
 S. Faraji,  S. Fatehi,  Qingguo Feng,  K. D. Fenk,  J. Fosso-Tande,  
 Qinghui Ge,  A. Ghysels,  G. Gidofalvi,  J. Gomes,  J. Gonthier,  A. Gunina,  
 D. Hait,  M. W. D. Hanson-Heine,  P. H. P. Harbach,  A. W. Hauser,  
 J. E. Herr,  E. G. Hohenstein,  Z. C. Holden,  Kerwin Hui,  B. C. Huynh,  
 T.-C. Jagau,  Hyunjun Ji,  B. Kaduk,  K. Khistyaev,  Jaehoon Kim,  
 P. Klunzinger,  K. Koh,  D. Kosenkov,  L. Koulias,  T. Kowalczyk,  
 C. M. Krauter,  A. Kunitsa,  Ka Un Lao,  A. Laurent,  K. V. Lawler,  
 Joonho Lee,  D. Lefrancois,  S. Lehtola,  D. S. Levine,  Yi-Pei Li,  
 You-Sheng Lin,  Fenglai Liu,  E. Livshits,  A. Luenser,  P. Manohar,  
 E. Mansoor,  S. F. Manzer,  Shan-Ping Mao,  Yuezhi Mao,  N. Mardirossian,  
 A. V. Marenich,  T. Markovich,  L. A. Martinez-Martinez,  S. A. Maurer,  
 N. J. Mayhall,  S. C. McKenzie,  J.-M. Mewes,  A. F. Morrison,  
 J. W. Mullinax,  K. Nanda,  T. S. Nguyen-Beck,  R. Olivares-Amaya,  
 J. A. Parkhill,  T. M. Perrine,  F. Plasser,  P. Pokhilko,  S. Prager,  
 A. Prociuk,  E. Ramos,  D. R. Rehn,  F. Rob,  M. Schneider,  N. Sergueev,  
 S. M. Sharada,  S. Sharma,  D. W. Small,  T. Stauch,  T. Stein,  
 Yu-Chuan Su,  A. J. W. Thom,  A. Tkatchenko,  T. Tsuchimochi,  N. M. Tubman,  
 L. Vogt,  M. L. Vidal,  O. Vydrov,  M. A. Watson,  J. Wenzel,  
 M. de Wergifosse,  T. A. Wesolowski,  A. White,  J. Witte,  A. Yamada,  
 Jun Yang,  K. Yao,  S. Yeganeh,  S. R. Yost,  Zhi-Qiang You,  A. Zech,  
 Igor Ying Zhang,  Xing Zhang,  Yan Zhao,  Ying Zhu,  B. R. Brooks,  
 G. K. L. Chan,  C. J. Cramer,  M. S. Gordon,  W. J. Hehre,  A. Klamt,  
 M. W. Schmidt,  C. D. Sherrill,  D. G. Truhlar,  A. Aspuru-Guzik,  R. Baer,  
 A. T. Bell,  N. A. Besley,  Jeng-Da Chai,  A. E. DePrince, III,  
 R. A. DiStasio Jr.,  A. Dreuw,  B. D. Dunietz,  T. R. Furlani,  
 Chao-Ping Hsu,  Yousung Jung,  Jing Kong,  D. S. Lambrecht,  WanZhen Liang,  
 C. Ochsenfeld,  V. A. Rassolov,  L. V. Slipchenko,  J. E. Subotnik,  
 T. Van Voorhis,  J. M. Herbert,  A. I. Krylov,  P. M. W. Gill,  M. Head-Gordon

 Contributors to earlier versions of Q-Chem not listed above: 
 R. D. Adamson,  B. Austin,  J. Baker,  G. J. O. Beran,  K. Brandhorst,  
 S. T. Brown,  E. F. C. Byrd,  A. K. Chakraborty,  C.-L. Cheng,  
 Siu Hung Chien,  D. M. Chipman,  D. L. Crittenden,  H. Dachsel,  
 R. J. Doerksen,  A. D. Dutoi,  L. Fusti-Molnar,  W. A. Goddard III,  
 A. Golubeva-Zadorozhnaya,  S. R. Gwaltney,  G. Hawkins,  A. Heyden,  
 S. Hirata,  G. Kedziora,  F. J. Keil,  C. Kelley,  Jihan Kim,  R. A. King,  
 R. Z. Khaliullin,  P. P. Korambath,  W. Kurlancheek,  A. M. Lee,  M. S. Lee,  
 S. V. Levchenko,  Ching Yeh Lin,  D. Liotard,  R. C. Lochan,  I. Lotan,  
 P. E. Maslen,  N. Nair,  D. P. O'Neill,  D. Neuhauser,  E. Neuscamman,  
 C. M. Oana,  R. Olson,  B. Peters,  R. Peverati,  P. A. Pieniazek,  
 Y. M. Rhee,  J. Ritchie,  M. A. Rohrdanz,  E. Rosta,  N. J. Russ,  
 H. F. Schaefer III,  N. E. Schultz,  N. Shenvi,  A. C. Simmonett,  A. Sodt,  
 D. Stuck,  K. S. Thanthiriwatte,  V. Vanovschi,  Tao Wang,  A. Warshel,  
 C. F. Williams,  Q. Wu,  X. Xu,  W. Zhang

 Please cite Q-Chem as follows:
 Y. Shao et al., Mol. Phys. 113, 184-215 (2015)
 DOI: 10.1080/00268976.2014.952696

 Q-Chem 5.1.1 for Intel X86 EM64T Linux

 Parts of Q-Chem use Armadillo 8.300.2 (Tropical Shenanigans).
 http://arma.sourceforge.net/

 Q-Chem begins on Thu Nov 12 14:46:52 2020  

Host: n0066.mhg0
0

     Scratch files written to /local/scratch/users/yhljason/BHCl2_SCAN_aug-pc-4.inp20201112144650//
Input Ideriv = 2
Curr. Ideriv = -1
Max.  Ideriv = 2
Input Ideriv = 1
Curr. Ideriv = 2
Max.  Ideriv = 1

Checking the input file for inconsistencies... 	...done.

--------------------------------------------------------------
User input:
--------------------------------------------------------------
$molecule
0 1
B1      0.0000  0.0000  0.7189
H2      0.0000  0.0000  1.8489
Cl3     0.0000  1.5132  -0.1601
Cl4     0.0000  -1.5132 -0.1601
$end

$rem
jobtype sp
method SCAN
xc_grid 000099000590
basis aug-pc-4
max_scf_cycles 200
thresh 14
scf_convergence 8
scf_algorithm gdm
symmetry false
sym_ignore true
unrestricted True
gen_scfman true
internal_stability_iter 15
internal_stability_davidson_iter 200
mem_total 64000
mem_static 1500
n_frozen_core 0
$end



--------------------------------------------------------------
 ----------------------------------------------------------------
             Standard Nuclear Orientation (Angstroms)
    I     Atom           X                Y                Z
 ----------------------------------------------------------------
    1      B       0.0000000000     0.0000000000     0.7189000000
    2      H       0.0000000000     0.0000000000     1.8489000000
    3      Cl      0.0000000000     1.5132000000    -0.1601000000
    4      Cl      0.0000000000    -1.5132000000    -0.1601000000
 ----------------------------------------------------------------
 Nuclear Repulsion Energy =   111.4342367647 hartrees
 There are       20 alpha and       20 beta electrons
 Requested basis set is aug-pc-4
 There are 119 shells and 515 basis functions

 Total QAlloc Memory Limit  64000 MB
 Mega-Array Size      1467 MB
 MEM_STATIC part      1500 MB

                       Distance Matrix (Angstroms)
             B (  1)   H (  2)   Cl(  3)
   H (  2)  1.130000
   Cl(  3)  1.749976  2.515125
   Cl(  4)  1.749976  2.515125  3.026400
 
 A cutoff of  1.0D-14 yielded   6957 shell pairs
 There are    131855 function pairs (    252797 Cartesian)
 
 -------------------------------------------------------
 OpenMP Integral Computing Module                       
 Release: version 1.0, May 2013, Q-Chem Inc. Pittsburgh 
 -------------------------------------------------------
 Integral Job Info:
 Integral job number is                      11
 Integral operator is                         1
 short-range coefficients                     0
 long-range coefficients              100000000
 Omega coefficients                           0
 if combine SR and LR in K                    0
 Integral screening is                        0
 Integral computing path is                   2
 max size of driver memory is           6400000
 size of driver memory is               5498286
 size of scratch memory is             27847117
 max col of scratch BK array             194481
 max len of scratch array in speh3         5572
 max len of scratch index in speh4           72
 max int batch size is                      520
 min int batch size is                       52
 fixed nKL is                                 7
 max L of basis functions is                  5
 order of int derivative is                   0
 number of shells is                        119
 number of basis is                         711
 number of cartesian basis is               711
 number of contracted shell pairs          6957
 number of primitive shell pairs          24795
 maxK2 (contraction) of shell pair          225
 max number of K2 of shell pair               1
 max number of CS2 of shell pair            600
 max number of PS2 of shell pair           1232
 mem total for path MDJ                 1338632
 -------------------------------------------------------
 Smallest overlap matrix eigenvalue = 1.14E-06

 Scale SEOQF with 1.000000e-01/1.000000e-01/1.000000e-01

 Standard Electronic Orientation quadrupole field applied
 Nucleus-field energy     =     0.0000000048 hartrees
 Guess from superposition of atomic densities
 Warning:  Energy on first SCF cycle will be non-variational
 SAD guess density has 40.000000 electrons

 -----------------------------------------------------------------------
  General SCF calculation program by
  Eric Jon Sundstrom, Paul Horn, Yuezhi Mao, Dmitri Zuev, Alec White,
  David Stuck, Shaama M.S., Shane Yost, Joonho Lee, David Small,
  Daniel Levine, Susi Lehtola, Hugh Burton, Evgeny Epifanovsky
 -----------------------------------------------------------------------
 Exchange:  SCAN      Correlation:  SCAN
 Using Euler-Maclaurin-Lebedev (99,590) quadrature formula
Running Object-Oriented UKS (UHF)
performing a single roothaan step with Fock from read density so that orbitals are available to all algorithms
energy of the guess density (C=0) -946.291178105328
We will preform up to 15 macro iterations over saddle points until a stable solution is found
Energy prior to optimization (guess energy) = -946.036053818420
Begin Timing: Total SCF Calculation
Begin Timing: SCF Single Stationary Point Calculation
begin iterations for algorithm: GDM          
the SCF tolerance is set to 1.00e-08
    1    -946.0360538184      3.98e-02     00000  Normal BFGS step
    2    -946.0331087502      8.03e-02     00000 Line search: overstep
    3    -946.0467539547      1.61e-02     00000  Normal BFGS step
    4    -946.0469598751      2.07e-02     00000  Normal BFGS step
    5    -946.0479438301      1.85e-03     00000  Normal BFGS step
    6    -946.0479624551      6.49e-04     00000  Normal BFGS step
    7    -946.0479731733      8.50e-05     00000  Normal BFGS step
    8    -946.0479731750      9.56e-05     00000  Normal BFGS step
    9    -946.0479732653      2.87e-06     00000  Normal BFGS step
   10    -946.0479732655      1.45e-06     00000  Normal BFGS step
   11    -946.0479732656      1.04e-07     00000  Normal BFGS step
   12    -946.0479732656      3.06e-08     00000  Normal BFGS step
   13    -946.0479732656      8.43e-09     00000 Convergence criterion met
Timing for Single Stationary Point: 1616.00s (wall), 12837.21s (cpu)
Begin Timing: Stability
===================================================
Beginning Test for Internal Stability
===================================================
generating davidson guess vectors based on koopmans excitations
    1      7.68e-01     00000 Davidson Iteration
    2      2.99e-01     00000 Davidson Iteration
    3      1.75e-02     00000 Davidson Iteration
    4      1.87e-02     00000 Davidson Iteration
    5      8.56e-03     00000 Davidson Iteration
    6      3.92e-03     00000 Davidson Iteration
    7      2.58e-03     00000 Davidson Iteration
    8      9.89e-04     00000 Davidson Iteration
    9      3.78e-04     00000 Davidson Iteration
   10      1.24e-04     00000 Davidson Iteration
   11      7.61e-05     00000 Davidson Iteration
   12      4.64e-05     00000 Davidson Converged
converged_eigenvalues
   0.3819
   0.3452
Threshold for negative eigenvalues: -1.0e-05
solution was a local minimum (stable)
===================================================
End Test for Internal Stability
===================================================
Our SCF solution is stable!
Timing for Total SCF: 21333.00s (wall), 169563.14s (cpu)
 Total energy in the final basis set =     -946.0479732656
<S^2> =         -0.000000000
    ==================================================
              The end of Object-Oriented SCFman       
    ==================================================
 
 --------------------------------------------------------------
 
                    Orbital Energies (a.u.)
 --------------------------------------------------------------
 
 Alpha MOs
 -- Occupied --
*******-101.194  -9.387  -9.387  -7.129  -7.129  -7.125  -7.125
 -7.122  -7.122  -6.731  -0.837  -0.803  -0.504  -0.415  -0.410
 -0.362  -0.320  -0.305  -0.302
 -- Virtual --
 -0.095   0.004   0.015   0.016   0.017   0.028   0.041   0.043
  0.049   0.051   0.053   0.055   0.057   0.061   0.066   0.073
  0.083   0.085   0.087   0.093   0.095   0.103   0.119   0.123
  0.127   0.132   0.133   0.141   0.144   0.145   0.148   0.157
  0.166   0.169   0.169   0.172   0.172   0.182   0.200   0.202
  0.204   0.204   0.211   0.213   0.220   0.223   0.225   0.235
  0.254   0.255   0.257   0.265   0.269   0.271   0.274   0.277
  0.283   0.284   0.286   0.290   0.304   0.314   0.315   0.320
  0.322   0.325   0.328   0.330   0.338   0.342   0.344   0.349
  0.352   0.366   0.368   0.371   0.378   0.379   0.394   0.396
  0.400   0.407   0.411   0.412   0.420   0.434   0.442   0.449
  0.456   0.462   0.464   0.478   0.503   0.504   0.513   0.514
  0.533   0.540   0.558   0.562   0.568   0.576   0.582   0.583
  0.586   0.596   0.607   0.609   0.617   0.618   0.626   0.626
  0.629   0.663   0.663   0.670   0.679   0.679   0.679   0.687
  0.702   0.713   0.720   0.728   0.732   0.733   0.736   0.745
  0.748   0.756   0.760   0.766   0.769   0.775   0.788   0.803
  0.804   0.816   0.816   0.828   0.829   0.831   0.840   0.866
  0.869   0.871   0.874   0.877   0.884   0.904   0.904   0.909
  0.915   0.925   0.937   0.944   0.945   0.954   0.972   0.990
  1.001   1.008   1.012   1.019   1.025   1.034   1.036   1.046
  1.050   1.061   1.067   1.072   1.099   1.103   1.126   1.126
  1.129   1.136   1.152   1.167   1.170   1.197   1.203   1.210
  1.211   1.215   1.219   1.231   1.238   1.242   1.282   1.296
  1.303   1.309   1.347   1.352   1.425   1.436   1.476   1.512
  1.515   1.516   1.520   1.546   1.554   1.572   1.606   1.607
  1.628   1.633   1.650   1.664   1.691   1.691   1.729   1.733
  1.799   1.825   1.844   1.860   1.870   1.927   1.944   1.944
  1.957   1.968   1.992   2.061   2.121   2.121   2.147   2.156
  2.190   2.200   2.206   2.246   2.246   2.262   2.308   2.322
  2.433   2.464   2.496   2.540   2.560   2.619   2.654   2.654
  2.709   2.720   2.805   2.868   2.971   3.001   3.052   3.054
  3.056   3.056   3.063   3.104   3.128   3.136   3.174   3.180
  3.182   3.206   3.254   3.318   3.409   3.430   3.469   3.477
  3.481   3.514   3.562   3.576   3.650   3.695   3.725   3.727
  3.758   3.777   3.799   3.828   3.850   3.868   3.902   3.924
  3.964   3.987   3.987   4.024   4.079   4.099   4.115   4.125
  4.142   4.174   4.190   4.214   4.225   4.250   4.286   4.353
  4.367   4.427   4.489   4.491   4.495   4.552   4.556   4.772
  4.851   4.896   4.976   4.978   5.019   5.055   5.137   5.163
  5.169   5.243   5.252   5.280   5.308   5.329   5.397   5.632
  5.825   5.942   5.964   5.982   5.985   5.985   5.985   5.986
  5.988   6.004   6.039   6.063   6.087   6.091   6.115   6.119
  6.134   6.164   6.206   6.210   6.230   6.320   6.335   6.395
  6.486   6.513   6.561   6.657   6.662   6.670   6.775   6.942
  6.961   7.101   7.217   7.270   7.369   7.475   8.027   8.084
  8.153   8.615   8.715   8.808   8.816   9.024   9.134   9.171
  9.183   9.347   9.389   9.395   9.404   9.407   9.407   9.433
  9.485   9.509   9.561   9.616   9.639   9.864   9.908   9.912
  9.924   9.929   9.960  10.061  10.063  10.070  10.083  10.140
 10.189  10.290  10.342  10.388  10.437  10.476  10.499  10.531
 10.603  10.607  10.684  10.975  10.989  11.022  11.131  11.239
 11.326  11.603  11.733  11.749  11.761  11.776  11.899  11.974
 12.118  12.470  12.666  12.738  12.871  13.035  13.161  13.168
 13.175  13.177  13.200  13.249  13.288  13.337  13.486  13.552
 13.553  13.567  13.579  13.860  14.213  14.378  14.450  15.193
 15.307  16.380  17.329  17.330  17.607  17.611  17.988  18.028
 18.045  18.063  18.122  18.134  18.217  18.302  18.754  18.840
 18.855  18.867  19.482  20.217  20.444  20.576  20.800  21.028
 21.261  21.631  23.081  24.153  24.408  25.922  41.363  41.868
 42.075  66.684  66.706  66.719  66.729  66.760  66.773  66.814
 66.857  67.127  67.174  79.938  93.368  93.543  94.573
 
 Beta MOs
 -- Occupied --
*******-101.194  -9.387  -9.387  -7.129  -7.129  -7.125  -7.125
 -7.122  -7.122  -6.731  -0.837  -0.803  -0.504  -0.415  -0.410
 -0.362  -0.320  -0.305  -0.302
 -- Virtual --
 -0.095   0.004   0.015   0.016   0.017   0.028   0.041   0.043
  0.049   0.051   0.053   0.055   0.057   0.061   0.066   0.073
  0.083   0.085   0.087   0.093   0.095   0.103   0.119   0.123
  0.127   0.132   0.133   0.141   0.144   0.145   0.148   0.157
  0.166   0.169   0.169   0.172   0.172   0.182   0.200   0.202
  0.204   0.204   0.211   0.213   0.220   0.223   0.225   0.235
  0.254   0.255   0.257   0.265   0.269   0.271   0.274   0.277
  0.283   0.284   0.286   0.290   0.304   0.314   0.315   0.320
  0.322   0.325   0.328   0.330   0.338   0.342   0.344   0.349
  0.352   0.366   0.368   0.371   0.378   0.379   0.394   0.396
  0.400   0.407   0.411   0.412   0.420   0.434   0.442   0.449
  0.456   0.462   0.464   0.478   0.503   0.504   0.513   0.514
  0.533   0.540   0.558   0.562   0.568   0.576   0.582   0.583
  0.586   0.596   0.607   0.609   0.617   0.618   0.626   0.626
  0.629   0.663   0.663   0.670   0.679   0.679   0.679   0.687
  0.702   0.713   0.720   0.728   0.732   0.733   0.736   0.745
  0.748   0.756   0.760   0.766   0.769   0.775   0.788   0.803
  0.804   0.816   0.816   0.828   0.829   0.831   0.840   0.866
  0.869   0.871   0.874   0.877   0.884   0.904   0.904   0.909
  0.915   0.925   0.937   0.944   0.945   0.954   0.972   0.990
  1.001   1.008   1.012   1.019   1.025   1.034   1.036   1.046
  1.050   1.061   1.067   1.072   1.099   1.103   1.126   1.126
  1.129   1.136   1.152   1.167   1.170   1.197   1.203   1.210
  1.211   1.215   1.219   1.231   1.238   1.242   1.282   1.296
  1.303   1.309   1.347   1.352   1.425   1.436   1.476   1.512
  1.515   1.516   1.520   1.546   1.554   1.572   1.606   1.607
  1.628   1.633   1.650   1.664   1.691   1.691   1.729   1.733
  1.799   1.825   1.844   1.860   1.870   1.927   1.944   1.944
  1.957   1.968   1.992   2.061   2.121   2.121   2.147   2.156
  2.190   2.200   2.206   2.246   2.246   2.262   2.308   2.322
  2.433   2.464   2.496   2.540   2.560   2.619   2.654   2.654
  2.709   2.720   2.805   2.868   2.971   3.001   3.052   3.054
  3.056   3.056   3.063   3.104   3.128   3.136   3.174   3.180
  3.182   3.206   3.254   3.318   3.409   3.430   3.469   3.477
  3.481   3.514   3.562   3.576   3.650   3.695   3.725   3.727
  3.758   3.777   3.799   3.828   3.850   3.868   3.902   3.924
  3.964   3.987   3.987   4.024   4.079   4.099   4.115   4.125
  4.142   4.174   4.190   4.214   4.225   4.250   4.286   4.353
  4.367   4.427   4.489   4.491   4.495   4.552   4.556   4.772
  4.851   4.896   4.976   4.978   5.019   5.055   5.137   5.163
  5.169   5.243   5.252   5.280   5.308   5.329   5.397   5.632
  5.825   5.942   5.964   5.982   5.985   5.985   5.985   5.986
  5.988   6.004   6.039   6.063   6.087   6.091   6.115   6.119
  6.134   6.164   6.206   6.210   6.230   6.320   6.335   6.395
  6.486   6.513   6.561   6.657   6.662   6.670   6.775   6.942
  6.961   7.101   7.217   7.270   7.369   7.475   8.027   8.084
  8.153   8.615   8.715   8.808   8.816   9.024   9.134   9.171
  9.183   9.347   9.389   9.395   9.404   9.407   9.407   9.433
  9.485   9.509   9.561   9.616   9.639   9.864   9.908   9.912
  9.924   9.929   9.960  10.061  10.063  10.070  10.083  10.140
 10.189  10.290  10.342  10.388  10.437  10.476  10.499  10.531
 10.603  10.607  10.684  10.975  10.989  11.022  11.131  11.239
 11.326  11.603  11.733  11.749  11.761  11.776  11.899  11.974
 12.118  12.470  12.666  12.738  12.871  13.035  13.161  13.168
 13.175  13.177  13.200  13.249  13.288  13.337  13.486  13.552
 13.553  13.567  13.579  13.860  14.213  14.378  14.450  15.193
 15.307  16.380  17.329  17.330  17.607  17.611  17.988  18.028
 18.045  18.063  18.122  18.134  18.217  18.302  18.754  18.840
 18.855  18.867  19.482  20.217  20.444  20.576  20.800  21.028
 21.261  21.631  23.081  24.153  24.408  25.922  41.363  41.868
 42.075  66.684  66.706  66.719  66.729  66.760  66.773  66.814
 66.857  67.127  67.174  79.938  93.368  93.543  94.573
 --------------------------------------------------------------
 
          Ground-State Mulliken Net Atomic Charges

     Atom                 Charge (a.u.)    Spin (a.u.)
  --------------------------------------------------------
      1 B                     0.136476       0.000000
      2 H                     0.549884       0.000000
      3 Cl                   -0.343180      -0.000000
      4 Cl                   -0.343180       0.000000
  --------------------------------------------------------
  Sum of atomic charges =    -0.000000
  Sum of spin   charges =    -0.000000

 -----------------------------------------------------------------
                    Cartesian Multipole Moments
 -----------------------------------------------------------------
    Charge (ESU x 10^10)
                -0.0000
    Dipole Moment (Debye)
         X       0.0000      Y       0.0000      Z       0.5632
       Tot       0.5632
    Quadrupole Moments (Debye-Ang)
        XX     -30.5660     XY       0.0000     YY     -32.0445
        XZ      -0.0000     YZ      -0.0000     ZZ     -30.9641
    Octopole Moments (Debye-Ang^2)
       XXX       0.0000    XXY       0.0000    XYY       0.0000
       YYY       0.0000    XXZ      -0.9796    XYZ       0.0000
       YYZ      -4.7950    XZZ       0.0000    YZZ      -0.0000
       ZZZ      -3.8887
    Hexadecapole Moments (Debye-Ang^3)
      XXXX     -34.8628   XXXY       0.0000   XXYY     -68.9119
      XYYY       0.0000   YYYY    -365.6210   XXXZ       0.0000
      XXYZ      -0.0000   XYYZ       0.0000   YYYZ      -0.0000
      XXZZ     -17.9853   XYZZ       0.0000   YYZZ     -74.4232
      XZZZ      -0.0000   YZZZ      -0.0000   ZZZZ     -73.7902
 -----------------------------------------------------------------
Archival summary:
1\1\n0066.mhg0\SP\ProcedureUnspecified\BasisUnspecified\l211\yhljason\ThuNov1220:45:322020ThuNov1220:45:322020\0\\#,ProcedureUnspecified,BasisUnspecified,\\0,1\Cl\B,1,1.74998\H,2,1.13,1,120.152\Cl,2,1.74998,1,119.696,3,-180,0\\\@

 Total job time:  21520.64s(wall), 170962.31s(cpu) 
 Thu Nov 12 20:45:32 2020

        *************************************************************
        *                                                           *
        *  Thank you very much for using Q-Chem.  Have a nice day.  *
        *                                                           *
        *************************************************************


