Q-Chem Developer Version!
                  Welcome to Q-Chem
     A Quantum Leap Into The Future Of Chemistry


 Q-Chem 5.1, Q-Chem, Inc., Pleasanton, CA (2018)

 Yihan Shao,  Zhengting Gan,  E. Epifanovsky,  A. T. B. Gilbert,  M. Wormit,  
 J. Kussmann,  A. W. Lange,  A. Behn,  Jia Deng,  Xintian Feng,  D. Ghosh,  
 M. Goldey,  P. R. Horn,  L. D. Jacobson,  I. Kaliman,  T. Kus,  A. Landau,  
 Jie Liu,  E. I. Proynov,  R. M. Richard,  R. P. Steele,  E. J. Sundstrom,  
 H. L. Woodcock III,  P. M. Zimmerman,  D. Zuev,  B. Albrecht,  E. Alguire,  
 S. A. Baeppler,  D. Barton,  Z. Benda,  Y. A. Bernard,  E. J. Berquist,  
 K. B. Bravaya,  H. Burton,  D. Casanova,  Chun-Min Chang,  Yunqing Chen,  
 A. Chien,  K. D. Closser,  M. P. Coons,  S. Coriani,  S. Dasgupta,  
 A. L. Dempwolff,  M. Diedenhofen,  Hainam Do,  R. G. Edgar,  Po-Tung Fang,  
 S. Faraji,  S. Fatehi,  Qingguo Feng,  K. D. Fenk,  J. Fosso-Tande,  
 Qinghui Ge,  A. Ghysels,  G. Gidofalvi,  J. Gomes,  J. Gonthier,  A. Gunina,  
 D. Hait,  M. W. D. Hanson-Heine,  P. H. P. Harbach,  A. W. Hauser,  
 J. E. Herr,  E. G. Hohenstein,  Z. C. Holden,  Kerwin Hui,  B. C. Huynh,  
 T.-C. Jagau,  Hyunjun Ji,  B. Kaduk,  K. Khistyaev,  Jaehoon Kim,  
 P. Klunzinger,  K. Koh,  D. Kosenkov,  L. Koulias,  T. Kowalczyk,  
 C. M. Krauter,  A. Kunitsa,  Ka Un Lao,  A. Laurent,  K. V. Lawler,  
 Joonho Lee,  D. Lefrancois,  S. Lehtola,  D. S. Levine,  Yi-Pei Li,  
 You-Sheng Lin,  Fenglai Liu,  E. Livshits,  A. Luenser,  P. Manohar,  
 E. Mansoor,  S. F. Manzer,  Shan-Ping Mao,  Yuezhi Mao,  N. Mardirossian,  
 A. V. Marenich,  T. Markovich,  L. A. Martinez-Martinez,  S. A. Maurer,  
 N. J. Mayhall,  S. C. McKenzie,  J.-M. Mewes,  A. F. Morrison,  
 J. W. Mullinax,  K. Nanda,  T. S. Nguyen-Beck,  R. Olivares-Amaya,  
 J. A. Parkhill,  T. M. Perrine,  F. Plasser,  P. Pokhilko,  S. Prager,  
 A. Prociuk,  E. Ramos,  D. R. Rehn,  F. Rob,  M. Schneider,  N. Sergueev,  
 S. M. Sharada,  S. Sharma,  D. W. Small,  T. Stauch,  T. Stein,  
 Yu-Chuan Su,  A. J. W. Thom,  A. Tkatchenko,  T. Tsuchimochi,  N. M. Tubman,  
 L. Vogt,  M. L. Vidal,  O. Vydrov,  M. A. Watson,  J. Wenzel,  
 M. de Wergifosse,  T. A. Wesolowski,  A. White,  J. Witte,  A. Yamada,  
 Jun Yang,  K. Yao,  S. Yeganeh,  S. R. Yost,  Zhi-Qiang You,  A. Zech,  
 Igor Ying Zhang,  Xing Zhang,  Yan Zhao,  Ying Zhu,  B. R. Brooks,  
 G. K. L. Chan,  C. J. Cramer,  M. S. Gordon,  W. J. Hehre,  A. Klamt,  
 M. W. Schmidt,  C. D. Sherrill,  D. G. Truhlar,  A. Aspuru-Guzik,  R. Baer,  
 A. T. Bell,  N. A. Besley,  Jeng-Da Chai,  A. E. DePrince, III,  
 R. A. DiStasio Jr.,  A. Dreuw,  B. D. Dunietz,  T. R. Furlani,  
 Chao-Ping Hsu,  Yousung Jung,  Jing Kong,  D. S. Lambrecht,  WanZhen Liang,  
 C. Ochsenfeld,  V. A. Rassolov,  L. V. Slipchenko,  J. E. Subotnik,  
 T. Van Voorhis,  J. M. Herbert,  A. I. Krylov,  P. M. W. Gill,  M. Head-Gordon

 Contributors to earlier versions of Q-Chem not listed above: 
 R. D. Adamson,  B. Austin,  J. Baker,  G. J. O. Beran,  K. Brandhorst,  
 S. T. Brown,  E. F. C. Byrd,  A. K. Chakraborty,  C.-L. Cheng,  
 Siu Hung Chien,  D. M. Chipman,  D. L. Crittenden,  H. Dachsel,  
 R. J. Doerksen,  A. D. Dutoi,  L. Fusti-Molnar,  W. A. Goddard III,  
 A. Golubeva-Zadorozhnaya,  S. R. Gwaltney,  G. Hawkins,  A. Heyden,  
 S. Hirata,  G. Kedziora,  F. J. Keil,  C. Kelley,  Jihan Kim,  R. A. King,  
 R. Z. Khaliullin,  P. P. Korambath,  W. Kurlancheek,  A. M. Lee,  M. S. Lee,  
 S. V. Levchenko,  Ching Yeh Lin,  D. Liotard,  R. C. Lochan,  I. Lotan,  
 P. E. Maslen,  N. Nair,  D. P. O'Neill,  D. Neuhauser,  E. Neuscamman,  
 C. M. Oana,  R. Olson,  B. Peters,  R. Peverati,  P. A. Pieniazek,  
 Y. M. Rhee,  J. Ritchie,  M. A. Rohrdanz,  E. Rosta,  N. J. Russ,  
 H. F. Schaefer III,  N. E. Schultz,  N. Shenvi,  A. C. Simmonett,  A. Sodt,  
 D. Stuck,  K. S. Thanthiriwatte,  V. Vanovschi,  Tao Wang,  A. Warshel,  
 C. F. Williams,  Q. Wu,  X. Xu,  W. Zhang

 Please cite Q-Chem as follows:
 Y. Shao et al., Mol. Phys. 113, 184-215 (2015)
 DOI: 10.1080/00268976.2014.952696

 Q-Chem 5.1.1 for Intel X86 EM64T Linux

 Parts of Q-Chem use Armadillo 8.300.2 (Tropical Shenanigans).
 http://arma.sourceforge.net/

 Q-Chem begins on Thu Nov 12 14:46:55 2020  

Host: n0069.mhg0
0

     Scratch files written to /local/scratch/users/yhljason/CF2_CAM-B3LYP_aug-pc-4.inp20201112144653//
Input Ideriv = 2
Curr. Ideriv = -1
Max.  Ideriv = 2

Checking the input file for inconsistencies... 	...done.

--------------------------------------------------------------
User input:
--------------------------------------------------------------
$molecule
0 1
C1      0.0000  0.0000  0.5932
F2      0.0000  1.0282  -0.1977
F3      0.0000  -1.0282 -0.1977
$end

$rem
jobtype sp
method CAM-B3LYP
xc_grid 000099000590
basis aug-pc-4
max_scf_cycles 200
thresh 14
scf_convergence 8
scf_algorithm gdm
symmetry false
sym_ignore true
unrestricted True
gen_scfman true
internal_stability_iter 15
internal_stability_davidson_iter 200
mem_total 64000
mem_static 1500
n_frozen_core 0
$end



--------------------------------------------------------------
 ----------------------------------------------------------------
             Standard Nuclear Orientation (Angstroms)
    I     Atom           X                Y                Z
 ----------------------------------------------------------------
    1      C       0.0000000000     0.0000000000     0.5932000000
    2      F       0.0000000000     1.0282000000    -0.1977000000
    3      F       0.0000000000    -1.0282000000    -0.1977000000
 ----------------------------------------------------------------
 Nuclear Repulsion Energy =    64.9013148907 hartrees
 There are       12 alpha and       12 beta electrons
 Requested basis set is aug-pc-4
 There are 99 shells and 435 basis functions

 Total QAlloc Memory Limit  64000 MB
 Mega-Array Size      1467 MB
 MEM_STATIC part      1500 MB

                       Distance Matrix (Angstroms)
             C (  1)   F (  2)
   F (  2)  1.297196
   F (  3)  1.297196  2.056400
 
 A cutoff of  1.0D-14 yielded   4859 shell pairs
 There are     95235 function pairs (    185932 Cartesian)
 
 -------------------------------------------------------
 OpenMP Integral Computing Module                       
 Release: version 1.0, May 2013, Q-Chem Inc. Pittsburgh 
 -------------------------------------------------------
 Integral Job Info:
 Integral job number is                      11
 Integral operator is                         1
 short-range coefficients              19000000
 long-range coefficients               65000000
 Omega coefficients                         330
 if combine SR and LR in K                    1
 Integral screening is                        0
 Integral computing path is                   2
 max size of driver memory is           6400000
 size of driver memory is               5498286
 size of scratch memory is             28955960
 max col of scratch BK array             194481
 max len of scratch array in speh3         5572
 max len of scratch index in speh4           72
 max int batch size is                      520
 min int batch size is                       52
 fixed nKL is                                24
 max L of basis functions is                  5
 order of int derivative is                   0
 number of shells is                         99
 number of basis is                         606
 number of cartesian basis is               606
 number of contracted shell pairs          4859
 number of primitive shell pairs          11710
 maxK2 (contraction) of shell pair          121
 max number of K2 of shell pair               1
 max number of CS2 of shell pair            441
 max number of PS2 of shell pair            671
 mem total for path MDJ                 1213232
 -------------------------------------------------------
 Smallest overlap matrix eigenvalue = 1.64E-06

 Scale SEOQF with 1.000000e-01/1.000000e-01/1.000000e-01

 Standard Electronic Orientation quadrupole field applied
 Nucleus-field energy     =     0.0000000011 hartrees
 Guess from superposition of atomic densities
 Warning:  Energy on first SCF cycle will be non-variational
 SAD guess density has 24.000000 electrons

 -----------------------------------------------------------------------
  General SCF calculation program by
  Eric Jon Sundstrom, Paul Horn, Yuezhi Mao, Dmitri Zuev, Alec White,
  David Stuck, Shaama M.S., Shane Yost, Joonho Lee, David Small,
  Daniel Levine, Susi Lehtola, Hugh Burton, Evgeny Epifanovsky
 -----------------------------------------------------------------------
 Exchange:     0.1900 Hartree-Fock + 0.3500 B88 + 0.4600 muB88 + LR-HF
 Correlation:  0.1900 VWN5 + 0.8100 LYP
 Using Euler-Maclaurin-Lebedev (99,590) quadrature formula
Running Object-Oriented UKS (UHF)
performing a single roothaan step with Fock from read density so that orbitals are available to all algorithms
energy of the guess density (C=0) -238.058231625250
We will preform up to 15 macro iterations over saddle points until a stable solution is found
Energy prior to optimization (guess energy) = -237.716566636070
Begin Timing: Total SCF Calculation
Begin Timing: SCF Single Stationary Point Calculation
begin iterations for algorithm: GDM          
the SCF tolerance is set to 1.00e-08
    1    -237.7165666361      1.30e-01     00000  Descent step
    2    -237.7345458939      1.09e-01     00000  Normal BFGS step
    3    -237.7595333554      6.54e-03     00000  Normal BFGS step
    4    -237.7598591612      1.66e-03     00000  Normal BFGS step
    5    -237.7599343419      3.15e-04     00000  Normal BFGS step
    6    -237.7599353886      5.56e-05     00000  Normal BFGS step
    7    -237.7599354789      1.34e-05     00000  Normal BFGS step
    8    -237.7599354802      1.20e-06     00000  Normal BFGS step
    9    -237.7599354803      3.88e-07     00000  Normal BFGS step
   10    -237.7599354803      5.68e-08     00000  Normal BFGS step
   11    -237.7599354803      5.82e-08     00000  Normal BFGS step
   12    -237.7599354803      4.16e-09     00000 Convergence criterion met
Timing for Single Stationary Point: 8381.00s (wall), 66503.64s (cpu)
Begin Timing: Stability
===================================================
Beginning Test for Internal Stability
===================================================
generating davidson guess vectors based on koopmans excitations
    1      6.18e-01     00000 Davidson Iteration
    2      1.57e-01     00000 Davidson Iteration
    3      4.31e-02     00000 Davidson Iteration
    4      1.18e-02     00000 Davidson Iteration
    5      2.89e-03     00000 Davidson Iteration
    6      4.97e-04     00000 Davidson Iteration
    7      1.01e-04     00000 Davidson Iteration
    8      2.08e-05     00000 Davidson Iteration
    9      3.72e-05     00000 Davidson Converged
converged_eigenvalues
   0.0824
   0.4397
Threshold for negative eigenvalues: -1.0e-05
solution was a local minimum (stable)
===================================================
End Test for Internal Stability
===================================================
Our SCF solution is stable!
Timing for Total SCF: 23273.00s (wall), 184894.31s (cpu)
 Total energy in the final basis set =     -237.7599354803
<S^2> =          0.000000000
    ==================================================
              The end of Object-Oriented SCFman       
    ==================================================
 
 --------------------------------------------------------------
 
                    Orbital Energies (a.u.)
 --------------------------------------------------------------
 
 Alpha MOs
 -- Occupied --
-24.841 -24.841 -10.462  -1.435  -1.356  -0.796  -0.690  -0.646
 -0.640  -0.565  -0.539  -0.384
 -- Virtual --
 -0.041   0.019   0.023   0.025   0.026   0.066   0.067   0.071
  0.073   0.077   0.083   0.100   0.114   0.115   0.136   0.146
  0.155   0.158   0.162   0.174   0.187   0.207   0.208   0.220
  0.225   0.225   0.243   0.250   0.262   0.292   0.297   0.300
  0.315   0.323   0.325   0.326   0.335   0.338   0.348   0.359
  0.360   0.362   0.366   0.369   0.385   0.387   0.409   0.414
  0.420   0.422   0.435   0.439   0.457   0.460   0.461   0.480
  0.487   0.496   0.531   0.541   0.548   0.549   0.572   0.572
  0.574   0.593   0.599   0.604   0.634   0.639   0.646   0.663
  0.672   0.676   0.684   0.699   0.706   0.720   0.726   0.743
  0.748   0.758   0.761   0.775   0.781   0.791   0.807   0.821
  0.821   0.837   0.861   0.869   0.904   0.907   0.915   0.917
  0.920   0.961   0.987   0.998   1.003   1.008   1.019   1.032
  1.045   1.046   1.059   1.082   1.088   1.112   1.113   1.138
  1.144   1.145   1.170   1.182   1.186   1.204   1.252   1.288
  1.291   1.308   1.310   1.324   1.326   1.330   1.333   1.336
  1.358   1.377   1.402   1.409   1.420   1.427   1.438   1.446
  1.448   1.484   1.488   1.496   1.506   1.508   1.521   1.574
  1.584   1.584   1.621   1.661   1.678   1.684   1.699   1.707
  1.707   1.732   1.776   1.814   1.936   1.973   2.060   2.077
  2.143   2.171   2.280   2.312   2.321   2.324   2.359   2.374
  2.384   2.409   2.423   2.428   2.444   2.460   2.497   2.523
  2.578   2.646   2.667   2.669   2.685   2.695   2.762   2.786
  2.793   2.816   2.856   2.881   2.894   3.011   3.015   3.031
  3.060   3.115   3.196   3.376   3.474   3.483   3.502   3.574
  3.613   3.695   3.934   3.997   4.243   4.309   4.487   4.529
  4.694   4.695   4.794   4.889   4.896   4.927   4.960   4.971
  5.045   5.081   5.130   5.355   5.369   5.488   5.496   5.538
  5.550   5.577   5.606   5.620   5.652   5.675   5.715   5.751
  5.830   5.878   5.913   6.032   6.085   6.121   6.141   6.196
  6.233   6.334   6.341   6.406   6.416   6.477   6.506   6.517
  6.568   6.640   6.654   6.727   6.778   7.109   7.152   7.153
  7.161   7.170   7.222   7.319   7.330   7.392   7.419   7.449
  7.499   7.636   7.881   8.228   8.249   8.325   8.519   8.545
  8.849   9.278   9.315   9.352   9.669  10.123  10.163  10.435
 10.449  10.517  10.521  10.567  10.800  10.857  10.875  11.058
 11.143  11.263  11.365  11.713  11.729  11.768  11.790  11.899
 11.973  11.983  12.008  12.113  12.199  12.246  12.399  12.420
 12.437  12.502  12.571  12.589  12.614  12.619  12.633  12.690
 12.732  12.809  12.818  12.819  12.819  12.844  12.864  12.903
 12.907  13.050  13.066  13.146  13.322  13.420  13.466  13.477
 13.679  13.792  13.795  13.848  13.870  13.951  14.159  14.319
 14.436  14.438  14.486  14.518  14.654  14.672  14.772  14.917
 14.948  15.078  15.138  15.270  15.281  15.284  15.319  15.339
 15.667  15.711  15.767  15.822  15.853  16.038  16.159  16.744
 16.994  17.308  17.374  17.657  17.959  18.162  18.501  20.296
 20.296  20.305  20.309  20.407  20.476  20.485  20.515  21.110
 21.174  21.183  21.307  21.558  21.597  22.333  22.380  22.382
 22.566  23.007  23.312  30.523  30.562  30.651  30.667  30.877
 30.923  30.940  31.172  31.673  31.739  32.314  32.518  32.667
 33.774  34.645  41.996  42.050  42.170  42.213  42.242  42.522
 44.484  44.860  75.112  91.617  91.644  91.703  91.714  91.867
 91.904  91.958  92.020  92.780  92.845 202.825 203.500
 
 Beta MOs
 -- Occupied --
-24.841 -24.841 -10.462  -1.435  -1.356  -0.796  -0.690  -0.646
 -0.640  -0.565  -0.539  -0.384
 -- Virtual --
 -0.041   0.019   0.023   0.025   0.026   0.066   0.067   0.071
  0.073   0.077   0.083   0.100   0.114   0.115   0.136   0.146
  0.155   0.158   0.162   0.174   0.187   0.207   0.208   0.220
  0.225   0.225   0.243   0.250   0.262   0.292   0.297   0.300
  0.315   0.323   0.325   0.326   0.335   0.338   0.348   0.359
  0.360   0.362   0.366   0.369   0.385   0.387   0.409   0.414
  0.420   0.422   0.435   0.439   0.457   0.460   0.461   0.480
  0.487   0.496   0.531   0.541   0.548   0.549   0.572   0.572
  0.574   0.593   0.599   0.604   0.634   0.639   0.646   0.663
  0.672   0.676   0.684   0.699   0.706   0.720   0.726   0.743
  0.748   0.758   0.761   0.775   0.781   0.791   0.807   0.821
  0.821   0.837   0.861   0.869   0.904   0.907   0.915   0.917
  0.920   0.961   0.987   0.998   1.003   1.008   1.019   1.032
  1.045   1.046   1.059   1.082   1.088   1.112   1.113   1.138
  1.144   1.145   1.170   1.182   1.186   1.204   1.252   1.288
  1.291   1.308   1.310   1.324   1.326   1.330   1.333   1.336
  1.358   1.377   1.402   1.409   1.420   1.427   1.438   1.446
  1.448   1.484   1.488   1.496   1.506   1.508   1.521   1.574
  1.584   1.584   1.621   1.661   1.678   1.684   1.699   1.707
  1.707   1.732   1.776   1.814   1.936   1.973   2.060   2.077
  2.143   2.171   2.280   2.312   2.321   2.324   2.359   2.374
  2.384   2.409   2.423   2.428   2.444   2.460   2.497   2.523
  2.578   2.646   2.667   2.669   2.685   2.695   2.762   2.786
  2.793   2.816   2.856   2.881   2.894   3.011   3.015   3.031
  3.060   3.115   3.196   3.376   3.474   3.483   3.502   3.574
  3.613   3.695   3.934   3.997   4.243   4.309   4.487   4.529
  4.694   4.695   4.794   4.889   4.896   4.927   4.960   4.971
  5.045   5.081   5.130   5.355   5.369   5.488   5.496   5.538
  5.550   5.577   5.606   5.620   5.652   5.675   5.715   5.751
  5.830   5.878   5.913   6.032   6.085   6.121   6.141   6.196
  6.233   6.334   6.341   6.406   6.416   6.477   6.506   6.517
  6.568   6.640   6.654   6.727   6.778   7.109   7.152   7.153
  7.161   7.170   7.222   7.319   7.330   7.392   7.419   7.449
  7.499   7.636   7.881   8.228   8.249   8.325   8.519   8.545
  8.849   9.278   9.315   9.352   9.669  10.123  10.163  10.435
 10.449  10.517  10.521  10.567  10.800  10.857  10.875  11.058
 11.143  11.263  11.365  11.713  11.729  11.768  11.790  11.899
 11.973  11.983  12.008  12.113  12.199  12.246  12.399  12.420
 12.437  12.502  12.571  12.589  12.614  12.619  12.633  12.690
 12.732  12.809  12.818  12.819  12.819  12.844  12.864  12.903
 12.907  13.050  13.066  13.146  13.322  13.420  13.466  13.477
 13.679  13.792  13.795  13.848  13.870  13.951  14.159  14.319
 14.436  14.438  14.486  14.518  14.654  14.672  14.772  14.917
 14.948  15.078  15.138  15.270  15.281  15.284  15.319  15.339
 15.667  15.711  15.767  15.822  15.853  16.038  16.159  16.744
 16.994  17.308  17.374  17.657  17.959  18.162  18.501  20.296
 20.296  20.305  20.309  20.407  20.476  20.485  20.515  21.110
 21.174  21.183  21.307  21.558  21.597  22.333  22.380  22.382
 22.566  23.007  23.312  30.523  30.562  30.651  30.667  30.877
 30.923  30.940  31.172  31.673  31.739  32.314  32.518  32.667
 33.774  34.645  41.996  42.050  42.170  42.213  42.242  42.522
 44.484  44.860  75.112  91.617  91.644  91.703  91.714  91.867
 91.904  91.958  92.020  92.780  92.845 202.825 203.500
 --------------------------------------------------------------
 
          Ground-State Mulliken Net Atomic Charges

     Atom                 Charge (a.u.)    Spin (a.u.)
  --------------------------------------------------------
      1 C                     0.417590      -0.000000
      2 F                    -0.208795      -0.000000
      3 F                    -0.208795       0.000000
  --------------------------------------------------------
  Sum of atomic charges =    -0.000000
  Sum of spin   charges =     0.000000

 -----------------------------------------------------------------
                    Cartesian Multipole Moments
 -----------------------------------------------------------------
    Charge (ESU x 10^10)
                -0.0000
    Dipole Moment (Debye)
         X       0.0000      Y       0.0000      Z      -0.6002
       Tot       0.6002
    Quadrupole Moments (Debye-Ang)
        XX     -14.5843     XY      -0.0000     YY     -16.0521
        XZ      -0.0000     YZ      -0.0000     ZZ     -17.5150
    Octopole Moments (Debye-Ang^2)
       XXX      -0.0000    XXY      -0.0000    XYY       0.0000
       YYY       0.0000    XXZ      -1.7446    XYZ      -0.0000
       YYZ      -1.6605    XZZ       0.0000    YZZ      -0.0000
       ZZZ      -8.8454
    Hexadecapole Moments (Debye-Ang^3)
      XXXX     -12.0517   XXXY      -0.0000   XXYY     -14.0933
      XYYY       0.0000   YYYY     -72.9384   XXXZ      -0.0000
      XXYZ       0.0000   XYYZ      -0.0000   YYYZ      -0.0000
      XXZZ      -7.4394   XYZZ       0.0000   YYZZ     -16.9245
      XZZZ      -0.0000   YZZZ       0.0000   ZZZZ     -36.2230
 -----------------------------------------------------------------
Archival summary:
1\1\n0069.mhg0\SP\ProcedureUnspecified\BasisUnspecified\21\yhljason\ThuNov1221:27:242020ThuNov1221:27:242020\0\\#,ProcedureUnspecified,BasisUnspecified,\\0,1\C\F,1,1.2972\F,1,1.2972,2,104.864\\\@

 Total job time:  24028.46s(wall), 190806.16s(cpu) 
 Thu Nov 12 21:27:24 2020

        *************************************************************
        *                                                           *
        *  Thank you very much for using Q-Chem.  Have a nice day.  *
        *                                                           *
        *************************************************************


