Q-Chem Developer Version!
                  Welcome to Q-Chem
     A Quantum Leap Into The Future Of Chemistry


 Q-Chem 5.1, Q-Chem, Inc., Pleasanton, CA (2018)

 Yihan Shao,  Zhengting Gan,  E. Epifanovsky,  A. T. B. Gilbert,  M. Wormit,  
 J. Kussmann,  A. W. Lange,  A. Behn,  Jia Deng,  Xintian Feng,  D. Ghosh,  
 M. Goldey,  P. R. Horn,  L. D. Jacobson,  I. Kaliman,  T. Kus,  A. Landau,  
 Jie Liu,  E. I. Proynov,  R. M. Richard,  R. P. Steele,  E. J. Sundstrom,  
 H. L. Woodcock III,  P. M. Zimmerman,  D. Zuev,  B. Albrecht,  E. Alguire,  
 S. A. Baeppler,  D. Barton,  Z. Benda,  Y. A. Bernard,  E. J. Berquist,  
 K. B. Bravaya,  H. Burton,  D. Casanova,  Chun-Min Chang,  Yunqing Chen,  
 A. Chien,  K. D. Closser,  M. P. Coons,  S. Coriani,  S. Dasgupta,  
 A. L. Dempwolff,  M. Diedenhofen,  Hainam Do,  R. G. Edgar,  Po-Tung Fang,  
 S. Faraji,  S. Fatehi,  Qingguo Feng,  K. D. Fenk,  J. Fosso-Tande,  
 Qinghui Ge,  A. Ghysels,  G. Gidofalvi,  J. Gomes,  J. Gonthier,  A. Gunina,  
 D. Hait,  M. W. D. Hanson-Heine,  P. H. P. Harbach,  A. W. Hauser,  
 J. E. Herr,  E. G. Hohenstein,  Z. C. Holden,  Kerwin Hui,  B. C. Huynh,  
 T.-C. Jagau,  Hyunjun Ji,  B. Kaduk,  K. Khistyaev,  Jaehoon Kim,  
 P. Klunzinger,  K. Koh,  D. Kosenkov,  L. Koulias,  T. Kowalczyk,  
 C. M. Krauter,  A. Kunitsa,  Ka Un Lao,  A. Laurent,  K. V. Lawler,  
 Joonho Lee,  D. Lefrancois,  S. Lehtola,  D. S. Levine,  Yi-Pei Li,  
 You-Sheng Lin,  Fenglai Liu,  E. Livshits,  A. Luenser,  P. Manohar,  
 E. Mansoor,  S. F. Manzer,  Shan-Ping Mao,  Yuezhi Mao,  N. Mardirossian,  
 A. V. Marenich,  T. Markovich,  L. A. Martinez-Martinez,  S. A. Maurer,  
 N. J. Mayhall,  S. C. McKenzie,  J.-M. Mewes,  A. F. Morrison,  
 J. W. Mullinax,  K. Nanda,  T. S. Nguyen-Beck,  R. Olivares-Amaya,  
 J. A. Parkhill,  T. M. Perrine,  F. Plasser,  P. Pokhilko,  S. Prager,  
 A. Prociuk,  E. Ramos,  D. R. Rehn,  F. Rob,  M. Schneider,  N. Sergueev,  
 S. M. Sharada,  S. Sharma,  D. W. Small,  T. Stauch,  T. Stein,  
 Yu-Chuan Su,  A. J. W. Thom,  A. Tkatchenko,  T. Tsuchimochi,  N. M. Tubman,  
 L. Vogt,  M. L. Vidal,  O. Vydrov,  M. A. Watson,  J. Wenzel,  
 M. de Wergifosse,  T. A. Wesolowski,  A. White,  J. Witte,  A. Yamada,  
 Jun Yang,  K. Yao,  S. Yeganeh,  S. R. Yost,  Zhi-Qiang You,  A. Zech,  
 Igor Ying Zhang,  Xing Zhang,  Yan Zhao,  Ying Zhu,  B. R. Brooks,  
 G. K. L. Chan,  C. J. Cramer,  M. S. Gordon,  W. J. Hehre,  A. Klamt,  
 M. W. Schmidt,  C. D. Sherrill,  D. G. Truhlar,  A. Aspuru-Guzik,  R. Baer,  
 A. T. Bell,  N. A. Besley,  Jeng-Da Chai,  A. E. DePrince, III,  
 R. A. DiStasio Jr.,  A. Dreuw,  B. D. Dunietz,  T. R. Furlani,  
 Chao-Ping Hsu,  Yousung Jung,  Jing Kong,  D. S. Lambrecht,  WanZhen Liang,  
 C. Ochsenfeld,  V. A. Rassolov,  L. V. Slipchenko,  J. E. Subotnik,  
 T. Van Voorhis,  J. M. Herbert,  A. I. Krylov,  P. M. W. Gill,  M. Head-Gordon

 Contributors to earlier versions of Q-Chem not listed above: 
 R. D. Adamson,  B. Austin,  J. Baker,  G. J. O. Beran,  K. Brandhorst,  
 S. T. Brown,  E. F. C. Byrd,  A. K. Chakraborty,  C.-L. Cheng,  
 Siu Hung Chien,  D. M. Chipman,  D. L. Crittenden,  H. Dachsel,  
 R. J. Doerksen,  A. D. Dutoi,  L. Fusti-Molnar,  W. A. Goddard III,  
 A. Golubeva-Zadorozhnaya,  S. R. Gwaltney,  G. Hawkins,  A. Heyden,  
 S. Hirata,  G. Kedziora,  F. J. Keil,  C. Kelley,  Jihan Kim,  R. A. King,  
 R. Z. Khaliullin,  P. P. Korambath,  W. Kurlancheek,  A. M. Lee,  M. S. Lee,  
 S. V. Levchenko,  Ching Yeh Lin,  D. Liotard,  R. C. Lochan,  I. Lotan,  
 P. E. Maslen,  N. Nair,  D. P. O'Neill,  D. Neuhauser,  E. Neuscamman,  
 C. M. Oana,  R. Olson,  B. Peters,  R. Peverati,  P. A. Pieniazek,  
 Y. M. Rhee,  J. Ritchie,  M. A. Rohrdanz,  E. Rosta,  N. J. Russ,  
 H. F. Schaefer III,  N. E. Schultz,  N. Shenvi,  A. C. Simmonett,  A. Sodt,  
 D. Stuck,  K. S. Thanthiriwatte,  V. Vanovschi,  Tao Wang,  A. Warshel,  
 C. F. Williams,  Q. Wu,  X. Xu,  W. Zhang

 Please cite Q-Chem as follows:
 Y. Shao et al., Mol. Phys. 113, 184-215 (2015)
 DOI: 10.1080/00268976.2014.952696

 Q-Chem 5.1.1 for Intel X86 EM64T Linux

 Parts of Q-Chem use Armadillo 8.300.2 (Tropical Shenanigans).
 http://arma.sourceforge.net/

 Q-Chem begins on Thu Nov 12 14:47:00 2020  

Host: n0079.mhg0
0

     Scratch files written to /local/scratch/users/yhljason/CF2_wB97X-V_aug-pc-4.inp20201112144658//
Input Ideriv = 2
Curr. Ideriv = -1
Max.  Ideriv = 2
Input Ideriv = 1
Curr. Ideriv = 2
Max.  Ideriv = 1

Checking the input file for inconsistencies... 	...done.

--------------------------------------------------------------
User input:
--------------------------------------------------------------
$molecule
0 1
C1      0.0000  0.0000  0.5932
F2      0.0000  1.0282  -0.1977
F3      0.0000  -1.0282 -0.1977
$end

$rem
jobtype sp
method wB97X-V
xc_grid 000099000590
basis aug-pc-4
max_scf_cycles 200
thresh 14
scf_convergence 8
scf_algorithm gdm
symmetry false
sym_ignore true
unrestricted True
gen_scfman true
internal_stability_iter 15
internal_stability_davidson_iter 200
mem_total 64000
mem_static 1500
n_frozen_core 0
$end



--------------------------------------------------------------
 ----------------------------------------------------------------
             Standard Nuclear Orientation (Angstroms)
    I     Atom           X                Y                Z
 ----------------------------------------------------------------
    1      C       0.0000000000     0.0000000000     0.5932000000
    2      F       0.0000000000     1.0282000000    -0.1977000000
    3      F       0.0000000000    -1.0282000000    -0.1977000000
 ----------------------------------------------------------------
 Nuclear Repulsion Energy =    64.9013148907 hartrees
 There are       12 alpha and       12 beta electrons
 Requested basis set is aug-pc-4
 There are 99 shells and 435 basis functions

 Total QAlloc Memory Limit  64000 MB
 Mega-Array Size      1467 MB
 MEM_STATIC part      1500 MB

                       Distance Matrix (Angstroms)
             C (  1)   F (  2)
   F (  2)  1.297196
   F (  3)  1.297196  2.056400
 
 A cutoff of  1.0D-14 yielded   4859 shell pairs
 There are     95235 function pairs (    185932 Cartesian)
 
 -------------------------------------------------------
 OpenMP Integral Computing Module                       
 Release: version 1.0, May 2013, Q-Chem Inc. Pittsburgh 
 -------------------------------------------------------
 Integral Job Info:
 Integral job number is                      11
 Integral operator is                         1
 short-range coefficients              16700000
 long-range coefficients              100000000
 Omega coefficients                         300
 if combine SR and LR in K                    1
 Integral screening is                        0
 Integral computing path is                   2
 max size of driver memory is           6400000
 size of driver memory is               5498286
 size of scratch memory is             28955960
 max col of scratch BK array             194481
 max len of scratch array in speh3         5572
 max len of scratch index in speh4           72
 max int batch size is                      520
 min int batch size is                       52
 fixed nKL is                                24
 max L of basis functions is                  5
 order of int derivative is                   0
 number of shells is                         99
 number of basis is                         606
 number of cartesian basis is               606
 number of contracted shell pairs          4859
 number of primitive shell pairs          11710
 maxK2 (contraction) of shell pair          121
 max number of K2 of shell pair               1
 max number of CS2 of shell pair            441
 max number of PS2 of shell pair            671
 mem total for path MDJ                 1213232
 -------------------------------------------------------
 Smallest overlap matrix eigenvalue = 1.64E-06

 Scale SEOQF with 1.000000e-01/1.000000e-01/1.000000e-01

 Standard Electronic Orientation quadrupole field applied
 Nucleus-field energy     =     0.0000000011 hartrees
 Guess from superposition of atomic densities
 Warning:  Energy on first SCF cycle will be non-variational
 SAD guess density has 24.000000 electrons

 -----------------------------------------------------------------------
  General SCF calculation program by
  Eric Jon Sundstrom, Paul Horn, Yuezhi Mao, Dmitri Zuev, Alec White,
  David Stuck, Shaama M.S., Shane Yost, Joonho Lee, David Small,
  Daniel Levine, Susi Lehtola, Hugh Burton, Evgeny Epifanovsky
 -----------------------------------------------------------------------
 Exchange:     0.1670 Hartree-Fock + 1.0000 wB97X-V + LR-HF
 Correlation:  1.0000 wB97X-V
 Using Euler-Maclaurin-Lebedev (99,590) quadrature formula
 Nonlocal Correlation:  VV10 with C = 0.0100 and b = 6.00 and scale = 1.00000
 Grid used for NLC:  SG-1 standard quadrature
Running Object-Oriented UKS (UHF)
performing a single roothaan step with Fock from read density so that orbitals are available to all algorithms
 Nonlocal correlation = 0.100212368744
energy of the guess density (C=0) -238.019606521712
 Nonlocal correlation = 0.100899831352
We will preform up to 15 macro iterations over saddle points until a stable solution is found
Energy prior to optimization (guess energy) = -237.693447334654
Begin Timing: Total SCF Calculation
Begin Timing: SCF Single Stationary Point Calculation
begin iterations for algorithm: GDM          
the SCF tolerance is set to 1.00e-08
 Nonlocal correlation = 1.004220855848e-01
    1    -237.6934473347      1.26e-01     00000  Descent step
 Nonlocal correlation = 1.006733878655e-01
    2    -237.7269994727      7.16e-02     00000  Normal BFGS step
 Nonlocal correlation = 1.006250327661e-01
    3    -237.7429971273      5.41e-03     00000  Normal BFGS step
 Nonlocal correlation = 1.006330563928e-01
    4    -237.7434206208      1.70e-03     00000  Normal BFGS step
 Nonlocal correlation = 1.006330232914e-01
    5    -237.7434893492      3.31e-04     00000  Normal BFGS step
 Nonlocal correlation = 1.006331245122e-01
    6    -237.7434910971      9.62e-05     00000  Normal BFGS step
 Nonlocal correlation = 1.006330524323e-01
    7    -237.7434912105      1.02e-05     00000  Normal BFGS step
 Nonlocal correlation = 1.006330580143e-01
    8    -237.7434912128      2.58e-06     00000  Normal BFGS step
 Nonlocal correlation = 1.006330608931e-01
    9    -237.7434912129      6.73e-07     00000  Normal BFGS step
 Nonlocal correlation = 1.006330608989e-01
   10    -237.7434912129      1.39e-07     00000  Normal BFGS step
 Nonlocal correlation = 1.006330609713e-01
   11    -237.7434912129      4.37e-08     00000  Normal BFGS step
 Nonlocal correlation = 1.006330609337e-01
   12    -237.7434912129      1.30e-08     00000  Normal BFGS step
 Nonlocal correlation = 1.006330609429e-01
   13    -237.7434912129      3.93e-09     00000 Convergence criterion met
Timing for Single Stationary Point: 9031.00s (wall), 71694.90s (cpu)
Begin Timing: Stability
===================================================
Beginning Test for Internal Stability
===================================================
generating davidson guess vectors based on koopmans excitations
computing hessian-vector products by finite difference
 Nonlocal correlation = 0.100633060849
 Nonlocal correlation = 0.100633061032
 Nonlocal correlation = 0.100633060972
 Nonlocal correlation = 0.100633060909
 Nonlocal correlation = 0.100633060943
    1      6.15e-01     00000 Davidson Iteration
computing hessian-vector products by finite difference
 Nonlocal correlation = 1.006330603686e-01
 Nonlocal correlation = 1.006330615165e-01
 Nonlocal correlation = 1.006330599728e-01
 Nonlocal correlation = 1.006330618958e-01
 Nonlocal correlation = 1.006330609429e-01
    2      1.47e-01     00000 Davidson Iteration
computing hessian-vector products by finite difference
 Nonlocal correlation = 1.006330616614e-01
 Nonlocal correlation = 1.006330568392e-01
 Nonlocal correlation = 1.006330463793e-01
 Nonlocal correlation = 1.006330754740e-01
 Nonlocal correlation = 1.006330609429e-01
    3      6.69e-02     00000 Davidson Iteration
computing hessian-vector products by finite difference
 Nonlocal correlation = 1.006330742786e-01
 Nonlocal correlation = 1.006330442338e-01
 Nonlocal correlation = 1.006329276918e-01
 Nonlocal correlation = 1.006331941888e-01
 Nonlocal correlation = 1.006330609429e-01
    4      2.99e-02     00000 Davidson Iteration
computing hessian-vector products by finite difference
 Nonlocal correlation = 1.006330457764e-01
 Nonlocal correlation = 1.006330760886e-01
 Nonlocal correlation = 1.006331479709e-01
 Nonlocal correlation = 1.006329739052e-01
 Nonlocal correlation = 1.006330609429e-01
    5      5.91e-03     00000 Davidson Iteration
computing hessian-vector products by finite difference
 Nonlocal correlation = 1.006328105014e-01
 Nonlocal correlation = 1.006333080252e-01
 Nonlocal correlation = 1.006330261120e-01
 Nonlocal correlation = 1.006330923971e-01
 Nonlocal correlation = 1.006330609429e-01
    6      1.51e-03     00000 Davidson Iteration
computing hessian-vector products by finite difference
 Nonlocal correlation = 1.006332013358e-01
 Nonlocal correlation = 1.006329171957e-01
 Nonlocal correlation = 1.006329536448e-01
 Nonlocal correlation = 1.006331648707e-01
 Nonlocal correlation = 1.006330609429e-01
    7      2.96e-04     00000 Davidson Iteration
computing hessian-vector products by finite difference
 Nonlocal correlation = 1.006330708866e-01
 Nonlocal correlation = 1.006330476509e-01
 Nonlocal correlation = 1.006331328495e-01
 Nonlocal correlation = 1.006329856812e-01
 Nonlocal correlation = 1.006330609429e-01
    8      5.20e-04     00000 Davidson Converged
converged_eigenvalues
   0.1119
   0.4418
Threshold for negative eigenvalues: -1.0e-05
solution was a local minimum (stable)
===================================================
End Test for Internal Stability
===================================================
Our SCF solution is stable!
Timing for Total SCF: 35429.00s (wall), 281450.38s (cpu)
 Total energy in the final basis set =     -237.7434912129
<S^2> =         -0.000000000
    ==================================================
              The end of Object-Oriented SCFman       
    ==================================================
 
 --------------------------------------------------------------
 
                    Orbital Energies (a.u.)
 --------------------------------------------------------------
 
 Alpha MOs
 -- Occupied --
-24.842 -24.842 -10.479  -1.478  -1.400  -0.837  -0.726  -0.683
 -0.678  -0.600  -0.574  -0.420
 -- Virtual --
  0.007   0.032   0.034   0.036   0.040   0.078   0.079   0.083
  0.086   0.091   0.102   0.121   0.129   0.136   0.158   0.170
  0.173   0.178   0.182   0.196   0.211   0.229   0.232   0.245
  0.249   0.253   0.268   0.275   0.295   0.319   0.324   0.328
  0.346   0.349   0.350   0.356   0.360   0.367   0.374   0.383
  0.389   0.390   0.396   0.400   0.413   0.418   0.432   0.437
  0.440   0.449   0.456   0.462   0.481   0.490   0.493   0.514
  0.524   0.531   0.567   0.568   0.581   0.582   0.599   0.599
  0.606   0.620   0.635   0.636   0.662   0.669   0.677   0.693
  0.709   0.711   0.723   0.734   0.738   0.758   0.766   0.781
  0.786   0.790   0.801   0.809   0.821   0.832   0.846   0.859
  0.861   0.878   0.903   0.909   0.942   0.951   0.957   0.958
  0.960   1.003   1.029   1.041   1.046   1.051   1.063   1.073
  1.088   1.089   1.102   1.124   1.132   1.155   1.156   1.181
  1.187   1.188   1.213   1.224   1.232   1.248   1.296   1.329
  1.333   1.352   1.353   1.367   1.370   1.376   1.377   1.380
  1.403   1.421   1.446   1.452   1.463   1.472   1.484   1.491
  1.492   1.527   1.535   1.539   1.549   1.553   1.563   1.619
  1.628   1.629   1.664   1.707   1.721   1.727   1.746   1.751
  1.755   1.776   1.822   1.864   1.983   2.018   2.105   2.123
  2.193   2.218   2.326   2.358   2.368   2.371   2.406   2.423
  2.433   2.456   2.471   2.474   2.493   2.509   2.548   2.571
  2.627   2.697   2.719   2.720   2.738   2.745   2.813   2.836
  2.843   2.865   2.905   2.932   2.943   3.066   3.066   3.082
  3.111   3.165   3.247   3.427   3.523   3.532   3.555   3.623
  3.666   3.743   3.981   4.042   4.282   4.350   4.530   4.571
  4.736   4.736   4.838   4.930   4.945   4.969   5.006   5.020
  5.090   5.125   5.171   5.399   5.413   5.534   5.539   5.583
  5.597   5.621   5.654   5.664   5.697   5.721   5.763   5.796
  5.883   5.932   5.960   6.084   6.136   6.169   6.190   6.246
  6.282   6.386   6.399   6.448   6.459   6.521   6.557   6.558
  6.612   6.681   6.712   6.770   6.819   7.151   7.193   7.195
  7.201   7.211   7.264   7.360   7.371   7.433   7.461   7.491
  7.540   7.676   7.922   8.268   8.289   8.364   8.567   8.588
  8.893   9.320   9.356   9.394   9.708  10.173  10.213  10.484
 10.502  10.568  10.575  10.612  10.834  10.895  10.924  11.096
 11.188  11.305  11.404  11.791  11.795  11.845  11.875  11.943
 12.016  12.030  12.055  12.162  12.240  12.293  12.441  12.463
 12.480  12.545  12.612  12.631  12.659  12.673  12.673  12.734
 12.773  12.846  12.855  12.855  12.856  12.881  12.900  12.943
 12.950  13.088  13.108  13.187  13.369  13.464  13.506  13.514
 13.726  13.834  13.839  13.894  13.910  13.993  14.196  14.364
 14.479  14.491  14.530  14.572  14.713  14.715  14.827  14.963
 14.992  15.128  15.179  15.304  15.318  15.320  15.355  15.385
 15.701  15.754  15.801  15.856  15.894  16.077  16.199  16.801
 17.030  17.345  17.413  17.701  17.998  18.204  18.538  20.325
 20.326  20.335  20.338  20.437  20.505  20.515  20.545  21.140
 21.204  21.213  21.340  21.598  21.640  22.365  22.412  22.415
 22.597  23.046  23.354  30.607  30.646  30.735  30.751  30.963
 31.008  31.024  31.256  31.755  31.818  32.378  32.581  32.732
 33.838  34.707  42.017  42.071  42.195  42.235  42.291  42.573
 44.521  44.899  75.156  91.666  91.694  91.753  91.763  91.916
 91.953  92.007  92.069  92.828  92.893 202.845 203.519
 
 Beta MOs
 -- Occupied --
-24.842 -24.842 -10.479  -1.478  -1.400  -0.837  -0.726  -0.683
 -0.678  -0.600  -0.574  -0.420
 -- Virtual --
  0.007   0.032   0.034   0.036   0.040   0.078   0.079   0.083
  0.086   0.091   0.102   0.121   0.129   0.136   0.158   0.170
  0.173   0.178   0.182   0.196   0.211   0.229   0.232   0.245
  0.249   0.253   0.268   0.275   0.295   0.319   0.324   0.328
  0.346   0.349   0.350   0.356   0.360   0.367   0.374   0.383
  0.389   0.390   0.396   0.400   0.413   0.418   0.432   0.437
  0.440   0.449   0.456   0.462   0.481   0.490   0.493   0.514
  0.524   0.531   0.567   0.568   0.581   0.582   0.599   0.599
  0.606   0.620   0.635   0.636   0.662   0.669   0.677   0.693
  0.709   0.711   0.723   0.734   0.738   0.758   0.766   0.781
  0.786   0.790   0.801   0.809   0.821   0.832   0.846   0.859
  0.861   0.878   0.903   0.909   0.942   0.951   0.957   0.958
  0.960   1.003   1.029   1.041   1.046   1.051   1.063   1.073
  1.088   1.089   1.102   1.124   1.132   1.155   1.156   1.181
  1.187   1.188   1.213   1.224   1.232   1.248   1.296   1.329
  1.333   1.352   1.353   1.367   1.370   1.376   1.377   1.380
  1.403   1.421   1.446   1.452   1.463   1.472   1.484   1.491
  1.492   1.527   1.535   1.539   1.549   1.553   1.563   1.619
  1.628   1.629   1.664   1.707   1.721   1.727   1.746   1.751
  1.755   1.776   1.822   1.864   1.983   2.018   2.105   2.123
  2.193   2.218   2.326   2.358   2.368   2.371   2.406   2.423
  2.433   2.456   2.471   2.474   2.493   2.509   2.548   2.571
  2.627   2.697   2.719   2.720   2.738   2.745   2.813   2.836
  2.843   2.865   2.905   2.932   2.943   3.066   3.066   3.082
  3.111   3.165   3.247   3.427   3.523   3.532   3.555   3.623
  3.666   3.743   3.981   4.042   4.282   4.350   4.530   4.571
  4.736   4.736   4.838   4.930   4.945   4.969   5.006   5.020
  5.090   5.125   5.171   5.399   5.413   5.534   5.539   5.583
  5.597   5.621   5.654   5.664   5.697   5.721   5.763   5.796
  5.883   5.932   5.960   6.084   6.136   6.169   6.190   6.246
  6.282   6.386   6.399   6.448   6.459   6.521   6.557   6.558
  6.612   6.681   6.712   6.770   6.819   7.151   7.193   7.195
  7.201   7.211   7.264   7.360   7.371   7.433   7.461   7.491
  7.540   7.676   7.922   8.268   8.289   8.364   8.567   8.588
  8.893   9.320   9.356   9.394   9.708  10.173  10.213  10.484
 10.502  10.568  10.575  10.612  10.834  10.895  10.924  11.096
 11.188  11.305  11.404  11.791  11.795  11.845  11.875  11.943
 12.016  12.030  12.055  12.162  12.240  12.293  12.441  12.463
 12.480  12.545  12.612  12.631  12.659  12.673  12.673  12.734
 12.773  12.846  12.855  12.855  12.856  12.881  12.900  12.943
 12.950  13.088  13.108  13.187  13.369  13.464  13.506  13.514
 13.726  13.834  13.839  13.894  13.910  13.993  14.196  14.364
 14.479  14.491  14.530  14.572  14.713  14.715  14.827  14.963
 14.992  15.128  15.179  15.304  15.318  15.320  15.355  15.385
 15.701  15.754  15.801  15.856  15.894  16.077  16.199  16.801
 17.030  17.345  17.413  17.701  17.998  18.204  18.538  20.325
 20.326  20.335  20.338  20.437  20.505  20.515  20.545  21.140
 21.204  21.213  21.340  21.598  21.640  22.365  22.412  22.415
 22.597  23.046  23.354  30.607  30.646  30.735  30.751  30.963
 31.008  31.024  31.256  31.755  31.818  32.378  32.581  32.732
 33.838  34.707  42.017  42.071  42.195  42.235  42.291  42.573
 44.521  44.899  75.156  91.666  91.694  91.753  91.763  91.916
 91.953  92.007  92.069  92.828  92.893 202.845 203.519
 --------------------------------------------------------------
 
          Ground-State Mulliken Net Atomic Charges

     Atom                 Charge (a.u.)    Spin (a.u.)
  --------------------------------------------------------
      1 C                     0.276078       0.000000
      2 F                    -0.138039       0.000000
      3 F                    -0.138039      -0.000000
  --------------------------------------------------------
  Sum of atomic charges =    -0.000000
  Sum of spin   charges =    -0.000000

 -----------------------------------------------------------------
                    Cartesian Multipole Moments
 -----------------------------------------------------------------
    Charge (ESU x 10^10)
                -0.0000
    Dipole Moment (Debye)
         X       0.0000      Y      -0.0000      Z      -0.6324
       Tot       0.6324
    Quadrupole Moments (Debye-Ang)
        XX     -14.5429     XY       0.0000     YY     -15.9531
        XZ       0.0000     YZ       0.0000     ZZ     -17.4868
    Octopole Moments (Debye-Ang^2)
       XXX       0.0000    XXY       0.0000    XYY       0.0000
       YYY      -0.0000    XXZ      -1.7492    XYZ       0.0000
       YYZ      -1.6917    XZZ       0.0000    YZZ       0.0000
       ZZZ      -8.9010
    Hexadecapole Moments (Debye-Ang^3)
      XXXX     -11.8821   XXXY       0.0000   XXYY     -13.9906
      XYYY       0.0000   YYYY     -72.4067   XXXZ       0.0000
      XXYZ      -0.0000   XYYZ       0.0000   YYYZ       0.0000
      XXZZ      -7.3736   XYZZ      -0.0000   YYZZ     -16.8044
      XZZZ       0.0000   YZZZ      -0.0000   ZZZZ     -36.0569
 -----------------------------------------------------------------
Archival summary:
1\1\n0079.mhg0\SP\ProcedureUnspecified\BasisUnspecified\21\yhljason\FriNov1300:50:062020FriNov1300:50:062020\0\\#,ProcedureUnspecified,BasisUnspecified,\\0,1\C\F,1,1.2972\F,1,1.2972,2,104.864\\\@

 Total job time:  36185.39s(wall), 287379.08s(cpu) 
 Fri Nov 13 00:50:06 2020

        *************************************************************
        *                                                           *
        *  Thank you very much for using Q-Chem.  Have a nice day.  *
        *                                                           *
        *************************************************************


