Q-Chem Developer Version!
                  Welcome to Q-Chem
     A Quantum Leap Into The Future Of Chemistry


 Q-Chem 5.1, Q-Chem, Inc., Pleasanton, CA (2018)

 Yihan Shao,  Zhengting Gan,  E. Epifanovsky,  A. T. B. Gilbert,  M. Wormit,  
 J. Kussmann,  A. W. Lange,  A. Behn,  Jia Deng,  Xintian Feng,  D. Ghosh,  
 M. Goldey,  P. R. Horn,  L. D. Jacobson,  I. Kaliman,  T. Kus,  A. Landau,  
 Jie Liu,  E. I. Proynov,  R. M. Richard,  R. P. Steele,  E. J. Sundstrom,  
 H. L. Woodcock III,  P. M. Zimmerman,  D. Zuev,  B. Albrecht,  E. Alguire,  
 S. A. Baeppler,  D. Barton,  Z. Benda,  Y. A. Bernard,  E. J. Berquist,  
 K. B. Bravaya,  H. Burton,  D. Casanova,  Chun-Min Chang,  Yunqing Chen,  
 A. Chien,  K. D. Closser,  M. P. Coons,  S. Coriani,  S. Dasgupta,  
 A. L. Dempwolff,  M. Diedenhofen,  Hainam Do,  R. G. Edgar,  Po-Tung Fang,  
 S. Faraji,  S. Fatehi,  Qingguo Feng,  K. D. Fenk,  J. Fosso-Tande,  
 Qinghui Ge,  A. Ghysels,  G. Gidofalvi,  J. Gomes,  J. Gonthier,  A. Gunina,  
 D. Hait,  M. W. D. Hanson-Heine,  P. H. P. Harbach,  A. W. Hauser,  
 J. E. Herr,  E. G. Hohenstein,  Z. C. Holden,  Kerwin Hui,  B. C. Huynh,  
 T.-C. Jagau,  Hyunjun Ji,  B. Kaduk,  K. Khistyaev,  Jaehoon Kim,  
 P. Klunzinger,  K. Koh,  D. Kosenkov,  L. Koulias,  T. Kowalczyk,  
 C. M. Krauter,  A. Kunitsa,  Ka Un Lao,  A. Laurent,  K. V. Lawler,  
 Joonho Lee,  D. Lefrancois,  S. Lehtola,  D. S. Levine,  Yi-Pei Li,  
 You-Sheng Lin,  Fenglai Liu,  E. Livshits,  A. Luenser,  P. Manohar,  
 E. Mansoor,  S. F. Manzer,  Shan-Ping Mao,  Yuezhi Mao,  N. Mardirossian,  
 A. V. Marenich,  T. Markovich,  L. A. Martinez-Martinez,  S. A. Maurer,  
 N. J. Mayhall,  S. C. McKenzie,  J.-M. Mewes,  A. F. Morrison,  
 J. W. Mullinax,  K. Nanda,  T. S. Nguyen-Beck,  R. Olivares-Amaya,  
 J. A. Parkhill,  T. M. Perrine,  F. Plasser,  P. Pokhilko,  S. Prager,  
 A. Prociuk,  E. Ramos,  D. R. Rehn,  F. Rob,  M. Schneider,  N. Sergueev,  
 S. M. Sharada,  S. Sharma,  D. W. Small,  T. Stauch,  T. Stein,  
 Yu-Chuan Su,  A. J. W. Thom,  A. Tkatchenko,  T. Tsuchimochi,  N. M. Tubman,  
 L. Vogt,  M. L. Vidal,  O. Vydrov,  M. A. Watson,  J. Wenzel,  
 M. de Wergifosse,  T. A. Wesolowski,  A. White,  J. Witte,  A. Yamada,  
 Jun Yang,  K. Yao,  S. Yeganeh,  S. R. Yost,  Zhi-Qiang You,  A. Zech,  
 Igor Ying Zhang,  Xing Zhang,  Yan Zhao,  Ying Zhu,  B. R. Brooks,  
 G. K. L. Chan,  C. J. Cramer,  M. S. Gordon,  W. J. Hehre,  A. Klamt,  
 M. W. Schmidt,  C. D. Sherrill,  D. G. Truhlar,  A. Aspuru-Guzik,  R. Baer,  
 A. T. Bell,  N. A. Besley,  Jeng-Da Chai,  A. E. DePrince, III,  
 R. A. DiStasio Jr.,  A. Dreuw,  B. D. Dunietz,  T. R. Furlani,  
 Chao-Ping Hsu,  Yousung Jung,  Jing Kong,  D. S. Lambrecht,  WanZhen Liang,  
 C. Ochsenfeld,  V. A. Rassolov,  L. V. Slipchenko,  J. E. Subotnik,  
 T. Van Voorhis,  J. M. Herbert,  A. I. Krylov,  P. M. W. Gill,  M. Head-Gordon

 Contributors to earlier versions of Q-Chem not listed above: 
 R. D. Adamson,  B. Austin,  J. Baker,  G. J. O. Beran,  K. Brandhorst,  
 S. T. Brown,  E. F. C. Byrd,  A. K. Chakraborty,  C.-L. Cheng,  
 Siu Hung Chien,  D. M. Chipman,  D. L. Crittenden,  H. Dachsel,  
 R. J. Doerksen,  A. D. Dutoi,  L. Fusti-Molnar,  W. A. Goddard III,  
 A. Golubeva-Zadorozhnaya,  S. R. Gwaltney,  G. Hawkins,  A. Heyden,  
 S. Hirata,  G. Kedziora,  F. J. Keil,  C. Kelley,  Jihan Kim,  R. A. King,  
 R. Z. Khaliullin,  P. P. Korambath,  W. Kurlancheek,  A. M. Lee,  M. S. Lee,  
 S. V. Levchenko,  Ching Yeh Lin,  D. Liotard,  R. C. Lochan,  I. Lotan,  
 P. E. Maslen,  N. Nair,  D. P. O'Neill,  D. Neuhauser,  E. Neuscamman,  
 C. M. Oana,  R. Olson,  B. Peters,  R. Peverati,  P. A. Pieniazek,  
 Y. M. Rhee,  J. Ritchie,  M. A. Rohrdanz,  E. Rosta,  N. J. Russ,  
 H. F. Schaefer III,  N. E. Schultz,  N. Shenvi,  A. C. Simmonett,  A. Sodt,  
 D. Stuck,  K. S. Thanthiriwatte,  V. Vanovschi,  Tao Wang,  A. Warshel,  
 C. F. Williams,  Q. Wu,  X. Xu,  W. Zhang

 Please cite Q-Chem as follows:
 Y. Shao et al., Mol. Phys. 113, 184-215 (2015)
 DOI: 10.1080/00268976.2014.952696

 Q-Chem 5.1.1 for Intel X86 EM64T Linux

 Parts of Q-Chem use Armadillo 8.300.2 (Tropical Shenanigans).
 http://arma.sourceforge.net/

 Q-Chem begins on Thu Nov 12 14:46:54 2020  

Host: n0069.mhg0
0

     Scratch files written to /local/scratch/users/yhljason/CF2_BLYP_aug-pc-4.inp20201112144653//
Input Ideriv = 2
Curr. Ideriv = -1
Max.  Ideriv = 2

Checking the input file for inconsistencies... 	...done.

--------------------------------------------------------------
User input:
--------------------------------------------------------------
$molecule
0 1
C1      0.0000  0.0000  0.5932
F2      0.0000  1.0282  -0.1977
F3      0.0000  -1.0282 -0.1977
$end

$rem
jobtype sp
method BLYP
xc_grid 000099000590
basis aug-pc-4
max_scf_cycles 200
thresh 14
scf_convergence 8
scf_algorithm gdm
symmetry false
sym_ignore true
unrestricted True
gen_scfman true
internal_stability_iter 15
internal_stability_davidson_iter 200
mem_total 64000
mem_static 1500
n_frozen_core 0
$end



--------------------------------------------------------------
 ----------------------------------------------------------------
             Standard Nuclear Orientation (Angstroms)
    I     Atom           X                Y                Z
 ----------------------------------------------------------------
    1      C       0.0000000000     0.0000000000     0.5932000000
    2      F       0.0000000000     1.0282000000    -0.1977000000
    3      F       0.0000000000    -1.0282000000    -0.1977000000
 ----------------------------------------------------------------
 Nuclear Repulsion Energy =    64.9013148907 hartrees
 There are       12 alpha and       12 beta electrons
 Requested basis set is aug-pc-4
 There are 99 shells and 435 basis functions

 Total QAlloc Memory Limit  64000 MB
 Mega-Array Size      1467 MB
 MEM_STATIC part      1500 MB

                       Distance Matrix (Angstroms)
             C (  1)   F (  2)
   F (  2)  1.297196
   F (  3)  1.297196  2.056400
 
 A cutoff of  1.0D-14 yielded   4859 shell pairs
 There are     95235 function pairs (    185932 Cartesian)
 
 -------------------------------------------------------
 OpenMP Integral Computing Module                       
 Release: version 1.0, May 2013, Q-Chem Inc. Pittsburgh 
 -------------------------------------------------------
 Integral Job Info:
 Integral job number is                      11
 Integral operator is                         1
 short-range coefficients                     0
 long-range coefficients              100000000
 Omega coefficients                           0
 if combine SR and LR in K                    0
 Integral screening is                        0
 Integral computing path is                   2
 max size of driver memory is           6400000
 size of driver memory is               5498286
 size of scratch memory is             29792225
 max col of scratch BK array             194481
 max len of scratch array in speh3         5572
 max len of scratch index in speh4           72
 max int batch size is                      520
 min int batch size is                       52
 fixed nKL is                                25
 max L of basis functions is                  5
 order of int derivative is                   0
 number of shells is                         99
 number of basis is                         606
 number of cartesian basis is               606
 number of contracted shell pairs          4859
 number of primitive shell pairs          11710
 maxK2 (contraction) of shell pair          121
 max number of K2 of shell pair               1
 max number of CS2 of shell pair            441
 max number of PS2 of shell pair            671
 mem total for path MDJ                 1213232
 -------------------------------------------------------
 Smallest overlap matrix eigenvalue = 1.64E-06

 Scale SEOQF with 1.000000e-01/1.000000e-01/1.000000e-01

 Standard Electronic Orientation quadrupole field applied
 Nucleus-field energy     =     0.0000000011 hartrees
 Guess from superposition of atomic densities
 Warning:  Energy on first SCF cycle will be non-variational
 SAD guess density has 24.000000 electrons

 -----------------------------------------------------------------------
  General SCF calculation program by
  Eric Jon Sundstrom, Paul Horn, Yuezhi Mao, Dmitri Zuev, Alec White,
  David Stuck, Shaama M.S., Shane Yost, Joonho Lee, David Small,
  Daniel Levine, Susi Lehtola, Hugh Burton, Evgeny Epifanovsky
 -----------------------------------------------------------------------
 Exchange:  B88      Correlation:  LYP
 Using Euler-Maclaurin-Lebedev (99,590) quadrature formula
Running Object-Oriented UKS (UHF)
performing a single roothaan step with Fock from read density so that orbitals are available to all algorithms
energy of the guess density (C=0) -238.144735387534
We will preform up to 15 macro iterations over saddle points until a stable solution is found
Energy prior to optimization (guess energy) = -237.785304806469
Begin Timing: Total SCF Calculation
Begin Timing: SCF Single Stationary Point Calculation
begin iterations for algorithm: GDM          
the SCF tolerance is set to 1.00e-08
    1    -237.7853048065      1.10e-01     00000  Descent step
    2    -237.7319681412      2.59e-01     00000 Line search: overstep
    3    -237.8044697311      1.77e-02     00000  Normal BFGS step
    4    -237.8057310140      1.42e-02     00000  Normal BFGS step
    5    -237.8068412175      9.83e-04     00000  Normal BFGS step
    6    -237.8068442359      5.15e-04     00000  Normal BFGS step
    7    -237.8068492745      5.90e-05     00000  Normal BFGS step
    8    -237.8068493202      2.46e-05     00000  Normal BFGS step
    9    -237.8068493311      8.85e-07     00000  Normal BFGS step
   10    -237.8068493311      4.57e-07     00000  Normal BFGS step
   11    -237.8068493311      7.22e-09     00000 Convergence criterion met
Timing for Single Stationary Point: 435.00s (wall), 3449.37s (cpu)
Begin Timing: Stability
===================================================
Beginning Test for Internal Stability
===================================================
generating davidson guess vectors based on koopmans excitations
    1      6.02e-01     00000 Davidson Iteration
    2      9.95e-02     00000 Davidson Iteration
    3      7.49e-03     00000 Davidson Iteration
    4      4.95e-03     00000 Davidson Iteration
    5      4.64e-04     00000 Davidson Iteration
    6      1.55e-04     00000 Davidson Iteration
    7      4.76e-05     00000 Davidson Iteration
    8      3.36e-04     00000 Davidson Iteration
    9      6.85e-05     00000 Davidson Converged
converged_eigenvalues
   0.1001
   0.4340
Threshold for negative eigenvalues: -1.0e-05
solution was a local minimum (stable)
===================================================
End Test for Internal Stability
===================================================
Our SCF solution is stable!
Timing for Total SCF: 8042.00s (wall), 63844.13s (cpu)
 Total energy in the final basis set =     -237.8068493311
<S^2> =         -0.000000000
    ==================================================
              The end of Object-Oriented SCFman       
    ==================================================
 
 --------------------------------------------------------------
 
                    Orbital Energies (a.u.)
 --------------------------------------------------------------
 
 Alpha MOs
 -- Occupied --
-24.367 -24.367 -10.110  -1.240  -1.166  -0.644  -0.551  -0.506
 -0.491  -0.432  -0.399  -0.264
 -- Virtual --
 -0.129  -0.008   0.006   0.011   0.012   0.049   0.052   0.057
  0.057   0.059   0.059   0.073   0.088   0.098   0.105   0.123
  0.135   0.135   0.136   0.146   0.148   0.178   0.183   0.185
  0.192   0.196   0.199   0.215   0.217   0.250   0.258   0.266
  0.280   0.289   0.293   0.295   0.308   0.309   0.313   0.319
  0.326   0.330   0.335   0.339   0.346   0.348   0.382   0.390
  0.390   0.399   0.412   0.413   0.418   0.428   0.431   0.436
  0.440   0.453   0.483   0.506   0.506   0.512   0.529   0.541
  0.543   0.552   0.563   0.565   0.594   0.601   0.604   0.620
  0.630   0.632   0.632   0.658   0.662   0.671   0.674   0.694
  0.695   0.711   0.721   0.727   0.733   0.735   0.755   0.769
  0.769   0.787   0.805   0.815   0.848   0.850   0.855   0.862
  0.865   0.904   0.933   0.943   0.944   0.950   0.952   0.977
  0.983   0.991   0.994   1.018   1.027   1.054   1.057   1.071
  1.080   1.083   1.108   1.117   1.130   1.146   1.182   1.231
  1.236   1.241   1.253   1.254   1.264   1.270   1.279   1.281
  1.290   1.319   1.334   1.356   1.364   1.366   1.369   1.382
  1.385   1.407   1.429   1.436   1.443   1.444   1.457   1.505
  1.522   1.523   1.555   1.594   1.622   1.625   1.626   1.628
  1.648   1.665   1.703   1.730   1.845   1.881   1.960   1.976
  2.036   2.067   2.178   2.209   2.217   2.219   2.260   2.265
  2.275   2.295   2.308   2.318   2.328   2.350   2.384   2.418
  2.465   2.529   2.555   2.558   2.569   2.583   2.653   2.676
  2.686   2.704   2.744   2.767   2.777   2.886   2.898   2.911
  2.941   3.004   3.079   3.259   3.356   3.364   3.377   3.454
  3.493   3.571   3.800   3.874   4.113   4.176   4.351   4.394
  4.556   4.562   4.657   4.755   4.761   4.798   4.825   4.828
  4.912   4.942   4.996   5.194   5.209   5.331   5.335   5.378
  5.395   5.423   5.450   5.456   5.504   5.533   5.560   5.585
  5.665   5.713   5.760   5.870   5.911   5.951   5.980   6.025
  6.076   6.173   6.182   6.239   6.248   6.311   6.345   6.350
  6.403   6.471   6.495   6.561   6.611   6.942   6.983   6.985
  6.991   7.001   7.053   7.150   7.161   7.223   7.250   7.281
  7.328   7.466   7.712   8.055   8.079   8.155   8.342   8.373
  8.672   9.103   9.144   9.182   9.497   9.953   9.986  10.270
 10.290  10.361  10.362  10.403  10.640  10.697  10.709  10.885
 10.971  11.094  11.193  11.541  11.546  11.600  11.623  11.716
 11.792  11.813  11.827  11.934  12.021  12.066  12.192  12.208
 12.233  12.291  12.383  12.391  12.418  12.430  12.451  12.493
 12.533  12.616  12.623  12.624  12.624  12.652  12.671  12.708
 12.711  12.857  12.890  12.941  13.116  13.227  13.282  13.287
 13.485  13.610  13.610  13.669  13.680  13.759  13.966  14.112
 14.220  14.230  14.277  14.296  14.420  14.469  14.547  14.694
 14.724  14.848  14.913  15.038  15.050  15.053  15.088  15.115
 15.441  15.485  15.546  15.597  15.628  15.822  15.933  16.519
 16.771  17.086  17.159  17.440  17.721  17.929  18.266  20.054
 20.055  20.063  20.067  20.166  20.236  20.245  20.275  20.872
 20.936  20.944  21.070  21.319  21.356  22.098  22.144  22.146
 22.329  22.770  23.074  30.241  30.280  30.369  30.385  30.599
 30.645  30.660  30.891  31.397  31.468  32.057  32.263  32.405
 33.510  34.378  41.619  41.673  41.794  41.836  41.875  42.156
 44.117  44.494  74.610  91.182  91.210  91.269  91.279  91.435
 91.472  91.525  91.586  92.348  92.413 202.029 202.703
 
 Beta MOs
 -- Occupied --
-24.367 -24.367 -10.110  -1.240  -1.166  -0.644  -0.551  -0.506
 -0.491  -0.432  -0.399  -0.264
 -- Virtual --
 -0.129  -0.008   0.006   0.011   0.012   0.049   0.052   0.057
  0.057   0.059   0.059   0.073   0.088   0.098   0.105   0.123
  0.135   0.135   0.136   0.146   0.148   0.178   0.183   0.185
  0.192   0.196   0.199   0.215   0.217   0.250   0.258   0.266
  0.280   0.289   0.293   0.295   0.308   0.309   0.313   0.319
  0.326   0.330   0.335   0.339   0.346   0.348   0.382   0.390
  0.390   0.399   0.412   0.413   0.418   0.428   0.431   0.436
  0.440   0.453   0.483   0.506   0.506   0.512   0.529   0.541
  0.543   0.552   0.563   0.565   0.594   0.601   0.604   0.620
  0.630   0.632   0.632   0.658   0.662   0.671   0.674   0.694
  0.695   0.711   0.721   0.727   0.733   0.735   0.755   0.769
  0.769   0.787   0.805   0.815   0.848   0.850   0.855   0.862
  0.865   0.904   0.933   0.943   0.944   0.950   0.952   0.977
  0.983   0.991   0.994   1.018   1.027   1.054   1.057   1.071
  1.080   1.083   1.108   1.117   1.130   1.146   1.182   1.231
  1.236   1.241   1.253   1.254   1.264   1.270   1.279   1.281
  1.290   1.319   1.334   1.356   1.364   1.366   1.369   1.382
  1.385   1.407   1.429   1.436   1.443   1.444   1.457   1.505
  1.522   1.523   1.555   1.594   1.622   1.625   1.626   1.628
  1.648   1.665   1.703   1.730   1.845   1.881   1.960   1.976
  2.036   2.067   2.178   2.209   2.217   2.219   2.260   2.265
  2.275   2.295   2.308   2.318   2.328   2.350   2.384   2.418
  2.465   2.529   2.555   2.558   2.569   2.583   2.653   2.676
  2.686   2.704   2.744   2.767   2.777   2.886   2.898   2.911
  2.941   3.004   3.079   3.259   3.356   3.364   3.377   3.454
  3.493   3.571   3.800   3.874   4.113   4.176   4.351   4.394
  4.556   4.562   4.657   4.755   4.761   4.798   4.825   4.828
  4.912   4.942   4.996   5.194   5.209   5.331   5.335   5.378
  5.395   5.423   5.450   5.456   5.504   5.533   5.560   5.585
  5.665   5.713   5.760   5.870   5.911   5.951   5.980   6.025
  6.076   6.173   6.182   6.239   6.248   6.311   6.345   6.350
  6.403   6.471   6.495   6.561   6.611   6.942   6.983   6.985
  6.991   7.001   7.053   7.150   7.161   7.223   7.250   7.281
  7.328   7.466   7.712   8.055   8.079   8.155   8.342   8.373
  8.672   9.103   9.144   9.182   9.497   9.953   9.986  10.270
 10.290  10.361  10.362  10.403  10.640  10.697  10.709  10.885
 10.971  11.094  11.193  11.541  11.546  11.600  11.623  11.716
 11.792  11.813  11.827  11.934  12.021  12.066  12.192  12.208
 12.233  12.291  12.383  12.391  12.418  12.430  12.451  12.493
 12.533  12.616  12.623  12.624  12.624  12.652  12.671  12.708
 12.711  12.857  12.890  12.941  13.116  13.227  13.282  13.287
 13.485  13.610  13.610  13.669  13.680  13.759  13.966  14.112
 14.220  14.230  14.277  14.296  14.420  14.469  14.547  14.694
 14.724  14.848  14.913  15.038  15.050  15.053  15.088  15.115
 15.441  15.485  15.546  15.597  15.628  15.822  15.933  16.519
 16.771  17.086  17.159  17.440  17.721  17.929  18.266  20.054
 20.055  20.063  20.067  20.166  20.236  20.245  20.275  20.872
 20.936  20.944  21.070  21.319  21.356  22.098  22.144  22.146
 22.329  22.770  23.074  30.241  30.280  30.369  30.385  30.599
 30.645  30.660  30.891  31.397  31.468  32.057  32.263  32.405
 33.510  34.378  41.619  41.673  41.794  41.836  41.875  42.156
 44.117  44.494  74.610  91.182  91.210  91.269  91.279  91.435
 91.472  91.525  91.586  92.348  92.413 202.029 202.703
 --------------------------------------------------------------
 
          Ground-State Mulliken Net Atomic Charges

     Atom                 Charge (a.u.)    Spin (a.u.)
  --------------------------------------------------------
      1 C                     0.487658      -0.000000
      2 F                    -0.243829       0.000000
      3 F                    -0.243829      -0.000000
  --------------------------------------------------------
  Sum of atomic charges =    -0.000000
  Sum of spin   charges =    -0.000000

 -----------------------------------------------------------------
                    Cartesian Multipole Moments
 -----------------------------------------------------------------
    Charge (ESU x 10^10)
                -0.0000
    Dipole Moment (Debye)
         X       0.0000      Y       0.0000      Z      -0.7149
       Tot       0.7149
    Quadrupole Moments (Debye-Ang)
        XX     -14.7684     XY      -0.0000     YY     -15.9837
        XZ      -0.0000     YZ      -0.0000     ZZ     -17.6620
    Octopole Moments (Debye-Ang^2)
       XXX      -0.0000    XXY      -0.0000    XYY       0.0000
       YYY       0.0000    XXZ      -1.8662    XYZ      -0.0000
       YYZ      -1.7359    XZZ       0.0000    YZZ       0.0000
       ZZZ      -8.9156
    Hexadecapole Moments (Debye-Ang^3)
      XXXX     -12.7462   XXXY      -0.0000   XXYY     -14.2884
      XYYY      -0.0000   YYYY     -73.5351   XXXZ      -0.0000
      XXYZ       0.0000   XYYZ       0.0000   YYYZ      -0.0000
      XXZZ      -7.7560   XYZZ      -0.0000   YYZZ     -17.2363
      XZZZ       0.0000   YZZZ       0.0000   ZZZZ     -37.0904
 -----------------------------------------------------------------
Archival summary:
1\1\n0069.mhg0\SP\ProcedureUnspecified\BasisUnspecified\21\yhljason\ThuNov1217:02:012020ThuNov1217:02:012020\0\\#,ProcedureUnspecified,BasisUnspecified,\\0,1\C\F,1,1.2972\F,1,1.2972,2,104.864\\\@

 Total job time:  8106.44s(wall), 64280.83s(cpu) 
 Thu Nov 12 17:02:01 2020

        *************************************************************
        *                                                           *
        *  Thank you very much for using Q-Chem.  Have a nice day.  *
        *                                                           *
        *************************************************************


