Q-Chem Developer Version!
                  Welcome to Q-Chem
     A Quantum Leap Into The Future Of Chemistry


 Q-Chem 5.1, Q-Chem, Inc., Pleasanton, CA (2018)

 Yihan Shao,  Zhengting Gan,  E. Epifanovsky,  A. T. B. Gilbert,  M. Wormit,  
 J. Kussmann,  A. W. Lange,  A. Behn,  Jia Deng,  Xintian Feng,  D. Ghosh,  
 M. Goldey,  P. R. Horn,  L. D. Jacobson,  I. Kaliman,  T. Kus,  A. Landau,  
 Jie Liu,  E. I. Proynov,  R. M. Richard,  R. P. Steele,  E. J. Sundstrom,  
 H. L. Woodcock III,  P. M. Zimmerman,  D. Zuev,  B. Albrecht,  E. Alguire,  
 S. A. Baeppler,  D. Barton,  Z. Benda,  Y. A. Bernard,  E. J. Berquist,  
 K. B. Bravaya,  H. Burton,  D. Casanova,  Chun-Min Chang,  Yunqing Chen,  
 A. Chien,  K. D. Closser,  M. P. Coons,  S. Coriani,  S. Dasgupta,  
 A. L. Dempwolff,  M. Diedenhofen,  Hainam Do,  R. G. Edgar,  Po-Tung Fang,  
 S. Faraji,  S. Fatehi,  Qingguo Feng,  K. D. Fenk,  J. Fosso-Tande,  
 Qinghui Ge,  A. Ghysels,  G. Gidofalvi,  J. Gomes,  J. Gonthier,  A. Gunina,  
 D. Hait,  M. W. D. Hanson-Heine,  P. H. P. Harbach,  A. W. Hauser,  
 J. E. Herr,  E. G. Hohenstein,  Z. C. Holden,  Kerwin Hui,  B. C. Huynh,  
 T.-C. Jagau,  Hyunjun Ji,  B. Kaduk,  K. Khistyaev,  Jaehoon Kim,  
 P. Klunzinger,  K. Koh,  D. Kosenkov,  L. Koulias,  T. Kowalczyk,  
 C. M. Krauter,  A. Kunitsa,  Ka Un Lao,  A. Laurent,  K. V. Lawler,  
 Joonho Lee,  D. Lefrancois,  S. Lehtola,  D. S. Levine,  Yi-Pei Li,  
 You-Sheng Lin,  Fenglai Liu,  E. Livshits,  A. Luenser,  P. Manohar,  
 E. Mansoor,  S. F. Manzer,  Shan-Ping Mao,  Yuezhi Mao,  N. Mardirossian,  
 A. V. Marenich,  T. Markovich,  L. A. Martinez-Martinez,  S. A. Maurer,  
 N. J. Mayhall,  S. C. McKenzie,  J.-M. Mewes,  A. F. Morrison,  
 J. W. Mullinax,  K. Nanda,  T. S. Nguyen-Beck,  R. Olivares-Amaya,  
 J. A. Parkhill,  T. M. Perrine,  F. Plasser,  P. Pokhilko,  S. Prager,  
 A. Prociuk,  E. Ramos,  D. R. Rehn,  F. Rob,  M. Schneider,  N. Sergueev,  
 S. M. Sharada,  S. Sharma,  D. W. Small,  T. Stauch,  T. Stein,  
 Yu-Chuan Su,  A. J. W. Thom,  A. Tkatchenko,  T. Tsuchimochi,  N. M. Tubman,  
 L. Vogt,  M. L. Vidal,  O. Vydrov,  M. A. Watson,  J. Wenzel,  
 M. de Wergifosse,  T. A. Wesolowski,  A. White,  J. Witte,  A. Yamada,  
 Jun Yang,  K. Yao,  S. Yeganeh,  S. R. Yost,  Zhi-Qiang You,  A. Zech,  
 Igor Ying Zhang,  Xing Zhang,  Yan Zhao,  Ying Zhu,  B. R. Brooks,  
 G. K. L. Chan,  C. J. Cramer,  M. S. Gordon,  W. J. Hehre,  A. Klamt,  
 M. W. Schmidt,  C. D. Sherrill,  D. G. Truhlar,  A. Aspuru-Guzik,  R. Baer,  
 A. T. Bell,  N. A. Besley,  Jeng-Da Chai,  A. E. DePrince, III,  
 R. A. DiStasio Jr.,  A. Dreuw,  B. D. Dunietz,  T. R. Furlani,  
 Chao-Ping Hsu,  Yousung Jung,  Jing Kong,  D. S. Lambrecht,  WanZhen Liang,  
 C. Ochsenfeld,  V. A. Rassolov,  L. V. Slipchenko,  J. E. Subotnik,  
 T. Van Voorhis,  J. M. Herbert,  A. I. Krylov,  P. M. W. Gill,  M. Head-Gordon

 Contributors to earlier versions of Q-Chem not listed above: 
 R. D. Adamson,  B. Austin,  J. Baker,  G. J. O. Beran,  K. Brandhorst,  
 S. T. Brown,  E. F. C. Byrd,  A. K. Chakraborty,  C.-L. Cheng,  
 Siu Hung Chien,  D. M. Chipman,  D. L. Crittenden,  H. Dachsel,  
 R. J. Doerksen,  A. D. Dutoi,  L. Fusti-Molnar,  W. A. Goddard III,  
 A. Golubeva-Zadorozhnaya,  S. R. Gwaltney,  G. Hawkins,  A. Heyden,  
 S. Hirata,  G. Kedziora,  F. J. Keil,  C. Kelley,  Jihan Kim,  R. A. King,  
 R. Z. Khaliullin,  P. P. Korambath,  W. Kurlancheek,  A. M. Lee,  M. S. Lee,  
 S. V. Levchenko,  Ching Yeh Lin,  D. Liotard,  R. C. Lochan,  I. Lotan,  
 P. E. Maslen,  N. Nair,  D. P. O'Neill,  D. Neuhauser,  E. Neuscamman,  
 C. M. Oana,  R. Olson,  B. Peters,  R. Peverati,  P. A. Pieniazek,  
 Y. M. Rhee,  J. Ritchie,  M. A. Rohrdanz,  E. Rosta,  N. J. Russ,  
 H. F. Schaefer III,  N. E. Schultz,  N. Shenvi,  A. C. Simmonett,  A. Sodt,  
 D. Stuck,  K. S. Thanthiriwatte,  V. Vanovschi,  Tao Wang,  A. Warshel,  
 C. F. Williams,  Q. Wu,  X. Xu,  W. Zhang

 Please cite Q-Chem as follows:
 Y. Shao et al., Mol. Phys. 113, 184-215 (2015)
 DOI: 10.1080/00268976.2014.952696

 Q-Chem 5.1.1 for Intel X86 EM64T Linux

 Parts of Q-Chem use Armadillo 8.300.2 (Tropical Shenanigans).
 http://arma.sourceforge.net/

 Q-Chem begins on Thu Nov 12 14:46:55 2020  

Host: n0070.mhg0
0

     Scratch files written to /local/scratch/users/yhljason/CF2_HSE-HJS_aug-pc-4.inp20201112144654//
Input Ideriv = 2
Curr. Ideriv = -1
Max.  Ideriv = 2

Checking the input file for inconsistencies... 	...done.

--------------------------------------------------------------
User input:
--------------------------------------------------------------
$molecule
0 1
C1      0.0000  0.0000  0.5932
F2      0.0000  1.0282  -0.1977
F3      0.0000  -1.0282 -0.1977
$end

$rem
jobtype sp
method HSE-HJS
xc_grid 000099000590
basis aug-pc-4
max_scf_cycles 200
thresh 14
scf_convergence 8
scf_algorithm gdm
symmetry false
sym_ignore true
unrestricted True
gen_scfman true
internal_stability_iter 15
internal_stability_davidson_iter 200
mem_total 64000
mem_static 1500
n_frozen_core 0
$end



--------------------------------------------------------------
 ----------------------------------------------------------------
             Standard Nuclear Orientation (Angstroms)
    I     Atom           X                Y                Z
 ----------------------------------------------------------------
    1      C       0.0000000000     0.0000000000     0.5932000000
    2      F       0.0000000000     1.0282000000    -0.1977000000
    3      F       0.0000000000    -1.0282000000    -0.1977000000
 ----------------------------------------------------------------
 Nuclear Repulsion Energy =    64.9013148907 hartrees
 There are       12 alpha and       12 beta electrons
 Requested basis set is aug-pc-4
 There are 99 shells and 435 basis functions

 Total QAlloc Memory Limit  64000 MB
 Mega-Array Size      1467 MB
 MEM_STATIC part      1500 MB

                       Distance Matrix (Angstroms)
             C (  1)   F (  2)
   F (  2)  1.297196
   F (  3)  1.297196  2.056400
 
 A cutoff of  1.0D-14 yielded   4859 shell pairs
 There are     95235 function pairs (    185932 Cartesian)
 
 -------------------------------------------------------
 OpenMP Integral Computing Module                       
 Release: version 1.0, May 2013, Q-Chem Inc. Pittsburgh 
 -------------------------------------------------------
 Integral Job Info:
 Integral job number is                      11
 Integral operator is                         1
 short-range coefficients              25000000
 long-range coefficients                      0
 Omega coefficients                         110
 if combine SR and LR in K                    1
 Integral screening is                        0
 Integral computing path is                   2
 max size of driver memory is           6400000
 size of driver memory is               5498286
 size of scratch memory is             28955960
 max col of scratch BK array             194481
 max len of scratch array in speh3         5572
 max len of scratch index in speh4           72
 max int batch size is                      520
 min int batch size is                       52
 fixed nKL is                                24
 max L of basis functions is                  5
 order of int derivative is                   0
 number of shells is                         99
 number of basis is                         606
 number of cartesian basis is               606
 number of contracted shell pairs          4859
 number of primitive shell pairs          11710
 maxK2 (contraction) of shell pair          121
 max number of K2 of shell pair               1
 max number of CS2 of shell pair            441
 max number of PS2 of shell pair            671
 mem total for path MDJ                 1213232
 -------------------------------------------------------
 Smallest overlap matrix eigenvalue = 1.64E-06

 Scale SEOQF with 1.000000e-01/1.000000e-01/1.000000e-01

 Standard Electronic Orientation quadrupole field applied
 Nucleus-field energy     =     0.0000000011 hartrees
 Guess from superposition of atomic densities
 Warning:  Energy on first SCF cycle will be non-variational
 SAD guess density has 24.000000 electrons

 -----------------------------------------------------------------------
  General SCF calculation program by
  Eric Jon Sundstrom, Paul Horn, Yuezhi Mao, Dmitri Zuev, Alec White,
  David Stuck, Shaama M.S., Shane Yost, Joonho Lee, David Small,
  Daniel Levine, Susi Lehtola, Hugh Burton, Evgeny Epifanovsky
 -----------------------------------------------------------------------
 Exchange:     0.2500 Hartree-Fock + 1.0000 PBE + -0.2500 wPBE + LR-HF
 Correlation:  1.0000 PBE
 Using Euler-Maclaurin-Lebedev (99,590) quadrature formula
Running Object-Oriented UKS (UHF)
performing a single roothaan step with Fock from read density so that orbitals are available to all algorithms
energy of the guess density (C=0) -237.930002381808
We will preform up to 15 macro iterations over saddle points until a stable solution is found
Energy prior to optimization (guess energy) = -237.557984779828
Begin Timing: Total SCF Calculation
Begin Timing: SCF Single Stationary Point Calculation
begin iterations for algorithm: GDM          
the SCF tolerance is set to 1.00e-08
    1    -237.5579847798      1.08e-01     00000  Descent step
    2    -237.5276429429      1.94e-01     00000 Line search: overstep
    3    -237.5802572845      1.07e-02     00000  Normal BFGS step
    4    -237.5815750346      5.07e-03     00000  Normal BFGS step
    5    -237.5819275973      1.06e-03     00000  Normal BFGS step
    6    -237.5819343585      5.85e-04     00000  Normal BFGS step
    7    -237.5819366831      2.19e-05     00000  Normal BFGS step
    8    -237.5819366949      6.77e-06     00000  Normal BFGS step
    9    -237.5819366962      4.03e-07     00000  Normal BFGS step
   10    -237.5819366962      1.26e-07     00000  Normal BFGS step
   11    -237.5819366962      2.00e-08     00000  Normal BFGS step
   12    -237.5819366962      1.29e-08     00000  Normal BFGS step
   13    -237.5819366962      2.60e-09     00000 Convergence criterion met
Timing for Single Stationary Point: 9287.00s (wall), 73766.25s (cpu)
Begin Timing: Stability
===================================================
Beginning Test for Internal Stability
===================================================
generating davidson guess vectors based on koopmans excitations
    1      6.19e-01     00000 Davidson Iteration
    2      1.47e-01     00000 Davidson Iteration
    3      1.94e-02     00000 Davidson Iteration
    4      8.32e-03     00000 Davidson Iteration
    5      1.11e-03     00000 Davidson Iteration
    6      3.03e-04     00000 Davidson Iteration
    7      5.57e-05     00000 Davidson Iteration
    8      5.42e-05     00000 Davidson Converged
converged_eigenvalues
   0.0663
   0.4415
Threshold for negative eigenvalues: -1.0e-05
solution was a local minimum (stable)
===================================================
End Test for Internal Stability
===================================================
Our SCF solution is stable!
Timing for Total SCF: 23018.00s (wall), 182923.21s (cpu)
 Total energy in the final basis set =     -237.5819366962
<S^2> =         -0.000000000
    ==================================================
              The end of Object-Oriented SCFman       
    ==================================================
 
 --------------------------------------------------------------
 
                    Orbital Energies (a.u.)
 --------------------------------------------------------------
 
 Alpha MOs
 -- Occupied --
-24.839 -24.839 -10.417  -1.367  -1.290  -0.723  -0.617  -0.570
 -0.564  -0.492  -0.465  -0.310
 -- Virtual --
 -0.100   0.003   0.016   0.019   0.020   0.059   0.061   0.066
  0.066   0.068   0.070   0.083   0.098   0.109   0.120   0.133
  0.143   0.145   0.148   0.159   0.166   0.190   0.192   0.201
  0.202   0.208   0.225   0.227   0.232   0.268   0.275   0.281
  0.293   0.303   0.305   0.307   0.318   0.319   0.328   0.332
  0.340   0.341   0.344   0.347   0.363   0.364   0.394   0.399
  0.401   0.408   0.421   0.424   0.437   0.441   0.442   0.454
  0.458   0.470   0.501   0.521   0.521   0.523   0.548   0.549
  0.550   0.570   0.574   0.579   0.609   0.614   0.621   0.639
  0.640   0.649   0.650   0.674   0.678   0.691   0.696   0.714
  0.714   0.730   0.733   0.747   0.750   0.756   0.776   0.789
  0.792   0.808   0.827   0.837   0.871   0.874   0.878   0.884
  0.889   0.926   0.954   0.965   0.967   0.974   0.978   0.997
  1.011   1.014   1.017   1.046   1.049   1.078   1.079   1.097
  1.106   1.107   1.131   1.147   1.150   1.170   1.212   1.255
  1.256   1.269   1.275   1.286   1.289   1.291   1.300   1.301
  1.320   1.341   1.362   1.376   1.385   1.391   1.397   1.408
  1.410   1.444   1.449   1.463   1.467   1.468   1.481   1.534
  1.547   1.548   1.585   1.622   1.645   1.650   1.656   1.661
  1.670   1.691   1.735   1.770   1.883   1.917   2.002   2.019
  2.092   2.114   2.224   2.255   2.264   2.266   2.305   2.315
  2.330   2.352   2.364   2.368   2.386   2.401   2.444   2.468
  2.524   2.594   2.611   2.614   2.634   2.639   2.709   2.732
  2.741   2.760   2.799   2.823   2.835   2.960   2.961   2.974
  3.001   3.057   3.139   3.317   3.413   3.422   3.446   3.515
  3.555   3.632   3.873   3.934   4.171   4.240   4.419   4.461
  4.624   4.626   4.728   4.817   4.836   4.858   4.897   4.911
  4.981   5.016   5.063   5.292   5.307   5.426   5.433   5.476
  5.489   5.513   5.547   5.558   5.588   5.611   5.658   5.690
  5.777   5.826   5.853   5.975   6.031   6.063   6.085   6.141
  6.173   6.279   6.284   6.341   6.352   6.413   6.449   6.451
  6.505   6.574   6.602   6.663   6.712   7.042   7.084   7.087
  7.093   7.102   7.154   7.250   7.261   7.323   7.352   7.382
  7.431   7.567   7.813   8.161   8.179   8.255   8.462   8.480
  8.787   9.213   9.249   9.287   9.602  10.067  10.108  10.376
 10.392  10.458  10.465  10.504  10.725  10.786  10.815  10.990
 11.081  11.197  11.298  11.677  11.683  11.728  11.753  11.841
 11.913  11.925  11.951  12.059  12.136  12.189  12.347  12.370
 12.384  12.449  12.513  12.533  12.561  12.569  12.573  12.633
 12.674  12.743  12.751  12.752  12.752  12.778  12.797  12.843
 12.848  12.985  13.003  13.088  13.270  13.362  13.402  13.411
 13.624  13.730  13.736  13.791  13.808  13.893  14.096  14.264
 14.380  14.393  14.432  14.474  14.616  14.618  14.731  14.869
 14.899  15.036  15.088  15.216  15.230  15.231  15.267  15.295
 15.611  15.666  15.710  15.767  15.803  15.984  16.109  16.711
 16.945  17.256  17.319  17.607  17.919  18.120  18.466  20.240
 20.241  20.249  20.253  20.351  20.420  20.429  20.459  21.054
 21.118  21.127  21.254  21.517  21.559  22.279  22.326  22.329
 22.512  22.961  23.270  30.520  30.560  30.648  30.665  30.873
 30.919  30.936  31.168  31.666  31.730  32.295  32.496  32.649
 33.756  34.628  41.997  42.051  42.173  42.215  42.251  42.531
 44.489  44.866  75.210  91.645  91.672  91.731  91.742  91.893
 91.931  91.985  92.047  92.807  92.871 203.020 203.695
 
 Beta MOs
 -- Occupied --
-24.839 -24.839 -10.417  -1.367  -1.290  -0.723  -0.617  -0.570
 -0.564  -0.492  -0.465  -0.310
 -- Virtual --
 -0.100   0.003   0.016   0.019   0.020   0.059   0.061   0.066
  0.066   0.068   0.070   0.083   0.098   0.109   0.120   0.133
  0.143   0.145   0.148   0.159   0.166   0.190   0.192   0.201
  0.202   0.208   0.225   0.227   0.232   0.268   0.275   0.281
  0.293   0.303   0.305   0.307   0.318   0.319   0.328   0.332
  0.340   0.341   0.344   0.347   0.363   0.364   0.394   0.399
  0.401   0.408   0.421   0.424   0.437   0.441   0.442   0.454
  0.458   0.470   0.501   0.521   0.521   0.523   0.548   0.549
  0.550   0.570   0.574   0.579   0.609   0.614   0.621   0.639
  0.640   0.649   0.650   0.674   0.678   0.691   0.696   0.714
  0.714   0.730   0.733   0.747   0.750   0.756   0.776   0.789
  0.792   0.808   0.827   0.837   0.871   0.874   0.878   0.884
  0.889   0.926   0.954   0.965   0.967   0.974   0.978   0.997
  1.011   1.014   1.017   1.046   1.049   1.078   1.079   1.097
  1.106   1.107   1.131   1.147   1.150   1.170   1.212   1.255
  1.256   1.269   1.275   1.286   1.289   1.291   1.300   1.301
  1.320   1.341   1.362   1.376   1.385   1.391   1.397   1.408
  1.410   1.444   1.449   1.463   1.467   1.468   1.481   1.534
  1.547   1.548   1.585   1.622   1.645   1.650   1.656   1.661
  1.670   1.691   1.735   1.770   1.883   1.917   2.002   2.019
  2.092   2.114   2.224   2.255   2.264   2.266   2.305   2.315
  2.330   2.352   2.364   2.368   2.386   2.401   2.444   2.468
  2.524   2.594   2.611   2.614   2.634   2.639   2.709   2.732
  2.741   2.760   2.799   2.823   2.835   2.960   2.961   2.974
  3.001   3.057   3.139   3.317   3.413   3.422   3.446   3.515
  3.555   3.632   3.873   3.934   4.171   4.240   4.419   4.461
  4.624   4.626   4.728   4.817   4.836   4.858   4.897   4.911
  4.981   5.016   5.063   5.292   5.307   5.426   5.433   5.476
  5.489   5.513   5.547   5.558   5.588   5.611   5.658   5.690
  5.777   5.826   5.853   5.975   6.031   6.063   6.085   6.141
  6.173   6.279   6.284   6.341   6.352   6.413   6.449   6.451
  6.505   6.574   6.602   6.663   6.712   7.042   7.084   7.087
  7.093   7.102   7.154   7.250   7.261   7.323   7.352   7.382
  7.431   7.567   7.813   8.161   8.179   8.255   8.462   8.480
  8.787   9.213   9.249   9.287   9.602  10.067  10.108  10.376
 10.392  10.458  10.465  10.504  10.725  10.786  10.815  10.990
 11.081  11.197  11.298  11.677  11.683  11.728  11.753  11.841
 11.913  11.925  11.951  12.059  12.136  12.189  12.347  12.370
 12.384  12.449  12.513  12.533  12.561  12.569  12.573  12.633
 12.674  12.743  12.751  12.752  12.752  12.778  12.797  12.843
 12.848  12.985  13.003  13.088  13.270  13.362  13.402  13.411
 13.624  13.730  13.736  13.791  13.808  13.893  14.096  14.264
 14.380  14.393  14.432  14.474  14.616  14.618  14.731  14.869
 14.899  15.036  15.088  15.216  15.230  15.231  15.267  15.295
 15.611  15.666  15.710  15.767  15.803  15.984  16.109  16.711
 16.945  17.256  17.319  17.607  17.919  18.120  18.466  20.240
 20.241  20.249  20.253  20.351  20.420  20.429  20.459  21.054
 21.118  21.127  21.254  21.517  21.559  22.279  22.326  22.329
 22.512  22.961  23.270  30.520  30.560  30.648  30.665  30.873
 30.919  30.936  31.168  31.666  31.730  32.295  32.496  32.649
 33.756  34.628  41.997  42.051  42.173  42.215  42.251  42.531
 44.489  44.866  75.210  91.645  91.672  91.731  91.742  91.893
 91.931  91.985  92.047  92.807  92.871 203.020 203.695
 --------------------------------------------------------------
 
          Ground-State Mulliken Net Atomic Charges

     Atom                 Charge (a.u.)    Spin (a.u.)
  --------------------------------------------------------
      1 C                     0.368453       0.000000
      2 F                    -0.184227       0.000000
      3 F                    -0.184227      -0.000000
  --------------------------------------------------------
  Sum of atomic charges =    -0.000000
  Sum of spin   charges =     0.000000

 -----------------------------------------------------------------
                    Cartesian Multipole Moments
 -----------------------------------------------------------------
    Charge (ESU x 10^10)
                -0.0000
    Dipole Moment (Debye)
         X      -0.0000      Y      -0.0000      Z      -0.6442
       Tot       0.6442
    Quadrupole Moments (Debye-Ang)
        XX     -14.4645     XY      -0.0000     YY     -15.8339
        XZ       0.0000     YZ       0.0000     ZZ     -17.3810
    Octopole Moments (Debye-Ang^2)
       XXX      -0.0000    XXY       0.0000    XYY      -0.0000
       YYY      -0.0000    XXZ      -1.7477    XYZ      -0.0000
       YYZ      -1.6771    XZZ       0.0000    YZZ       0.0000
       ZZZ      -8.8095
    Hexadecapole Moments (Debye-Ang^3)
      XXXX     -11.6904   XXXY      -0.0000   XXYY     -13.8543
      XYYY      -0.0000   YYYY     -71.7959   XXXZ      -0.0000
      XXYZ      -0.0000   XYYZ       0.0000   YYYZ       0.0000
      XXZZ      -7.2838   XYZZ      -0.0000   YYZZ     -16.6719
      XZZZ       0.0000   YZZZ      -0.0000   ZZZZ     -35.6043
 -----------------------------------------------------------------
Archival summary:
1\1\n0070.mhg0\SP\ProcedureUnspecified\BasisUnspecified\21\yhljason\ThuNov1221:23:362020ThuNov1221:23:362020\0\\#,ProcedureUnspecified,BasisUnspecified,\\0,1\C\F,1,1.2972\F,1,1.2972,2,104.864\\\@

 Total job time:  23800.58s(wall), 189046.45s(cpu) 
 Thu Nov 12 21:23:36 2020

        *************************************************************
        *                                                           *
        *  Thank you very much for using Q-Chem.  Have a nice day.  *
        *                                                           *
        *************************************************************


