Q-Chem Developer Version!
                  Welcome to Q-Chem
     A Quantum Leap Into The Future Of Chemistry


 Q-Chem 5.1, Q-Chem, Inc., Pleasanton, CA (2018)

 Yihan Shao,  Zhengting Gan,  E. Epifanovsky,  A. T. B. Gilbert,  M. Wormit,  
 J. Kussmann,  A. W. Lange,  A. Behn,  Jia Deng,  Xintian Feng,  D. Ghosh,  
 M. Goldey,  P. R. Horn,  L. D. Jacobson,  I. Kaliman,  T. Kus,  A. Landau,  
 Jie Liu,  E. I. Proynov,  R. M. Richard,  R. P. Steele,  E. J. Sundstrom,  
 H. L. Woodcock III,  P. M. Zimmerman,  D. Zuev,  B. Albrecht,  E. Alguire,  
 S. A. Baeppler,  D. Barton,  Z. Benda,  Y. A. Bernard,  E. J. Berquist,  
 K. B. Bravaya,  H. Burton,  D. Casanova,  Chun-Min Chang,  Yunqing Chen,  
 A. Chien,  K. D. Closser,  M. P. Coons,  S. Coriani,  S. Dasgupta,  
 A. L. Dempwolff,  M. Diedenhofen,  Hainam Do,  R. G. Edgar,  Po-Tung Fang,  
 S. Faraji,  S. Fatehi,  Qingguo Feng,  K. D. Fenk,  J. Fosso-Tande,  
 Qinghui Ge,  A. Ghysels,  G. Gidofalvi,  J. Gomes,  J. Gonthier,  A. Gunina,  
 D. Hait,  M. W. D. Hanson-Heine,  P. H. P. Harbach,  A. W. Hauser,  
 J. E. Herr,  E. G. Hohenstein,  Z. C. Holden,  Kerwin Hui,  B. C. Huynh,  
 T.-C. Jagau,  Hyunjun Ji,  B. Kaduk,  K. Khistyaev,  Jaehoon Kim,  
 P. Klunzinger,  K. Koh,  D. Kosenkov,  L. Koulias,  T. Kowalczyk,  
 C. M. Krauter,  A. Kunitsa,  Ka Un Lao,  A. Laurent,  K. V. Lawler,  
 Joonho Lee,  D. Lefrancois,  S. Lehtola,  D. S. Levine,  Yi-Pei Li,  
 You-Sheng Lin,  Fenglai Liu,  E. Livshits,  A. Luenser,  P. Manohar,  
 E. Mansoor,  S. F. Manzer,  Shan-Ping Mao,  Yuezhi Mao,  N. Mardirossian,  
 A. V. Marenich,  T. Markovich,  L. A. Martinez-Martinez,  S. A. Maurer,  
 N. J. Mayhall,  S. C. McKenzie,  J.-M. Mewes,  A. F. Morrison,  
 J. W. Mullinax,  K. Nanda,  T. S. Nguyen-Beck,  R. Olivares-Amaya,  
 J. A. Parkhill,  T. M. Perrine,  F. Plasser,  P. Pokhilko,  S. Prager,  
 A. Prociuk,  E. Ramos,  D. R. Rehn,  F. Rob,  M. Schneider,  N. Sergueev,  
 S. M. Sharada,  S. Sharma,  D. W. Small,  T. Stauch,  T. Stein,  
 Yu-Chuan Su,  A. J. W. Thom,  A. Tkatchenko,  T. Tsuchimochi,  N. M. Tubman,  
 L. Vogt,  M. L. Vidal,  O. Vydrov,  M. A. Watson,  J. Wenzel,  
 M. de Wergifosse,  T. A. Wesolowski,  A. White,  J. Witte,  A. Yamada,  
 Jun Yang,  K. Yao,  S. Yeganeh,  S. R. Yost,  Zhi-Qiang You,  A. Zech,  
 Igor Ying Zhang,  Xing Zhang,  Yan Zhao,  Ying Zhu,  B. R. Brooks,  
 G. K. L. Chan,  C. J. Cramer,  M. S. Gordon,  W. J. Hehre,  A. Klamt,  
 M. W. Schmidt,  C. D. Sherrill,  D. G. Truhlar,  A. Aspuru-Guzik,  R. Baer,  
 A. T. Bell,  N. A. Besley,  Jeng-Da Chai,  A. E. DePrince, III,  
 R. A. DiStasio Jr.,  A. Dreuw,  B. D. Dunietz,  T. R. Furlani,  
 Chao-Ping Hsu,  Yousung Jung,  Jing Kong,  D. S. Lambrecht,  WanZhen Liang,  
 C. Ochsenfeld,  V. A. Rassolov,  L. V. Slipchenko,  J. E. Subotnik,  
 T. Van Voorhis,  J. M. Herbert,  A. I. Krylov,  P. M. W. Gill,  M. Head-Gordon

 Contributors to earlier versions of Q-Chem not listed above: 
 R. D. Adamson,  B. Austin,  J. Baker,  G. J. O. Beran,  K. Brandhorst,  
 S. T. Brown,  E. F. C. Byrd,  A. K. Chakraborty,  C.-L. Cheng,  
 Siu Hung Chien,  D. M. Chipman,  D. L. Crittenden,  H. Dachsel,  
 R. J. Doerksen,  A. D. Dutoi,  L. Fusti-Molnar,  W. A. Goddard III,  
 A. Golubeva-Zadorozhnaya,  S. R. Gwaltney,  G. Hawkins,  A. Heyden,  
 S. Hirata,  G. Kedziora,  F. J. Keil,  C. Kelley,  Jihan Kim,  R. A. King,  
 R. Z. Khaliullin,  P. P. Korambath,  W. Kurlancheek,  A. M. Lee,  M. S. Lee,  
 S. V. Levchenko,  Ching Yeh Lin,  D. Liotard,  R. C. Lochan,  I. Lotan,  
 P. E. Maslen,  N. Nair,  D. P. O'Neill,  D. Neuhauser,  E. Neuscamman,  
 C. M. Oana,  R. Olson,  B. Peters,  R. Peverati,  P. A. Pieniazek,  
 Y. M. Rhee,  J. Ritchie,  M. A. Rohrdanz,  E. Rosta,  N. J. Russ,  
 H. F. Schaefer III,  N. E. Schultz,  N. Shenvi,  A. C. Simmonett,  A. Sodt,  
 D. Stuck,  K. S. Thanthiriwatte,  V. Vanovschi,  Tao Wang,  A. Warshel,  
 C. F. Williams,  Q. Wu,  X. Xu,  W. Zhang

 Please cite Q-Chem as follows:
 Y. Shao et al., Mol. Phys. 113, 184-215 (2015)
 DOI: 10.1080/00268976.2014.952696

 Q-Chem 5.1.1 for Intel X86 EM64T Linux

 Parts of Q-Chem use Armadillo 8.300.2 (Tropical Shenanigans).
 http://arma.sourceforge.net/

 Q-Chem begins on Thu Nov 12 14:47:01 2020  

Host: n0080.mhg0
0

     Scratch files written to /local/scratch/users/yhljason/CH3BO_B97M-V_aug-pc-4.inp20201112144659//
Input Ideriv = 2
Curr. Ideriv = -1
Max.  Ideriv = 2
Input Ideriv = 1
Curr. Ideriv = 2
Max.  Ideriv = 1

Checking the input file for inconsistencies... 	...done.

--------------------------------------------------------------
User input:
--------------------------------------------------------------
$molecule
0 1
        C         0.0000000000    0.0000000000   -1.2996000000
        B         0.0000000000    0.0000000000    0.2378000000
        O         0.0000000000    0.0000000000    1.4554000000
        H         0.0000000000    1.0193000000   -1.6782000000
        H         0.8827000000   -0.5096000000   -1.6782000000
        H        -0.8827000000   -0.5096000000   -1.6782000000
$end

$rem
jobtype sp
method B97M-V
xc_grid 000099000590
basis aug-pc-4
max_scf_cycles 200
thresh 14
scf_convergence 8
scf_algorithm gdm
symmetry false
sym_ignore true
unrestricted True
gen_scfman true
internal_stability_iter 15
internal_stability_davidson_iter 200
mem_total 64000
mem_static 1500
n_frozen_core 0
$end



--------------------------------------------------------------
 ----------------------------------------------------------------
             Standard Nuclear Orientation (Angstroms)
    I     Atom           X                Y                Z
 ----------------------------------------------------------------
    1      C       0.0000000000     0.0000000000    -1.2996000000
    2      B       0.0000000000     0.0000000000     0.2378000000
    3      O       0.0000000000     0.0000000000     1.4554000000
    4      H       0.0000000000     1.0193000000    -1.6782000000
    5      H       0.8827000000    -0.5096000000    -1.6782000000
    6      H      -0.8827000000    -0.5096000000    -1.6782000000
 ----------------------------------------------------------------
 Nuclear Repulsion Energy =    54.1014211804 hartrees
 There are       11 alpha and       11 beta electrons
 Requested basis set is aug-pc-4
 There are 171 shells and 699 basis functions

 Total QAlloc Memory Limit  64000 MB
 Mega-Array Size      1467 MB
 MEM_STATIC part      1500 MB

                       Distance Matrix (Angstroms)
             C (  1)   B (  2)   O (  3)   H (  4)   H (  5)
   B (  2)  1.537400
   O (  3)  2.755000  1.217600
   H (  4)  1.087341  2.170260  3.295212
   H (  5)  1.087285  2.170232  3.295194  1.765416
   H (  6)  1.087285  2.170232  3.295194  1.765416  1.765400
 
 A cutoff of  1.0D-14 yielded  14128 shell pairs
 There are    238794 function pairs (    438164 Cartesian)
 
 -------------------------------------------------------
 OpenMP Integral Computing Module                       
 Release: version 1.0, May 2013, Q-Chem Inc. Pittsburgh 
 -------------------------------------------------------
 Integral Job Info:
 Integral job number is                      11
 Integral operator is                         1
 short-range coefficients                     0
 long-range coefficients              100000000
 Omega coefficients                           0
 if combine SR and LR in K                    0
 Integral screening is                        0
 Integral computing path is                   2
 max size of driver memory is           6400000
 size of driver memory is               5498286
 size of scratch memory is             29792225
 max col of scratch BK array             194481
 max len of scratch array in speh3         5572
 max len of scratch index in speh4           72
 max int batch size is                      520
 min int batch size is                       52
 fixed nKL is                                25
 max L of basis functions is                  5
 order of int derivative is                   0
 number of shells is                        171
 number of basis is                         945
 number of cartesian basis is               945
 number of contracted shell pairs         14128
 number of primitive shell pairs          26252
 maxK2 (contraction) of shell pair          121
 max number of K2 of shell pair               1
 max number of CS2 of shell pair           1730
 max number of PS2 of shell pair           1730
 mem total for path MDJ                 1681480
 -------------------------------------------------------
 Smallest overlap matrix eigenvalue = 4.55E-08
 Linear dependence detected in AO basis
 Number of orthogonalized atomic orbitals = 688
 Maximum deviation from orthogonality = 4.006E-10

 Scale SEOQF with 1.000000e-01/1.000000e-01/1.000000e-01

 Standard Electronic Orientation quadrupole field applied
 Nucleus-field energy     =    -0.0000000037 hartrees
 Guess from superposition of atomic densities
 Warning:  Energy on first SCF cycle will be non-variational
 SAD guess density has 22.000000 electrons

 -----------------------------------------------------------------------
  General SCF calculation program by
  Eric Jon Sundstrom, Paul Horn, Yuezhi Mao, Dmitri Zuev, Alec White,
  David Stuck, Shaama M.S., Shane Yost, Joonho Lee, David Small,
  Daniel Levine, Susi Lehtola, Hugh Burton, Evgeny Epifanovsky
 -----------------------------------------------------------------------
 Exchange:  B97M-V      Correlation:  B97M-V
 Using Euler-Maclaurin-Lebedev (99,590) quadrature formula
 Nonlocal Correlation:  VV10 with C = 0.0100 and b = 6.00 and scale = 1.00000
 Grid used for NLC:  SG-1 standard quadrature
Running Object-Oriented UKS (UHF)
performing a single roothaan step with Fock from read density so that orbitals are available to all algorithms
 Nonlocal correlation = 0.088809135254
energy of the guess density (C=0) -140.224161771972
 Nonlocal correlation = 0.091430264699
We will preform up to 15 macro iterations over saddle points until a stable solution is found
Energy prior to optimization (guess energy) = -139.959159824340
Begin Timing: Total SCF Calculation
Begin Timing: SCF Single Stationary Point Calculation
begin iterations for algorithm: GDM          
the SCF tolerance is set to 1.00e-08
 Nonlocal correlation = 9.013963141320e-02
    1    -139.9591598243      2.29e-01     00000  Descent step
 Nonlocal correlation = 9.075394702787e-02
    2    -140.0512847106      2.18e-01     00000  Descent step
 Nonlocal correlation = 9.032998377473e-02
    3    -140.0574279483      1.65e-01     00000  Normal BFGS step
 Nonlocal correlation = 9.042831400964e-02
    4    -140.1008926283      2.21e-02     00000  Normal BFGS step
 Nonlocal correlation = 9.038186400556e-02
    5    -140.1041121739      4.80e-03     00000  Normal BFGS step
 Nonlocal correlation = 9.038933291199e-02
    6    -140.1044236845      3.10e-03     00000  Normal BFGS step
 Nonlocal correlation = 9.039039550011e-02
    7    -140.1044940380      8.87e-04     00000  Normal BFGS step
 Nonlocal correlation = 9.039049524075e-02
    8    -140.1044967103      1.69e-04     00000  Normal BFGS step
 Nonlocal correlation = 9.039007886648e-02
    9    -140.1044970656      9.75e-05     00000  Normal BFGS step
 Nonlocal correlation = 9.039021865514e-02
   10    -140.1044971179      2.58e-05     00000  Normal BFGS step
 Nonlocal correlation = 9.039021092828e-02
   11    -140.1044971233      2.99e-06     00000  Normal BFGS step
 Nonlocal correlation = 9.039020905183e-02
   12    -140.1044971235      1.27e-06     00000  Normal BFGS step
 Nonlocal correlation = 9.039020568541e-02
   13    -140.1044971235      5.13e-07     00000  Normal BFGS step
 Nonlocal correlation = 9.039020854904e-02
   14    -140.1044971235      7.65e-07     00000  Normal BFGS step
 Nonlocal correlation = 9.039020843081e-02
   15    -140.1044971235      6.48e-09     00000 Convergence criterion met
Timing for Single Stationary Point: 3153.00s (wall), 25218.60s (cpu)
Begin Timing: Stability
===================================================
Beginning Test for Internal Stability
===================================================
generating davidson guess vectors based on koopmans excitations
computing hessian-vector products by finite difference
 Nonlocal correlation = 0.090390208442
 Nonlocal correlation = 0.090390208399
 Nonlocal correlation = 0.090390208464
 Nonlocal correlation = 0.090390208377
 Nonlocal correlation = 0.090390208431
    1      4.06e-01     00000 Davidson Iteration
computing hessian-vector products by finite difference
 Nonlocal correlation = 9.039020702799e-02
 Nonlocal correlation = 9.039020981238e-02
 Nonlocal correlation = 9.039020625428e-02
 Nonlocal correlation = 9.039021061089e-02
 Nonlocal correlation = 9.039020843081e-02
    2      2.76e-01     00000 Davidson Iteration
computing hessian-vector products by finite difference
 Nonlocal correlation = 9.039023467780e-02
 Nonlocal correlation = 9.039018216870e-02
 Nonlocal correlation = 9.039028232265e-02
 Nonlocal correlation = 9.039013452448e-02
 Nonlocal correlation = 9.039020843081e-02
    3      5.45e-02     00000 Davidson Iteration
computing hessian-vector products by finite difference
 Nonlocal correlation = 9.039003818387e-02
 Nonlocal correlation = 9.039037866716e-02
 Nonlocal correlation = 9.039020444145e-02
 Nonlocal correlation = 9.039021240305e-02
 Nonlocal correlation = 9.039020843081e-02
    4      1.23e-02     00000 Davidson Iteration
computing hessian-vector products by finite difference
 Nonlocal correlation = 9.039022100726e-02
 Nonlocal correlation = 9.039019583954e-02
 Nonlocal correlation = 9.039019429264e-02
 Nonlocal correlation = 9.039022255185e-02
 Nonlocal correlation = 9.039020843081e-02
    5      8.64e-03     00000 Davidson Iteration
computing hessian-vector products by finite difference
 Nonlocal correlation = 9.039016671501e-02
 Nonlocal correlation = 9.039025013617e-02
 Nonlocal correlation = 9.039016538193e-02
 Nonlocal correlation = 9.039025146527e-02
 Nonlocal correlation = 9.039020843081e-02
    6      3.97e-03     00000 Davidson Iteration
computing hessian-vector products by finite difference
 Nonlocal correlation = 9.039028740366e-02
 Nonlocal correlation = 9.039012944753e-02
 Nonlocal correlation = 9.039024306822e-02
 Nonlocal correlation = 9.039017377642e-02
 Nonlocal correlation = 9.039020843081e-02
    7      3.99e-03     00000 Davidson Iteration
computing hessian-vector products by finite difference
 Nonlocal correlation = 9.039030362386e-02
 Nonlocal correlation = 9.039011322491e-02
 Nonlocal correlation = 9.039030163851e-02
 Nonlocal correlation = 9.039011521301e-02
 Nonlocal correlation = 9.039020843081e-02
    8      1.28e-02     00000 Davidson Iteration
computing hessian-vector products by finite difference
 Nonlocal correlation = 9.039019814026e-02
 Nonlocal correlation = 9.039021871118e-02
 Nonlocal correlation = 9.039026122667e-02
 Nonlocal correlation = 9.039015562197e-02
 Nonlocal correlation = 9.039020843081e-02
    9      3.36e-03     00000 Davidson Iteration
computing hessian-vector products by finite difference
 Nonlocal correlation = 9.039021268334e-02
 Nonlocal correlation = 9.039020416648e-02
 Nonlocal correlation = 9.039022408399e-02
 Nonlocal correlation = 9.039019276958e-02
 Nonlocal correlation = 9.039020843081e-02
   10      3.27e-03     00000 Davidson Iteration
computing hessian-vector products by finite difference
 Nonlocal correlation = 9.039029860338e-02
 Nonlocal correlation = 9.039011824945e-02
 Nonlocal correlation = 9.039018566748e-02
 Nonlocal correlation = 9.039023118517e-02
 Nonlocal correlation = 9.039020843081e-02
   11      2.76e-03     00000 Davidson Iteration
computing hessian-vector products by finite difference
 Nonlocal correlation = 9.039010856171e-02
 Nonlocal correlation = 9.039030829208e-02
 Nonlocal correlation = 9.039020710356e-02
 Nonlocal correlation = 9.039020974759e-02
 Nonlocal correlation = 9.039020843081e-02
   12      1.53e-03     00000 Davidson Iteration
computing hessian-vector products by finite difference
 Nonlocal correlation = 9.039016030027e-02
 Nonlocal correlation = 9.039025655251e-02
 Nonlocal correlation = 9.039020179303e-02
 Nonlocal correlation = 9.039021506182e-02
 Nonlocal correlation = 9.039020843081e-02
   13      4.35e-04     00000 Davidson Iteration
computing hessian-vector products by finite difference
 Nonlocal correlation = 9.039017668795e-02
 Nonlocal correlation = 9.039024015915e-02
 Nonlocal correlation = 9.039018383497e-02
 Nonlocal correlation = 9.039023301623e-02
 Nonlocal correlation = 9.039020843081e-02
   14      1.47e-03     00000 Davidson Iteration
computing hessian-vector products by finite difference
 Nonlocal correlation = 9.039020074274e-02
 Nonlocal correlation = 9.039021610332e-02
 Nonlocal correlation = 9.039023251669e-02
 Nonlocal correlation = 9.039018433301e-02
 Nonlocal correlation = 9.039020843081e-02
   15      7.14e-04     00000 Davidson Converged
converged_eigenvalues
   0.4610
   0.3719
   0.5331
Threshold for negative eigenvalues: -1.0e-05
solution was a local minimum (stable)
===================================================
End Test for Internal Stability
===================================================
Our SCF solution is stable!
Timing for Total SCF: 18845.00s (wall), 150700.25s (cpu)
 Total energy in the final basis set =     -140.1044971235
<S^2> =         -0.000000000
    ==================================================
              The end of Object-Oriented SCFman       
    ==================================================
 
 --------------------------------------------------------------
 
                    Orbital Energies (a.u.)
 --------------------------------------------------------------
 
 Alpha MOs
 -- Occupied --
-19.132 -10.202  -6.765  -0.961  -0.724  -0.421  -0.421  -0.416
 -0.365  -0.309  -0.309
 -- Virtual --
 -0.030   0.003   0.003   0.008   0.008   0.009   0.027   0.030
  0.030   0.032   0.035   0.035   0.043   0.047   0.047   0.070
  0.070   0.071   0.077   0.077   0.077   0.089   0.089   0.093
  0.094   0.094   0.111   0.113   0.123   0.123   0.124   0.129
  0.138   0.138   0.153   0.153   0.156   0.157   0.161   0.162
  0.162   0.165   0.165   0.174   0.178   0.178   0.187   0.190
  0.190   0.211   0.211   0.222   0.227   0.227   0.234   0.236
  0.236   0.244   0.248   0.248   0.258   0.258   0.264   0.264
  0.271   0.280   0.280   0.290   0.292   0.292   0.292   0.304
  0.305   0.322   0.325   0.329   0.329   0.333   0.333   0.337
  0.340   0.340   0.348   0.348   0.356   0.358   0.359   0.359
  0.367   0.374   0.374   0.382   0.390   0.390   0.400   0.407
  0.407   0.412   0.412   0.413   0.423   0.423   0.423   0.443
  0.443   0.453   0.457   0.457   0.469   0.469   0.483   0.483
  0.488   0.488   0.497   0.497   0.503   0.506   0.510   0.510
  0.510   0.527   0.532   0.532   0.534   0.534   0.540   0.540
  0.564   0.572   0.578   0.578   0.579   0.591   0.591   0.595
  0.606   0.611   0.611   0.620   0.620   0.638   0.648   0.648
  0.654   0.654   0.661   0.682   0.688   0.701   0.702   0.702
  0.708   0.718   0.722   0.722   0.733   0.733   0.739   0.739
  0.759   0.772   0.772   0.796   0.798   0.798   0.802   0.809
  0.811   0.811   0.826   0.833   0.833   0.835   0.835   0.842
  0.861   0.869   0.869   0.874   0.874   0.878   0.881   0.882
  0.884   0.898   0.913   0.913   0.917   0.917   0.929   0.929
  0.934   0.935   0.935   0.937   0.940   0.947   0.947   0.959
  0.980   0.980   0.995   0.995   1.000   1.001   1.001   1.017
  1.020   1.034   1.034   1.044   1.047   1.047   1.052   1.052
  1.069   1.069   1.082   1.096   1.099   1.099   1.126   1.137
  1.137   1.167   1.167   1.192   1.192   1.239   1.243   1.243
  1.261   1.264   1.264   1.293   1.316   1.317   1.317   1.353
  1.353   1.356   1.442   1.446   1.446   1.492   1.492   1.509
  1.518   1.546   1.546   1.559   1.573   1.605   1.605   1.607
  1.638   1.638   1.686   1.699   1.699   1.713   1.713   1.740
  1.757   1.757   1.759   1.808   1.808   1.845   1.850   1.850
  1.923   1.931   1.960   1.960   1.970   1.996   1.996   2.081
  2.082   2.082   2.113   2.113   2.119   2.140   2.193   2.193
  2.223   2.283   2.283   2.293   2.379   2.399   2.399   2.467
  2.496   2.496   2.551   2.565   2.565   2.619   2.622   2.622
  2.685   2.685   2.725   2.792   2.868   2.868   2.923   2.948
  2.948   3.041   3.048   3.048   3.183   3.183   3.183   3.277
  3.277   3.280   3.385   3.385   3.437   3.437   3.452   3.479
  3.499   3.499   3.544   3.544   3.599   3.640   3.640   3.735
  3.735   3.758   3.912   3.912   3.918   3.936   3.978   3.979
  4.028   4.028   4.033   4.060   4.065   4.096   4.096   4.181
  4.194   4.194   4.250   4.250   4.352   4.352   4.411   4.441
  4.444   4.444   4.468   4.468   4.515   4.591   4.591   4.608
  4.608   4.649   4.657   4.657   4.658   4.824   4.824   4.841
  4.893   4.893   4.909   4.909   4.926   4.998   4.998   5.129
  5.189   5.233   5.234   5.382   5.387   5.387   5.493   5.527
  5.580   5.580   5.594   5.655   5.679   5.715   5.715   5.739
  5.914   5.914   5.991   5.991   6.033   6.066   6.121   6.121
  6.244   6.317   6.317   6.411   6.415   6.415   6.455   6.455
  6.510   6.674   6.775   6.775   6.830   6.830   6.903   6.956
  6.982   7.018   7.018   7.131   7.131   7.276   7.305   7.305
  7.311   7.358   7.358   7.785   7.785   7.826   8.178   8.178
  8.203   8.203   8.238   8.370   8.565   8.565   8.738   8.953
  8.953   8.974   9.045   9.266   9.266   9.342   9.342   9.587
  9.620   9.620   9.658   9.658   9.662   9.744   9.758   9.758
  9.795   9.861   9.941   9.991   9.991  10.019  10.019  10.058
 10.059  10.135  10.141  10.141  10.174  10.367  10.398  10.398
 10.485  10.485  10.492  10.503  10.561  10.580  10.580  10.617
 10.617  10.753  10.753  10.855  10.855  10.916  11.047  11.103
 11.103  11.162  11.430  11.430  11.450  11.450  11.451  11.682
 11.682  11.827  11.839  11.839  11.880  11.908  11.908  12.060
 12.060  12.141  12.284  12.364  12.408  12.408  12.452  12.452
 12.590  12.814  12.897  12.930  12.930  12.965  12.965  12.969
 12.969  13.004  13.050  13.050  13.098  13.098  13.372  13.388
 13.390  13.424  13.522  13.522  13.662  13.662  13.759  13.785
 13.785  13.883  13.883  13.929  13.945  13.946  13.959  14.013
 14.044  14.137  14.137  14.203  14.203  14.246  14.338  14.338
 14.404  14.404  14.572  14.766  14.766  14.798  15.110  15.184
 15.295  15.295  15.662  15.754  15.755  16.107  16.107  16.151
 16.177  16.177  16.304  16.623  16.717  16.866  16.866  16.959
 16.959  17.721  17.721  18.072  18.072  18.218  18.263  18.382
 18.383  18.553  18.553  18.575  18.612  18.612  18.648  18.718
 18.718  18.813  18.918  18.918  19.226  19.261  19.261  19.779
 19.915  19.915  20.002  20.002  20.130  20.130  20.183  20.402
 20.533  20.962  20.962  21.042  21.042  21.079  21.274  21.274
 21.662  21.662  22.030  22.048  22.048  22.177  22.309  22.414
 22.414  24.007  24.007  24.292  24.548  24.583  24.583  24.959
 25.157  25.157  25.416  25.416  26.105  26.170  26.171  27.308
 31.943  33.045  33.045  33.564  33.564  34.271  34.910  34.910
 35.256  40.141  40.141  40.484  68.084  68.084  68.950  68.950
 70.218  80.676  82.600  89.100  89.143  89.143  89.193  89.423
 89.423  89.608  89.751  89.751 148.391
 
 Beta MOs
 -- Occupied --
-19.132 -10.202  -6.765  -0.961  -0.724  -0.421  -0.421  -0.416
 -0.365  -0.309  -0.309
 -- Virtual --
 -0.030   0.003   0.003   0.008   0.008   0.009   0.027   0.030
  0.030   0.032   0.035   0.035   0.043   0.047   0.047   0.070
  0.070   0.071   0.077   0.077   0.077   0.089   0.089   0.093
  0.094   0.094   0.111   0.113   0.123   0.123   0.124   0.129
  0.138   0.138   0.153   0.153   0.156   0.157   0.161   0.162
  0.162   0.165   0.165   0.174   0.178   0.178   0.187   0.190
  0.190   0.211   0.211   0.222   0.227   0.227   0.234   0.236
  0.236   0.244   0.248   0.248   0.258   0.258   0.264   0.264
  0.271   0.280   0.280   0.290   0.292   0.292   0.292   0.304
  0.305   0.322   0.325   0.329   0.329   0.333   0.333   0.337
  0.340   0.340   0.348   0.348   0.356   0.358   0.359   0.359
  0.367   0.374   0.374   0.382   0.390   0.390   0.400   0.407
  0.407   0.412   0.412   0.413   0.423   0.423   0.423   0.443
  0.443   0.453   0.457   0.457   0.469   0.469   0.483   0.483
  0.488   0.488   0.497   0.497   0.503   0.506   0.510   0.510
  0.510   0.527   0.532   0.532   0.534   0.534   0.540   0.540
  0.564   0.572   0.578   0.578   0.579   0.591   0.591   0.595
  0.606   0.611   0.611   0.620   0.620   0.638   0.648   0.648
  0.654   0.654   0.661   0.682   0.688   0.701   0.702   0.702
  0.708   0.718   0.722   0.722   0.733   0.733   0.739   0.739
  0.759   0.772   0.772   0.796   0.798   0.798   0.802   0.809
  0.811   0.811   0.826   0.833   0.833   0.835   0.835   0.842
  0.861   0.869   0.869   0.874   0.874   0.878   0.881   0.882
  0.884   0.898   0.913   0.913   0.917   0.917   0.929   0.929
  0.934   0.935   0.935   0.937   0.940   0.947   0.947   0.959
  0.980   0.980   0.995   0.995   1.000   1.001   1.001   1.017
  1.020   1.034   1.034   1.044   1.047   1.047   1.052   1.052
  1.069   1.069   1.082   1.096   1.099   1.099   1.126   1.137
  1.137   1.167   1.167   1.192   1.192   1.239   1.243   1.243
  1.261   1.264   1.264   1.293   1.316   1.317   1.317   1.353
  1.353   1.356   1.442   1.446   1.446   1.492   1.492   1.509
  1.518   1.546   1.546   1.559   1.573   1.605   1.605   1.607
  1.638   1.638   1.686   1.699   1.699   1.713   1.713   1.740
  1.757   1.757   1.759   1.808   1.808   1.845   1.850   1.850
  1.923   1.931   1.960   1.960   1.970   1.996   1.996   2.081
  2.082   2.082   2.113   2.113   2.119   2.140   2.193   2.193
  2.223   2.283   2.283   2.293   2.379   2.399   2.399   2.467
  2.496   2.496   2.551   2.565   2.565   2.619   2.622   2.622
  2.685   2.685   2.725   2.792   2.868   2.868   2.923   2.948
  2.948   3.041   3.048   3.048   3.183   3.183   3.183   3.277
  3.277   3.280   3.385   3.385   3.437   3.437   3.452   3.479
  3.499   3.499   3.544   3.544   3.599   3.640   3.640   3.735
  3.735   3.758   3.912   3.912   3.918   3.936   3.978   3.979
  4.028   4.028   4.033   4.060   4.065   4.096   4.096   4.181
  4.194   4.194   4.250   4.250   4.352   4.352   4.411   4.441
  4.444   4.444   4.468   4.468   4.515   4.591   4.591   4.608
  4.608   4.649   4.657   4.657   4.658   4.824   4.824   4.841
  4.893   4.893   4.909   4.909   4.926   4.998   4.998   5.129
  5.189   5.233   5.234   5.382   5.387   5.387   5.493   5.527
  5.580   5.580   5.594   5.655   5.679   5.715   5.715   5.739
  5.914   5.914   5.991   5.991   6.033   6.066   6.121   6.121
  6.244   6.317   6.317   6.411   6.415   6.415   6.455   6.455
  6.510   6.674   6.775   6.775   6.830   6.830   6.903   6.956
  6.982   7.018   7.018   7.131   7.131   7.276   7.305   7.305
  7.311   7.358   7.358   7.785   7.785   7.826   8.178   8.178
  8.203   8.203   8.238   8.370   8.565   8.565   8.738   8.953
  8.953   8.974   9.045   9.266   9.266   9.342   9.342   9.587
  9.620   9.620   9.658   9.658   9.662   9.744   9.758   9.758
  9.795   9.861   9.941   9.991   9.991  10.019  10.019  10.058
 10.059  10.135  10.141  10.141  10.174  10.367  10.398  10.398
 10.485  10.485  10.492  10.503  10.561  10.580  10.580  10.617
 10.617  10.753  10.753  10.855  10.855  10.916  11.047  11.103
 11.103  11.162  11.430  11.430  11.450  11.450  11.451  11.682
 11.682  11.827  11.839  11.839  11.880  11.908  11.908  12.060
 12.060  12.141  12.284  12.364  12.408  12.408  12.452  12.452
 12.590  12.814  12.897  12.930  12.930  12.965  12.965  12.969
 12.969  13.004  13.050  13.050  13.098  13.098  13.372  13.388
 13.390  13.424  13.522  13.522  13.662  13.662  13.759  13.785
 13.785  13.883  13.883  13.929  13.945  13.946  13.959  14.013
 14.044  14.137  14.137  14.203  14.203  14.246  14.338  14.338
 14.404  14.404  14.572  14.766  14.766  14.798  15.110  15.184
 15.295  15.295  15.662  15.754  15.755  16.107  16.107  16.151
 16.177  16.177  16.304  16.623  16.717  16.866  16.866  16.959
 16.959  17.721  17.721  18.072  18.072  18.218  18.263  18.382
 18.383  18.553  18.553  18.575  18.612  18.612  18.648  18.718
 18.718  18.813  18.918  18.918  19.226  19.261  19.261  19.779
 19.915  19.915  20.002  20.002  20.130  20.130  20.183  20.402
 20.533  20.962  20.962  21.042  21.042  21.079  21.274  21.274
 21.662  21.662  22.030  22.048  22.048  22.177  22.309  22.414
 22.414  24.007  24.007  24.292  24.548  24.583  24.583  24.959
 25.157  25.157  25.416  25.416  26.105  26.170  26.171  27.308
 31.943  33.045  33.045  33.564  33.564  34.271  34.910  34.910
 35.256  40.141  40.141  40.484  68.084  68.084  68.950  68.950
 70.218  80.676  82.600  89.100  89.143  89.143  89.193  89.423
 89.423  89.608  89.751  89.751 148.391
 --------------------------------------------------------------
 
          Ground-State Mulliken Net Atomic Charges

     Atom                 Charge (a.u.)    Spin (a.u.)
  --------------------------------------------------------
      1 C                     0.516157       0.000000
      2 B                    -0.191944      -0.000000
      3 O                    -0.412311       0.000000
      4 H                     0.029454      -0.000000
      5 H                     0.029322      -0.000000
      6 H                     0.029322       0.000000
  --------------------------------------------------------
  Sum of atomic charges =    -0.000000
  Sum of spin   charges =    -0.000000

 -----------------------------------------------------------------
                    Cartesian Multipole Moments
 -----------------------------------------------------------------
    Charge (ESU x 10^10)
                -0.0000
    Dipole Moment (Debye)
         X      -0.0000      Y      -0.0000      Z      -3.7801
       Tot       3.7801
    Quadrupole Moments (Debye-Ang)
        XX     -17.0792     XY       0.0000     YY     -17.0793
        XZ       0.0000     YZ      -0.0000     ZZ     -21.5993
    Octopole Moments (Debye-Ang^2)
       XXX      -0.0000    XXY      -0.6977    XYY      -0.0000
       YYY       0.6973    XXZ      -0.3238    XYZ       0.0000
       YYZ      -0.3238    XZZ      -0.0000    YZZ      -0.0001
       ZZZ      -6.3534
    Hexadecapole Moments (Debye-Ang^3)
      XXXX     -24.2436   XXXY       0.0000   XXYY      -8.0814
      XYYY       0.0000   YYYY     -24.2442   XXXZ       0.0000
      XXYZ       1.3310   XYYZ       0.0000   YYYZ      -1.3303
      XXZZ     -33.3309   XYZZ       0.0000   YYZZ     -33.3311
      XZZZ      -0.0000   YZZZ       0.0006   ZZZZ    -194.0468
 -----------------------------------------------------------------
Archival summary:
1\1\n0080.mhg0\SP\ProcedureUnspecified\BasisUnspecified\1113\yhljason\ThuNov1220:06:172020ThuNov1220:06:172020\0\\#,ProcedureUnspecified,BasisUnspecified,\\0,1\B\O,1,1.2176\C,1,1.5374,2,180\H,3,1.08729,1,110.378,2,0,0\H,3,1.08729,1,110.378,1,0,0\H,3,1.08734,1,110.377,1,0,0\\\@

 Total job time:  19156.85s(wall), 153001.86s(cpu) 
 Thu Nov 12 20:06:17 2020

        *************************************************************
        *                                                           *
        *  Thank you very much for using Q-Chem.  Have a nice day.  *
        *                                                           *
        *************************************************************


