Q-Chem Developer Version!
                  Welcome to Q-Chem
     A Quantum Leap Into The Future Of Chemistry


 Q-Chem 5.1, Q-Chem, Inc., Pleasanton, CA (2018)

 Yihan Shao,  Zhengting Gan,  E. Epifanovsky,  A. T. B. Gilbert,  M. Wormit,  
 J. Kussmann,  A. W. Lange,  A. Behn,  Jia Deng,  Xintian Feng,  D. Ghosh,  
 M. Goldey,  P. R. Horn,  L. D. Jacobson,  I. Kaliman,  T. Kus,  A. Landau,  
 Jie Liu,  E. I. Proynov,  R. M. Richard,  R. P. Steele,  E. J. Sundstrom,  
 H. L. Woodcock III,  P. M. Zimmerman,  D. Zuev,  B. Albrecht,  E. Alguire,  
 S. A. Baeppler,  D. Barton,  Z. Benda,  Y. A. Bernard,  E. J. Berquist,  
 K. B. Bravaya,  H. Burton,  D. Casanova,  Chun-Min Chang,  Yunqing Chen,  
 A. Chien,  K. D. Closser,  M. P. Coons,  S. Coriani,  S. Dasgupta,  
 A. L. Dempwolff,  M. Diedenhofen,  Hainam Do,  R. G. Edgar,  Po-Tung Fang,  
 S. Faraji,  S. Fatehi,  Qingguo Feng,  K. D. Fenk,  J. Fosso-Tande,  
 Qinghui Ge,  A. Ghysels,  G. Gidofalvi,  J. Gomes,  J. Gonthier,  A. Gunina,  
 D. Hait,  M. W. D. Hanson-Heine,  P. H. P. Harbach,  A. W. Hauser,  
 J. E. Herr,  E. G. Hohenstein,  Z. C. Holden,  Kerwin Hui,  B. C. Huynh,  
 T.-C. Jagau,  Hyunjun Ji,  B. Kaduk,  K. Khistyaev,  Jaehoon Kim,  
 P. Klunzinger,  K. Koh,  D. Kosenkov,  L. Koulias,  T. Kowalczyk,  
 C. M. Krauter,  A. Kunitsa,  Ka Un Lao,  A. Laurent,  K. V. Lawler,  
 Joonho Lee,  D. Lefrancois,  S. Lehtola,  D. S. Levine,  Yi-Pei Li,  
 You-Sheng Lin,  Fenglai Liu,  E. Livshits,  A. Luenser,  P. Manohar,  
 E. Mansoor,  S. F. Manzer,  Shan-Ping Mao,  Yuezhi Mao,  N. Mardirossian,  
 A. V. Marenich,  T. Markovich,  L. A. Martinez-Martinez,  S. A. Maurer,  
 N. J. Mayhall,  S. C. McKenzie,  J.-M. Mewes,  A. F. Morrison,  
 J. W. Mullinax,  K. Nanda,  T. S. Nguyen-Beck,  R. Olivares-Amaya,  
 J. A. Parkhill,  T. M. Perrine,  F. Plasser,  P. Pokhilko,  S. Prager,  
 A. Prociuk,  E. Ramos,  D. R. Rehn,  F. Rob,  M. Schneider,  N. Sergueev,  
 S. M. Sharada,  S. Sharma,  D. W. Small,  T. Stauch,  T. Stein,  
 Yu-Chuan Su,  A. J. W. Thom,  A. Tkatchenko,  T. Tsuchimochi,  N. M. Tubman,  
 L. Vogt,  M. L. Vidal,  O. Vydrov,  M. A. Watson,  J. Wenzel,  
 M. de Wergifosse,  T. A. Wesolowski,  A. White,  J. Witte,  A. Yamada,  
 Jun Yang,  K. Yao,  S. Yeganeh,  S. R. Yost,  Zhi-Qiang You,  A. Zech,  
 Igor Ying Zhang,  Xing Zhang,  Yan Zhao,  Ying Zhu,  B. R. Brooks,  
 G. K. L. Chan,  C. J. Cramer,  M. S. Gordon,  W. J. Hehre,  A. Klamt,  
 M. W. Schmidt,  C. D. Sherrill,  D. G. Truhlar,  A. Aspuru-Guzik,  R. Baer,  
 A. T. Bell,  N. A. Besley,  Jeng-Da Chai,  A. E. DePrince, III,  
 R. A. DiStasio Jr.,  A. Dreuw,  B. D. Dunietz,  T. R. Furlani,  
 Chao-Ping Hsu,  Yousung Jung,  Jing Kong,  D. S. Lambrecht,  WanZhen Liang,  
 C. Ochsenfeld,  V. A. Rassolov,  L. V. Slipchenko,  J. E. Subotnik,  
 T. Van Voorhis,  J. M. Herbert,  A. I. Krylov,  P. M. W. Gill,  M. Head-Gordon

 Contributors to earlier versions of Q-Chem not listed above: 
 R. D. Adamson,  B. Austin,  J. Baker,  G. J. O. Beran,  K. Brandhorst,  
 S. T. Brown,  E. F. C. Byrd,  A. K. Chakraborty,  C.-L. Cheng,  
 Siu Hung Chien,  D. M. Chipman,  D. L. Crittenden,  H. Dachsel,  
 R. J. Doerksen,  A. D. Dutoi,  L. Fusti-Molnar,  W. A. Goddard III,  
 A. Golubeva-Zadorozhnaya,  S. R. Gwaltney,  G. Hawkins,  A. Heyden,  
 S. Hirata,  G. Kedziora,  F. J. Keil,  C. Kelley,  Jihan Kim,  R. A. King,  
 R. Z. Khaliullin,  P. P. Korambath,  W. Kurlancheek,  A. M. Lee,  M. S. Lee,  
 S. V. Levchenko,  Ching Yeh Lin,  D. Liotard,  R. C. Lochan,  I. Lotan,  
 P. E. Maslen,  N. Nair,  D. P. O'Neill,  D. Neuhauser,  E. Neuscamman,  
 C. M. Oana,  R. Olson,  B. Peters,  R. Peverati,  P. A. Pieniazek,  
 Y. M. Rhee,  J. Ritchie,  M. A. Rohrdanz,  E. Rosta,  N. J. Russ,  
 H. F. Schaefer III,  N. E. Schultz,  N. Shenvi,  A. C. Simmonett,  A. Sodt,  
 D. Stuck,  K. S. Thanthiriwatte,  V. Vanovschi,  Tao Wang,  A. Warshel,  
 C. F. Williams,  Q. Wu,  X. Xu,  W. Zhang

 Please cite Q-Chem as follows:
 Y. Shao et al., Mol. Phys. 113, 184-215 (2015)
 DOI: 10.1080/00268976.2014.952696

 Q-Chem 5.1.1 for Intel X86 EM64T Linux

 Parts of Q-Chem use Armadillo 8.300.2 (Tropical Shenanigans).
 http://arma.sourceforge.net/

 Q-Chem begins on Thu Nov 12 16:53:47 2020  

Host: n0062.mhg0
0

     Scratch files written to /local/scratch/users/yhljason/PO2_mPW91_aug-pc-4.inp20201112144724//
Input Ideriv = 2
Curr. Ideriv = -1
Max.  Ideriv = 2

Checking the input file for inconsistencies... 	...done.

--------------------------------------------------------------
User input:
--------------------------------------------------------------
$molecule
0 2
P1	0.0000	0.0000	0.2879
O2	0.0000	1.3563	-0.2699
O3	0.0000	-1.3563	-0.2699
$end

$rem
jobtype sp
method mPW91
xc_grid 000099000590
basis aug-pc-4
max_scf_cycles 200
thresh 14
scf_convergence 8
scf_algorithm gdm
symmetry false
sym_ignore true
unrestricted True
gen_scfman true
internal_stability_iter 15
internal_stability_davidson_iter 200
mem_total 64000
mem_static 1500
n_frozen_core 0
$end



--------------------------------------------------------------
 ----------------------------------------------------------------
             Standard Nuclear Orientation (Angstroms)
    I     Atom           X                Y                Z
 ----------------------------------------------------------------
    1      P       0.0000000000     0.0000000000     0.2879000000
    2      O       0.0000000000     1.3563000000    -0.2699000000
    3      O       0.0000000000    -1.3563000000    -0.2699000000
 ----------------------------------------------------------------
 Nuclear Repulsion Energy =    99.0862965144 hartrees
 There are       16 alpha and       15 beta electrons
 Requested basis set is aug-pc-4
 There are 97 shells and 431 basis functions

 Total QAlloc Memory Limit  64000 MB
 Mega-Array Size      1467 MB
 MEM_STATIC part      1500 MB

                       Distance Matrix (Angstroms)
             P (  1)   O (  2)
   O (  2)  1.466523
   O (  3)  1.466523  2.712600
 
 A cutoff of  1.0D-14 yielded   4606 shell pairs
 There are     92438 function pairs (    181595 Cartesian)
 
 -------------------------------------------------------
 OpenMP Integral Computing Module                       
 Release: version 1.0, May 2013, Q-Chem Inc. Pittsburgh 
 -------------------------------------------------------
 Integral Job Info:
 Integral job number is                      11
 Integral operator is                         1
 short-range coefficients                     0
 long-range coefficients              100000000
 Omega coefficients                           0
 if combine SR and LR in K                    0
 Integral screening is                        0
 Integral computing path is                   2
 max size of driver memory is           6400000
 size of driver memory is               5498286
 size of scratch memory is             27847117
 max col of scratch BK array             194481
 max len of scratch array in speh3         5572
 max len of scratch index in speh4           72
 max int batch size is                      520
 min int batch size is                       52
 fixed nKL is                                 7
 max L of basis functions is                  5
 order of int derivative is                   0
 number of shells is                         97
 number of basis is                         602
 number of cartesian basis is               602
 number of contracted shell pairs          4606
 number of primitive shell pairs          15803
 maxK2 (contraction) of shell pair          225
 max number of K2 of shell pair               1
 max number of CS2 of shell pair            393
 max number of PS2 of shell pair            792
 mem total for path MDJ                 1213232
 -------------------------------------------------------
 Smallest overlap matrix eigenvalue = 2.06E-06

 Scale SEOQF with 1.000000e-01/1.000000e-01/1.000000e-01

 Standard Electronic Orientation quadrupole field applied
 Nucleus-field energy     =     0.0000000018 hartrees
 Guess from superposition of atomic densities
 Warning:  Energy on first SCF cycle will be non-variational
 SAD guess density has 31.000000 electrons

 -----------------------------------------------------------------------
  General SCF calculation program by
  Eric Jon Sundstrom, Paul Horn, Yuezhi Mao, Dmitri Zuev, Alec White,
  David Stuck, Shaama M.S., Shane Yost, Joonho Lee, David Small,
  Daniel Levine, Susi Lehtola, Hugh Burton, Evgeny Epifanovsky
 -----------------------------------------------------------------------
 Exchange:  mPW91      Correlation:  PW91
 Using Euler-Maclaurin-Lebedev (99,590) quadrature formula
Running Object-Oriented UKS (UHF)
performing a single roothaan step with Fock from read density so that orbitals are available to all algorithms
energy of the guess density (C=0) -492.335525214846
We will preform up to 15 macro iterations over saddle points until a stable solution is found
Energy prior to optimization (guess energy) = -491.693870293014
Begin Timing: Total SCF Calculation
Begin Timing: SCF Single Stationary Point Calculation
begin iterations for algorithm: GDM          
the SCF tolerance is set to 1.00e-08
    1    -491.6938702930      7.57e-01     00000  Descent step
    2    -491.8559946482      3.18e-01     00000  Descent step
    3    -491.8489960853      4.82e-01     00000 Line search: overstep
    4    -491.9043559299      5.93e-02     00000  Normal BFGS step
    5    -491.9150382907      1.66e-02     00000  Normal BFGS step
    6    -491.9176363472      5.29e-03     00000  Normal BFGS step
    7    -491.9178105363      1.58e-03     00000  Normal BFGS step
    8    -491.9178239048      3.03e-04     00000  Normal BFGS step
    9    -491.9178243399      1.22e-04     00000  Normal BFGS step
   10    -491.9178244983      3.88e-05     00000  Normal BFGS step
   11    -491.9178245042      1.24e-05     00000  Normal BFGS step
   12    -491.9178245048      1.44e-06     00000  Normal BFGS step
   13    -491.9178245048      3.67e-07     00000  Normal BFGS step
   14    -491.9178245048      1.22e-06     00000  Normal BFGS step
   15    -491.9178245048      9.49e-07     00000  Normal BFGS step
   16    -491.9178245048      8.98e-07     00000  Normal BFGS step
   17    -491.9178245048      6.59e-07     00000  Normal BFGS step
   18    -491.9178245048      4.23e-08     00000  Normal BFGS step
   19    -491.9178245048      2.25e-08     00000  Normal BFGS step
   20    -491.9178245048      3.96e-09     00000 Convergence criterion met
Timing for Single Stationary Point: 1083.00s (wall), 7777.55s (cpu)
Begin Timing: Stability
===================================================
Beginning Test for Internal Stability
===================================================
generating davidson guess vectors based on koopmans excitations
    1      6.49e-01     00000 Davidson Iteration
    2      2.36e-01     00000 Davidson Iteration
    3      1.87e-02     00000 Davidson Iteration
    4      1.51e-02     00000 Davidson Iteration
    5      2.52e-03     00000 Davidson Iteration
    6      1.21e-03     00000 Davidson Iteration
    7      4.21e-04     00000 Davidson Iteration
    8      1.02e-04     00000 Davidson Iteration
    9      5.30e-05     00000 Davidson Iteration
   10      4.69e-05     00000 Davidson Converged
converged_eigenvalues
   0.1972
   0.1792
Threshold for negative eigenvalues: -1.0e-05
solution was a local minimum (stable)
===================================================
End Test for Internal Stability
===================================================
Our SCF solution is stable!
Timing for Total SCF: 9985.00s (wall), 73011.40s (cpu)
 Total energy in the final basis set =     -491.9178245048
<S^2> =          0.753041279
    ==================================================
              The end of Object-Oriented SCFman       
    ==================================================
 
 --------------------------------------------------------------
 
                    Orbital Energies (a.u.)
 --------------------------------------------------------------
 
 Alpha MOs
 -- Occupied --
-76.439 -18.825 -18.825  -6.412  -4.634  -4.631  -4.627  -0.992
 -0.947  -0.516  -0.421  -0.405  -0.405  -0.339  -0.331  -0.275
 -- Virtual --
 -0.126  -0.038  -0.006   0.005   0.011   0.022   0.045   0.046
  0.049   0.050   0.051   0.053   0.068   0.073   0.082   0.094
  0.100   0.110   0.116   0.120   0.131   0.131   0.144   0.164
  0.164   0.170   0.176   0.178   0.195   0.199   0.200   0.211
  0.216   0.222   0.234   0.235   0.237   0.241   0.243   0.247
  0.256   0.265   0.278   0.296   0.302   0.307   0.308   0.318
  0.336   0.343   0.349   0.370   0.370   0.376   0.389   0.396
  0.420   0.423   0.425   0.429   0.429   0.444   0.445   0.450
  0.451   0.483   0.487   0.502   0.504   0.504   0.513   0.514
  0.518   0.530   0.534   0.536   0.540   0.554   0.561   0.564
  0.565   0.575   0.577   0.577   0.586   0.592   0.622   0.627
  0.634   0.639   0.658   0.670   0.675   0.682   0.700   0.703
  0.721   0.755   0.760   0.779   0.780   0.790   0.795   0.807
  0.822   0.823   0.824   0.829   0.833   0.834   0.862   0.868
  0.869   0.876   0.877   0.905   0.921   0.926   0.927   0.950
  0.951   0.961   0.969   0.970   1.008   1.012   1.021   1.025
  1.037   1.044   1.045   1.048   1.049   1.071   1.091   1.097
  1.108   1.116   1.122   1.129   1.135   1.152   1.174   1.188
  1.206   1.207   1.230   1.275   1.277   1.280   1.284   1.290
  1.320   1.339   1.396   1.409   1.457   1.459   1.474   1.505
  1.523   1.538   1.632   1.707   1.709   1.732   1.810   1.811
  1.824   1.832   1.843   1.843   1.861   1.878   1.902   1.929
  1.941   2.009   2.040   2.062   2.075   2.086   2.178   2.203
  2.209   2.214   2.271   2.283   2.331   2.363   2.374   2.431
  2.439   2.507   2.569   2.615   2.623   2.651   2.749   2.811
  2.894   2.896   2.931   2.948   2.977   2.998   3.014   3.050
  3.128   3.138   3.183   3.314   3.519   3.557   3.681   3.686
  3.777   3.812   3.990   3.999   4.022   4.077   4.102   4.165
  4.216   4.226   4.235   4.305   4.322   4.352   4.417   4.484
  4.553   4.603   4.621   4.621   4.626   4.631   4.646   4.841
  4.881   5.009   5.051   5.088   5.112   5.122   5.132   5.163
  5.270   5.274   5.331   5.349   5.350   5.405   5.524   5.540
  5.643   5.694   5.758   5.864   5.877   5.924   5.929   5.948
  6.032   6.075   6.141   6.307   6.310   6.488   6.569   6.621
  6.688   6.720   6.914   6.960   7.113   7.143   7.146   7.174
  7.289   7.289   7.439   7.476   7.518   7.575   7.621   7.724
  7.748   7.942   8.290   8.450   8.479   8.805   9.006   9.322
  9.355   9.376   9.418   9.609   9.710   9.758   9.860  10.227
 10.229  10.293  10.329  10.792  10.805  10.809  10.852  10.873
 11.094  11.105  11.204  11.337  11.468  11.503  11.989  11.990
 11.996  11.997  12.001  12.001  12.009  12.010  12.077  12.097
 12.168  12.208  12.258  12.293  12.327  12.334  12.390  12.391
 12.437  12.481  12.568  12.573  12.595  12.604  12.624  12.624
 12.798  12.839  12.843  13.009  13.082  13.182  13.730  13.923
 13.939  14.218  14.362  14.910  16.162  16.184  16.492  16.950
 16.950  16.954  16.954  17.089  17.097  17.139  17.148  17.522
 17.528  17.637  17.680  17.808  17.863  18.216  18.324  18.371
 18.484  18.617  18.637  22.890  22.916  22.931  22.955  23.169
 23.217  23.232  23.476  23.785  24.068  28.992  29.809  29.870
 31.781  31.809  31.841  31.934  32.893  33.480  58.835  58.849
 59.023  59.550  59.816  66.485  66.504  66.515  66.531  66.677
 66.722  66.722  66.884  67.332  67.399 142.598 142.743
 
 Beta MOs
 -- Occupied --
-76.437 -18.818 -18.818  -6.409  -4.632  -4.626  -4.626  -0.979
 -0.933  -0.494  -0.401  -0.398  -0.390  -0.335  -0.322
 -- Virtual --
 -0.227  -0.103  -0.024   0.005   0.009   0.016   0.028   0.049
  0.050   0.052   0.054   0.057   0.057   0.073   0.080   0.086
  0.099   0.104   0.114   0.121   0.124   0.134   0.138   0.152
  0.173   0.174   0.174   0.183   0.190   0.201   0.205   0.206
  0.218   0.222   0.227   0.240   0.243   0.245   0.249   0.249
  0.255   0.262   0.271   0.285   0.302   0.308   0.316   0.317
  0.325   0.340   0.353   0.356   0.376   0.376   0.383   0.394
  0.400   0.428   0.430   0.432   0.435   0.438   0.450   0.455
  0.457   0.462   0.491   0.494   0.506   0.513   0.514   0.516
  0.521   0.524   0.536   0.541   0.544   0.544   0.560   0.568
  0.569   0.570   0.579   0.582   0.583   0.592   0.596   0.625
  0.631   0.642   0.645   0.667   0.677   0.681   0.687   0.704
  0.709   0.726   0.760   0.760   0.786   0.787   0.793   0.798
  0.812   0.826   0.826   0.831   0.833   0.840   0.844   0.869
  0.874   0.880   0.880   0.886   0.910   0.930   0.932   0.934
  0.955   0.960   0.965   0.970   0.973   1.013   1.014   1.027
  1.033   1.040   1.052   1.053   1.054   1.059   1.075   1.094
  1.104   1.113   1.120   1.127   1.135   1.141   1.159   1.177
  1.192   1.209   1.215   1.242   1.279   1.284   1.288   1.291
  1.304   1.325   1.352   1.409   1.429   1.465   1.471   1.478
  1.511   1.530   1.543   1.652   1.712   1.714   1.738   1.813
  1.814   1.831   1.845   1.849   1.850   1.872   1.891   1.911
  1.933   1.949   2.016   2.049   2.072   2.087   2.087   2.187
  2.226   2.227   2.235   2.281   2.300   2.357   2.379   2.385
  2.447   2.448   2.516   2.584   2.625   2.631   2.660   2.764
  2.820   2.906   2.909   2.957   2.987   2.993   3.025   3.030
  3.063   3.136   3.149   3.194   3.328   3.528   3.564   3.700
  3.703   3.801   3.820   3.993   4.020   4.033   4.083   4.114
  4.171   4.230   4.239   4.242   4.318   4.339   4.365   4.422
  4.491   4.565   4.617   4.642   4.650   4.665   4.665   4.666
  4.855   4.895   5.020   5.064   5.094   5.118   5.133   5.140
  5.174   5.277   5.285   5.351   5.357   5.366   5.423   5.532
  5.552   5.651   5.707   5.767   5.874   5.885   5.930   5.937
  5.957   6.040   6.084   6.145   6.319   6.321   6.499   6.582
  6.634   6.697   6.734   6.930   6.971   7.123   7.149   7.157
  7.191   7.323   7.324   7.455   7.492   7.536   7.589   7.636
  7.738   7.764   7.957   8.298   8.457   8.490   8.819   9.018
  9.329   9.366   9.387   9.425   9.626   9.723   9.776   9.887
 10.245  10.246  10.303  10.339  10.806  10.813  10.823  10.856
 10.887  11.098  11.124  11.217  11.340  11.479  11.514  11.997
 11.998  12.007  12.007  12.008  12.008  12.011  12.012  12.090
 12.110  12.177  12.217  12.274  12.305  12.342  12.350  12.402
 12.403  12.455  12.507  12.586  12.595  12.603  12.613  12.636
 12.645  12.815  12.854  12.866  13.021  13.099  13.194  13.742
 13.943  13.952  14.237  14.379  14.931  16.170  16.192  16.495
 16.958  16.958  16.963  16.963  17.103  17.110  17.156  17.163
 17.535  17.542  17.654  17.701  17.830  17.878  18.237  18.348
 18.388  18.501  18.637  18.660  22.897  22.929  22.944  22.965
 23.191  23.246  23.248  23.509  23.809  24.094  29.005  29.821
 29.883  31.785  31.822  31.846  31.949  32.913  33.498  58.840
 58.855  59.024  59.555  59.819  66.490  66.512  66.524  66.538
 66.692  66.733  66.740  66.905  67.349  67.418 142.604 142.749
 --------------------------------------------------------------
 
          Ground-State Mulliken Net Atomic Charges

     Atom                 Charge (a.u.)    Spin (a.u.)
  --------------------------------------------------------
      1 P                     0.365174       0.582134
      2 O                    -0.182587       0.208933
      3 O                    -0.182587       0.208933
  --------------------------------------------------------
  Sum of atomic charges =     0.000000
  Sum of spin   charges =     1.000000

 -----------------------------------------------------------------
                    Cartesian Multipole Moments
 -----------------------------------------------------------------
    Charge (ESU x 10^10)
                -0.0000
    Dipole Moment (Debye)
         X      -0.0000      Y       0.0000      Z       1.2655
       Tot       1.2655
    Quadrupole Moments (Debye-Ang)
        XX     -21.0157     XY       0.0000     YY     -28.0914
        XZ      -0.0000     YZ      -0.0000     ZZ     -21.9281
    Octopole Moments (Debye-Ang^2)
       XXX      -0.0000    XXY      -0.0000    XYY       0.0000
       YYY       0.0000    XXZ      -0.1924    XYZ       0.0000
       YYZ       0.5662    XZZ      -0.0000    YZZ       0.0000
       ZZZ      -1.3875
    Hexadecapole Moments (Debye-Ang^3)
      XXXX     -21.9528   XXXY       0.0000   XXYY     -28.4739
      XYYY       0.0000   YYYY    -156.6593   XXXZ      -0.0000
      XXYZ      -0.0000   XYYZ      -0.0000   YYYZ      -0.0000
      XXZZ      -9.4538   XYZZ      -0.0000   YYZZ     -30.4067
      XZZZ      -0.0000   YZZZ      -0.0000   ZZZZ     -35.4588
 -----------------------------------------------------------------
Archival summary:
1\1\n0062.mhg0\SP\ProcedureUnspecified\BasisUnspecified\12(2)\yhljason\ThuNov1219:41:262020ThuNov1219:41:262020\0\\#,ProcedureUnspecified,BasisUnspecified,\\0,2\P\O,1,1.46652\O,1,1.46652,2,135.289\\\@

 Total job time:  10059.57s(wall), 73519.15s(cpu) 
 Thu Nov 12 19:41:26 2020

        *************************************************************
        *                                                           *
        *  Thank you very much for using Q-Chem.  Have a nice day.  *
        *                                                           *
        *************************************************************


