Q-Chem Developer Version!
                  Welcome to Q-Chem
     A Quantum Leap Into The Future Of Chemistry


 Q-Chem 5.1, Q-Chem, Inc., Pleasanton, CA (2018)

 Yihan Shao,  Zhengting Gan,  E. Epifanovsky,  A. T. B. Gilbert,  M. Wormit,  
 J. Kussmann,  A. W. Lange,  A. Behn,  Jia Deng,  Xintian Feng,  D. Ghosh,  
 M. Goldey,  P. R. Horn,  L. D. Jacobson,  I. Kaliman,  T. Kus,  A. Landau,  
 Jie Liu,  E. I. Proynov,  R. M. Richard,  R. P. Steele,  E. J. Sundstrom,  
 H. L. Woodcock III,  P. M. Zimmerman,  D. Zuev,  B. Albrecht,  E. Alguire,  
 S. A. Baeppler,  D. Barton,  Z. Benda,  Y. A. Bernard,  E. J. Berquist,  
 K. B. Bravaya,  H. Burton,  D. Casanova,  Chun-Min Chang,  Yunqing Chen,  
 A. Chien,  K. D. Closser,  M. P. Coons,  S. Coriani,  S. Dasgupta,  
 A. L. Dempwolff,  M. Diedenhofen,  Hainam Do,  R. G. Edgar,  Po-Tung Fang,  
 S. Faraji,  S. Fatehi,  Qingguo Feng,  K. D. Fenk,  J. Fosso-Tande,  
 Qinghui Ge,  A. Ghysels,  G. Gidofalvi,  J. Gomes,  J. Gonthier,  A. Gunina,  
 D. Hait,  M. W. D. Hanson-Heine,  P. H. P. Harbach,  A. W. Hauser,  
 J. E. Herr,  E. G. Hohenstein,  Z. C. Holden,  Kerwin Hui,  B. C. Huynh,  
 T.-C. Jagau,  Hyunjun Ji,  B. Kaduk,  K. Khistyaev,  Jaehoon Kim,  
 P. Klunzinger,  K. Koh,  D. Kosenkov,  L. Koulias,  T. Kowalczyk,  
 C. M. Krauter,  A. Kunitsa,  Ka Un Lao,  A. Laurent,  K. V. Lawler,  
 Joonho Lee,  D. Lefrancois,  S. Lehtola,  D. S. Levine,  Yi-Pei Li,  
 You-Sheng Lin,  Fenglai Liu,  E. Livshits,  A. Luenser,  P. Manohar,  
 E. Mansoor,  S. F. Manzer,  Shan-Ping Mao,  Yuezhi Mao,  N. Mardirossian,  
 A. V. Marenich,  T. Markovich,  L. A. Martinez-Martinez,  S. A. Maurer,  
 N. J. Mayhall,  S. C. McKenzie,  J.-M. Mewes,  A. F. Morrison,  
 J. W. Mullinax,  K. Nanda,  T. S. Nguyen-Beck,  R. Olivares-Amaya,  
 J. A. Parkhill,  T. M. Perrine,  F. Plasser,  P. Pokhilko,  S. Prager,  
 A. Prociuk,  E. Ramos,  D. R. Rehn,  F. Rob,  M. Schneider,  N. Sergueev,  
 S. M. Sharada,  S. Sharma,  D. W. Small,  T. Stauch,  T. Stein,  
 Yu-Chuan Su,  A. J. W. Thom,  A. Tkatchenko,  T. Tsuchimochi,  N. M. Tubman,  
 L. Vogt,  M. L. Vidal,  O. Vydrov,  M. A. Watson,  J. Wenzel,  
 M. de Wergifosse,  T. A. Wesolowski,  A. White,  J. Witte,  A. Yamada,  
 Jun Yang,  K. Yao,  S. Yeganeh,  S. R. Yost,  Zhi-Qiang You,  A. Zech,  
 Igor Ying Zhang,  Xing Zhang,  Yan Zhao,  Ying Zhu,  B. R. Brooks,  
 G. K. L. Chan,  C. J. Cramer,  M. S. Gordon,  W. J. Hehre,  A. Klamt,  
 M. W. Schmidt,  C. D. Sherrill,  D. G. Truhlar,  A. Aspuru-Guzik,  R. Baer,  
 A. T. Bell,  N. A. Besley,  Jeng-Da Chai,  A. E. DePrince, III,  
 R. A. DiStasio Jr.,  A. Dreuw,  B. D. Dunietz,  T. R. Furlani,  
 Chao-Ping Hsu,  Yousung Jung,  Jing Kong,  D. S. Lambrecht,  WanZhen Liang,  
 C. Ochsenfeld,  V. A. Rassolov,  L. V. Slipchenko,  J. E. Subotnik,  
 T. Van Voorhis,  J. M. Herbert,  A. I. Krylov,  P. M. W. Gill,  M. Head-Gordon

 Contributors to earlier versions of Q-Chem not listed above: 
 R. D. Adamson,  B. Austin,  J. Baker,  G. J. O. Beran,  K. Brandhorst,  
 S. T. Brown,  E. F. C. Byrd,  A. K. Chakraborty,  C.-L. Cheng,  
 Siu Hung Chien,  D. M. Chipman,  D. L. Crittenden,  H. Dachsel,  
 R. J. Doerksen,  A. D. Dutoi,  L. Fusti-Molnar,  W. A. Goddard III,  
 A. Golubeva-Zadorozhnaya,  S. R. Gwaltney,  G. Hawkins,  A. Heyden,  
 S. Hirata,  G. Kedziora,  F. J. Keil,  C. Kelley,  Jihan Kim,  R. A. King,  
 R. Z. Khaliullin,  P. P. Korambath,  W. Kurlancheek,  A. M. Lee,  M. S. Lee,  
 S. V. Levchenko,  Ching Yeh Lin,  D. Liotard,  R. C. Lochan,  I. Lotan,  
 P. E. Maslen,  N. Nair,  D. P. O'Neill,  D. Neuhauser,  E. Neuscamman,  
 C. M. Oana,  R. Olson,  B. Peters,  R. Peverati,  P. A. Pieniazek,  
 Y. M. Rhee,  J. Ritchie,  M. A. Rohrdanz,  E. Rosta,  N. J. Russ,  
 H. F. Schaefer III,  N. E. Schultz,  N. Shenvi,  A. C. Simmonett,  A. Sodt,  
 D. Stuck,  K. S. Thanthiriwatte,  V. Vanovschi,  Tao Wang,  A. Warshel,  
 C. F. Williams,  Q. Wu,  X. Xu,  W. Zhang

 Please cite Q-Chem as follows:
 Y. Shao et al., Mol. Phys. 113, 184-215 (2015)
 DOI: 10.1080/00268976.2014.952696

 Q-Chem 5.1.1 for Intel X86 EM64T Linux

 Parts of Q-Chem use Armadillo 8.300.2 (Tropical Shenanigans).
 http://arma.sourceforge.net/

 Q-Chem begins on Thu Nov 12 17:05:50 2020  

Host: n0096.mhg0
0

     Scratch files written to /local/scratch/users/yhljason/SF2_CAM-B3LYP_aug-pc-4.inp20201112144725//
Input Ideriv = 2
Curr. Ideriv = -1
Max.  Ideriv = 2

Checking the input file for inconsistencies... 	...done.

--------------------------------------------------------------
User input:
--------------------------------------------------------------
$molecule
0 1
S1      0.0000  0.0000  0.5511
F2      0.0000  1.1985  -0.4899
F3      0.0000  -1.1985 -0.4899
$end

$rem
jobtype sp
method CAM-B3LYP
xc_grid 000099000590
basis aug-pc-4
max_scf_cycles 200
thresh 14
scf_convergence 8
scf_algorithm gdm
symmetry false
sym_ignore true
unrestricted True
gen_scfman true
internal_stability_iter 15
internal_stability_davidson_iter 200
mem_total 64000
mem_static 1500
n_frozen_core 0
$end



--------------------------------------------------------------
 ----------------------------------------------------------------
             Standard Nuclear Orientation (Angstroms)
    I     Atom           X                Y                Z
 ----------------------------------------------------------------
    1      S       0.0000000000     0.0000000000     0.5511000000
    2      F       0.0000000000     1.1985000000    -0.4899000000
    3      F       0.0000000000    -1.1985000000    -0.4899000000
 ----------------------------------------------------------------
 Nuclear Repulsion Energy =   113.8853868052 hartrees
 There are       17 alpha and       17 beta electrons
 Requested basis set is aug-pc-4
 There are 97 shells and 431 basis functions

 Total QAlloc Memory Limit  64000 MB
 Mega-Array Size      1467 MB
 MEM_STATIC part      1500 MB

                       Distance Matrix (Angstroms)
             S (  1)   F (  2)
   F (  2)  1.587477
   F (  3)  1.587477  2.397000
 
 A cutoff of  1.0D-14 yielded   4595 shell pairs
 There are     92571 function pairs (    182046 Cartesian)
 
 -------------------------------------------------------
 OpenMP Integral Computing Module                       
 Release: version 1.0, May 2013, Q-Chem Inc. Pittsburgh 
 -------------------------------------------------------
 Integral Job Info:
 Integral job number is                      11
 Integral operator is                         1
 short-range coefficients              19000000
 long-range coefficients               65000000
 Omega coefficients                         330
 if combine SR and LR in K                    1
 Integral screening is                        0
 Integral computing path is                   2
 max size of driver memory is           6400000
 size of driver memory is               5498286
 size of scratch memory is             28418842
 max col of scratch BK array             194481
 max len of scratch array in speh3         5572
 max len of scratch index in speh4           72
 max int batch size is                      520
 min int batch size is                       52
 fixed nKL is                                 7
 max L of basis functions is                  5
 order of int derivative is                   0
 number of shells is                         97
 number of basis is                         602
 number of cartesian basis is               602
 number of contracted shell pairs          4595
 number of primitive shell pairs          15500
 maxK2 (contraction) of shell pair          225
 max number of K2 of shell pair               1
 max number of CS2 of shell pair            393
 max number of PS2 of shell pair            704
 mem total for path MDJ                 1213232
 -------------------------------------------------------
 Smallest overlap matrix eigenvalue = 6.94E-06

 Scale SEOQF with 1.000000e-01/1.000000e-01/1.000000e-01

 Standard Electronic Orientation quadrupole field applied
 Nucleus-field energy     =     0.0000000009 hartrees
 Guess from superposition of atomic densities
 Warning:  Energy on first SCF cycle will be non-variational
 SAD guess density has 34.000000 electrons

 -----------------------------------------------------------------------
  General SCF calculation program by
  Eric Jon Sundstrom, Paul Horn, Yuezhi Mao, Dmitri Zuev, Alec White,
  David Stuck, Shaama M.S., Shane Yost, Joonho Lee, David Small,
  Daniel Levine, Susi Lehtola, Hugh Burton, Evgeny Epifanovsky
 -----------------------------------------------------------------------
 Exchange:     0.1900 Hartree-Fock + 0.3500 B88 + 0.4600 muB88 + LR-HF
 Correlation:  0.1900 VWN5 + 0.8100 LYP
 Using Euler-Maclaurin-Lebedev (99,590) quadrature formula
Running Object-Oriented UKS (UHF)
performing a single roothaan step with Fock from read density so that orbitals are available to all algorithms
energy of the guess density (C=0) -598.176413116771
We will preform up to 15 macro iterations over saddle points until a stable solution is found
Energy prior to optimization (guess energy) = -597.881793962607
Begin Timing: Total SCF Calculation
Begin Timing: SCF Single Stationary Point Calculation
begin iterations for algorithm: GDM          
the SCF tolerance is set to 1.00e-08
    1    -597.8817939626      7.48e-02     00000  Descent step
    2    -597.9084147072      7.57e-02     00000  Normal BFGS step
    3    -597.9300008690      6.39e-03     00000  Normal BFGS step
    4    -597.9306219999      4.72e-03     00000  Normal BFGS step
    5    -597.9308406309      4.37e-04     00000  Normal BFGS step
    6    -597.9308412831      4.65e-05     00000  Normal BFGS step
    7    -597.9308413267      9.06e-06     00000  Normal BFGS step
    8    -597.9308413280      2.36e-06     00000  Normal BFGS step
    9    -597.9308413281      6.42e-07     00000  Normal BFGS step
   10    -597.9308413281      2.15e-07     00000  Normal BFGS step
   11    -597.9308413281      3.27e-08     00000  Normal BFGS step
   12    -597.9308413281      7.35e-09     00000 Convergence criterion met
Timing for Single Stationary Point: 8409.00s (wall), 66860.49s (cpu)
Begin Timing: Stability
===================================================
Beginning Test for Internal Stability
===================================================
generating davidson guess vectors based on koopmans excitations
    1      7.49e-01     00000 Davidson Iteration
    2      9.49e-02     00000 Davidson Iteration
    3      2.84e-02     00000 Davidson Iteration
    4      6.07e-03     00000 Davidson Iteration
    5      1.64e-03     00000 Davidson Iteration
    6      4.92e-04     00000 Davidson Iteration
    7      1.13e-04     00000 Davidson Iteration
    8      2.77e-05     00000 Davidson Converged
converged_eigenvalues
   0.1338
   0.2730
Threshold for negative eigenvalues: -1.0e-05
solution was a local minimum (stable)
===================================================
End Test for Internal Stability
===================================================
Our SCF solution is stable!
Timing for Total SCF: 21280.00s (wall), 169580.28s (cpu)
 Total energy in the final basis set =     -597.9308413281
<S^2> =         -0.000000000
    ==================================================
              The end of Object-Oriented SCFman       
    ==================================================
 
 --------------------------------------------------------------
 
                    Orbital Energies (a.u.)
 --------------------------------------------------------------
 
 Alpha MOs
 -- Occupied --
-89.059 -24.806 -24.806  -8.137  -6.105  -6.100  -6.086  -1.362
 -1.319  -0.825  -0.650  -0.611  -0.596  -0.548  -0.530  -0.508
 -0.321
 -- Virtual --
 -0.028   0.004   0.015   0.028   0.033   0.046   0.065   0.072
  0.078   0.079   0.079   0.107   0.124   0.126   0.136   0.143
  0.154   0.159   0.162   0.170   0.183   0.192   0.225   0.231
  0.255   0.269   0.271   0.282   0.283   0.293   0.301   0.308
  0.309   0.312   0.315   0.317   0.330   0.340   0.341   0.353
  0.376   0.379   0.391   0.392   0.395   0.410   0.423   0.440
  0.449   0.457   0.477   0.491   0.495   0.499   0.501   0.513
  0.513   0.529   0.555   0.578   0.581   0.597   0.608   0.629
  0.637   0.639   0.649   0.660   0.663   0.666   0.674   0.679
  0.695   0.711   0.713   0.720   0.729   0.735   0.742   0.747
  0.749   0.752   0.753   0.759   0.783   0.787   0.794   0.826
  0.850   0.858   0.864   0.877   0.915   0.915   0.933   0.940
  0.948   0.963   0.964   0.969   0.991   1.015   1.019   1.027
  1.039   1.051   1.055   1.055   1.076   1.081   1.095   1.110
  1.122   1.131   1.192   1.201   1.240   1.250   1.251   1.251
  1.257   1.274   1.274   1.283   1.297   1.300   1.322   1.332
  1.342   1.344   1.357   1.365   1.410   1.427   1.431   1.443
  1.452   1.465   1.477   1.514   1.527   1.534   1.535   1.542
  1.568   1.572   1.594   1.594   1.620   1.648   1.664   1.707
  1.739   1.744   1.799   1.820   1.828   1.869   1.937   1.941
  1.970   1.999   2.223   2.265   2.280   2.285   2.286   2.328
  2.334   2.335   2.361   2.373   2.400   2.415   2.448   2.461
  2.484   2.534   2.538   2.548   2.584   2.585   2.648   2.654
  2.670   2.726   2.828   2.829   2.859   2.866   2.886   2.890
  3.034   3.053   3.081   3.082   3.221   3.263   3.279   3.360
  3.391   3.466   3.482   3.577   3.656   3.727   3.744   3.751
  3.786   3.842   3.857   3.976   4.000   4.032   4.061   4.086
  4.263   5.106   5.224   5.262   5.282   5.295   5.337   5.353
  5.381   5.427   5.429   5.437   5.447   5.475   5.498   5.502
  5.514   5.529   5.604   5.630   5.644   5.741   5.783   5.806
  5.922   5.957   5.961   6.047   6.098   6.103   6.118   6.151
  6.159   6.217   6.286   6.326   6.328   6.366   6.393   6.516
  6.562   6.612   6.620   7.126   7.150   7.159   7.215   7.244
  7.266   7.281   7.292   7.301   7.313   7.324   7.482   7.522
  7.542   7.826   7.866   7.962   8.032   8.058   8.079   8.426
  8.561   8.570   8.610   8.719   8.787   8.824   8.871   8.887
  8.947   9.064   9.242   9.356   9.920  10.024  11.851  11.910
 11.969  11.996  12.011  12.353  12.428  12.446  12.482  12.504
 12.552  12.598  12.610  12.622  12.799  12.827  12.828  12.834
 12.840  12.843  12.850  12.850  12.850  12.853  12.865  12.941
 12.947  13.031  13.082  13.112  13.153  13.181  13.210  13.320
 13.344  13.382  13.432  13.640  13.727  14.480  14.505  14.601
 14.644  14.856  14.857  15.203  15.204  15.216  15.229  15.297
 15.352  15.373  15.459  15.601  15.622  15.663  15.766  15.798
 15.898  16.047  16.300  17.253  17.274  17.418  17.872  18.539
 20.320  20.325  20.325  20.325  20.327  20.379  20.388  20.404
 20.663  20.672  20.752  20.827  21.304  21.340  21.362  21.403
 21.868  22.063  30.533  30.596  30.636  30.657  30.766  30.780
 30.781  30.979  31.366  31.402  32.565  41.854  41.875  41.954
 42.025  42.140  42.153  43.126  43.140  62.785  62.787  62.847
 63.060  63.421  91.634  91.684  91.704  91.719  91.796  91.802
 91.806  91.946  92.216  92.244 202.284 202.324
 
 Beta MOs
 -- Occupied --
-89.059 -24.806 -24.806  -8.137  -6.105  -6.100  -6.086  -1.362
 -1.319  -0.825  -0.650  -0.611  -0.596  -0.548  -0.530  -0.508
 -0.321
 -- Virtual --
 -0.028   0.004   0.015   0.028   0.033   0.046   0.065   0.072
  0.078   0.079   0.079   0.107   0.124   0.126   0.136   0.143
  0.154   0.159   0.162   0.170   0.183   0.192   0.225   0.231
  0.255   0.269   0.271   0.282   0.283   0.293   0.301   0.308
  0.309   0.312   0.315   0.317   0.330   0.340   0.341   0.353
  0.376   0.379   0.391   0.392   0.395   0.410   0.423   0.440
  0.449   0.457   0.477   0.491   0.495   0.499   0.501   0.513
  0.513   0.529   0.555   0.578   0.581   0.597   0.608   0.629
  0.637   0.639   0.649   0.660   0.663   0.666   0.674   0.679
  0.695   0.711   0.713   0.720   0.729   0.735   0.742   0.747
  0.749   0.752   0.753   0.759   0.783   0.787   0.794   0.826
  0.850   0.858   0.864   0.877   0.915   0.915   0.933   0.940
  0.948   0.963   0.964   0.969   0.991   1.015   1.019   1.027
  1.039   1.051   1.055   1.055   1.076   1.081   1.095   1.110
  1.122   1.131   1.192   1.201   1.240   1.250   1.251   1.251
  1.257   1.274   1.274   1.283   1.297   1.300   1.322   1.332
  1.342   1.344   1.357   1.365   1.410   1.427   1.431   1.443
  1.452   1.465   1.477   1.514   1.527   1.534   1.535   1.542
  1.568   1.572   1.594   1.594   1.620   1.648   1.664   1.707
  1.739   1.744   1.799   1.820   1.828   1.869   1.937   1.941
  1.970   1.999   2.223   2.265   2.280   2.285   2.286   2.328
  2.334   2.335   2.361   2.373   2.400   2.415   2.448   2.461
  2.484   2.534   2.538   2.548   2.584   2.585   2.648   2.654
  2.670   2.726   2.828   2.829   2.859   2.866   2.886   2.890
  3.034   3.053   3.081   3.082   3.221   3.263   3.279   3.360
  3.391   3.466   3.482   3.577   3.656   3.727   3.744   3.751
  3.786   3.842   3.857   3.976   4.000   4.032   4.061   4.086
  4.263   5.106   5.224   5.262   5.282   5.295   5.337   5.353
  5.381   5.427   5.429   5.437   5.447   5.475   5.498   5.502
  5.514   5.529   5.604   5.630   5.644   5.741   5.783   5.806
  5.922   5.957   5.961   6.047   6.098   6.103   6.118   6.151
  6.159   6.217   6.286   6.326   6.328   6.366   6.393   6.516
  6.562   6.612   6.620   7.126   7.150   7.159   7.215   7.244
  7.266   7.281   7.292   7.301   7.313   7.324   7.482   7.522
  7.542   7.826   7.866   7.962   8.032   8.058   8.079   8.426
  8.561   8.570   8.610   8.719   8.787   8.824   8.871   8.887
  8.947   9.064   9.242   9.356   9.920  10.024  11.851  11.910
 11.969  11.996  12.011  12.353  12.428  12.446  12.482  12.504
 12.552  12.598  12.610  12.622  12.799  12.827  12.828  12.834
 12.840  12.843  12.850  12.850  12.850  12.853  12.865  12.941
 12.947  13.031  13.082  13.112  13.153  13.181  13.210  13.320
 13.344  13.382  13.432  13.640  13.727  14.480  14.505  14.601
 14.644  14.856  14.857  15.203  15.204  15.216  15.229  15.297
 15.352  15.373  15.459  15.601  15.622  15.663  15.766  15.798
 15.898  16.047  16.300  17.253  17.274  17.418  17.872  18.539
 20.320  20.325  20.325  20.325  20.327  20.379  20.388  20.404
 20.663  20.672  20.752  20.827  21.304  21.340  21.362  21.403
 21.868  22.063  30.533  30.596  30.636  30.657  30.766  30.780
 30.781  30.979  31.366  31.402  32.565  41.854  41.875  41.954
 42.025  42.140  42.153  43.126  43.140  62.785  62.787  62.847
 63.060  63.421  91.634  91.684  91.704  91.719  91.796  91.802
 91.806  91.946  92.216  92.244 202.284 202.324
 --------------------------------------------------------------
 
          Ground-State Mulliken Net Atomic Charges

     Atom                 Charge (a.u.)    Spin (a.u.)
  --------------------------------------------------------
      1 S                     0.285267      -0.000000
      2 F                    -0.142633       0.000000
      3 F                    -0.142633      -0.000000
  --------------------------------------------------------
  Sum of atomic charges =     0.000000
  Sum of spin   charges =     0.000000

 -----------------------------------------------------------------
                    Cartesian Multipole Moments
 -----------------------------------------------------------------
    Charge (ESU x 10^10)
                -0.0000
    Dipole Moment (Debye)
         X      -0.0000      Y       0.0000      Z       1.0681
       Tot       1.0681
    Quadrupole Moments (Debye-Ang)
        XX     -23.4103     XY      -0.0000     YY     -22.9822
        XZ      -0.0000     YZ      -0.0000     ZZ     -21.6383
    Octopole Moments (Debye-Ang^2)
       XXX      -0.0000    XXY      -0.0000    XYY       0.0000
       YYY       0.0000    XXZ      -3.8013    XYZ      -0.0000
       YYZ       0.1694    XZZ      -0.0000    YZZ       0.0000
       ZZZ      -5.0630
    Hexadecapole Moments (Debye-Ang^3)
      XXXX     -26.1184   XXXY      -0.0000   XXYY     -21.4423
      XYYY      -0.0000   YYYY    -105.8434   XXXZ      -0.0000
      XXYZ       0.0000   XYYZ      -0.0000   YYYZ      -0.0000
      XXZZ     -15.4048   XYZZ      -0.0000   YYZZ     -25.5291
      XZZZ      -0.0000   YZZZ       0.0000   ZZZZ     -55.8415
 -----------------------------------------------------------------
Archival summary:
1\1\n0096.mhg0\SP\ProcedureUnspecified\BasisUnspecified\12\yhljason\ThuNov1223:13:432020ThuNov1223:13:432020\0\\#,ProcedureUnspecified,BasisUnspecified,\\0,1\S\F,1,1.58748\F,1,1.58748,2,98.0458\\\@

 Total job time:  22072.85s(wall), 175786.02s(cpu) 
 Thu Nov 12 23:13:43 2020

        *************************************************************
        *                                                           *
        *  Thank you very much for using Q-Chem.  Have a nice day.  *
        *                                                           *
        *************************************************************


