Q-Chem Developer Version!
                  Welcome to Q-Chem
     A Quantum Leap Into The Future Of Chemistry


 Q-Chem 5.1, Q-Chem, Inc., Pleasanton, CA (2018)

 Yihan Shao,  Zhengting Gan,  E. Epifanovsky,  A. T. B. Gilbert,  M. Wormit,  
 J. Kussmann,  A. W. Lange,  A. Behn,  Jia Deng,  Xintian Feng,  D. Ghosh,  
 M. Goldey,  P. R. Horn,  L. D. Jacobson,  I. Kaliman,  T. Kus,  A. Landau,  
 Jie Liu,  E. I. Proynov,  R. M. Richard,  R. P. Steele,  E. J. Sundstrom,  
 H. L. Woodcock III,  P. M. Zimmerman,  D. Zuev,  B. Albrecht,  E. Alguire,  
 S. A. Baeppler,  D. Barton,  Z. Benda,  Y. A. Bernard,  E. J. Berquist,  
 K. B. Bravaya,  H. Burton,  D. Casanova,  Chun-Min Chang,  Yunqing Chen,  
 A. Chien,  K. D. Closser,  M. P. Coons,  S. Coriani,  S. Dasgupta,  
 A. L. Dempwolff,  M. Diedenhofen,  Hainam Do,  R. G. Edgar,  Po-Tung Fang,  
 S. Faraji,  S. Fatehi,  Qingguo Feng,  K. D. Fenk,  J. Fosso-Tande,  
 Qinghui Ge,  A. Ghysels,  G. Gidofalvi,  J. Gomes,  J. Gonthier,  A. Gunina,  
 D. Hait,  M. W. D. Hanson-Heine,  P. H. P. Harbach,  A. W. Hauser,  
 J. E. Herr,  E. G. Hohenstein,  Z. C. Holden,  Kerwin Hui,  B. C. Huynh,  
 T.-C. Jagau,  Hyunjun Ji,  B. Kaduk,  K. Khistyaev,  Jaehoon Kim,  
 P. Klunzinger,  K. Koh,  D. Kosenkov,  L. Koulias,  T. Kowalczyk,  
 C. M. Krauter,  A. Kunitsa,  Ka Un Lao,  A. Laurent,  K. V. Lawler,  
 Joonho Lee,  D. Lefrancois,  S. Lehtola,  D. S. Levine,  Yi-Pei Li,  
 You-Sheng Lin,  Fenglai Liu,  E. Livshits,  A. Luenser,  P. Manohar,  
 E. Mansoor,  S. F. Manzer,  Shan-Ping Mao,  Yuezhi Mao,  N. Mardirossian,  
 A. V. Marenich,  T. Markovich,  L. A. Martinez-Martinez,  S. A. Maurer,  
 N. J. Mayhall,  S. C. McKenzie,  J.-M. Mewes,  A. F. Morrison,  
 J. W. Mullinax,  K. Nanda,  T. S. Nguyen-Beck,  R. Olivares-Amaya,  
 J. A. Parkhill,  T. M. Perrine,  F. Plasser,  P. Pokhilko,  S. Prager,  
 A. Prociuk,  E. Ramos,  D. R. Rehn,  F. Rob,  M. Schneider,  N. Sergueev,  
 S. M. Sharada,  S. Sharma,  D. W. Small,  T. Stauch,  T. Stein,  
 Yu-Chuan Su,  A. J. W. Thom,  A. Tkatchenko,  T. Tsuchimochi,  N. M. Tubman,  
 L. Vogt,  M. L. Vidal,  O. Vydrov,  M. A. Watson,  J. Wenzel,  
 M. de Wergifosse,  T. A. Wesolowski,  A. White,  J. Witte,  A. Yamada,  
 Jun Yang,  K. Yao,  S. Yeganeh,  S. R. Yost,  Zhi-Qiang You,  A. Zech,  
 Igor Ying Zhang,  Xing Zhang,  Yan Zhao,  Ying Zhu,  B. R. Brooks,  
 G. K. L. Chan,  C. J. Cramer,  M. S. Gordon,  W. J. Hehre,  A. Klamt,  
 M. W. Schmidt,  C. D. Sherrill,  D. G. Truhlar,  A. Aspuru-Guzik,  R. Baer,  
 A. T. Bell,  N. A. Besley,  Jeng-Da Chai,  A. E. DePrince, III,  
 R. A. DiStasio Jr.,  A. Dreuw,  B. D. Dunietz,  T. R. Furlani,  
 Chao-Ping Hsu,  Yousung Jung,  Jing Kong,  D. S. Lambrecht,  WanZhen Liang,  
 C. Ochsenfeld,  V. A. Rassolov,  L. V. Slipchenko,  J. E. Subotnik,  
 T. Van Voorhis,  J. M. Herbert,  A. I. Krylov,  P. M. W. Gill,  M. Head-Gordon

 Contributors to earlier versions of Q-Chem not listed above: 
 R. D. Adamson,  B. Austin,  J. Baker,  G. J. O. Beran,  K. Brandhorst,  
 S. T. Brown,  E. F. C. Byrd,  A. K. Chakraborty,  C.-L. Cheng,  
 Siu Hung Chien,  D. M. Chipman,  D. L. Crittenden,  H. Dachsel,  
 R. J. Doerksen,  A. D. Dutoi,  L. Fusti-Molnar,  W. A. Goddard III,  
 A. Golubeva-Zadorozhnaya,  S. R. Gwaltney,  G. Hawkins,  A. Heyden,  
 S. Hirata,  G. Kedziora,  F. J. Keil,  C. Kelley,  Jihan Kim,  R. A. King,  
 R. Z. Khaliullin,  P. P. Korambath,  W. Kurlancheek,  A. M. Lee,  M. S. Lee,  
 S. V. Levchenko,  Ching Yeh Lin,  D. Liotard,  R. C. Lochan,  I. Lotan,  
 P. E. Maslen,  N. Nair,  D. P. O'Neill,  D. Neuhauser,  E. Neuscamman,  
 C. M. Oana,  R. Olson,  B. Peters,  R. Peverati,  P. A. Pieniazek,  
 Y. M. Rhee,  J. Ritchie,  M. A. Rohrdanz,  E. Rosta,  N. J. Russ,  
 H. F. Schaefer III,  N. E. Schultz,  N. Shenvi,  A. C. Simmonett,  A. Sodt,  
 D. Stuck,  K. S. Thanthiriwatte,  V. Vanovschi,  Tao Wang,  A. Warshel,  
 C. F. Williams,  Q. Wu,  X. Xu,  W. Zhang

 Please cite Q-Chem as follows:
 Y. Shao et al., Mol. Phys. 113, 184-215 (2015)
 DOI: 10.1080/00268976.2014.952696

 Q-Chem 5.1.1 for Intel X86 EM64T Linux

 Parts of Q-Chem use Armadillo 8.300.2 (Tropical Shenanigans).
 http://arma.sourceforge.net/

 Q-Chem begins on Thu Nov 12 02:03:03 2020  

Host: n0068.mhg0
0

     Scratch files written to /local/scratch/users/yhljason/NCl_wB97M2_aug-cc-pcVTZ.inp20201112020246//
Input Ideriv = 1
Curr. Ideriv = -1
Max.  Ideriv = 1

Checking the input file for inconsistencies... 	...done.

--------------------------------------------------------------
User input:
--------------------------------------------------------------
$molecule
0 3
N1      0.0000  0.0000  0.0000
Cl2     0.0000  0.0000  1.6107
$end

$rem
jobtype sp
method wB97M-V
xc_grid 000099000590
basis aug-cc-pcVTZ
max_scf_cycles 200
thresh 14
scf_convergence 8
scf_algorithm gdm
symmetry false
sym_ignore true
unrestricted false
gen_scfman true
internal_stability_iter 15
internal_stability_davidson_iter 200
mem_total 128000
n_frozen_core 0
$end



--------------------------------------------------------------
 ----------------------------------------------------------------
             Standard Nuclear Orientation (Angstroms)
    I     Atom           X                Y                Z
 ----------------------------------------------------------------
    1      N       0.0000000000     0.0000000000     0.0000000000
    2      Cl      0.0000000000     0.0000000000     1.6107000000
 ----------------------------------------------------------------
 Nuclear Repulsion Energy =    39.0960998853 hartrees
 There are       13 alpha and       11 beta electrons
 Requested basis set is aug-cc-pCVTZ
 There are 42 shells and 134 basis functions

 Total QAlloc Memory Limit 128000 MB
 Mega-Array Size       188 MB
 MEM_STATIC part       192 MB

                       Distance Matrix (Angstroms)
             N (  1)
   Cl(  2)  1.610700
 
 A cutoff of  1.0D-14 yielded    883 shell pairs
 There are      9061 function pairs (     12669 Cartesian)
 
 -------------------------------------------------------
 OpenMP Integral Computing Module                       
 Release: version 1.0, May 2013, Q-Chem Inc. Pittsburgh 
 -------------------------------------------------------
 Integral Job Info:
 Integral job number is                      11
 Integral operator is                         1
 short-range coefficients              15000000
 long-range coefficients              100000000
 Omega coefficients                         300
 if combine SR and LR in K                    1
 Integral screening is                        0
 Integral computing path is                   2
 max size of driver memory is            800000
 size of driver memory is                776718
 size of scratch memory is             29504930
 max col of scratch BK array              10000
 max len of scratch array in speh3          662
 max len of scratch index in speh4           32
 max int batch size is                      520
 min int batch size is                       52
 fixed nKL is                                30
 max L of basis functions is                  3
 order of int derivative is                   0
 number of shells is                         42
 number of basis is                         158
 number of cartesian basis is               158
 number of contracted shell pairs           883
 number of primitive shell pairs           5031
 maxK2 (contraction) of shell pair          169
 max number of K2 of shell pair               1
 max number of CS2 of shell pair             98
 max number of PS2 of shell pair           1014
 mem total for path MDJ                  562256
 -------------------------------------------------------
 Smallest overlap matrix eigenvalue = 3.23E-04

 Scale SEOQF with 1.000000e-01/1.000000e-01/1.000000e-01

 Standard Electronic Orientation quadrupole field applied
 Nucleus-field energy     =    -0.0000000047 hartrees
 Guess from superposition of atomic densities
 Warning:  Energy on first SCF cycle will be non-variational
 SAD guess density has 24.000000 electrons

 -----------------------------------------------------------------------
  General SCF calculation program by
  Eric Jon Sundstrom, Paul Horn, Yuezhi Mao, Dmitri Zuev, Alec White,
  David Stuck, Shaama M.S., Shane Yost, Joonho Lee, David Small,
  Daniel Levine, Susi Lehtola, Hugh Burton, Evgeny Epifanovsky
 -----------------------------------------------------------------------
 Exchange:     0.1500 Hartree-Fock + 1.0000 wB97M-V + LR-HF
 Correlation:  1.0000 wB97M-V
 Using Euler-Maclaurin-Lebedev (99,590) quadrature formula
 Nonlocal Correlation:  VV10 with C = 0.0100 and b = 6.00 and scale = 1.00000
 Grid used for NLC:  SG-1 standard quadrature
Running Object-Oriented ROKS (ROHF)
ROHF occupied orbitals are orthonormal
ROHF occupied orbitals are orthogonal to virtual orbitals
ROHF virtual orbitals are orthonormal
 Nonlocal correlation = 0.101066992091
We will preform up to 15 macro iterations over saddle points until a stable solution is found
Energy prior to optimization (guess energy) = -513.578587535884
Begin Timing: Total SCF Calculation
Begin Timing: SCF Single Stationary Point Calculation
begin iterations for algorithm: GDM          
the SCF tolerance is set to 1.00e-08
 Nonlocal correlation = 1.009703731263e-01
    1    -513.5785875359      4.45e-01     00000  Descent step
 Nonlocal correlation = 1.008588931584e-01
    2    -513.8890955691      3.26e-01     00000  Descent step
 Nonlocal correlation = 1.007170336744e-01
    3    -514.0949616893      4.27e-01     00000  Descent step
Fro norm of D 1.274790987725e+00
transformation scaled by 2
 Nonlocal correlation = 1.006865601257e-01
    4    -514.2550276887      7.23e-01     00000  Descent step
 Nonlocal correlation = 1.006581895163e-01
    5    -514.2475781153      8.62e-01     00000 Line search: overstep
 Nonlocal correlation = 1.004841258039e-01
    6    -514.3246989927      1.29e-01     00000  Dog-leg BFGS step
 Nonlocal correlation = 1.005185161871e-01
    7    -514.3378866754      4.00e-01     00000  Normal BFGS step
 Nonlocal correlation = 1.005618193916e-01
    8    -514.3860125243      2.41e-01     00000  Dog-leg BFGS step
 Nonlocal correlation = 1.005994824863e-01
    9    -514.4923319447      4.68e-01     00000  Descent step
 Nonlocal correlation = 1.008132671174e-01
   10    -514.6233126221      3.55e-01     00000  Normal BFGS step
 Nonlocal correlation = 1.006674936185e-01
   11    -514.5723580752      4.90e-01     00000 Line search: overstep
 Nonlocal correlation = 1.006216536831e-01
   12    -514.6410741451      2.40e-02     00000  Normal BFGS step
 Nonlocal correlation = 1.006544100732e-01
   13    -514.6353716563      4.38e-02     00000 Line search: overstep
 Nonlocal correlation = 1.006351272622e-01
   14    -514.6421256039      2.73e-02     00000  Normal BFGS step
 Nonlocal correlation = 1.006459583175e-01
   15    -514.6415616547      4.88e-02     00000 Line search: overstep
 Nonlocal correlation = 1.006482718903e-01
   16    -514.6434099865      1.35e-02     00000  Normal BFGS step
 Nonlocal correlation = 1.006468743675e-01
   17    -514.6432481354      2.82e-02     00000 Line search: overstep
 Nonlocal correlation = 1.006499661874e-01
   18    -514.6435649621      3.34e-03     00000  Normal BFGS step
 Nonlocal correlation = 1.006474134986e-01
   19    -514.6436219662      3.38e-03     00000  Normal BFGS step
 Nonlocal correlation = 1.006477860153e-01
   20    -514.6436302991      9.50e-04     00000  Normal BFGS step
 Nonlocal correlation = 1.006475792775e-01
   21    -514.6436316251      1.31e-04     00000  Normal BFGS step
 Nonlocal correlation = 1.006476746140e-01
   22    -514.6436316880      2.51e-05     00000  Normal BFGS step
 Nonlocal correlation = 1.006476791389e-01
   23    -514.6436316923      1.51e-05     00000  Normal BFGS step
 Nonlocal correlation = 1.006476744630e-01
   24    -514.6436316924      1.60e-05     00000  Normal BFGS step
 Nonlocal correlation = 1.006476746869e-01
   25    -514.6436316925      1.42e-06     00000  Normal BFGS step
 Nonlocal correlation = 1.006476745305e-01
   26    -514.6436316925      2.02e-07     00000  Normal BFGS step
 Nonlocal correlation = 1.006476745120e-01
   27    -514.6436316925      6.76e-08     00000  Normal BFGS step
 Nonlocal correlation = 1.006476745451e-01
   28    -514.6436316925      1.19e-07     00000  Normal BFGS step
 Nonlocal correlation = 1.006476745286e-01
   29    -514.6436316925      3.66e-08     00000  Normal BFGS step
 Nonlocal correlation = 1.006476745297e-01
   30    -514.6436316925      3.50e-08     00000  Normal BFGS step
 Nonlocal correlation = 1.006476745219e-01
   31    -514.6436316925      3.57e-08     00000  Normal BFGS step
 Nonlocal correlation = 1.006476745213e-01
   32    -514.6436316925      6.97e-08     00000  Normal BFGS step
 Nonlocal correlation = 1.006476745171e-01
   33    -514.6436316925      1.49e-07     00000  Normal BFGS step
 Nonlocal correlation = 1.006476745117e-01
   34    -514.6436316925      2.62e-07     00000  Normal BFGS step
 Nonlocal correlation = 1.006476745080e-01
   35    -514.6436316925      4.56e-07     00000  Normal BFGS step
 Nonlocal correlation = 1.006476744910e-01
   36    -514.6436316925      7.44e-07     00000  Normal BFGS step
 Nonlocal correlation = 1.006476744708e-01
   37    -514.6436316925      1.22e-06     00000  Normal BFGS step
 Nonlocal correlation = 1.006476743488e-01
   38    -514.6436316925      1.97e-06     00000  Normal BFGS step
 Nonlocal correlation = 1.006476732397e-01
   39    -514.6436316925      3.24e-06     00000  Normal BFGS step
 Nonlocal correlation = 1.006476516863e-01
   40    -514.6436316925      6.45e-06     00000  Normal BFGS step
  /global/home/groups-sw/mhg/qchem_public/qchem5p0/libgscf/libgscf/opt/gdm.C::WARNING energy changes are now smaller than effective accuracy.
  /global/home/groups-sw/mhg/qchem_public/qchem5p0/libgscf/libgscf/opt/gdm.C::        calculation will continue, but THRESH should be increased
  /global/home/groups-sw/mhg/qchem_public/qchem5p0/libgscf/libgscf/opt/gdm.C::        or SCF_CONVERGENCE decreased. 
  /global/home/groups-sw/mhg/qchem_public/qchem5p0/libgscf/libgscf/opt/gdm.C::        effective_thresh = 2.64e-09
 Nonlocal correlation = 1.006476736636e-01
   41    -514.6436316907      3.33e-05     00000  Normal BFGS step
 Nonlocal correlation = 1.006476734660e-01
   42    -514.6436316926      8.90e-06     00000  Normal BFGS step
 Nonlocal correlation = 1.006476455094e-01
   43    -514.6436316927      1.32e-05     00000  Normal BFGS step
 Nonlocal correlation = 1.006473315510e-01
   44    -514.6436317225      2.04e-04     00000 Line search: understep
 Nonlocal correlation = 1.006405512877e-01
   45    -514.6436341820      1.92e-03     00000 Line search: understep
 Nonlocal correlation = 1.006467831540e-01
   46    -514.6435994951      1.67e-02     00000 Line search: overstep
 Nonlocal correlation = 1.006413100207e-01
   47    -514.6436418919      4.08e-03     00000 Line search: understep
 Nonlocal correlation = 1.006464101176e-01
   48    -514.6436285692      1.55e-02     00000 Line search: overstep
 Nonlocal correlation = 1.006512570135e-01
   49    -514.6436475820      5.27e-03     00000  Normal BFGS step
Fro norm of D 1.295413861995e+00
transformation scaled by 2
 Nonlocal correlation = 1.007045589991e-01
   50    -514.6439412009      2.76e-02     00000 Line search: understep
 Nonlocal correlation = 1.006583318118e-01
   51    -514.6460127858      1.89e-01     00000  Descent step
 Nonlocal correlation = 1.006968194057e-01
   52    -514.7121452431      3.71e-01     00000  Descent step
 Nonlocal correlation = 1.006123719988e-01
   53    -514.8145567810      1.54e-01     00000  Dog-leg BFGS step
 Nonlocal correlation = 1.006678974783e-01
   54    -514.7867461471      3.07e-01     00000 Line search: overstep
 Nonlocal correlation = 1.006711857047e-01
   55    -514.8256885900      4.01e-02     00000  Dog-leg BFGS step
 Nonlocal correlation = 1.006629034161e-01
   56    -514.7817973490      3.68e-01     00000 Line search: overstep
 Nonlocal correlation = 1.006628781981e-01
   57    -514.8292495096      2.92e-02     00000  Dog-leg BFGS step
 Nonlocal correlation = 1.006589162636e-01
   58    -514.7706865949      3.62e-01     00000 Line search: overstep
 Nonlocal correlation = 1.005797294320e-01
   59    -514.8300569778      3.16e-02     00000  Dog-leg BFGS step
 Nonlocal correlation = 1.006458256122e-01
   60    -514.7400338572      3.90e-01     00000 Line search: overstep
 Nonlocal correlation = 1.006207087793e-01
   61    -514.8307876380      2.96e-02     00000  Dog-leg BFGS step
 Nonlocal correlation = 1.006439999976e-01
   62    -514.7633593830      3.07e-01     00000 Line search: overstep
 Nonlocal correlation = 1.006451115518e-01
   63    -514.8306525039      3.74e-02     00000 Line search: overstep
 Nonlocal correlation = 1.006521964905e-01
   64    -514.8309276794      2.93e-02     00000  Normal BFGS step
 Nonlocal correlation = 1.006490630222e-01
   65    -514.8311233973      3.32e-02     00000  Normal BFGS step
 Nonlocal correlation = 1.006489217091e-01
   66    -514.8315596166      3.31e-03     00000  Normal BFGS step
 Nonlocal correlation = 1.006492390676e-01
   67    -514.8315692250      2.76e-03     00000  Normal BFGS step
 Nonlocal correlation = 1.006492907281e-01
   68    -514.8315742760      5.94e-04     00000  Normal BFGS step
 Nonlocal correlation = 1.006493119676e-01
   69    -514.8315756208      4.34e-04     00000  Normal BFGS step
 Nonlocal correlation = 1.006492605609e-01
   70    -514.8315758059      2.55e-04     00000  Normal BFGS step
 Nonlocal correlation = 1.006492527457e-01
   71    -514.8315758714      1.81e-05     00000  Normal BFGS step
 Nonlocal correlation = 1.006492488376e-01
   72    -514.8315758740      9.13e-06     00000  Normal BFGS step
 Nonlocal correlation = 1.006492483182e-01
   73    -514.8315758746      6.47e-06     00000  Normal BFGS step
 Nonlocal correlation = 1.006492493624e-01
   74    -514.8315758747      1.83e-06     00000  Normal BFGS step
 Nonlocal correlation = 1.006492492180e-01
   75    -514.8315758747      3.41e-07     00000  Normal BFGS step
 Nonlocal correlation = 1.006492493445e-01
   76    -514.8315758747      2.01e-07     00000  Normal BFGS step
 Nonlocal correlation = 1.006492492731e-01
   77    -514.8315758747      2.39e-07     00000  Normal BFGS step
 Nonlocal correlation = 1.006492493051e-01
   78    -514.8315758747      3.73e-07     00000  Normal BFGS step
 Nonlocal correlation = 1.006492492949e-01
   79    -514.8315758747      5.73e-08     00000  Normal BFGS step
 Nonlocal correlation = 1.006492493016e-01
   80    -514.8315758747      2.10e-08     00000  Normal BFGS step
 Nonlocal correlation = 1.006492492998e-01
   81    -514.8315758747      2.86e-09     00000 Convergence criterion met
The disked orbital energies are calculated using alpha and beta Focks
Timing for Single Stationary Point: 331.00s (wall), 2636.38s (cpu)
Begin Timing: Stability
===================================================
Beginning Test for Internal Stability
===================================================
generating davidson guess vectors based on koopmans-like excitations
computing hessian-vector products by finite difference
 Nonlocal correlation = 0.100649253101
 Nonlocal correlation = 0.100649245506
 Nonlocal correlation = 0.100649248964
 Nonlocal correlation = 0.100649249643
 Nonlocal correlation = 0.100649249300
    1      5.95e-01     00000 Davidson Iteration
computing hessian-vector products by finite difference
 Nonlocal correlation = 1.006493168325e-01
 Nonlocal correlation = 1.006491817697e-01
 Nonlocal correlation = 1.006492501230e-01
 Nonlocal correlation = 1.006492484770e-01
 Nonlocal correlation = 1.006492492998e-01
    2      3.33e-01     00000 Davidson Iteration
computing hessian-vector products by finite difference
 Nonlocal correlation = 1.006491132178e-01
 Nonlocal correlation = 1.006493853817e-01
 Nonlocal correlation = 1.006492446857e-01
 Nonlocal correlation = 1.006492539135e-01
 Nonlocal correlation = 1.006492492998e-01
    3      2.23e-01     00000 Davidson Iteration
computing hessian-vector products by finite difference
 Nonlocal correlation = 1.006491428943e-01
 Nonlocal correlation = 1.006493557056e-01
 Nonlocal correlation = 1.006492502331e-01
 Nonlocal correlation = 1.006492483642e-01
 Nonlocal correlation = 1.006492492998e-01
    4      8.61e-02     00000 Davidson Iteration
computing hessian-vector products by finite difference
 Nonlocal correlation = 1.006489788720e-01
 Nonlocal correlation = 1.006495197225e-01
 Nonlocal correlation = 1.006492495224e-01
 Nonlocal correlation = 1.006492490759e-01
 Nonlocal correlation = 1.006492492998e-01
    5      5.41e-02     00000 Davidson Iteration
computing hessian-vector products by finite difference
 Nonlocal correlation = 1.006494377679e-01
 Nonlocal correlation = 1.006490608330e-01
 Nonlocal correlation = 1.006492516198e-01
 Nonlocal correlation = 1.006492469817e-01
 Nonlocal correlation = 1.006492492998e-01
    6      1.80e-02     00000 Davidson Iteration
computing hessian-vector products by finite difference
 Nonlocal correlation = 1.006492618497e-01
 Nonlocal correlation = 1.006492367581e-01
 Nonlocal correlation = 1.006492498902e-01
 Nonlocal correlation = 1.006492487051e-01
 Nonlocal correlation = 1.006492492998e-01
    7      6.06e-03     00000 Davidson Iteration
computing hessian-vector products by finite difference
 Nonlocal correlation = 1.006493133948e-01
 Nonlocal correlation = 1.006491852107e-01
 Nonlocal correlation = 1.006492505306e-01
 Nonlocal correlation = 1.006492480728e-01
 Nonlocal correlation = 1.006492492998e-01
    8      2.23e-03     00000 Davidson Iteration
computing hessian-vector products by finite difference
 Nonlocal correlation = 1.006493223226e-01
 Nonlocal correlation = 1.006491762734e-01
 Nonlocal correlation = 1.006492464603e-01
 Nonlocal correlation = 1.006492521379e-01
 Nonlocal correlation = 1.006492492998e-01
    9      1.10e-03     00000 Davidson Iteration
computing hessian-vector products by finite difference
 Nonlocal correlation = 1.006490752013e-01
 Nonlocal correlation = 1.006494233926e-01
 Nonlocal correlation = 1.006492750187e-01
 Nonlocal correlation = 1.006492235790e-01
 Nonlocal correlation = 1.006492492998e-01
   10      4.76e-04     00000 Davidson Converged
converged_eigenvalues
   0.3839
   0.3839
Threshold for negative eigenvalues: -1.0e-05
solution was a local minimum (stable)
===================================================
End Test for Internal Stability
===================================================
Our SCF solution is stable!
The disked orbital energies are calculated using alpha and beta Focks
Timing for Total SCF: 535.00s (wall), 4262.44s (cpu)
 Total energy in the final basis set =     -514.8315758747
<S^2> =          2.000000000
    ==================================================
              The end of Object-Oriented SCFman       
    ==================================================
 
 --------------------------------------------------------------
 
                    Orbital Energies (a.u.)
 --------------------------------------------------------------
 
 Alpha MOs
 -- Occupied --
******* -14.615  -9.715  -7.418  -7.412  -7.412  -1.117  -0.841
 -0.543  -0.535  -0.535  -0.397  -0.397
 -- Virtual --
  0.038   0.079   0.083   0.083   0.107   0.134   0.134   0.137
  0.248   0.264   0.264   0.347   0.347   0.421   0.474   0.474
  0.478   0.520   0.520   0.550   0.550   0.631   0.710   0.721
  0.721   0.737   0.737   0.816   0.819   0.819   0.916   1.030
  1.030   1.107   1.107   1.194   1.271   1.271   1.426   1.426
  1.412   1.412   1.518   1.606   1.606   1.655   1.691   1.691
  1.919   1.929   1.929   2.093   2.093   2.167   2.167   2.373
  2.516   2.516   2.754   2.754   2.790   2.790   2.850   2.831
  2.831   2.902   3.194   3.194   3.316   3.837   4.475   4.534
  4.534   4.638   4.638   4.659   4.659   4.807   4.807   4.983
  4.983   5.195   5.292   9.757   9.757   9.802   9.802  10.062
 12.078  12.078  12.523  17.514  19.931  19.931  20.640  21.514
 35.956  35.956  35.958  35.958  35.963  35.963  35.979  38.301
 38.302  38.388  38.388  38.465  45.450  45.451  45.478  45.478
 45.614  53.761  53.761  54.285 102.202 107.720 107.720 108.367
114.478
 
 Beta MOs
 -- Occupied --
******* -14.582  -9.712  -7.416  -7.407  -7.407  -1.079  -0.776
 -0.501  -0.494  -0.494
 -- Virtual --
 -0.012  -0.012   0.040   0.080   0.081   0.081   0.110   0.134
  0.134   0.152   0.248   0.267   0.267   0.361   0.361   0.426
  0.472   0.472   0.482   0.525   0.525   0.552   0.552   0.634
  0.723   0.730   0.730   0.752   0.752   0.818   0.838   0.838
  0.932   1.035   1.035   1.115   1.115   1.220   1.290   1.290
  1.437   1.437   1.482   1.482   1.530   1.626   1.626   1.667
  1.705   1.705   1.938   1.948   1.948   2.109   2.109   2.185
  2.185   2.401   2.534   2.534   2.770   2.770   2.800   2.800
  2.856   2.879   2.879   2.925   3.283   3.283   3.339   3.919
  4.538   4.662   4.662   4.729   4.729   4.824   4.824   4.880
  4.880   5.088   5.088   5.264   5.369   9.760   9.760   9.804
  9.804  10.066  12.084  12.084  12.525  17.519  19.994  19.994
 20.666  21.553  35.958  35.958  35.961  35.961  35.965  35.965
 35.980  38.328  38.328  38.395  38.395  38.465  45.457  45.457
 45.483  45.483  45.617  53.767  53.767  54.287 102.206 107.725
107.725 108.373 114.500
 --------------------------------------------------------------
 
          Ground-State Mulliken Net Atomic Charges

     Atom                 Charge (a.u.)
  ----------------------------------------
      1 N                    -0.348846
      2 Cl                    0.348846
  ----------------------------------------
  Sum of atomic charges =    -0.000000

 -----------------------------------------------------------------
                    Cartesian Multipole Moments
 -----------------------------------------------------------------
    Charge (ESU x 10^10)
                -0.0000
    Dipole Moment (Debye)
         X      -0.0000      Y      -0.0000      Z       1.1430
       Tot       1.1430
    Quadrupole Moments (Debye-Ang)
        XX     -17.9931     XY       0.0000     YY     -17.9931
        XZ      -0.0000     YZ      -0.0000     ZZ     -15.9690
    Octopole Moments (Debye-Ang^2)
       XXX      -0.0000    XXY      -0.0000    XYY      -0.0000
       YYY      -0.0000    XXZ     -19.8494    XYZ       0.0000
       YYZ     -19.8494    XZZ      -0.0000    YZZ      -0.0000
       ZZZ     -52.4851
    Hexadecapole Moments (Debye-Ang^3)
      XXXX     -19.5050   XXXY       0.0000   XXYY      -6.5017
      XYYY       0.0000   YYYY     -19.5050   XXXZ      -0.0000
      XXYZ      -0.0000   XYYZ      -0.0000   YYYZ      -0.0000
      XXZZ     -38.8667   XYZZ       0.0000   YYZZ     -38.8667
      XZZZ      -0.0000   YZZZ      -0.0000   ZZZZ    -188.9860
 -----------------------------------------------------------------
Archival summary:
1\1\n0068.mhg0\SP\ROProcedureUnspecified\BasisUnspecified\l11(3)\yhljason\ThuNov1202:12:032020ThuNov1202:12:032020\0\\#,ROProcedureUnspecified,BasisUnspecified,\\0,3\N\Cl,1,1.6107\\\@

 Total job time:  539.59s(wall), 4298.08s(cpu) 
 Thu Nov 12 02:12:03 2020

        *************************************************************
        *                                                           *
        *  Thank you very much for using Q-Chem.  Have a nice day.  *
        *                                                           *
        *************************************************************


 
User input: 2 of 6 
 
Q-Chem Developer Version!
                  Welcome to Q-Chem
     A Quantum Leap Into The Future Of Chemistry


 Q-Chem 5.1, Q-Chem, Inc., Pleasanton, CA (2018)

 Yihan Shao,  Zhengting Gan,  E. Epifanovsky,  A. T. B. Gilbert,  M. Wormit,  
 J. Kussmann,  A. W. Lange,  A. Behn,  Jia Deng,  Xintian Feng,  D. Ghosh,  
 M. Goldey,  P. R. Horn,  L. D. Jacobson,  I. Kaliman,  T. Kus,  A. Landau,  
 Jie Liu,  E. I. Proynov,  R. M. Richard,  R. P. Steele,  E. J. Sundstrom,  
 H. L. Woodcock III,  P. M. Zimmerman,  D. Zuev,  B. Albrecht,  E. Alguire,  
 S. A. Baeppler,  D. Barton,  Z. Benda,  Y. A. Bernard,  E. J. Berquist,  
 K. B. Bravaya,  H. Burton,  D. Casanova,  Chun-Min Chang,  Yunqing Chen,  
 A. Chien,  K. D. Closser,  M. P. Coons,  S. Coriani,  S. Dasgupta,  
 A. L. Dempwolff,  M. Diedenhofen,  Hainam Do,  R. G. Edgar,  Po-Tung Fang,  
 S. Faraji,  S. Fatehi,  Qingguo Feng,  K. D. Fenk,  J. Fosso-Tande,  
 Qinghui Ge,  A. Ghysels,  G. Gidofalvi,  J. Gomes,  J. Gonthier,  A. Gunina,  
 D. Hait,  M. W. D. Hanson-Heine,  P. H. P. Harbach,  A. W. Hauser,  
 J. E. Herr,  E. G. Hohenstein,  Z. C. Holden,  Kerwin Hui,  B. C. Huynh,  
 T.-C. Jagau,  Hyunjun Ji,  B. Kaduk,  K. Khistyaev,  Jaehoon Kim,  
 P. Klunzinger,  K. Koh,  D. Kosenkov,  L. Koulias,  T. Kowalczyk,  
 C. M. Krauter,  A. Kunitsa,  Ka Un Lao,  A. Laurent,  K. V. Lawler,  
 Joonho Lee,  D. Lefrancois,  S. Lehtola,  D. S. Levine,  Yi-Pei Li,  
 You-Sheng Lin,  Fenglai Liu,  E. Livshits,  A. Luenser,  P. Manohar,  
 E. Mansoor,  S. F. Manzer,  Shan-Ping Mao,  Yuezhi Mao,  N. Mardirossian,  
 A. V. Marenich,  T. Markovich,  L. A. Martinez-Martinez,  S. A. Maurer,  
 N. J. Mayhall,  S. C. McKenzie,  J.-M. Mewes,  A. F. Morrison,  
 J. W. Mullinax,  K. Nanda,  T. S. Nguyen-Beck,  R. Olivares-Amaya,  
 J. A. Parkhill,  T. M. Perrine,  F. Plasser,  P. Pokhilko,  S. Prager,  
 A. Prociuk,  E. Ramos,  D. R. Rehn,  F. Rob,  M. Schneider,  N. Sergueev,  
 S. M. Sharada,  S. Sharma,  D. W. Small,  T. Stauch,  T. Stein,  
 Yu-Chuan Su,  A. J. W. Thom,  A. Tkatchenko,  T. Tsuchimochi,  N. M. Tubman,  
 L. Vogt,  M. L. Vidal,  O. Vydrov,  M. A. Watson,  J. Wenzel,  
 M. de Wergifosse,  T. A. Wesolowski,  A. White,  J. Witte,  A. Yamada,  
 Jun Yang,  K. Yao,  S. Yeganeh,  S. R. Yost,  Zhi-Qiang You,  A. Zech,  
 Igor Ying Zhang,  Xing Zhang,  Yan Zhao,  Ying Zhu,  B. R. Brooks,  
 G. K. L. Chan,  C. J. Cramer,  M. S. Gordon,  W. J. Hehre,  A. Klamt,  
 M. W. Schmidt,  C. D. Sherrill,  D. G. Truhlar,  A. Aspuru-Guzik,  R. Baer,  
 A. T. Bell,  N. A. Besley,  Jeng-Da Chai,  A. E. DePrince, III,  
 R. A. DiStasio Jr.,  A. Dreuw,  B. D. Dunietz,  T. R. Furlani,  
 Chao-Ping Hsu,  Yousung Jung,  Jing Kong,  D. S. Lambrecht,  WanZhen Liang,  
 C. Ochsenfeld,  V. A. Rassolov,  L. V. Slipchenko,  J. E. Subotnik,  
 T. Van Voorhis,  J. M. Herbert,  A. I. Krylov,  P. M. W. Gill,  M. Head-Gordon

 Contributors to earlier versions of Q-Chem not listed above: 
 R. D. Adamson,  B. Austin,  J. Baker,  G. J. O. Beran,  K. Brandhorst,  
 S. T. Brown,  E. F. C. Byrd,  A. K. Chakraborty,  C.-L. Cheng,  
 Siu Hung Chien,  D. M. Chipman,  D. L. Crittenden,  H. Dachsel,  
 R. J. Doerksen,  A. D. Dutoi,  L. Fusti-Molnar,  W. A. Goddard III,  
 A. Golubeva-Zadorozhnaya,  S. R. Gwaltney,  G. Hawkins,  A. Heyden,  
 S. Hirata,  G. Kedziora,  F. J. Keil,  C. Kelley,  Jihan Kim,  R. A. King,  
 R. Z. Khaliullin,  P. P. Korambath,  W. Kurlancheek,  A. M. Lee,  M. S. Lee,  
 S. V. Levchenko,  Ching Yeh Lin,  D. Liotard,  R. C. Lochan,  I. Lotan,  
 P. E. Maslen,  N. Nair,  D. P. O'Neill,  D. Neuhauser,  E. Neuscamman,  
 C. M. Oana,  R. Olson,  B. Peters,  R. Peverati,  P. A. Pieniazek,  
 Y. M. Rhee,  J. Ritchie,  M. A. Rohrdanz,  E. Rosta,  N. J. Russ,  
 H. F. Schaefer III,  N. E. Schultz,  N. Shenvi,  A. C. Simmonett,  A. Sodt,  
 D. Stuck,  K. S. Thanthiriwatte,  V. Vanovschi,  Tao Wang,  A. Warshel,  
 C. F. Williams,  Q. Wu,  X. Xu,  W. Zhang

 Please cite Q-Chem as follows:
 Y. Shao et al., Mol. Phys. 113, 184-215 (2015)
 DOI: 10.1080/00268976.2014.952696

 Q-Chem 5.1.1 for Intel X86 EM64T Linux

 Parts of Q-Chem use Armadillo 8.300.2 (Tropical Shenanigans).
 http://arma.sourceforge.net/

 Q-Chem begins on Thu Nov 12 02:12:03 2020  

Host: n0068.mhg0
0

     Scratch files written to /local/scratch/users/yhljason/NCl_wB97M2_aug-cc-pcVTZ.inp20201112020246//
The previous job contains 0 fragments, simply inherited here
Input Ideriv = 0
Curr. Ideriv = -1
Max.  Ideriv = 0
Input Ideriv = 1
Curr. Ideriv = 0
Max.  Ideriv = 0

Checking the input file for inconsistencies... 	...done.

--------------------------------------------------------------
User input:
--------------------------------------------------------------
$molecule
read
$end

$rem
jobtype sp
exchange wB97M(2)
xc_grid 000099000590
basis aug-cc-pcVTZ
max_scf_cycles 200
thresh 14
scf_convergence 8
scf_algorithm gdm
symmetry false
sym_ignore true
unrestricted false
gen_scfman false
mem_total 128000
cc_memory 96000
cc_backend xm
mem_static 1500
n_frozen_core 0
scf_guess read
$end



--------------------------------------------------------------
 ----------------------------------------------------------------
             Standard Nuclear Orientation (Angstroms)
    I     Atom           X                Y                Z
 ----------------------------------------------------------------
    1      N       0.0000000000     0.0000000000     0.0000000000
    2      Cl      0.0000000000     0.0000000000     1.6107000000
 ----------------------------------------------------------------
 Nuclear Repulsion Energy =    39.0960998853 hartrees
 There are       13 alpha and       11 beta electrons
 Requested basis set is aug-cc-pCVTZ
 There are 42 shells and 134 basis functions

 Total QAlloc Memory Limit 128000 MB
 Mega-Array Size      1467 MB
 MEM_STATIC part      1500 MB

                       Distance Matrix (Angstroms)
             N (  1)
   Cl(  2)  1.610700
 
 A cutoff of  1.0D-14 yielded    883 shell pairs
 There are      9061 function pairs (     12669 Cartesian)
 
 -------------------------------------------------------
 OpenMP Integral Computing Module                       
 Release: version 1.0, May 2013, Q-Chem Inc. Pittsburgh 
 -------------------------------------------------------
 Integral Job Info:
 Integral job number is                      11
 Integral operator is                         1
 short-range coefficients              15000000
 long-range coefficients              100000000
 Omega coefficients                         300
 if combine SR and LR in K                    1
 Integral screening is                        0
 Integral computing path is                   2
 max size of driver memory is            800000
 size of driver memory is                776718
 size of scratch memory is             29504930
 max col of scratch BK array              10000
 max len of scratch array in speh3          662
 max len of scratch index in speh4           32
 max int batch size is                      520
 min int batch size is                       52
 fixed nKL is                                30
 max L of basis functions is                  3
 order of int derivative is                   0
 number of shells is                         42
 number of basis is                         158
 number of cartesian basis is               158
 number of contracted shell pairs           883
 number of primitive shell pairs           5031
 maxK2 (contraction) of shell pair          169
 max number of K2 of shell pair               1
 max number of CS2 of shell pair             98
 max number of PS2 of shell pair           1014
 mem total for path MDJ                  562256
 -------------------------------------------------------
 Smallest overlap matrix eigenvalue = 3.23E-04

 Scale SEOQF with 1.000000e-01/1.000000e-01/1.000000e-01

 Standard Electronic Orientation quadrupole field applied
 Nucleus-field energy     =    -0.0000000047 hartrees
 Guess MOs from SCF MO coefficient file
 Reading MOs from coefficient file
 Reading MOs from coefficient file
 Long-range K will be added via erf
 Coulomb attenuation parameter = 0.3 bohr**(-1)
 A restricted hybrid HF-DFT SCF calculation will be
 performed using Geometric Direct Minimization
 Exchange:     0.1500 Hartree-Fock + 1.0000 wB97M-V + LR-HF
 Correlation:  1.0000 wB97M-V
 Using Euler-Maclaurin-Lebedev (99,590) quadrature formula
 Nonlocal Correlation:  VV10 with C = 0.0100 and b = 6.00 and scale = 1.00000
 Grid used for NLC:  SG-1 standard quadrature
 SCF converges when RMS gradient is below 1.0E-08
Using Q-Chem read-in guess as SCF_GUESS READ specified.

 using 8 threads for integral computing
 -------------------------------------------------------
 OpenMP Integral computing Module                
 Release: version 1.0, May 2013, Q-Chem Inc. Pittsburgh 
 -------------------------------------------------------
 using 8 threads for integral computing
 -------------------------------------------------------
 OpenMP Integral computing Module                
 Release: version 1.0, May 2013, Q-Chem Inc. Pittsburgh 
 -------------------------------------------------------
TIMEINFO->: J/JK contribution 21.42 sec.
 -------------------------------------------------------
 OpenMP BLAS3 based DFT computing Module                
 Release: version 1.0, May 2013, Q-Chem Inc. Pittsburgh 
 -------------------------------------------------------
 -------------------------------------------------------
 OpenMP BLAS3 based DFT computing Module                
 Release: version 1.0, May 2013, Q-Chem Inc. Pittsburgh 
 -------------------------------------------------------
 -------------------------------------------------------
 OpenMP BLAS3 based DFT computing Module                
 Release: version 1.0, May 2013, Q-Chem Inc. Pittsburgh 
 -------------------------------------------------------
 ---------------------------------------
  Cycle       Energy        RMS Gradient
 ---------------------------------------
    1    -514.8315758747      2.02E-09 Normal BFGS step
TIMEINFO->: J/JK contribution 20.76 sec.
   GDM::WARNING energy changes are now smaller than effective accuracy.
   GDM::        calculation will continue, but THRESH should be increased
   GDM::        or SCF_CONVERGENCE decreased.
   GDM::        effective_thresh =   1.300000000000000E-010
 Nonlocal correlation =     0.0324218243
    2    -514.8315758746      1.75E-09 Convergence criterion met
 ---------------------------------------
 wB97M-V orbitals are now ready for the wB97M(2) calculation.
 wB97M(2) energy = Exch (0.62194 SRHF + 1.0 LRHF + wB97M(2)_EXCH) + 
               Corr (wB97M(2)_CORR + 0.34096 MP2 + 0.65904 VV10(b=10))
 SCF time:  CPU 102.44 s  wall 12.85 s
 SCF   energy in the final basis set = -514.72198680
 Total energy in the final basis set = -514.72198680
 
 Components of the MP2 correlation energy:
        aaaa  correlation energy =        -0.0414704925 au
        abab  correlation energy =        -0.2113055680 au
        bbbb  correlation energy =        -0.0346053548 au
        non-Brillouin singles    =        -0.0023686889 au

 Total  MP2   correlation energy =                    -0.28975010 au
        MP2         total energy =                  -515.01173691 au
 
 --------------------------------------------------------------
 
                    Orbital Energies (a.u.)
 --------------------------------------------------------------
 
 Alpha MOs
 -- Occupied --
******* -14.615  -9.715  -7.418  -7.412  -7.412  -1.117  -0.841
 -0.544  -0.535  -0.535  -0.397  -0.397
 -- Virtual --
  0.037   0.078   0.083   0.083   0.106   0.134   0.134   0.139
  0.248   0.263   0.263   0.346   0.346   0.421   0.473   0.473
  0.478   0.519   0.519   0.549   0.549   0.631   0.709   0.721
  0.721   0.736   0.736   0.815   0.820   0.820   0.917   1.030
  1.030   1.106   1.106   1.193   1.270   1.270   1.426   1.426
  1.412   1.412   1.518   1.606   1.606   1.655   1.691   1.692
  1.918   1.929   1.929   2.093   2.093   2.167   2.167   2.373
  2.515   2.515   2.754   2.754   2.790   2.790   2.827   2.827
  2.850   2.902   3.200   3.200   3.316   3.837   4.476   4.534
  4.534   4.637   4.637   4.662   4.662   4.808   4.808   4.983
  4.983   5.188   5.301   9.757   9.757   9.802   9.802  10.062
 12.078  12.078  12.523  17.514  19.931  19.931  20.640  21.514
 35.956  35.956  35.958  35.958  35.963  35.963  35.979  38.301
 38.302  38.388  38.388  38.465  45.450  45.451  45.478  45.478
 45.614  53.761  53.761  54.285 102.202 107.720 107.720 108.367
114.478
 
 Beta MOs
 -- Occupied --
******* -14.582  -9.712  -7.416  -7.407  -7.407  -1.079  -0.776
 -0.500  -0.494  -0.494
 -- Virtual --
 -0.012  -0.012   0.041   0.081   0.081   0.081   0.111   0.134
  0.134   0.151   0.248   0.267   0.267   0.361   0.361   0.426
  0.473   0.473   0.482   0.525   0.525   0.552   0.552   0.634
  0.723   0.730   0.730   0.753   0.753   0.819   0.838   0.838
  0.932   1.035   1.035   1.115   1.115   1.221   1.290   1.290
  1.437   1.437   1.482   1.482   1.530   1.626   1.626   1.667
  1.705   1.705   1.938   1.948   1.948   2.108   2.108   2.185
  2.185   2.400   2.535   2.535   2.769   2.769   2.800   2.800
  2.881   2.881   2.856   2.925   3.280   3.280   3.339   3.920
  4.537   4.662   4.662   4.730   4.730   4.822   4.822   4.880
  4.880   5.088   5.088   5.268   5.364   9.760   9.760   9.804
  9.804  10.066  12.084  12.084  12.525  17.519  19.994  19.994
 20.666  21.553  35.958  35.958  35.961  35.961  35.965  35.965
 35.980  38.328  38.328  38.395  38.395  38.465  45.457  45.457
 45.483  45.483  45.617  53.767  53.767  54.287 102.206 107.725
107.725 108.373 114.500
 --------------------------------------------------------------
 
          Ground-State Mulliken Net Atomic Charges

     Atom                 Charge (a.u.)
  ----------------------------------------
      1 N                    -0.348846
      2 Cl                    0.348846
  ----------------------------------------
  Sum of atomic charges =     0.000000

 -----------------------------------------------------------------
                    Cartesian Multipole Moments
 -----------------------------------------------------------------
    Charge (ESU x 10^10)
                 0.0000
    Dipole Moment (Debye)
         X       0.0000      Y       0.0000      Z       1.1430
       Tot       1.1430
    Quadrupole Moments (Debye-Ang)
        XX     -17.9931     XY      -0.0000     YY     -17.9931
        XZ       0.0000     YZ       0.0000     ZZ     -15.9690
    Octopole Moments (Debye-Ang^2)
       XXX       0.0000    XXY       0.0000    XYY       0.0000
       YYY       0.0000    XXZ     -19.8494    XYZ      -0.0000
       YYZ     -19.8494    XZZ       0.0000    YZZ       0.0000
       ZZZ     -52.4851
    Hexadecapole Moments (Debye-Ang^3)
      XXXX     -19.5050   XXXY      -0.0000   XXYY      -6.5017
      XYYY      -0.0000   YYYY     -19.5050   XXXZ       0.0000
      XXYZ      -0.0000   XYYZ       0.0000   YYYZ       0.0000
      XXZZ     -38.8667   XYZZ      -0.0000   YYZZ     -38.8667
      XZZZ       0.0000   YZZZ       0.0000   ZZZZ    -188.9860
 -----------------------------------------------------------------
Archival summary:
1\1\n0068.mhg0\SP\ROProcedureUnspecified\BasisUnspecified\l11(3)\yhljason\ThuNov1202:12:522020ThuNov1202:12:522020\0\\#,ROProcedureUnspecified,BasisUnspecified,\\0,3\N\Cl,1,1.6107\\\@

 Total job time:  49.25s(wall), 386.47s(cpu) 
 Thu Nov 12 02:12:52 2020

        *************************************************************
        *                                                           *
        *  Thank you very much for using Q-Chem.  Have a nice day.  *
        *                                                           *
        *************************************************************


 
User input: 3 of 6 
 
Q-Chem Developer Version!
                  Welcome to Q-Chem
     A Quantum Leap Into The Future Of Chemistry


 Q-Chem 5.1, Q-Chem, Inc., Pleasanton, CA (2018)

 Yihan Shao,  Zhengting Gan,  E. Epifanovsky,  A. T. B. Gilbert,  M. Wormit,  
 J. Kussmann,  A. W. Lange,  A. Behn,  Jia Deng,  Xintian Feng,  D. Ghosh,  
 M. Goldey,  P. R. Horn,  L. D. Jacobson,  I. Kaliman,  T. Kus,  A. Landau,  
 Jie Liu,  E. I. Proynov,  R. M. Richard,  R. P. Steele,  E. J. Sundstrom,  
 H. L. Woodcock III,  P. M. Zimmerman,  D. Zuev,  B. Albrecht,  E. Alguire,  
 S. A. Baeppler,  D. Barton,  Z. Benda,  Y. A. Bernard,  E. J. Berquist,  
 K. B. Bravaya,  H. Burton,  D. Casanova,  Chun-Min Chang,  Yunqing Chen,  
 A. Chien,  K. D. Closser,  M. P. Coons,  S. Coriani,  S. Dasgupta,  
 A. L. Dempwolff,  M. Diedenhofen,  Hainam Do,  R. G. Edgar,  Po-Tung Fang,  
 S. Faraji,  S. Fatehi,  Qingguo Feng,  K. D. Fenk,  J. Fosso-Tande,  
 Qinghui Ge,  A. Ghysels,  G. Gidofalvi,  J. Gomes,  J. Gonthier,  A. Gunina,  
 D. Hait,  M. W. D. Hanson-Heine,  P. H. P. Harbach,  A. W. Hauser,  
 J. E. Herr,  E. G. Hohenstein,  Z. C. Holden,  Kerwin Hui,  B. C. Huynh,  
 T.-C. Jagau,  Hyunjun Ji,  B. Kaduk,  K. Khistyaev,  Jaehoon Kim,  
 P. Klunzinger,  K. Koh,  D. Kosenkov,  L. Koulias,  T. Kowalczyk,  
 C. M. Krauter,  A. Kunitsa,  Ka Un Lao,  A. Laurent,  K. V. Lawler,  
 Joonho Lee,  D. Lefrancois,  S. Lehtola,  D. S. Levine,  Yi-Pei Li,  
 You-Sheng Lin,  Fenglai Liu,  E. Livshits,  A. Luenser,  P. Manohar,  
 E. Mansoor,  S. F. Manzer,  Shan-Ping Mao,  Yuezhi Mao,  N. Mardirossian,  
 A. V. Marenich,  T. Markovich,  L. A. Martinez-Martinez,  S. A. Maurer,  
 N. J. Mayhall,  S. C. McKenzie,  J.-M. Mewes,  A. F. Morrison,  
 J. W. Mullinax,  K. Nanda,  T. S. Nguyen-Beck,  R. Olivares-Amaya,  
 J. A. Parkhill,  T. M. Perrine,  F. Plasser,  P. Pokhilko,  S. Prager,  
 A. Prociuk,  E. Ramos,  D. R. Rehn,  F. Rob,  M. Schneider,  N. Sergueev,  
 S. M. Sharada,  S. Sharma,  D. W. Small,  T. Stauch,  T. Stein,  
 Yu-Chuan Su,  A. J. W. Thom,  A. Tkatchenko,  T. Tsuchimochi,  N. M. Tubman,  
 L. Vogt,  M. L. Vidal,  O. Vydrov,  M. A. Watson,  J. Wenzel,  
 M. de Wergifosse,  T. A. Wesolowski,  A. White,  J. Witte,  A. Yamada,  
 Jun Yang,  K. Yao,  S. Yeganeh,  S. R. Yost,  Zhi-Qiang You,  A. Zech,  
 Igor Ying Zhang,  Xing Zhang,  Yan Zhao,  Ying Zhu,  B. R. Brooks,  
 G. K. L. Chan,  C. J. Cramer,  M. S. Gordon,  W. J. Hehre,  A. Klamt,  
 M. W. Schmidt,  C. D. Sherrill,  D. G. Truhlar,  A. Aspuru-Guzik,  R. Baer,  
 A. T. Bell,  N. A. Besley,  Jeng-Da Chai,  A. E. DePrince, III,  
 R. A. DiStasio Jr.,  A. Dreuw,  B. D. Dunietz,  T. R. Furlani,  
 Chao-Ping Hsu,  Yousung Jung,  Jing Kong,  D. S. Lambrecht,  WanZhen Liang,  
 C. Ochsenfeld,  V. A. Rassolov,  L. V. Slipchenko,  J. E. Subotnik,  
 T. Van Voorhis,  J. M. Herbert,  A. I. Krylov,  P. M. W. Gill,  M. Head-Gordon

 Contributors to earlier versions of Q-Chem not listed above: 
 R. D. Adamson,  B. Austin,  J. Baker,  G. J. O. Beran,  K. Brandhorst,  
 S. T. Brown,  E. F. C. Byrd,  A. K. Chakraborty,  C.-L. Cheng,  
 Siu Hung Chien,  D. M. Chipman,  D. L. Crittenden,  H. Dachsel,  
 R. J. Doerksen,  A. D. Dutoi,  L. Fusti-Molnar,  W. A. Goddard III,  
 A. Golubeva-Zadorozhnaya,  S. R. Gwaltney,  G. Hawkins,  A. Heyden,  
 S. Hirata,  G. Kedziora,  F. J. Keil,  C. Kelley,  Jihan Kim,  R. A. King,  
 R. Z. Khaliullin,  P. P. Korambath,  W. Kurlancheek,  A. M. Lee,  M. S. Lee,  
 S. V. Levchenko,  Ching Yeh Lin,  D. Liotard,  R. C. Lochan,  I. Lotan,  
 P. E. Maslen,  N. Nair,  D. P. O'Neill,  D. Neuhauser,  E. Neuscamman,  
 C. M. Oana,  R. Olson,  B. Peters,  R. Peverati,  P. A. Pieniazek,  
 Y. M. Rhee,  J. Ritchie,  M. A. Rohrdanz,  E. Rosta,  N. J. Russ,  
 H. F. Schaefer III,  N. E. Schultz,  N. Shenvi,  A. C. Simmonett,  A. Sodt,  
 D. Stuck,  K. S. Thanthiriwatte,  V. Vanovschi,  Tao Wang,  A. Warshel,  
 C. F. Williams,  Q. Wu,  X. Xu,  W. Zhang

 Please cite Q-Chem as follows:
 Y. Shao et al., Mol. Phys. 113, 184-215 (2015)
 DOI: 10.1080/00268976.2014.952696

 Q-Chem 5.1.1 for Intel X86 EM64T Linux

 Parts of Q-Chem use Armadillo 8.300.2 (Tropical Shenanigans).
 http://arma.sourceforge.net/

 Q-Chem begins on Thu Nov 12 02:12:52 2020  

Host: n0068.mhg0
0

     Scratch files written to /local/scratch/users/yhljason/NCl_wB97M2_aug-cc-pcVTZ.inp20201112020246//
The previous job contains 0 fragments, simply inherited here
Input Ideriv = 1
Curr. Ideriv = -1
Max.  Ideriv = 1

Checking the input file for inconsistencies... 	...done.

--------------------------------------------------------------
User input:
--------------------------------------------------------------
$molecule
read
$end

$rem

jobtype sp
method wb97m-v
xc_grid 000099000590
basis aug-cc-pcVTZ
max_scf_cycles 200
thresh 14
scf_convergence 8
mem_total 128000
cc_memory 96000
cc_backend xm
mem_static 1500
symmetry false
sym_ignore true
scf_guess read
unrestricted false
scf_algorithm gdm
n_frozen_core 0
gen_scfman true
$end

$multipole_field
Z 0.0001
$end



--------------------------------------------------------------
 ----------------------------------------------------------------
             Standard Nuclear Orientation (Angstroms)
    I     Atom           X                Y                Z
 ----------------------------------------------------------------
    1      N       0.0000000000     0.0000000000     0.0000000000
    2      Cl      0.0000000000     0.0000000000     1.6107000000
 ----------------------------------------------------------------
 Nuclear Repulsion Energy =    39.0960998853 hartrees
 There are       13 alpha and       11 beta electrons
 Requested basis set is aug-cc-pCVTZ
 There are 42 shells and 134 basis functions

 Total QAlloc Memory Limit 128000 MB
 Mega-Array Size      1467 MB
 MEM_STATIC part      1500 MB

                       Distance Matrix (Angstroms)
             N (  1)
   Cl(  2)  1.610700
 
 Applying Cartesian multipole field
    Component          Value
    ---------          -----
     (0,0,1)        1.00000E-04
 Nucleus-field energy     =     0.0051744292 hartrees
 A cutoff of  1.0D-14 yielded    883 shell pairs
 There are      9061 function pairs (     12669 Cartesian)
 
 -------------------------------------------------------
 OpenMP Integral Computing Module                       
 Release: version 1.0, May 2013, Q-Chem Inc. Pittsburgh 
 -------------------------------------------------------
 Integral Job Info:
 Integral job number is                      11
 Integral operator is                         1
 short-range coefficients              15000000
 long-range coefficients              100000000
 Omega coefficients                         300
 if combine SR and LR in K                    1
 Integral screening is                        0
 Integral computing path is                   2
 max size of driver memory is            800000
 size of driver memory is                776718
 size of scratch memory is             29504930
 max col of scratch BK array              10000
 max len of scratch array in speh3          662
 max len of scratch index in speh4           32
 max int batch size is                      520
 min int batch size is                       52
 fixed nKL is                                30
 max L of basis functions is                  3
 order of int derivative is                   0
 number of shells is                         42
 number of basis is                         158
 number of cartesian basis is               158
 number of contracted shell pairs           883
 number of primitive shell pairs           5031
 maxK2 (contraction) of shell pair          169
 max number of K2 of shell pair               1
 max number of CS2 of shell pair             98
 max number of PS2 of shell pair           1014
 mem total for path MDJ                  562256
 -------------------------------------------------------
 Smallest overlap matrix eigenvalue = 3.23E-04
 Guess MOs from SCF MO coefficient file

 -----------------------------------------------------------------------
  General SCF calculation program by
  Eric Jon Sundstrom, Paul Horn, Yuezhi Mao, Dmitri Zuev, Alec White,
  David Stuck, Shaama M.S., Shane Yost, Joonho Lee, David Small,
  Daniel Levine, Susi Lehtola, Hugh Burton, Evgeny Epifanovsky
 -----------------------------------------------------------------------
 Exchange:     0.1500 Hartree-Fock + 1.0000 wB97M-V + LR-HF
 Correlation:  1.0000 wB97M-V
 Using Euler-Maclaurin-Lebedev (99,590) quadrature formula
 Nonlocal Correlation:  VV10 with C = 0.0100 and b = 6.00 and scale = 1.00000
 Grid used for NLC:  SG-1 standard quadrature
 using 8 threads for integral computing
 -------------------------------------------------------
 OpenMP Integral computing Module                
 Release: version 1.0, May 2013, Q-Chem Inc. Pittsburgh 
 -------------------------------------------------------
 using 8 threads for integral computing
 -------------------------------------------------------
 OpenMP Integral computing Module                
 Release: version 1.0, May 2013, Q-Chem Inc. Pittsburgh 
 -------------------------------------------------------
 -------------------------------------------------------
 OpenMP BLAS3 based DFT computing Module                
 Release: version 1.0, May 2013, Q-Chem Inc. Pittsburgh 
 -------------------------------------------------------
 -------------------------------------------------------
 OpenMP BLAS3 based DFT computing Module                
 Release: version 1.0, May 2013, Q-Chem Inc. Pittsburgh 
 -------------------------------------------------------
 -------------------------------------------------------
 OpenMP BLAS3 based DFT computing Module                
 Release: version 1.0, May 2013, Q-Chem Inc. Pittsburgh 
 -------------------------------------------------------
 Nonlocal correlation = 0.100649249298
 A restricted open-shell SCF calculation will be
 performed using GDM
 SCF converges when RMS gradient is below 1.0e-08
 ---------------------------------------
  Cycle       Energy        RMS Gradient
 ---------------------------------------
 Nonlocal correlation = 1.006490639236e-01
    1    -514.8315309057      4.68e-04   Normal BFGS step
 Nonlocal correlation = 1.006491988382e-01
    2    -514.8315303247      1.62e-03  Line search: overstep
 Nonlocal correlation = 1.006493078346e-01
    3    -514.8315309995      1.11e-04   Normal BFGS step
 Nonlocal correlation = 1.006492634483e-01
    4    -514.8315310583      2.77e-05   Normal BFGS step
 Nonlocal correlation = 1.006492570967e-01
    5    -514.8315310624      4.50e-06   Normal BFGS step
 Nonlocal correlation = 1.006492607021e-01
    6    -514.8315310626      1.36e-06   Normal BFGS step
 Nonlocal correlation = 1.006492595906e-01
    7    -514.8315310627      3.46e-07   Normal BFGS step
 Nonlocal correlation = 1.006492598974e-01
    8    -514.8315310627      8.89e-08   Normal BFGS step
 Nonlocal correlation = 1.006492598670e-01
    9    -514.8315310627      1.92e-08   Normal BFGS step
 Nonlocal correlation = 1.006492598746e-01
   10    -514.8315310627      4.53e-09  Convergence criterion met
The disked orbital energies are calculated using alpha and beta Focks
 ---------------------------------------
 SCF time:   CPU 355.00s  wall 45.00s 
<S^2> =          2.000000000
 SCF   energy in the final basis set =     -514.8315310627
 Total energy in the final basis set =     -514.8315310627
 
 --------------------------------------------------------------
 
                    Orbital Energies (a.u.)
 --------------------------------------------------------------
 
 Alpha MOs
 -- Occupied --
******* -14.615  -9.715  -7.418  -7.412  -7.412  -1.118  -0.841
 -0.543  -0.535  -0.535  -0.397  -0.397
 -- Virtual --
  0.038   0.079   0.082   0.082   0.107   0.134   0.134   0.137
  0.248   0.263   0.263   0.346   0.346   0.421   0.474   0.474
  0.478   0.520   0.520   0.549   0.549   0.631   0.710   0.721
  0.721   0.737   0.737   0.815   0.819   0.819   0.916   1.030
  1.030   1.106   1.106   1.193   1.270   1.270   1.426   1.426
  1.411   1.411   1.517   1.606   1.606   1.655   1.691   1.691
  1.918   1.929   1.929   2.093   2.093   2.167   2.167   2.372
  2.516   2.516   2.754   2.754   2.790   2.790   2.850   2.830
  2.830   2.901   3.194   3.194   3.316   3.837   4.475   4.534
  4.534   4.638   4.638   4.659   4.659   4.807   4.807   4.983
  4.983   5.195   5.292   9.756   9.756   9.802   9.802  10.062
 12.078  12.078  12.523  17.514  19.930  19.930  20.640  21.514
 35.956  35.956  35.958  35.958  35.963  35.963  35.978  38.301
 38.301  38.388  38.388  38.465  45.450  45.450  45.478  45.478
 45.614  53.761  53.761  54.285 102.202 107.720 107.720 108.366
114.478
 
 Beta MOs
 -- Occupied --
******* -14.582  -9.712  -7.416  -7.407  -7.407  -1.079  -0.776
 -0.501  -0.494  -0.494
 -- Virtual --
 -0.012  -0.012   0.040   0.080   0.081   0.081   0.110   0.134
  0.134   0.151   0.248   0.267   0.267   0.361   0.361   0.426
  0.472   0.472   0.482   0.525   0.525   0.552   0.552   0.634
  0.723   0.729   0.729   0.752   0.752   0.818   0.838   0.838
  0.932   1.034   1.034   1.115   1.115   1.220   1.289   1.289
  1.437   1.437   1.482   1.482   1.530   1.626   1.626   1.667
  1.705   1.705   1.938   1.948   1.948   2.108   2.108   2.185
  2.185   2.400   2.534   2.534   2.769   2.769   2.800   2.800
  2.856   2.879   2.879   2.925   3.283   3.283   3.339   3.919
  4.537   4.662   4.662   4.729   4.729   4.823   4.823   4.880
  4.880   5.088   5.088   5.264   5.369   9.760   9.760   9.804
  9.804  10.066  12.084  12.084  12.525  17.519  19.994  19.994
 20.666  21.553  35.958  35.958  35.961  35.961  35.965  35.965
 35.980  38.328  38.328  38.395  38.395  38.465  45.457  45.457
 45.482  45.482  45.617  53.766  53.766  54.287 102.206 107.725
107.725 108.372 114.500
 --------------------------------------------------------------
 
          Ground-State Mulliken Net Atomic Charges

     Atom                 Charge (a.u.)
  ----------------------------------------
      1 N                    -0.348284
      2 Cl                    0.348284
  ----------------------------------------
  Sum of atomic charges =    -0.000000

 -----------------------------------------------------------------
                    Cartesian Multipole Moments
 -----------------------------------------------------------------
    Charge (ESU x 10^10)
                -0.0000
    Dipole Moment (Debye)
         X       0.0000      Y       0.0000      Z       1.1350
       Tot       1.1350
    Quadrupole Moments (Debye-Ang)
        XX     -17.9934     XY      -0.0000     YY     -17.9934
        XZ      -0.0000     YZ       0.0000     ZZ     -15.9842
    Octopole Moments (Debye-Ang^2)
       XXX       0.0000    XXY       0.0000    XYY       0.0000
       YYY       0.0000    XXZ     -19.8552    XYZ      -0.0000
       YYZ     -19.8552    XZZ       0.0000    YZZ       0.0000
       ZZZ     -52.5322
    Hexadecapole Moments (Debye-Ang^3)
      XXXX     -19.5063   XXXY      -0.0000   XXYY      -6.5021
      XYYY      -0.0000   YYYY     -19.5063   XXXZ      -0.0000
      XXYZ       0.0000   XYYZ      -0.0000   YYYZ       0.0000
      XXZZ     -38.8781   XYZZ      -0.0000   YYZZ     -38.8781
      XZZZ       0.0000   YZZZ       0.0000   ZZZZ    -189.1059
 -----------------------------------------------------------------
Archival summary:
1\1\n0068.mhg0\SP\ROProcedureUnspecified\BasisUnspecified\l11(3)\yhljason\ThuNov1202:13:382020ThuNov1202:13:382020\0\\#,ROProcedureUnspecified,BasisUnspecified,\\0,3\N\Cl,1,1.6107\\\@

 Total job time:  45.24s(wall), 360.19s(cpu) 
 Thu Nov 12 02:13:38 2020

        *************************************************************
        *                                                           *
        *  Thank you very much for using Q-Chem.  Have a nice day.  *
        *                                                           *
        *************************************************************


 
User input: 4 of 6 
 
Q-Chem Developer Version!
                  Welcome to Q-Chem
     A Quantum Leap Into The Future Of Chemistry


 Q-Chem 5.1, Q-Chem, Inc., Pleasanton, CA (2018)

 Yihan Shao,  Zhengting Gan,  E. Epifanovsky,  A. T. B. Gilbert,  M. Wormit,  
 J. Kussmann,  A. W. Lange,  A. Behn,  Jia Deng,  Xintian Feng,  D. Ghosh,  
 M. Goldey,  P. R. Horn,  L. D. Jacobson,  I. Kaliman,  T. Kus,  A. Landau,  
 Jie Liu,  E. I. Proynov,  R. M. Richard,  R. P. Steele,  E. J. Sundstrom,  
 H. L. Woodcock III,  P. M. Zimmerman,  D. Zuev,  B. Albrecht,  E. Alguire,  
 S. A. Baeppler,  D. Barton,  Z. Benda,  Y. A. Bernard,  E. J. Berquist,  
 K. B. Bravaya,  H. Burton,  D. Casanova,  Chun-Min Chang,  Yunqing Chen,  
 A. Chien,  K. D. Closser,  M. P. Coons,  S. Coriani,  S. Dasgupta,  
 A. L. Dempwolff,  M. Diedenhofen,  Hainam Do,  R. G. Edgar,  Po-Tung Fang,  
 S. Faraji,  S. Fatehi,  Qingguo Feng,  K. D. Fenk,  J. Fosso-Tande,  
 Qinghui Ge,  A. Ghysels,  G. Gidofalvi,  J. Gomes,  J. Gonthier,  A. Gunina,  
 D. Hait,  M. W. D. Hanson-Heine,  P. H. P. Harbach,  A. W. Hauser,  
 J. E. Herr,  E. G. Hohenstein,  Z. C. Holden,  Kerwin Hui,  B. C. Huynh,  
 T.-C. Jagau,  Hyunjun Ji,  B. Kaduk,  K. Khistyaev,  Jaehoon Kim,  
 P. Klunzinger,  K. Koh,  D. Kosenkov,  L. Koulias,  T. Kowalczyk,  
 C. M. Krauter,  A. Kunitsa,  Ka Un Lao,  A. Laurent,  K. V. Lawler,  
 Joonho Lee,  D. Lefrancois,  S. Lehtola,  D. S. Levine,  Yi-Pei Li,  
 You-Sheng Lin,  Fenglai Liu,  E. Livshits,  A. Luenser,  P. Manohar,  
 E. Mansoor,  S. F. Manzer,  Shan-Ping Mao,  Yuezhi Mao,  N. Mardirossian,  
 A. V. Marenich,  T. Markovich,  L. A. Martinez-Martinez,  S. A. Maurer,  
 N. J. Mayhall,  S. C. McKenzie,  J.-M. Mewes,  A. F. Morrison,  
 J. W. Mullinax,  K. Nanda,  T. S. Nguyen-Beck,  R. Olivares-Amaya,  
 J. A. Parkhill,  T. M. Perrine,  F. Plasser,  P. Pokhilko,  S. Prager,  
 A. Prociuk,  E. Ramos,  D. R. Rehn,  F. Rob,  M. Schneider,  N. Sergueev,  
 S. M. Sharada,  S. Sharma,  D. W. Small,  T. Stauch,  T. Stein,  
 Yu-Chuan Su,  A. J. W. Thom,  A. Tkatchenko,  T. Tsuchimochi,  N. M. Tubman,  
 L. Vogt,  M. L. Vidal,  O. Vydrov,  M. A. Watson,  J. Wenzel,  
 M. de Wergifosse,  T. A. Wesolowski,  A. White,  J. Witte,  A. Yamada,  
 Jun Yang,  K. Yao,  S. Yeganeh,  S. R. Yost,  Zhi-Qiang You,  A. Zech,  
 Igor Ying Zhang,  Xing Zhang,  Yan Zhao,  Ying Zhu,  B. R. Brooks,  
 G. K. L. Chan,  C. J. Cramer,  M. S. Gordon,  W. J. Hehre,  A. Klamt,  
 M. W. Schmidt,  C. D. Sherrill,  D. G. Truhlar,  A. Aspuru-Guzik,  R. Baer,  
 A. T. Bell,  N. A. Besley,  Jeng-Da Chai,  A. E. DePrince, III,  
 R. A. DiStasio Jr.,  A. Dreuw,  B. D. Dunietz,  T. R. Furlani,  
 Chao-Ping Hsu,  Yousung Jung,  Jing Kong,  D. S. Lambrecht,  WanZhen Liang,  
 C. Ochsenfeld,  V. A. Rassolov,  L. V. Slipchenko,  J. E. Subotnik,  
 T. Van Voorhis,  J. M. Herbert,  A. I. Krylov,  P. M. W. Gill,  M. Head-Gordon

 Contributors to earlier versions of Q-Chem not listed above: 
 R. D. Adamson,  B. Austin,  J. Baker,  G. J. O. Beran,  K. Brandhorst,  
 S. T. Brown,  E. F. C. Byrd,  A. K. Chakraborty,  C.-L. Cheng,  
 Siu Hung Chien,  D. M. Chipman,  D. L. Crittenden,  H. Dachsel,  
 R. J. Doerksen,  A. D. Dutoi,  L. Fusti-Molnar,  W. A. Goddard III,  
 A. Golubeva-Zadorozhnaya,  S. R. Gwaltney,  G. Hawkins,  A. Heyden,  
 S. Hirata,  G. Kedziora,  F. J. Keil,  C. Kelley,  Jihan Kim,  R. A. King,  
 R. Z. Khaliullin,  P. P. Korambath,  W. Kurlancheek,  A. M. Lee,  M. S. Lee,  
 S. V. Levchenko,  Ching Yeh Lin,  D. Liotard,  R. C. Lochan,  I. Lotan,  
 P. E. Maslen,  N. Nair,  D. P. O'Neill,  D. Neuhauser,  E. Neuscamman,  
 C. M. Oana,  R. Olson,  B. Peters,  R. Peverati,  P. A. Pieniazek,  
 Y. M. Rhee,  J. Ritchie,  M. A. Rohrdanz,  E. Rosta,  N. J. Russ,  
 H. F. Schaefer III,  N. E. Schultz,  N. Shenvi,  A. C. Simmonett,  A. Sodt,  
 D. Stuck,  K. S. Thanthiriwatte,  V. Vanovschi,  Tao Wang,  A. Warshel,  
 C. F. Williams,  Q. Wu,  X. Xu,  W. Zhang

 Please cite Q-Chem as follows:
 Y. Shao et al., Mol. Phys. 113, 184-215 (2015)
 DOI: 10.1080/00268976.2014.952696

 Q-Chem 5.1.1 for Intel X86 EM64T Linux

 Parts of Q-Chem use Armadillo 8.300.2 (Tropical Shenanigans).
 http://arma.sourceforge.net/

 Q-Chem begins on Thu Nov 12 02:13:38 2020  

Host: n0068.mhg0
0

     Scratch files written to /local/scratch/users/yhljason/NCl_wB97M2_aug-cc-pcVTZ.inp20201112020246//
The previous job contains 0 fragments, simply inherited here
Input Ideriv = 0
Curr. Ideriv = -1
Max.  Ideriv = 0
Input Ideriv = 1
Curr. Ideriv = 0
Max.  Ideriv = 0

Checking the input file for inconsistencies... 	...done.

--------------------------------------------------------------
User input:
--------------------------------------------------------------
$molecule
read
$end

$rem

jobtype sp
exchange wb97m(2)
xc_grid 000099000590
basis aug-cc-pcVTZ
max_scf_cycles 200
thresh 14
scf_convergence 8
mem_total 128000
cc_memory 96000
cc_backend xm
mem_static 1500
symmetry false
sym_ignore true
scf_guess read
unrestricted false
scf_algorithm gdm
n_frozen_core 0
$end

$multipole_field
Z 0.0001
$end



--------------------------------------------------------------
 ----------------------------------------------------------------
             Standard Nuclear Orientation (Angstroms)
    I     Atom           X                Y                Z
 ----------------------------------------------------------------
    1      N       0.0000000000     0.0000000000     0.0000000000
    2      Cl      0.0000000000     0.0000000000     1.6107000000
 ----------------------------------------------------------------
 Nuclear Repulsion Energy =    39.0960998853 hartrees
 There are       13 alpha and       11 beta electrons
 Requested basis set is aug-cc-pCVTZ
 There are 42 shells and 134 basis functions

 Total QAlloc Memory Limit 128000 MB
 Mega-Array Size      1467 MB
 MEM_STATIC part      1500 MB

                       Distance Matrix (Angstroms)
             N (  1)
   Cl(  2)  1.610700
 
 Applying Cartesian multipole field
    Component          Value
    ---------          -----
     (0,0,1)        1.00000E-04
 Nucleus-field energy     =     0.0051744292 hartrees
 A cutoff of  1.0D-14 yielded    883 shell pairs
 There are      9061 function pairs (     12669 Cartesian)
 
 -------------------------------------------------------
 OpenMP Integral Computing Module                       
 Release: version 1.0, May 2013, Q-Chem Inc. Pittsburgh 
 -------------------------------------------------------
 Integral Job Info:
 Integral job number is                      11
 Integral operator is                         1
 short-range coefficients              15000000
 long-range coefficients              100000000
 Omega coefficients                         300
 if combine SR and LR in K                    1
 Integral screening is                        0
 Integral computing path is                   2
 max size of driver memory is            800000
 size of driver memory is                776718
 size of scratch memory is             29504930
 max col of scratch BK array              10000
 max len of scratch array in speh3          662
 max len of scratch index in speh4           32
 max int batch size is                      520
 min int batch size is                       52
 fixed nKL is                                30
 max L of basis functions is                  3
 order of int derivative is                   0
 number of shells is                         42
 number of basis is                         158
 number of cartesian basis is               158
 number of contracted shell pairs           883
 number of primitive shell pairs           5031
 maxK2 (contraction) of shell pair          169
 max number of K2 of shell pair               1
 max number of CS2 of shell pair             98
 max number of PS2 of shell pair           1014
 mem total for path MDJ                  562256
 -------------------------------------------------------
 Smallest overlap matrix eigenvalue = 3.23E-04
 Guess MOs from SCF MO coefficient file
 Reading MOs from coefficient file
 Reading MOs from coefficient file
 Long-range K will be added via erf
 Coulomb attenuation parameter = 0.3 bohr**(-1)
 A restricted hybrid HF-DFT SCF calculation will be
 performed using Geometric Direct Minimization
 Exchange:     0.1500 Hartree-Fock + 1.0000 wB97M-V + LR-HF
 Correlation:  1.0000 wB97M-V
 Using Euler-Maclaurin-Lebedev (99,590) quadrature formula
 Nonlocal Correlation:  VV10 with C = 0.0100 and b = 6.00 and scale = 1.00000
 Grid used for NLC:  SG-1 standard quadrature
 SCF converges when RMS gradient is below 1.0E-08
Using Q-Chem read-in guess as SCF_GUESS READ specified.

 using 8 threads for integral computing
 -------------------------------------------------------
 OpenMP Integral computing Module                
 Release: version 1.0, May 2013, Q-Chem Inc. Pittsburgh 
 -------------------------------------------------------
 using 8 threads for integral computing
 -------------------------------------------------------
 OpenMP Integral computing Module                
 Release: version 1.0, May 2013, Q-Chem Inc. Pittsburgh 
 -------------------------------------------------------
TIMEINFO->: J/JK contribution 21.69 sec.
 -------------------------------------------------------
 OpenMP BLAS3 based DFT computing Module                
 Release: version 1.0, May 2013, Q-Chem Inc. Pittsburgh 
 -------------------------------------------------------
 -------------------------------------------------------
 OpenMP BLAS3 based DFT computing Module                
 Release: version 1.0, May 2013, Q-Chem Inc. Pittsburgh 
 -------------------------------------------------------
 -------------------------------------------------------
 OpenMP BLAS3 based DFT computing Module                
 Release: version 1.0, May 2013, Q-Chem Inc. Pittsburgh 
 -------------------------------------------------------
 ---------------------------------------
  Cycle       Energy        RMS Gradient
 ---------------------------------------
    1    -514.8315310627      9.27E-10 Normal BFGS step
TIMEINFO->: J/JK contribution 20.66 sec.
   GDM::WARNING energy changes are now smaller than effective accuracy.
   GDM::        calculation will continue, but THRESH should be increased
   GDM::        or SCF_CONVERGENCE decreased.
   GDM::        effective_thresh =   1.300000000000000E-010
 Nonlocal correlation =     0.0324218236
    2    -514.8315310626      4.20E-10 Convergence criterion met
 ---------------------------------------
 wB97M-V orbitals are now ready for the wB97M(2) calculation.
 wB97M(2) energy = Exch (0.62194 SRHF + 1.0 LRHF + wB97M(2)_EXCH) + 
               Corr (wB97M(2)_CORR + 0.34096 MP2 + 0.65904 VV10(b=10))
 SCF time:  CPU 103.06 s  wall 12.92 s
 SCF   energy in the final basis set = -514.72195549
 Total energy in the final basis set = -514.72195549
 
 Components of the MP2 correlation energy:
        aaaa  correlation energy =        -0.0414704264 au
        abab  correlation energy =        -0.2112969408 au
        bbbb  correlation energy =        -0.0346002547 au
        non-Brillouin singles    =        -0.0023682602 au

 Total  MP2   correlation energy =                    -0.28973588 au
        MP2         total energy =                  -515.01169137 au
 
 --------------------------------------------------------------
 
                    Orbital Energies (a.u.)
 --------------------------------------------------------------
 
 Alpha MOs
 -- Occupied --
******* -14.615  -9.715  -7.418  -7.412  -7.412  -1.117  -0.841
 -0.544  -0.535  -0.535  -0.397  -0.397
 -- Virtual --
  0.036   0.078   0.082   0.082   0.106   0.134   0.134   0.138
  0.248   0.263   0.263   0.345   0.345   0.421   0.473   0.473
  0.478   0.519   0.519   0.549   0.549   0.631   0.709   0.721
  0.721   0.736   0.736   0.815   0.820   0.820   0.917   1.030
  1.030   1.106   1.106   1.193   1.270   1.270   1.425   1.425
  1.412   1.412   1.517   1.606   1.606   1.655   1.691   1.691
  1.918   1.929   1.929   2.093   2.093   2.167   2.167   2.373
  2.515   2.515   2.754   2.754   2.790   2.790   2.826   2.826
  2.850   2.901   3.200   3.200   3.316   3.836   4.475   4.534
  4.534   4.636   4.636   4.661   4.661   4.807   4.807   4.983
  4.983   5.188   5.301   9.756   9.756   9.802   9.802  10.062
 12.078  12.078  12.523  17.514  19.931  19.931  20.640  21.514
 35.956  35.956  35.958  35.958  35.963  35.963  35.978  38.301
 38.301  38.388  38.388  38.465  45.450  45.450  45.478  45.478
 45.614  53.761  53.761  54.285 102.202 107.720 107.720 108.366
114.478
 
 Beta MOs
 -- Occupied --
******* -14.582  -9.712  -7.416  -7.407  -7.407  -1.079  -0.776
 -0.500  -0.494  -0.494
 -- Virtual --
 -0.012  -0.012   0.041   0.081   0.081   0.081   0.111   0.134
  0.134   0.150   0.248   0.267   0.267   0.361   0.361   0.426
  0.473   0.473   0.482   0.525   0.525   0.552   0.552   0.634
  0.723   0.729   0.729   0.752   0.752   0.819   0.838   0.838
  0.931   1.034   1.034   1.115   1.115   1.220   1.290   1.290
  1.437   1.437   1.482   1.482   1.530   1.626   1.626   1.667
  1.705   1.705   1.938   1.948   1.948   2.108   2.108   2.185
  2.185   2.400   2.534   2.534   2.769   2.769   2.800   2.800
  2.881   2.881   2.856   2.925   3.280   3.280   3.339   3.920
  4.537   4.662   4.662   4.730   4.730   4.822   4.822   4.880
  4.880   5.088   5.088   5.268   5.364   9.760   9.760   9.804
  9.804  10.066  12.084  12.084  12.525  17.519  19.994  19.994
 20.666  21.553  35.958  35.958  35.961  35.961  35.965  35.965
 35.980  38.328  38.328  38.395  38.395  38.465  45.457  45.457
 45.482  45.482  45.617  53.766  53.766  54.287 102.206 107.725
107.725 108.372 114.500
 --------------------------------------------------------------
 
          Ground-State Mulliken Net Atomic Charges

     Atom                 Charge (a.u.)
  ----------------------------------------
      1 N                    -0.348284
      2 Cl                    0.348284
  ----------------------------------------
  Sum of atomic charges =     0.000000

 -----------------------------------------------------------------
                    Cartesian Multipole Moments
 -----------------------------------------------------------------
    Charge (ESU x 10^10)
                 0.0000
    Dipole Moment (Debye)
         X       0.0000      Y       0.0000      Z       1.1350
       Tot       1.1350
    Quadrupole Moments (Debye-Ang)
        XX     -17.9934     XY       0.0000     YY     -17.9934
        XZ       0.0000     YZ       0.0000     ZZ     -15.9842
    Octopole Moments (Debye-Ang^2)
       XXX       0.0000    XXY      -0.0000    XYY       0.0000
       YYY      -0.0000    XXZ     -19.8552    XYZ      -0.0000
       YYZ     -19.8552    XZZ       0.0000    YZZ       0.0000
       ZZZ     -52.5322
    Hexadecapole Moments (Debye-Ang^3)
      XXXX     -19.5063   XXXY       0.0000   XXYY      -6.5021
      XYYY       0.0000   YYYY     -19.5063   XXXZ      -0.0000
      XXYZ       0.0000   XYYZ      -0.0000   YYYZ       0.0000
      XXZZ     -38.8781   XYZZ      -0.0000   YYZZ     -38.8781
      XZZZ       0.0000   YZZZ       0.0000   ZZZZ    -189.1059
 -----------------------------------------------------------------
Archival summary:
1\1\n0068.mhg0\SP\ROProcedureUnspecified\BasisUnspecified\l11(3)\yhljason\ThuNov1202:14:272020ThuNov1202:14:272020\0\\#,ROProcedureUnspecified,BasisUnspecified,\\0,3\N\Cl,1,1.6107\\\@

 Total job time:  49.11s(wall), 386.76s(cpu) 
 Thu Nov 12 02:14:27 2020

        *************************************************************
        *                                                           *
        *  Thank you very much for using Q-Chem.  Have a nice day.  *
        *                                                           *
        *************************************************************


 
User input: 5 of 6 
 
Q-Chem Developer Version!
                  Welcome to Q-Chem
     A Quantum Leap Into The Future Of Chemistry


 Q-Chem 5.1, Q-Chem, Inc., Pleasanton, CA (2018)

 Yihan Shao,  Zhengting Gan,  E. Epifanovsky,  A. T. B. Gilbert,  M. Wormit,  
 J. Kussmann,  A. W. Lange,  A. Behn,  Jia Deng,  Xintian Feng,  D. Ghosh,  
 M. Goldey,  P. R. Horn,  L. D. Jacobson,  I. Kaliman,  T. Kus,  A. Landau,  
 Jie Liu,  E. I. Proynov,  R. M. Richard,  R. P. Steele,  E. J. Sundstrom,  
 H. L. Woodcock III,  P. M. Zimmerman,  D. Zuev,  B. Albrecht,  E. Alguire,  
 S. A. Baeppler,  D. Barton,  Z. Benda,  Y. A. Bernard,  E. J. Berquist,  
 K. B. Bravaya,  H. Burton,  D. Casanova,  Chun-Min Chang,  Yunqing Chen,  
 A. Chien,  K. D. Closser,  M. P. Coons,  S. Coriani,  S. Dasgupta,  
 A. L. Dempwolff,  M. Diedenhofen,  Hainam Do,  R. G. Edgar,  Po-Tung Fang,  
 S. Faraji,  S. Fatehi,  Qingguo Feng,  K. D. Fenk,  J. Fosso-Tande,  
 Qinghui Ge,  A. Ghysels,  G. Gidofalvi,  J. Gomes,  J. Gonthier,  A. Gunina,  
 D. Hait,  M. W. D. Hanson-Heine,  P. H. P. Harbach,  A. W. Hauser,  
 J. E. Herr,  E. G. Hohenstein,  Z. C. Holden,  Kerwin Hui,  B. C. Huynh,  
 T.-C. Jagau,  Hyunjun Ji,  B. Kaduk,  K. Khistyaev,  Jaehoon Kim,  
 P. Klunzinger,  K. Koh,  D. Kosenkov,  L. Koulias,  T. Kowalczyk,  
 C. M. Krauter,  A. Kunitsa,  Ka Un Lao,  A. Laurent,  K. V. Lawler,  
 Joonho Lee,  D. Lefrancois,  S. Lehtola,  D. S. Levine,  Yi-Pei Li,  
 You-Sheng Lin,  Fenglai Liu,  E. Livshits,  A. Luenser,  P. Manohar,  
 E. Mansoor,  S. F. Manzer,  Shan-Ping Mao,  Yuezhi Mao,  N. Mardirossian,  
 A. V. Marenich,  T. Markovich,  L. A. Martinez-Martinez,  S. A. Maurer,  
 N. J. Mayhall,  S. C. McKenzie,  J.-M. Mewes,  A. F. Morrison,  
 J. W. Mullinax,  K. Nanda,  T. S. Nguyen-Beck,  R. Olivares-Amaya,  
 J. A. Parkhill,  T. M. Perrine,  F. Plasser,  P. Pokhilko,  S. Prager,  
 A. Prociuk,  E. Ramos,  D. R. Rehn,  F. Rob,  M. Schneider,  N. Sergueev,  
 S. M. Sharada,  S. Sharma,  D. W. Small,  T. Stauch,  T. Stein,  
 Yu-Chuan Su,  A. J. W. Thom,  A. Tkatchenko,  T. Tsuchimochi,  N. M. Tubman,  
 L. Vogt,  M. L. Vidal,  O. Vydrov,  M. A. Watson,  J. Wenzel,  
 M. de Wergifosse,  T. A. Wesolowski,  A. White,  J. Witte,  A. Yamada,  
 Jun Yang,  K. Yao,  S. Yeganeh,  S. R. Yost,  Zhi-Qiang You,  A. Zech,  
 Igor Ying Zhang,  Xing Zhang,  Yan Zhao,  Ying Zhu,  B. R. Brooks,  
 G. K. L. Chan,  C. J. Cramer,  M. S. Gordon,  W. J. Hehre,  A. Klamt,  
 M. W. Schmidt,  C. D. Sherrill,  D. G. Truhlar,  A. Aspuru-Guzik,  R. Baer,  
 A. T. Bell,  N. A. Besley,  Jeng-Da Chai,  A. E. DePrince, III,  
 R. A. DiStasio Jr.,  A. Dreuw,  B. D. Dunietz,  T. R. Furlani,  
 Chao-Ping Hsu,  Yousung Jung,  Jing Kong,  D. S. Lambrecht,  WanZhen Liang,  
 C. Ochsenfeld,  V. A. Rassolov,  L. V. Slipchenko,  J. E. Subotnik,  
 T. Van Voorhis,  J. M. Herbert,  A. I. Krylov,  P. M. W. Gill,  M. Head-Gordon

 Contributors to earlier versions of Q-Chem not listed above: 
 R. D. Adamson,  B. Austin,  J. Baker,  G. J. O. Beran,  K. Brandhorst,  
 S. T. Brown,  E. F. C. Byrd,  A. K. Chakraborty,  C.-L. Cheng,  
 Siu Hung Chien,  D. M. Chipman,  D. L. Crittenden,  H. Dachsel,  
 R. J. Doerksen,  A. D. Dutoi,  L. Fusti-Molnar,  W. A. Goddard III,  
 A. Golubeva-Zadorozhnaya,  S. R. Gwaltney,  G. Hawkins,  A. Heyden,  
 S. Hirata,  G. Kedziora,  F. J. Keil,  C. Kelley,  Jihan Kim,  R. A. King,  
 R. Z. Khaliullin,  P. P. Korambath,  W. Kurlancheek,  A. M. Lee,  M. S. Lee,  
 S. V. Levchenko,  Ching Yeh Lin,  D. Liotard,  R. C. Lochan,  I. Lotan,  
 P. E. Maslen,  N. Nair,  D. P. O'Neill,  D. Neuhauser,  E. Neuscamman,  
 C. M. Oana,  R. Olson,  B. Peters,  R. Peverati,  P. A. Pieniazek,  
 Y. M. Rhee,  J. Ritchie,  M. A. Rohrdanz,  E. Rosta,  N. J. Russ,  
 H. F. Schaefer III,  N. E. Schultz,  N. Shenvi,  A. C. Simmonett,  A. Sodt,  
 D. Stuck,  K. S. Thanthiriwatte,  V. Vanovschi,  Tao Wang,  A. Warshel,  
 C. F. Williams,  Q. Wu,  X. Xu,  W. Zhang

 Please cite Q-Chem as follows:
 Y. Shao et al., Mol. Phys. 113, 184-215 (2015)
 DOI: 10.1080/00268976.2014.952696

 Q-Chem 5.1.1 for Intel X86 EM64T Linux

 Parts of Q-Chem use Armadillo 8.300.2 (Tropical Shenanigans).
 http://arma.sourceforge.net/

 Q-Chem begins on Thu Nov 12 02:14:27 2020  

Host: n0068.mhg0
0

     Scratch files written to /local/scratch/users/yhljason/NCl_wB97M2_aug-cc-pcVTZ.inp20201112020246//
The previous job contains 0 fragments, simply inherited here
Input Ideriv = 1
Curr. Ideriv = -1
[...]
  0.721   0.737   0.737   0.816   0.819   0.819   0.917   1.031
  1.031   1.107   1.107   1.194   1.271   1.271   1.426   1.426
  1.412   1.412   1.518   1.606   1.606   1.655   1.692   1.692
  1.919   1.929   1.929   2.093   2.093   2.167   2.167   2.373
  2.516   2.516   2.754   2.754   2.790   2.790   2.850   2.831
  2.831   2.902   3.194   3.194   3.317   3.838   4.475   4.534
  4.534   4.638   4.638   4.659   4.659   4.808   4.808   4.983
  4.983   5.195   5.292   9.757   9.757   9.802   9.802  10.063
 12.079  12.079  12.523  17.514  19.931  19.931  20.640  21.514
 35.956  35.956  35.959  35.959  35.963  35.963  35.979  38.302
 38.302  38.388  38.388  38.466  45.450  45.451  45.479  45.479
 45.614  53.761  53.761  54.286 102.202 107.721 107.721 108.367
114.478
 
 Beta MOs
 -- Occupied --
******* -14.582  -9.712  -7.416  -7.407  -7.407  -1.078  -0.776
 -0.500  -0.494  -0.494
 -- Virtual --
 -0.012  -0.012   0.041   0.081   0.082   0.082   0.110   0.134
  0.134   0.152   0.248   0.267   0.267   0.361   0.361   0.426
  0.472   0.472   0.482   0.525   0.525   0.552   0.552   0.634
  0.723   0.730   0.730   0.752   0.752   0.819   0.838   0.838
  0.932   1.035   1.035   1.115   1.115   1.221   1.290   1.290
  1.437   1.437   1.482   1.482   1.530   1.626   1.626   1.667
  1.705   1.705   1.938   1.949   1.949   2.109   2.109   2.185
  2.185   2.401   2.534   2.534   2.770   2.770   2.801   2.801
  2.856   2.879   2.879   2.925   3.283   3.283   3.339   3.919
  4.538   4.662   4.662   4.729   4.729   4.824   4.824   4.880
  4.880   5.088   5.088   5.264   5.369   9.761   9.761   9.804
  9.804  10.066  12.085  12.085  12.525  17.519  19.994  19.994
 20.666  21.554  35.959  35.959  35.962  35.962  35.965  35.965
 35.981  38.328  38.328  38.395  38.395  38.465  45.457  45.457
 45.483  45.483  45.618  53.767  53.767  54.287 102.207 107.726
107.726 108.373 114.500
 --------------------------------------------------------------
 
          Ground-State Mulliken Net Atomic Charges

     Atom                 Charge (a.u.)
  ----------------------------------------
      1 N                    -0.349407
      2 Cl                    0.349407
  ----------------------------------------
  Sum of atomic charges =    -0.000000

 -----------------------------------------------------------------
                    Cartesian Multipole Moments
 -----------------------------------------------------------------
    Charge (ESU x 10^10)
                -0.0000
    Dipole Moment (Debye)
         X       0.0000      Y      -0.0000      Z       1.1510
       Tot       1.1510
    Quadrupole Moments (Debye-Ang)
        XX     -17.9927     XY      -0.0000     YY     -17.9927
        XZ      -0.0000     YZ       0.0000     ZZ     -15.9537
    Octopole Moments (Debye-Ang^2)
       XXX       0.0000    XXY       0.0000    XYY       0.0000
       YYY       0.0000    XXZ     -19.8436    XYZ      -0.0000
       YYZ     -19.8436    XZZ      -0.0000    YZZ       0.0000
       ZZZ     -52.4380
    Hexadecapole Moments (Debye-Ang^3)
      XXXX     -19.5038   XXXY       0.0000   XXYY      -6.5012
      XYYY       0.0000   YYYY     -19.5038   XXXZ      -0.0000
      XXYZ       0.0000   XYYZ      -0.0000   YYYZ       0.0000
      XXZZ     -38.8554   XYZZ      -0.0000   YYZZ     -38.8554
      XZZZ      -0.0000   YZZZ       0.0000   ZZZZ    -188.8662
 -----------------------------------------------------------------
Archival summary:
1\1\n0068.mhg0\SP\ROProcedureUnspecified\BasisUnspecified\l11(3)\yhljason\ThuNov1202:15:122020ThuNov1202:15:122020\0\\#,ROProcedureUnspecified,BasisUnspecified,\\0,3\N\Cl,1,1.6107\\\@

 Total job time:  45.19s(wall), 360.13s(cpu) 
 Thu Nov 12 02:15:12 2020

        *************************************************************
        *                                                           *
        *  Thank you very much for using Q-Chem.  Have a nice day.  *
        *                                                           *
        *************************************************************


 
User input: 6 of 6 
 
Q-Chem Developer Version!
                  Welcome to Q-Chem
     A Quantum Leap Into The Future Of Chemistry


 Q-Chem 5.1, Q-Chem, Inc., Pleasanton, CA (2018)

 Yihan Shao,  Zhengting Gan,  E. Epifanovsky,  A. T. B. Gilbert,  M. Wormit,  
 J. Kussmann,  A. W. Lange,  A. Behn,  Jia Deng,  Xintian Feng,  D. Ghosh,  
 M. Goldey,  P. R. Horn,  L. D. Jacobson,  I. Kaliman,  T. Kus,  A. Landau,  
 Jie Liu,  E. I. Proynov,  R. M. Richard,  R. P. Steele,  E. J. Sundstrom,  
 H. L. Woodcock III,  P. M. Zimmerman,  D. Zuev,  B. Albrecht,  E. Alguire,  
 S. A. Baeppler,  D. Barton,  Z. Benda,  Y. A. Bernard,  E. J. Berquist,  
 K. B. Bravaya,  H. Burton,  D. Casanova,  Chun-Min Chang,  Yunqing Chen,  
 A. Chien,  K. D. Closser,  M. P. Coons,  S. Coriani,  S. Dasgupta,  
 A. L. Dempwolff,  M. Diedenhofen,  Hainam Do,  R. G. Edgar,  Po-Tung Fang,  
 S. Faraji,  S. Fatehi,  Qingguo Feng,  K. D. Fenk,  J. Fosso-Tande,  
 Qinghui Ge,  A. Ghysels,  G. Gidofalvi,  J. Gomes,  J. Gonthier,  A. Gunina,  
 D. Hait,  M. W. D. Hanson-Heine,  P. H. P. Harbach,  A. W. Hauser,  
 J. E. Herr,  E. G. Hohenstein,  Z. C. Holden,  Kerwin Hui,  B. C. Huynh,  
 T.-C. Jagau,  Hyunjun Ji,  B. Kaduk,  K. Khistyaev,  Jaehoon Kim,  
 P. Klunzinger,  K. Koh,  D. Kosenkov,  L. Koulias,  T. Kowalczyk,  
 C. M. Krauter,  A. Kunitsa,  Ka Un Lao,  A. Laurent,  K. V. Lawler,  
 Joonho Lee,  D. Lefrancois,  S. Lehtola,  D. S. Levine,  Yi-Pei Li,  
 You-Sheng Lin,  Fenglai Liu,  E. Livshits,  A. Luenser,  P. Manohar,  
 E. Mansoor,  S. F. Manzer,  Shan-Ping Mao,  Yuezhi Mao,  N. Mardirossian,  
 A. V. Marenich,  T. Markovich,  L. A. Martinez-Martinez,  S. A. Maurer,  
 N. J. Mayhall,  S. C. McKenzie,  J.-M. Mewes,  A. F. Morrison,  
 J. W. Mullinax,  K. Nanda,  T. S. Nguyen-Beck,  R. Olivares-Amaya,  
 J. A. Parkhill,  T. M. Perrine,  F. Plasser,  P. Pokhilko,  S. Prager,  
 A. Prociuk,  E. Ramos,  D. R. Rehn,  F. Rob,  M. Schneider,  N. Sergueev,  
 S. M. Sharada,  S. Sharma,  D. W. Small,  T. Stauch,  T. Stein,  
 Yu-Chuan Su,  A. J. W. Thom,  A. Tkatchenko,  T. Tsuchimochi,  N. M. Tubman,  
 L. Vogt,  M. L. Vidal,  O. Vydrov,  M. A. Watson,  J. Wenzel,  
 M. de Wergifosse,  T. A. Wesolowski,  A. White,  J. Witte,  A. Yamada,  
 Jun Yang,  K. Yao,  S. Yeganeh,  S. R. Yost,  Zhi-Qiang You,  A. Zech,  
 Igor Ying Zhang,  Xing Zhang,  Yan Zhao,  Ying Zhu,  B. R. Brooks,  
 G. K. L. Chan,  C. J. Cramer,  M. S. Gordon,  W. J. Hehre,  A. Klamt,  
 M. W. Schmidt,  C. D. Sherrill,  D. G. Truhlar,  A. Aspuru-Guzik,  R. Baer,  
 A. T. Bell,  N. A. Besley,  Jeng-Da Chai,  A. E. DePrince, III,  
 R. A. DiStasio Jr.,  A. Dreuw,  B. D. Dunietz,  T. R. Furlani,  
 Chao-Ping Hsu,  Yousung Jung,  Jing Kong,  D. S. Lambrecht,  WanZhen Liang,  
 C. Ochsenfeld,  V. A. Rassolov,  L. V. Slipchenko,  J. E. Subotnik,  
 T. Van Voorhis,  J. M. Herbert,  A. I. Krylov,  P. M. W. Gill,  M. Head-Gordon

 Contributors to earlier versions of Q-Chem not listed above: 
 R. D. Adamson,  B. Austin,  J. Baker,  G. J. O. Beran,  K. Brandhorst,  
 S. T. Brown,  E. F. C. Byrd,  A. K. Chakraborty,  C.-L. Cheng,  
 Siu Hung Chien,  D. M. Chipman,  D. L. Crittenden,  H. Dachsel,  
 R. J. Doerksen,  A. D. Dutoi,  L. Fusti-Molnar,  W. A. Goddard III,  
 A. Golubeva-Zadorozhnaya,  S. R. Gwaltney,  G. Hawkins,  A. Heyden,  
 S. Hirata,  G. Kedziora,  F. J. Keil,  C. Kelley,  Jihan Kim,  R. A. King,  
 R. Z. Khaliullin,  P. P. Korambath,  W. Kurlancheek,  A. M. Lee,  M. S. Lee,  
 S. V. Levchenko,  Ching Yeh Lin,  D. Liotard,  R. C. Lochan,  I. Lotan,  
 P. E. Maslen,  N. Nair,  D. P. O'Neill,  D. Neuhauser,  E. Neuscamman,  
 C. M. Oana,  R. Olson,  B. Peters,  R. Peverati,  P. A. Pieniazek,  
 Y. M. Rhee,  J. Ritchie,  M. A. Rohrdanz,  E. Rosta,  N. J. Russ,  
 H. F. Schaefer III,  N. E. Schultz,  N. Shenvi,  A. C. Simmonett,  A. Sodt,  
 D. Stuck,  K. S. Thanthiriwatte,  V. Vanovschi,  Tao Wang,  A. Warshel,  
 C. F. Williams,  Q. Wu,  X. Xu,  W. Zhang

 Please cite Q-Chem as follows:
 Y. Shao et al., Mol. Phys. 113, 184-215 (2015)
 DOI: 10.1080/00268976.2014.952696

 Q-Chem 5.1.1 for Intel X86 EM64T Linux

 Parts of Q-Chem use Armadillo 8.300.2 (Tropical Shenanigans).
 http://arma.sourceforge.net/

 Q-Chem begins on Thu Nov 12 02:15:12 2020  

Host: n0068.mhg0
0

     Scratch files written to /local/scratch/users/yhljason/NCl_wB97M2_aug-cc-pcVTZ.inp20201112020246//
The previous job contains 0 fragments, simply inherited here
Input Ideriv = 0
Curr. Ideriv = -1
Max.  Ideriv = 0
Input Ideriv = 1
Curr. Ideriv = 0
Max.  Ideriv = 0

Checking the input file for inconsistencies... 	...done.

--------------------------------------------------------------
User input:
--------------------------------------------------------------
$molecule
read
$end

$rem

jobtype sp
exchange wb97m(2)
xc_grid 000099000590
basis aug-cc-pcVTZ
max_scf_cycles 200
thresh 14
scf_convergence 8
mem_total 128000
cc_memory 96000
cc_backend xm
mem_static 1500
symmetry false
sym_ignore true
scf_guess read
unrestricted false
scf_algorithm gdm
n_frozen_core 0
$end

$multipole_field
Z -0.0001
$end


--------------------------------------------------------------
 ----------------------------------------------------------------
             Standard Nuclear Orientation (Angstroms)
    I     Atom           X                Y                Z
 ----------------------------------------------------------------
    1      N       0.0000000000     0.0000000000     0.0000000000
    2      Cl      0.0000000000     0.0000000000     1.6107000000
 ----------------------------------------------------------------
 Nuclear Repulsion Energy =    39.0960998853 hartrees
 There are       13 alpha and       11 beta electrons
 Requested basis set is aug-cc-pCVTZ
 There are 42 shells and 134 basis functions

 Total QAlloc Memory Limit 128000 MB
 Mega-Array Size      1467 MB
 MEM_STATIC part      1500 MB

                       Distance Matrix (Angstroms)
             N (  1)
   Cl(  2)  1.610700
 
 Applying Cartesian multipole field
    Component          Value
    ---------          -----
     (0,0,1)       -1.00000E-04
 Nucleus-field energy     =    -0.0051744292 hartrees
 A cutoff of  1.0D-14 yielded    883 shell pairs
 There are      9061 function pairs (     12669 Cartesian)
 
 -------------------------------------------------------
 OpenMP Integral Computing Module                       
 Release: version 1.0, May 2013, Q-Chem Inc. Pittsburgh 
 -------------------------------------------------------
 Integral Job Info:
 Integral job number is                      11
 Integral operator is                         1
 short-range coefficients              15000000
 long-range coefficients              100000000
 Omega coefficients                         300
 if combine SR and LR in K                    1
 Integral screening is                        0
 Integral computing path is                   2
 max size of driver memory is            800000
 size of driver memory is                776718
 size of scratch memory is             29504930
 max col of scratch BK array              10000
 max len of scratch array in speh3          662
 max len of scratch index in speh4           32
 max int batch size is                      520
 min int batch size is                       52
 fixed nKL is                                30
 max L of basis functions is                  3
 order of int derivative is                   0
 number of shells is                         42
 number of basis is                         158
 number of cartesian basis is               158
 number of contracted shell pairs           883
 number of primitive shell pairs           5031
 maxK2 (contraction) of shell pair          169
 max number of K2 of shell pair               1
 max number of CS2 of shell pair             98
 max number of PS2 of shell pair           1014
 mem total for path MDJ                  562256
 -------------------------------------------------------
 Smallest overlap matrix eigenvalue = 3.23E-04
 Guess MOs from SCF MO coefficient file
 Reading MOs from coefficient file
 Reading MOs from coefficient file
 Long-range K will be added via erf
 Coulomb attenuation parameter = 0.3 bohr**(-1)
 A restricted hybrid HF-DFT SCF calculation will be
 performed using Geometric Direct Minimization
 Exchange:     0.1500 Hartree-Fock + 1.0000 wB97M-V + LR-HF
 Correlation:  1.0000 wB97M-V
 Using Euler-Maclaurin-Lebedev (99,590) quadrature formula
 Nonlocal Correlation:  VV10 with C = 0.0100 and b = 6.00 and scale = 1.00000
 Grid used for NLC:  SG-1 standard quadrature
 SCF converges when RMS gradient is below 1.0E-08
Using Q-Chem read-in guess as SCF_GUESS READ specified.

 using 8 threads for integral computing
 -------------------------------------------------------
 OpenMP Integral computing Module                
 Release: version 1.0, May 2013, Q-Chem Inc. Pittsburgh 
 -------------------------------------------------------
 using 8 threads for integral computing
 -------------------------------------------------------
 OpenMP Integral computing Module                
 Release: version 1.0, May 2013, Q-Chem Inc. Pittsburgh 
 -------------------------------------------------------
TIMEINFO->: J/JK contribution 21.62 sec.
 -------------------------------------------------------
 OpenMP BLAS3 based DFT computing Module                
 Release: version 1.0, May 2013, Q-Chem Inc. Pittsburgh 
 -------------------------------------------------------
 -------------------------------------------------------
 OpenMP BLAS3 based DFT computing Module                
 Release: version 1.0, May 2013, Q-Chem Inc. Pittsburgh 
 -------------------------------------------------------
 -------------------------------------------------------
 OpenMP BLAS3 based DFT computing Module                
 Release: version 1.0, May 2013, Q-Chem Inc. Pittsburgh 
 -------------------------------------------------------
 ---------------------------------------
  Cycle       Energy        RMS Gradient
 ---------------------------------------
    1    -514.8316210005      1.82E-09 Normal BFGS step
TIMEINFO->: J/JK contribution 20.75 sec.
   GDM::WARNING energy changes are now smaller than effective accuracy.
   GDM::        calculation will continue, but THRESH should be increased
   GDM::        or SCF_CONVERGENCE decreased.
   GDM::        effective_thresh =   1.300000000000000E-010
 Nonlocal correlation =     0.0324218249
    2    -514.8316210005      8.48E-10 Convergence criterion met
 ---------------------------------------
 wB97M-V orbitals are now ready for the wB97M(2) calculation.
 wB97M(2) energy = Exch (0.62194 SRHF + 1.0 LRHF + wB97M(2)_EXCH) + 
               Corr (wB97M(2)_CORR + 0.34096 MP2 + 0.65904 VV10(b=10))
 SCF time:  CPU 103.44 s  wall 12.96 s
 SCF   energy in the final basis set = -514.72201841
 Total energy in the final basis set = -514.72201841
 
 Components of the MP2 correlation energy:
        aaaa  correlation energy =        -0.0414705606 au
        abab  correlation energy =        -0.2113142065 au
        bbbb  correlation energy =        -0.0346104611 au
        non-Brillouin singles    =        -0.0023691178 au

 Total  MP2   correlation energy =                    -0.28976435 au
        MP2         total energy =                  -515.01178276 au
 
 --------------------------------------------------------------
 
                    Orbital Energies (a.u.)
 --------------------------------------------------------------
 
 Alpha MOs
 -- Occupied --
******* -14.615  -9.714  -7.417  -7.412  -7.412  -1.116  -0.841
 -0.543  -0.534  -0.534  -0.397  -0.397
 -- Virtual --
  0.037   0.079   0.083   0.083   0.106   0.134   0.134   0.139
  0.249   0.264   0.264   0.346   0.346   0.421   0.473   0.473
  0.479   0.519   0.519   0.549   0.549   0.631   0.709   0.722
  0.722   0.737   0.737   0.815   0.820   0.820   0.917   1.030
  1.030   1.107   1.107   1.194   1.270   1.270   1.426   1.426
  1.412   1.412   1.518   1.606   1.606   1.655   1.692   1.692
  1.918   1.929   1.929   2.094   2.094   2.167   2.167   2.373
  2.515   2.515   2.754   2.754   2.790   2.790   2.827   2.827
  2.850   2.902   3.201   3.201   3.317   3.837   4.476   4.534
  4.534   4.637   4.637   4.662   4.662   4.808   4.808   4.983
  4.983   5.188   5.301   9.757   9.757   9.802   9.802  10.063
 12.079  12.079  12.523  17.514  19.931  19.931  20.641  21.515
 35.956  35.956  35.959  35.959  35.963  35.963  35.979  38.302
 38.302  38.388  38.388  38.466  45.450  45.451  45.479  45.479
 45.614  53.761  53.761  54.286 102.202 107.721 107.721 108.367
114.478
 
 Beta MOs
 -- Occupied --
******* -14.582  -9.712  -7.416  -7.407  -7.407  -1.079  -0.776
 -0.500  -0.494  -0.494
 -- Virtual --
 -0.012  -0.012   0.042   0.081   0.082   0.082   0.111   0.134
  0.134   0.151   0.248   0.267   0.267   0.362   0.362   0.426
  0.473   0.473   0.482   0.525   0.525   0.552   0.552   0.634
  0.723   0.730   0.730   0.753   0.753   0.819   0.838   0.838
  0.932   1.035   1.035   1.115   1.115   1.221   1.290   1.290
  1.437   1.437   1.482   1.482   1.530   1.626   1.626   1.667
  1.705   1.705   1.938   1.949   1.949   2.109   2.109   2.185
  2.185   2.401   2.535   2.535   2.770   2.770   2.801   2.801
  2.881   2.881   2.856   2.925   3.280   3.280   3.339   3.920
  4.538   4.662   4.662   4.730   4.730   4.822   4.822   4.880
  4.880   5.088   5.088   5.268   5.365   9.761   9.761   9.804
  9.804  10.066  12.085  12.085  12.525  17.519  19.994  19.994
 20.666  21.554  35.959  35.959  35.962  35.962  35.965  35.965
 35.981  38.328  38.328  38.395  38.395  38.465  45.457  45.457
 45.483  45.483  45.618  53.767  53.767  54.287 102.207 107.726
107.726 108.373 114.500
 --------------------------------------------------------------
 
          Ground-State Mulliken Net Atomic Charges

     Atom                 Charge (a.u.)
  ----------------------------------------
      1 N                    -0.349407
      2 Cl                    0.349407
  ----------------------------------------
  Sum of atomic charges =     0.000000

 -----------------------------------------------------------------
                    Cartesian Multipole Moments
 -----------------------------------------------------------------
    Charge (ESU x 10^10)
                 0.0000
    Dipole Moment (Debye)
         X       0.0000      Y      -0.0000      Z       1.1510
       Tot       1.1510
    Quadrupole Moments (Debye-Ang)
        XX     -17.9927     XY       0.0000     YY     -17.9927
        XZ       0.0000     YZ      -0.0000     ZZ     -15.9537
    Octopole Moments (Debye-Ang^2)
       XXX      -0.0000    XXY       0.0000    XYY       0.0000
       YYY      -0.0000    XXZ     -19.8436    XYZ       0.0000
       YYZ     -19.8436    XZZ       0.0000    YZZ       0.0000
       ZZZ     -52.4380
    Hexadecapole Moments (Debye-Ang^3)
      XXXX     -19.5038   XXXY       0.0000   XXYY      -6.5012
      XYYY       0.0000   YYYY     -19.5038   XXXZ      -0.0000
      XXYZ      -0.0000   XYYZ      -0.0000   YYYZ      -0.0000
      XXZZ     -38.8554   XYZZ      -0.0000   YYZZ     -38.8554
      XZZZ      -0.0000   YZZZ       0.0000   ZZZZ    -188.8662
 -----------------------------------------------------------------
Archival summary:
1\1\n0068.mhg0\SP\ROProcedureUnspecified\BasisUnspecified\l11(3)\yhljason\ThuNov1202:16:022020ThuNov1202:16:022020\0\\#,ROProcedureUnspecified,BasisUnspecified,\\0,3\N\Cl,1,1.6107\\\@

 Total job time:  49.53s(wall), 389.85s(cpu) 
 Thu Nov 12 02:16:02 2020

        *************************************************************
        *                                                           *
        *  Thank you very much for using Q-Chem.  Have a nice day.  *
        *                                                           *
        *************************************************************


