Q-Chem Developer Version!
                  Welcome to Q-Chem
     A Quantum Leap Into The Future Of Chemistry


 Q-Chem 5.1, Q-Chem, Inc., Pleasanton, CA (2018)

 Yihan Shao,  Zhengting Gan,  E. Epifanovsky,  A. T. B. Gilbert,  M. Wormit,  
 J. Kussmann,  A. W. Lange,  A. Behn,  Jia Deng,  Xintian Feng,  D. Ghosh,  
 M. Goldey,  P. R. Horn,  L. D. Jacobson,  I. Kaliman,  T. Kus,  A. Landau,  
 Jie Liu,  E. I. Proynov,  R. M. Richard,  R. P. Steele,  E. J. Sundstrom,  
 H. L. Woodcock III,  P. M. Zimmerman,  D. Zuev,  B. Albrecht,  E. Alguire,  
 S. A. Baeppler,  D. Barton,  Z. Benda,  Y. A. Bernard,  E. J. Berquist,  
 K. B. Bravaya,  H. Burton,  D. Casanova,  Chun-Min Chang,  Yunqing Chen,  
 A. Chien,  K. D. Closser,  M. P. Coons,  S. Coriani,  S. Dasgupta,  
 A. L. Dempwolff,  M. Diedenhofen,  Hainam Do,  R. G. Edgar,  Po-Tung Fang,  
 S. Faraji,  S. Fatehi,  Qingguo Feng,  K. D. Fenk,  J. Fosso-Tande,  
 Qinghui Ge,  A. Ghysels,  G. Gidofalvi,  J. Gomes,  J. Gonthier,  A. Gunina,  
 D. Hait,  M. W. D. Hanson-Heine,  P. H. P. Harbach,  A. W. Hauser,  
 J. E. Herr,  E. G. Hohenstein,  Z. C. Holden,  Kerwin Hui,  B. C. Huynh,  
 T.-C. Jagau,  Hyunjun Ji,  B. Kaduk,  K. Khistyaev,  Jaehoon Kim,  
 P. Klunzinger,  K. Koh,  D. Kosenkov,  L. Koulias,  T. Kowalczyk,  
 C. M. Krauter,  A. Kunitsa,  Ka Un Lao,  A. Laurent,  K. V. Lawler,  
 Joonho Lee,  D. Lefrancois,  S. Lehtola,  D. S. Levine,  Yi-Pei Li,  
 You-Sheng Lin,  Fenglai Liu,  E. Livshits,  A. Luenser,  P. Manohar,  
 E. Mansoor,  S. F. Manzer,  Shan-Ping Mao,  Yuezhi Mao,  N. Mardirossian,  
 A. V. Marenich,  T. Markovich,  L. A. Martinez-Martinez,  S. A. Maurer,  
 N. J. Mayhall,  S. C. McKenzie,  J.-M. Mewes,  A. F. Morrison,  
 J. W. Mullinax,  K. Nanda,  T. S. Nguyen-Beck,  R. Olivares-Amaya,  
 J. A. Parkhill,  T. M. Perrine,  F. Plasser,  P. Pokhilko,  S. Prager,  
 A. Prociuk,  E. Ramos,  D. R. Rehn,  F. Rob,  M. Schneider,  N. Sergueev,  
 S. M. Sharada,  S. Sharma,  D. W. Small,  T. Stauch,  T. Stein,  
 Yu-Chuan Su,  A. J. W. Thom,  A. Tkatchenko,  T. Tsuchimochi,  N. M. Tubman,  
 L. Vogt,  M. L. Vidal,  O. Vydrov,  M. A. Watson,  J. Wenzel,  
 M. de Wergifosse,  T. A. Wesolowski,  A. White,  J. Witte,  A. Yamada,  
 Jun Yang,  K. Yao,  S. Yeganeh,  S. R. Yost,  Zhi-Qiang You,  A. Zech,  
 Igor Ying Zhang,  Xing Zhang,  Yan Zhao,  Ying Zhu,  B. R. Brooks,  
 G. K. L. Chan,  C. J. Cramer,  M. S. Gordon,  W. J. Hehre,  A. Klamt,  
 M. W. Schmidt,  C. D. Sherrill,  D. G. Truhlar,  A. Aspuru-Guzik,  R. Baer,  
 A. T. Bell,  N. A. Besley,  Jeng-Da Chai,  A. E. DePrince, III,  
 R. A. DiStasio Jr.,  A. Dreuw,  B. D. Dunietz,  T. R. Furlani,  
 Chao-Ping Hsu,  Yousung Jung,  Jing Kong,  D. S. Lambrecht,  WanZhen Liang,  
 C. Ochsenfeld,  V. A. Rassolov,  L. V. Slipchenko,  J. E. Subotnik,  
 T. Van Voorhis,  J. M. Herbert,  A. I. Krylov,  P. M. W. Gill,  M. Head-Gordon

 Contributors to earlier versions of Q-Chem not listed above: 
 R. D. Adamson,  B. Austin,  J. Baker,  G. J. O. Beran,  K. Brandhorst,  
 S. T. Brown,  E. F. C. Byrd,  A. K. Chakraborty,  C.-L. Cheng,  
 Siu Hung Chien,  D. M. Chipman,  D. L. Crittenden,  H. Dachsel,  
 R. J. Doerksen,  A. D. Dutoi,  L. Fusti-Molnar,  W. A. Goddard III,  
 A. Golubeva-Zadorozhnaya,  S. R. Gwaltney,  G. Hawkins,  A. Heyden,  
 S. Hirata,  G. Kedziora,  F. J. Keil,  C. Kelley,  Jihan Kim,  R. A. King,  
 R. Z. Khaliullin,  P. P. Korambath,  W. Kurlancheek,  A. M. Lee,  M. S. Lee,  
 S. V. Levchenko,  Ching Yeh Lin,  D. Liotard,  R. C. Lochan,  I. Lotan,  
 P. E. Maslen,  N. Nair,  D. P. O'Neill,  D. Neuhauser,  E. Neuscamman,  
 C. M. Oana,  R. Olson,  B. Peters,  R. Peverati,  P. A. Pieniazek,  
 Y. M. Rhee,  J. Ritchie,  M. A. Rohrdanz,  E. Rosta,  N. J. Russ,  
 H. F. Schaefer III,  N. E. Schultz,  N. Shenvi,  A. C. Simmonett,  A. Sodt,  
 D. Stuck,  K. S. Thanthiriwatte,  V. Vanovschi,  Tao Wang,  A. Warshel,  
 C. F. Williams,  Q. Wu,  X. Xu,  W. Zhang

 Please cite Q-Chem as follows:
 Y. Shao et al., Mol. Phys. 113, 184-215 (2015)
 DOI: 10.1080/00268976.2014.952696

 Q-Chem 5.1.1 for Intel X86 EM64T Linux

 Parts of Q-Chem use Armadillo 8.300.2 (Tropical Shenanigans).
 http://arma.sourceforge.net/

 Q-Chem begins on Sat Oct  3 01:51:14 2020  

Host: n0080.mhg0
0

     Scratch files written to /local/scratch/users/yhljason/C2H4_wB97X-2TQZ_aug-cc-pcVTZ.inp20201003015113//
Input Ideriv = 0
Curr. Ideriv = -1
Max.  Ideriv = 0
Analytic post-HF gradients are not available with non-HF exchange
Input Ideriv = 0
Curr. Ideriv = 0
Max.  Ideriv = 0

Checking the input file for inconsistencies... 	...done.

--------------------------------------------------------------
User input:
--------------------------------------------------------------
$molecule
0 1
C1      0.0000  0.0000  0.6695
C2      0.0000  0.0000  -0.6695
H3      0.0000  0.9289  1.2321
H4      0.0000  -0.9289 1.2321
H5      0.0000  0.9289  -1.2321
H6      0.0000  -0.9289 -1.2321
$end

$rem
jobtype sp
method wB97X-2(TQZ)
xc_grid 000099000590
basis aug-cc-pcVTZ
max_scf_cycles 200
thresh 14
scf_convergence 8
scf_algorithm gdm
symmetry false
sym_ignore true
unrestricted false
gen_scfman true
internal_stability_iter 15
internal_stability_davidson_iter 200
mem_total 128000
cc_memory 96000
cc_backend xm
mem_static 1500
n_frozen_core 0
$end



--------------------------------------------------------------
 ----------------------------------------------------------------
             Standard Nuclear Orientation (Angstroms)
    I     Atom           X                Y                Z
 ----------------------------------------------------------------
    1      C       0.0000000000     0.0000000000     0.6695000000
    2      C       0.0000000000     0.0000000000    -0.6695000000
    3      H       0.0000000000     0.9289000000     1.2321000000
    4      H       0.0000000000    -0.9289000000     1.2321000000
    5      H       0.0000000000     0.9289000000    -1.2321000000
    6      H       0.0000000000    -0.9289000000    -1.2321000000
 ----------------------------------------------------------------
 Nuclear Repulsion Energy =    33.2650904736 hartrees
 There are        8 alpha and        8 beta electrons
 Requested basis set is aug-cc-pCVTZ
 There are 74 shells and 210 basis functions

 Total QAlloc Memory Limit 128000 MB
 Mega-Array Size      1467 MB
 MEM_STATIC part      1500 MB

                       Distance Matrix (Angstroms)
             C (  1)   C (  2)   H (  3)   H (  4)   H (  5)
   C (  2)  1.339000
   H (  3)  1.085990  2.116350
   H (  4)  1.085990  2.116350  1.857800
   H (  5)  2.116350  1.085990  2.464200  3.086050
   H (  6)  2.116350  1.085990  3.086050  2.464200  1.857800
 
 A cutoff of  1.0D-14 yielded   2764 shell pairs
 There are     22372 function pairs (     28815 Cartesian)
 
 -------------------------------------------------------
 OpenMP Integral Computing Module                       
 Release: version 1.0, May 2013, Q-Chem Inc. Pittsburgh 
 -------------------------------------------------------
 Integral Job Info:
 Integral job number is                      11
 Integral operator is                         1
 short-range coefficients              63615800
 long-range coefficients              100000000
 Omega coefficients                         300
 if combine SR and LR in K                    1
 Integral screening is                        0
 Integral computing path is                   2
 max size of driver memory is            800000
 size of driver memory is                776718
 size of scratch memory is              6904264
 max col of scratch BK array              10000
 max len of scratch array in speh3          662
 max len of scratch index in speh4           32
 max int batch size is                      520
 min int batch size is                       52
 fixed nKL is                                52
 max L of basis functions is                  3
 order of int derivative is                   0
 number of shells is                         74
 number of basis is                         238
 number of cartesian basis is               238
 number of contracted shell pairs          2764
 number of primitive shell pairs           6149
 maxK2 (contraction) of shell pair           64
 max number of K2 of shell pair               1
 max number of CS2 of shell pair            494
 max number of PS2 of shell pair            672
 mem total for path MDJ                  579280
 -------------------------------------------------------
 Smallest overlap matrix eigenvalue = 5.05E-06

 Scale SEOQF with 1.000000e-01/1.000000e-01/1.000000e-01

 Standard Electronic Orientation quadrupole field applied
 Nucleus-field energy     =    -0.0000000010 hartrees
 Guess from superposition of atomic densities
 Warning:  Energy on first SCF cycle will be non-variational
 SAD guess density has 16.000000 electrons

 -----------------------------------------------------------------------
  General SCF calculation program by
  Eric Jon Sundstrom, Paul Horn, Yuezhi Mao, Dmitri Zuev, Alec White,
  David Stuck, Shaama M.S., Shane Yost, Joonho Lee, David Small,
  Daniel Levine, Susi Lehtola, Hugh Burton, Evgeny Epifanovsky
 -----------------------------------------------------------------------
 Exchange:     0.6362 Hartree-Fock + 1.0000 wB97X-2(TQZ) + LR-HF
 Correlation:  1.0000 wB97X-2(TQZ)
 Using Euler-Maclaurin-Lebedev (99,590) quadrature formula
Running Object-Oriented RKS (RHF)
We will preform up to 15 macro iterations over saddle points until a stable solution is found
Energy prior to optimization (guess energy) = -78.330798716168
Begin Timing: Total SCF Calculation
Begin Timing: SCF Single Stationary Point Calculation
begin iterations for algorithm: GDM          
the SCF tolerance is set to 1.00e-08
    1     -78.3307987162      4.08e-02     00000  Normal BFGS step
    2     -78.3470498735      1.62e-02     00000  Normal BFGS step
    3     -78.3494731535      1.95e-03     00000  Normal BFGS step
    4     -78.3495059550      7.34e-04     00000  Normal BFGS step
    5     -78.3495083636      1.28e-04     00000  Normal BFGS step
    6     -78.3495084398      2.47e-05     00000  Normal BFGS step
    7     -78.3495084454      2.90e-06     00000  Normal BFGS step
    8     -78.3495084455      5.29e-07     00000  Normal BFGS step
    9     -78.3495084455      5.30e-08     00000  Normal BFGS step
   10     -78.3495084455      1.22e-08     00000  Normal BFGS step
   11     -78.3495084455      1.36e-09     00000 Convergence criterion met
Timing for Single Stationary Point: 79.00s (wall), 623.48s (cpu)
Begin Timing: Stability
===================================================
Beginning Test for Internal Stability
===================================================
generating davidson guess vectors based on koopmans excitations
    1      8.44e-01     00000 Davidson Iteration
    2      1.03e+00     00000 Davidson Iteration
    3      7.71e-02     00000 Davidson Iteration
    4      2.18e-02     00000 Davidson Iteration
    5      1.78e-02     00000 Davidson Iteration
    6      1.03e-02     00000 Davidson Iteration
    7      4.52e-03     00000 Davidson Iteration
    8      1.09e-03     00000 Davidson Iteration
    9      2.25e-04     00000 Davidson Iteration
   10      6.23e-05     00000 Davidson Converged
converged_eigenvalues
   1.0679
   1.1831
Threshold for negative eigenvalues: -1.0e-05
solution was a local minimum (stable)
===================================================
End Test for Internal Stability
===================================================
Our SCF solution is stable!
Timing for Total SCF: 236.00s (wall), 1879.23s (cpu)
 Total energy in the final basis set =      -78.3495084455
    ==================================================
              The end of Object-Oriented SCFman       
    ==================================================
 
 Components of the MP2 correlation energy:
        aaaa  correlation energy =        -0.0229087330 au
        abab  correlation energy =        -0.1687113970 au
        bbbb  correlation energy =        -0.0229087330 au
        non-Brillouin singles    =        -0.0000000000 au

 Total  MP2   correlation energy =                    -0.21452886 au
        MP2         total energy =                   -78.56403731 au
 
 --------------------------------------------------------------
 
                    Orbital Energies (a.u.)
 --------------------------------------------------------------
 
 Alpha MOs
 -- Occupied --
-10.816 -10.815  -0.970  -0.753  -0.619  -0.561  -0.489  -0.378
 -- Virtual --
  0.036   0.044   0.046   0.064   0.087   0.100   0.110   0.123
  0.143   0.147   0.157   0.177   0.186   0.192   0.233   0.237
  0.265   0.293   0.293   0.309   0.313   0.333   0.360   0.373
  0.377   0.389   0.390   0.391   0.408   0.425   0.431   0.436
  0.445   0.446   0.448   0.497   0.517   0.576   0.583   0.589
  0.634   0.692   0.728   0.761   0.771   0.797   0.808   0.837
  0.868   0.878   0.881   0.894   0.904   0.905   0.910   0.925
  0.934   0.947   0.968   0.981   0.984   0.984   1.048   1.049
  1.061   1.065   1.067   1.093   1.106   1.113   1.123   1.140
  1.234   1.257   1.262   1.327   1.366   1.399   1.418   1.451
  1.528   1.543   1.562   1.566   1.622   1.644   1.649   1.726
  1.729   1.735   1.751   1.772   1.778   1.868   1.903   1.940
  1.978   2.002   2.030   2.065   2.068   2.071   2.172   2.221
  2.241   2.291   2.377   2.539   2.703   2.890   2.912   3.064
  3.077   3.156   3.174   3.202   3.217   3.330   3.355   3.368
  3.376   3.429   3.458   3.481   3.585   3.605   3.608   3.621
  3.655   3.680   3.727   3.754   3.874   3.899   3.910   3.963
  4.002   4.017   4.098   4.194   4.227   4.236   4.236   4.285
  4.407   4.418   4.427   4.600   4.605   4.645   4.647   4.727
  4.794   4.809   4.814   4.843   4.857   4.955   5.050   5.146
  5.161   5.171   5.194   5.383   5.450   5.455   5.491   5.835
  5.852   5.953   6.389   6.406   6.520   6.538   6.830   7.055
 15.420  15.813  16.481  16.571  16.584  16.619  17.178  17.948
 41.099  41.134  41.155  41.175  41.227  41.373  41.394  41.409
 41.464  41.648  80.634  80.929  81.413  81.478  81.484  81.550
 86.307  87.690
 --------------------------------------------------------------
 
          Ground-State Mulliken Net Atomic Charges

     Atom                 Charge (a.u.)
  ----------------------------------------
      1 C                    -0.955360
      2 C                    -0.955360
      3 H                     0.477680
      4 H                     0.477680
      5 H                     0.477680
      6 H                     0.477680
  ----------------------------------------
  Sum of atomic charges =     0.000000

 -----------------------------------------------------------------
                    Cartesian Multipole Moments
 -----------------------------------------------------------------
    Charge (ESU x 10^10)
                 0.0000
    Dipole Moment (Debye)
         X      -0.0000      Y       0.0000      Z       0.0000
       Tot       0.0000
    Quadrupole Moments (Debye-Ang)
        XX     -16.0396     XY      -0.0000     YY     -12.4386
        XZ      -0.0000     YZ       0.0000     ZZ     -12.3128
    Octopole Moments (Debye-Ang^2)
       XXX      -0.0000    XXY       0.0000    XYY      -0.0000
       YYY      -0.0000    XXZ       0.0000    XYZ      -0.0000
       YYZ      -0.0000    XZZ      -0.0000    YZZ       0.0000
       ZZZ       0.0000
    Hexadecapole Moments (Debye-Ang^3)
      XXXX     -20.8361   XXXY      -0.0000   XXYY      -8.8963
      XYYY      -0.0000   YYYY     -27.5072   XXXZ       0.0000
      XXYZ      -0.0000   XYYZ      -0.0000   YYYZ      -0.0000
      XXZZ     -15.9611   XYZZ      -0.0000   YYZZ     -13.3995
      XZZZ      -0.0000   YZZZ       0.0000   ZZZZ     -69.5349
 -----------------------------------------------------------------
Archival summary:
1\1\n0080.mhg0\SP\ProcedureUnspecified\BasisUnspecified\24\yhljason\SatOct301:56:142020SatOct301:56:142020\0\\#,ProcedureUnspecified,BasisUnspecified,\\0,1\C\H,1,1.08599\H,1,1.08599,2,117.597\C,1,1.339,2,121.202,3,-180,0\H,4,1.08599,1,121.202,2,-0,0\H,4,1.08599,1,121.202,2,-180,0\\\@

 Total job time:  300.09s(wall), 2386.45s(cpu) 
 Sat Oct  3 01:56:14 2020

        *************************************************************
        *                                                           *
        *  Thank you very much for using Q-Chem.  Have a nice day.  *
        *                                                           *
        *************************************************************


 
User input: 2 of 83 of 8 
 
Q-Chem Developer Version!
                  Welcome to Q-Chem
     A Quantum Leap Into The Future Of Chemistry


 Q-Chem 5.1, Q-Chem, Inc., Pleasanton, CA (2018)

 Yihan Shao,  Zhengting Gan,  E. Epifanovsky,  A. T. B. Gilbert,  M. Wormit,  
 J. Kussmann,  A. W. Lange,  A. Behn,  Jia Deng,  Xintian Feng,  D. Ghosh,  
 M. Goldey,  P. R. Horn,  L. D. Jacobson,  I. Kaliman,  T. Kus,  A. Landau,  
 Jie Liu,  E. I. Proynov,  R. M. Richard,  R. P. Steele,  E. J. Sundstrom,  
 H. L. Woodcock III,  P. M. Zimmerman,  D. Zuev,  B. Albrecht,  E. Alguire,  
 S. A. Baeppler,  D. Barton,  Z. Benda,  Y. A. Bernard,  E. J. Berquist,  
 K. B. Bravaya,  H. Burton,  D. Casanova,  Chun-Min Chang,  Yunqing Chen,  
 A. Chien,  K. D. Closser,  M. P. Coons,  S. Coriani,  S. Dasgupta,  
 A. L. Dempwolff,  M. Diedenhofen,  Hainam Do,  R. G. Edgar,  Po-Tung Fang,  
 S. Faraji,  S. Fatehi,  Qingguo Feng,  K. D. Fenk,  J. Fosso-Tande,  
 Qinghui Ge,  A. Ghysels,  G. Gidofalvi,  J. Gomes,  J. Gonthier,  A. Gunina,  
 D. Hait,  M. W. D. Hanson-Heine,  P. H. P. Harbach,  A. W. Hauser,  
 J. E. Herr,  E. G. Hohenstein,  Z. C. Holden,  Kerwin Hui,  B. C. Huynh,  
 T.-C. Jagau,  Hyunjun Ji,  B. Kaduk,  K. Khistyaev,  Jaehoon Kim,  
 P. Klunzinger,  K. Koh,  D. Kosenkov,  L. Koulias,  T. Kowalczyk,  
 C. M. Krauter,  A. Kunitsa,  Ka Un Lao,  A. Laurent,  K. V. Lawler,  
 Joonho Lee,  D. Lefrancois,  S. Lehtola,  D. S. Levine,  Yi-Pei Li,  
 You-Sheng Lin,  Fenglai Liu,  E. Livshits,  A. Luenser,  P. Manohar,  
 E. Mansoor,  S. F. Manzer,  Shan-Ping Mao,  Yuezhi Mao,  N. Mardirossian,  
 A. V. Marenich,  T. Markovich,  L. A. Martinez-Martinez,  S. A. Maurer,  
 N. J. Mayhall,  S. C. McKenzie,  J.-M. Mewes,  A. F. Morrison,  
 J. W. Mullinax,  K. Nanda,  T. S. Nguyen-Beck,  R. Olivares-Amaya,  
 J. A. Parkhill,  T. M. Perrine,  F. Plasser,  P. Pokhilko,  S. Prager,  
 A. Prociuk,  E. Ramos,  D. R. Rehn,  F. Rob,  M. Schneider,  N. Sergueev,  
 S. M. Sharada,  S. Sharma,  D. W. Small,  T. Stauch,  T. Stein,  
 Yu-Chuan Su,  A. J. W. Thom,  A. Tkatchenko,  T. Tsuchimochi,  N. M. Tubman,  
 L. Vogt,  M. L. Vidal,  O. Vydrov,  M. A. Watson,  J. Wenzel,  
 M. de Wergifosse,  T. A. Wesolowski,  A. White,  J. Witte,  A. Yamada,  
 Jun Yang,  K. Yao,  S. Yeganeh,  S. R. Yost,  Zhi-Qiang You,  A. Zech,  
 Igor Ying Zhang,  Xing Zhang,  Yan Zhao,  Ying Zhu,  B. R. Brooks,  
 G. K. L. Chan,  C. J. Cramer,  M. S. Gordon,  W. J. Hehre,  A. Klamt,  
 M. W. Schmidt,  C. D. Sherrill,  D. G. Truhlar,  A. Aspuru-Guzik,  R. Baer,  
 A. T. Bell,  N. A. Besley,  Jeng-Da Chai,  A. E. DePrince, III,  
 R. A. DiStasio Jr.,  A. Dreuw,  B. D. Dunietz,  T. R. Furlani,  
 Chao-Ping Hsu,  Yousung Jung,  Jing Kong,  D. S. Lambrecht,  WanZhen Liang,  
 C. Ochsenfeld,  V. A. Rassolov,  L. V. Slipchenko,  J. E. Subotnik,  
 T. Van Voorhis,  J. M. Herbert,  A. I. Krylov,  P. M. W. Gill,  M. Head-Gordon

 Contributors to earlier versions of Q-Chem not listed above: 
 R. D. Adamson,  B. Austin,  J. Baker,  G. J. O. Beran,  K. Brandhorst,  
 S. T. Brown,  E. F. C. Byrd,  A. K. Chakraborty,  C.-L. Cheng,  
 Siu Hung Chien,  D. M. Chipman,  D. L. Crittenden,  H. Dachsel,  
 R. J. Doerksen,  A. D. Dutoi,  L. Fusti-Molnar,  W. A. Goddard III,  
 A. Golubeva-Zadorozhnaya,  S. R. Gwaltney,  G. Hawkins,  A. Heyden,  
 S. Hirata,  G. Kedziora,  F. J. Keil,  C. Kelley,  Jihan Kim,  R. A. King,  
 R. Z. Khaliullin,  P. P. Korambath,  W. Kurlancheek,  A. M. Lee,  M. S. Lee,  
 S. V. Levchenko,  Ching Yeh Lin,  D. Liotard,  R. C. Lochan,  I. Lotan,  
 P. E. Maslen,  N. Nair,  D. P. O'Neill,  D. Neuhauser,  E. Neuscamman,  
 C. M. Oana,  R. Olson,  B. Peters,  R. Peverati,  P. A. Pieniazek,  
 Y. M. Rhee,  J. Ritchie,  M. A. Rohrdanz,  E. Rosta,  N. J. Russ,  
 H. F. Schaefer III,  N. E. Schultz,  N. Shenvi,  A. C. Simmonett,  A. Sodt,  
 D. Stuck,  K. S. Thanthiriwatte,  V. Vanovschi,  Tao Wang,  A. Warshel,  
 C. F. Williams,  Q. Wu,  X. Xu,  W. Zhang

 Please cite Q-Chem as follows:
 Y. Shao et al., Mol. Phys. 113, 184-215 (2015)
 DOI: 10.1080/00268976.2014.952696

 Q-Chem 5.1.1 for Intel X86 EM64T Linux

 Parts of Q-Chem use Armadillo 8.300.2 (Tropical Shenanigans).
 http://arma.sourceforge.net/

 Q-Chem begins on Sat Oct  3 01:56:20 2020  

Host: n0080.mhg0
0

     Scratch files written to /local/scratch/users/yhljason/C2H4_wB97X-2TQZ_aug-cc-pcVTZ.inp20201003015113//
The previous job contains 0 fragments, simply inherited here
Input Ideriv = 0
Curr. Ideriv = -1
Max.  Ideriv = 0
Analytic post-HF gradients are not available with non-HF exchange
Input Ideriv = 0
Curr. Ideriv = 0
Max.  Ideriv = 0

Checking the input file for inconsistencies... 	...done.

--------------------------------------------------------------
User input:
--------------------------------------------------------------
$molecule
read
$end

$rem

jobtype sp
method wB97X-2(TQZ)
xc_grid 000099000590
basis aug-cc-pcVTZ
max_scf_cycles 200
thresh 14
scf_convergence 8
mem_total 128000
cc_memory 96000
cc_backend xm
mem_static 1500
symmetry false
sym_ignore true
scf_guess read
unrestricted false
scf_algorithm gdm
n_frozen_core 0
$end

$multipole_field
XX 0.0001
$end


--------------------------------------------------------------
 ----------------------------------------------------------------
             Standard Nuclear Orientation (Angstroms)
    I     Atom           X                Y                Z
 ----------------------------------------------------------------
    1      C       0.0000000000     0.0000000000     0.6695000000
    2      C       0.0000000000     0.0000000000    -0.6695000000
    3      H       0.0000000000     0.9289000000     1.2321000000
    4      H       0.0000000000    -0.9289000000     1.2321000000
    5      H       0.0000000000     0.9289000000    -1.2321000000
    6      H       0.0000000000    -0.9289000000    -1.2321000000
 ----------------------------------------------------------------
 Nuclear Repulsion Energy =    33.2650904736 hartrees
 There are        8 alpha and        8 beta electrons
 Requested basis set is aug-cc-pCVTZ
 There are 74 shells and 210 basis functions

 Total QAlloc Memory Limit 128000 MB
 Mega-Array Size      1467 MB
 MEM_STATIC part      1500 MB

                       Distance Matrix (Angstroms)
             C (  1)   C (  2)   H (  3)   H (  4)   H (  5)
   C (  2)  1.339000
   H (  3)  1.085990  2.116350
   H (  4)  1.085990  2.116350  1.857800
   H (  5)  2.116350  1.085990  2.464200  3.086050
   H (  6)  2.116350  1.085990  3.086050  2.464200  1.857800
 
 Applying Cartesian multipole field
    Component          Value
    ---------          -----
     (2,0,0)        1.00000E-04
 A cutoff of  1.0D-14 yielded   2764 shell pairs
 There are     22372 function pairs (     28815 Cartesian)
 
 -------------------------------------------------------
 OpenMP Integral Computing Module                       
 Release: version 1.0, May 2013, Q-Chem Inc. Pittsburgh 
 -------------------------------------------------------
 Integral Job Info:
 Integral job number is                      11
 Integral operator is                         1
 short-range coefficients              63615800
 long-range coefficients              100000000
 Omega coefficients                         300
 if combine SR and LR in K                    1
 Integral screening is                        0
 Integral computing path is                   2
 max size of driver memory is            800000
 size of driver memory is                776718
 size of scratch memory is              6904264
 max col of scratch BK array              10000
 max len of scratch array in speh3          662
 max len of scratch index in speh4           32
 max int batch size is                      520
 min int batch size is                       52
 fixed nKL is                                52
 max L of basis functions is                  3
 order of int derivative is                   0
 number of shells is                         74
 number of basis is                         238
 number of cartesian basis is               238
 number of contracted shell pairs          2764
 number of primitive shell pairs           6149
 maxK2 (contraction) of shell pair           64
 max number of K2 of shell pair               1
 max number of CS2 of shell pair            494
 max number of PS2 of shell pair            672
 mem total for path MDJ                  579280
 -------------------------------------------------------
 Smallest overlap matrix eigenvalue = 5.05E-06
 Guess MOs from SCF MO coefficient file

 -----------------------------------------------------------------------
  General SCF calculation program by
  Eric Jon Sundstrom, Paul Horn, Yuezhi Mao, Dmitri Zuev, Alec White,
  David Stuck, Shaama M.S., Shane Yost, Joonho Lee, David Small,
  Daniel Levine, Susi Lehtola, Hugh Burton, Evgeny Epifanovsky
 -----------------------------------------------------------------------
 Exchange:     0.6362 Hartree-Fock + 1.0000 wB97X-2(TQZ) + LR-HF
 Correlation:  1.0000 wB97X-2(TQZ)
 Using Euler-Maclaurin-Lebedev (99,590) quadrature formula
 using 8 threads for integral computing
 -------------------------------------------------------
 OpenMP Integral computing Module                
 Release: version 1.0, May 2013, Q-Chem Inc. Pittsburgh 
 -------------------------------------------------------
 using 8 threads for integral computing
 -------------------------------------------------------
 OpenMP Integral computing Module                
 Release: version 1.0, May 2013, Q-Chem Inc. Pittsburgh 
 -------------------------------------------------------
 -------------------------------------------------------
 OpenMP BLAS3 based DFT computing Module                
 Release: version 1.0, May 2013, Q-Chem Inc. Pittsburgh 
 -------------------------------------------------------
 A restricted SCF calculation will be
 performed using GDM
 SCF converges when RMS gradient is below 1.0e-08
 ---------------------------------------
  Cycle       Energy        RMS Gradient
 ---------------------------------------
    1     -78.3507009528      5.05e-04   Normal BFGS step
    2     -78.3507015001      1.27e-04   Normal BFGS step
    3     -78.3507015692      2.96e-05   Normal BFGS step
    4     -78.3507015738      6.23e-06   Normal BFGS step
    5     -78.3507015740      1.03e-06   Normal BFGS step
    6     -78.3507015740      1.05e-07   Normal BFGS step
    7     -78.3507015740      2.26e-08   Normal BFGS step
    8     -78.3507015740      1.85e-09  Convergence criterion met
 ---------------------------------------
 SCF time:   CPU 514.74s  wall 65.00s 
 SCF   energy in the final basis set =      -78.3507015740
 Total energy in the final basis set =      -78.3507015740
 
 Components of the MP2 correlation energy:
        aaaa  correlation energy =        -0.0229088803 au
        abab  correlation energy =        -0.1687007986 au
        bbbb  correlation energy =        -0.0229088803 au
        non-Brillouin singles    =        -0.0000000000 au

 Total  MP2   correlation energy =                    -0.21451856 au
        MP2         total energy =                   -78.56522013 au
 
 --------------------------------------------------------------
 
                    Orbital Energies (a.u.)
 --------------------------------------------------------------
 
 Alpha MOs
 -- Occupied --
-10.816 -10.815  -0.971  -0.753  -0.619  -0.561  -0.489  -0.378
 -- Virtual --
  0.034   0.043   0.044   0.062   0.085   0.097   0.108   0.121
  0.141   0.146   0.156   0.176   0.185   0.191   0.232   0.236
  0.264   0.292   0.292   0.308   0.312   0.332   0.359   0.372
  0.376   0.388   0.389   0.390   0.407   0.424   0.430   0.436
  0.444   0.446   0.447   0.496   0.516   0.575   0.582   0.589
  0.633   0.691   0.727   0.761   0.771   0.796   0.808   0.836
  0.868   0.877   0.881   0.893   0.903   0.904   0.910   0.924
  0.934   0.946   0.967   0.981   0.983   0.984   1.047   1.049
  1.061   1.064   1.067   1.092   1.105   1.112   1.122   1.139
  1.233   1.257   1.261   1.326   1.366   1.399   1.418   1.450
  1.528   1.542   1.562   1.566   1.622   1.644   1.648   1.726
  1.729   1.735   1.751   1.772   1.777   1.867   1.903   1.940
  1.977   2.002   2.030   2.065   2.068   2.071   2.172   2.221
  2.241   2.291   2.377   2.539   2.702   2.889   2.912   3.064
  3.076   3.155   3.174   3.201   3.217   3.330   3.355   3.367
  3.376   3.429   3.457   3.481   3.584   3.604   3.608   3.621
  3.654   3.680   3.726   3.754   3.873   3.898   3.910   3.962
  4.001   4.017   4.098   4.194   4.227   4.235   4.236   4.285
  4.407   4.418   4.427   4.599   4.605   4.644   4.647   4.727
  4.794   4.809   4.814   4.842   4.857   4.955   5.050   5.146
  5.161   5.170   5.194   5.382   5.450   5.454   5.491   5.835
  5.851   5.952   6.389   6.405   6.520   6.537   6.830   7.055
 15.419  15.813  16.480  16.571  16.584  16.619  17.178  17.947
 41.098  41.134  41.155  41.175  41.226  41.373  41.393  41.409
 41.464  41.648  80.633  80.928  81.413  81.478  81.484  81.549
 86.307  87.690
 --------------------------------------------------------------
 
          Ground-State Mulliken Net Atomic Charges

     Atom                 Charge (a.u.)
  ----------------------------------------
      1 C                    -0.956653
      2 C                    -0.956653
      3 H                     0.478327
      4 H                     0.478327
      5 H                     0.478327
      6 H                     0.478327
  ----------------------------------------
  Sum of atomic charges =     0.000000

 -----------------------------------------------------------------
                    Cartesian Multipole Moments
 -----------------------------------------------------------------
    Charge (ESU x 10^10)
                 0.0000
    Dipole Moment (Debye)
         X      -0.0000      Y      -0.0000      Z      -0.0000
       Tot       0.0000
    Quadrupole Moments (Debye-Ang)
        XX     -16.0564     XY      -0.0000     YY     -12.4404
        XZ      -0.0000     YZ       0.0000     ZZ     -12.3133
    Octopole Moments (Debye-Ang^2)
       XXX       0.0000    XXY      -0.0000    XYY       0.0000
       YYY      -0.0000    XXZ      -0.0000    XYZ      -0.0000
       YYZ      -0.0000    XZZ      -0.0000    YZZ      -0.0000
       ZZZ      -0.0000
    Hexadecapole Moments (Debye-Ang^3)
      XXXX     -20.9295   XXXY      -0.0000   XXYY      -8.9145
      XYYY      -0.0000   YYYY     -27.5182   XXXZ       0.0000
      XXYZ       0.0000   XYYZ       0.0000   YYYZ       0.0000
      XXZZ     -15.9836   XYZZ       0.0000   YYZZ     -13.4009
      XZZZ      -0.0000   YZZZ       0.0000   ZZZZ     -69.5460
 -----------------------------------------------------------------
Archival summary:
1\1\n0080.mhg0\SP\ProcedureUnspecified\BasisUnspecified\24\yhljason\SatOct301:58:172020SatOct301:58:172020\0\\#,ProcedureUnspecified,BasisUnspecified,\\0,1\C\H,1,1.08599\H,1,1.08599,2,117.597\C,1,1.339,2,121.202,3,-180,0\H,4,1.08599,1,121.202,2,-0,0\H,4,1.08599,1,121.202,2,-180,0\\\@

 Total job time:  117.09s(wall), 924.53s(cpu) 
 Sat Oct  3 01:58:17 2020

        *************************************************************
        *                                                           *
        *  Thank you very much for using Q-Chem.  Have a nice day.  *
        *                                                           *
        *************************************************************


 
User input: 4 of 8 
 
Q-Chem Developer Version!
                  Welcome to Q-Chem
     A Quantum Leap Into The Future Of Chemistry


 Q-Chem 5.1, Q-Chem, Inc., Pleasanton, CA (2018)

 Yihan Shao,  Zhengting Gan,  E. Epifanovsky,  A. T. B. Gilbert,  M. Wormit,  
 J. Kussmann,  A. W. Lange,  A. Behn,  Jia Deng,  Xintian Feng,  D. Ghosh,  
 M. Goldey,  P. R. Horn,  L. D. Jacobson,  I. Kaliman,  T. Kus,  A. Landau,  
 Jie Liu,  E. I. Proynov,  R. M. Richard,  R. P. Steele,  E. J. Sundstrom,  
 H. L. Woodcock III,  P. M. Zimmerman,  D. Zuev,  B. Albrecht,  E. Alguire,  
 S. A. Baeppler,  D. Barton,  Z. Benda,  Y. A. Bernard,  E. J. Berquist,  
 K. B. Bravaya,  H. Burton,  D. Casanova,  Chun-Min Chang,  Yunqing Chen,  
 A. Chien,  K. D. Closser,  M. P. Coons,  S. Coriani,  S. Dasgupta,  
 A. L. Dempwolff,  M. Diedenhofen,  Hainam Do,  R. G. Edgar,  Po-Tung Fang,  
 S. Faraji,  S. Fatehi,  Qingguo Feng,  K. D. Fenk,  J. Fosso-Tande,  
 Qinghui Ge,  A. Ghysels,  G. Gidofalvi,  J. Gomes,  J. Gonthier,  A. Gunina,  
 D. Hait,  M. W. D. Hanson-Heine,  P. H. P. Harbach,  A. W. Hauser,  
 J. E. Herr,  E. G. Hohenstein,  Z. C. Holden,  Kerwin Hui,  B. C. Huynh,  
 T.-C. Jagau,  Hyunjun Ji,  B. Kaduk,  K. Khistyaev,  Jaehoon Kim,  
 P. Klunzinger,  K. Koh,  D. Kosenkov,  L. Koulias,  T. Kowalczyk,  
 C. M. Krauter,  A. Kunitsa,  Ka Un Lao,  A. Laurent,  K. V. Lawler,  
 Joonho Lee,  D. Lefrancois,  S. Lehtola,  D. S. Levine,  Yi-Pei Li,  
 You-Sheng Lin,  Fenglai Liu,  E. Livshits,  A. Luenser,  P. Manohar,  
 E. Mansoor,  S. F. Manzer,  Shan-Ping Mao,  Yuezhi Mao,  N. Mardirossian,  
 A. V. Marenich,  T. Markovich,  L. A. Martinez-Martinez,  S. A. Maurer,  
 N. J. Mayhall,  S. C. McKenzie,  J.-M. Mewes,  A. F. Morrison,  
 J. W. Mullinax,  K. Nanda,  T. S. Nguyen-Beck,  R. Olivares-Amaya,  
 J. A. Parkhill,  T. M. Perrine,  F. Plasser,  P. Pokhilko,  S. Prager,  
 A. Prociuk,  E. Ramos,  D. R. Rehn,  F. Rob,  M. Schneider,  N. Sergueev,  
 S. M. Sharada,  S. Sharma,  D. W. Small,  T. Stauch,  T. Stein,  
 Yu-Chuan Su,  A. J. W. Thom,  A. Tkatchenko,  T. Tsuchimochi,  N. M. Tubman,  
 L. Vogt,  M. L. Vidal,  O. Vydrov,  M. A. Watson,  J. Wenzel,  
 M. de Wergifosse,  T. A. Wesolowski,  A. White,  J. Witte,  A. Yamada,  
 Jun Yang,  K. Yao,  S. Yeganeh,  S. R. Yost,  Zhi-Qiang You,  A. Zech,  
 Igor Ying Zhang,  Xing Zhang,  Yan Zhao,  Ying Zhu,  B. R. Brooks,  
 G. K. L. Chan,  C. J. Cramer,  M. S. Gordon,  W. J. Hehre,  A. Klamt,  
 M. W. Schmidt,  C. D. Sherrill,  D. G. Truhlar,  A. Aspuru-Guzik,  R. Baer,  
 A. T. Bell,  N. A. Besley,  Jeng-Da Chai,  A. E. DePrince, III,  
 R. A. DiStasio Jr.,  A. Dreuw,  B. D. Dunietz,  T. R. Furlani,  
 Chao-Ping Hsu,  Yousung Jung,  Jing Kong,  D. S. Lambrecht,  WanZhen Liang,  
 C. Ochsenfeld,  V. A. Rassolov,  L. V. Slipchenko,  J. E. Subotnik,  
 T. Van Voorhis,  J. M. Herbert,  A. I. Krylov,  P. M. W. Gill,  M. Head-Gordon

 Contributors to earlier versions of Q-Chem not listed above: 
 R. D. Adamson,  B. Austin,  J. Baker,  G. J. O. Beran,  K. Brandhorst,  
 S. T. Brown,  E. F. C. Byrd,  A. K. Chakraborty,  C.-L. Cheng,  
 Siu Hung Chien,  D. M. Chipman,  D. L. Crittenden,  H. Dachsel,  
 R. J. Doerksen,  A. D. Dutoi,  L. Fusti-Molnar,  W. A. Goddard III,  
 A. Golubeva-Zadorozhnaya,  S. R. Gwaltney,  G. Hawkins,  A. Heyden,  
 S. Hirata,  G. Kedziora,  F. J. Keil,  C. Kelley,  Jihan Kim,  R. A. King,  
 R. Z. Khaliullin,  P. P. Korambath,  W. Kurlancheek,  A. M. Lee,  M. S. Lee,  
 S. V. Levchenko,  Ching Yeh Lin,  D. Liotard,  R. C. Lochan,  I. Lotan,  
 P. E. Maslen,  N. Nair,  D. P. O'Neill,  D. Neuhauser,  E. Neuscamman,  
 C. M. Oana,  R. Olson,  B. Peters,  R. Peverati,  P. A. Pieniazek,  
 Y. M. Rhee,  J. Ritchie,  M. A. Rohrdanz,  E. Rosta,  N. J. Russ,  
 H. F. Schaefer III,  N. E. Schultz,  N. Shenvi,  A. C. Simmonett,  A. Sodt,  
 D. Stuck,  K. S. Thanthiriwatte,  V. Vanovschi,  Tao Wang,  A. Warshel,  
 C. F. Williams,  Q. Wu,  X. Xu,  W. Zhang

 Please cite Q-Chem as follows:
 Y. Shao et al., Mol. Phys. 113, 184-215 (2015)
 DOI: 10.1080/00268976.2014.952696

 Q-Chem 5.1.1 for Intel X86 EM64T Linux

 Parts of Q-Chem use Armadillo 8.300.2 (Tropical Shenanigans).
 http://arma.sourceforge.net/

 Q-Chem begins on Sat Oct  3 01:58:17 2020  

Host: n0080.mhg0
0

     Scratch files written to /local/scratch/users/yhljason/C2H4_wB97X-2TQZ_aug-cc-pcVTZ.inp20201003015113//
The previous job contains 0 fragments, simply inherited here
Input Ideriv = 0
Curr. Ideriv = -1
Max.  Ideriv = 0
Analytic post-HF gradients are not available with non-HF exchange
Input Ideriv = 0
Curr. Ideriv = 0
Max.  Ideriv = 0

Checking the input file for inconsistencies... 	...done.

--------------------------------------------------------------
User input:
--------------------------------------------------------------
$molecule
read
$end

$rem

jobtype sp
method wB97X-2(TQZ)
xc_grid 000099000590
basis aug-cc-pcVTZ
max_scf_cycles 200
thresh 14
scf_convergence 8
mem_total 128000
cc_memory 96000
cc_backend xm
mem_static 1500
symmetry false
sym_ignore true
scf_guess read
unrestricted false
scf_algorithm gdm
n_frozen_core 0
$end

$multipole_field
XX -0.0001
$end


--------------------------------------------------------------
 ----------------------------------------------------------------
             Standard Nuclear Orientation (Angstroms)
    I     Atom           X                Y                Z
 ----------------------------------------------------------------
    1      C       0.0000000000     0.0000000000     0.6695000000
    2      C       0.0000000000     0.0000000000    -0.6695000000
    3      H       0.0000000000     0.9289000000     1.2321000000
    4      H       0.0000000000    -0.9289000000     1.2321000000
    5      H       0.0000000000     0.9289000000    -1.2321000000
    6      H       0.0000000000    -0.9289000000    -1.2321000000
 ----------------------------------------------------------------
 Nuclear Repulsion Energy =    33.2650904736 hartrees
 There are        8 alpha and        8 beta electrons
 Requested basis set is aug-cc-pCVTZ
 There are 74 shells and 210 basis functions

 Total QAlloc Memory Limit 128000 MB
 Mega-Array Size      1467 MB
 MEM_STATIC part      1500 MB

                       Distance Matrix (Angstroms)
             C (  1)   C (  2)   H (  3)   H (  4)   H (  5)
   C (  2)  1.339000
   H (  3)  1.085990  2.116350
   H (  4)  1.085990  2.116350  1.857800
   H (  5)  2.116350  1.085990  2.464200  3.086050
   H (  6)  2.116350  1.085990  3.086050  2.464200  1.857800
 
 Applying Cartesian multipole field
    Component          Value
    ---------          -----
     (2,0,0)       -1.00000E-04
 A cutoff of  1.0D-14 yielded   2764 shell pairs
 There are     22372 function pairs (     28815 Cartesian)
 
 -------------------------------------------------------
 OpenMP Integral Computing Module                       
 Release: version 1.0, May 2013, Q-Chem Inc. Pittsburgh 
 -------------------------------------------------------
 Integral Job Info:
 Integral job number is                      11
 Integral operator is                         1
 short-range coefficients              63615800
 long-range coefficients              100000000
 Omega coefficients                         300
 if combine SR and LR in K                    1
 Integral screening is                        0
 Integral computing path is                   2
 max size of driver memory is            800000
 size of driver memory is                776718
 size of scratch memory is              6904264
 max col of scratch BK array              10000
 max len of scratch array in speh3          662
 max len of scratch index in speh4           32
 max int batch size is                      520
 min int batch size is                       52
 fixed nKL is                                52
 max L of basis functions is                  3
 order of int derivative is                   0
 number of shells is                         74
 number of basis is                         238
 number of cartesian basis is               238
 number of contracted shell pairs          2764
 number of primitive shell pairs           6149
 maxK2 (contraction) of shell pair           64
 max number of K2 of shell pair               1
 max number of CS2 of shell pair            494
 max number of PS2 of shell pair            672
 mem total for path MDJ                  579280
 -------------------------------------------------------
 Smallest overlap matrix eigenvalue = 5.05E-06
 Guess MOs from SCF MO coefficient file

 -----------------------------------------------------------------------
  General SCF calculation program by
  Eric Jon Sundstrom, Paul Horn, Yuezhi Mao, Dmitri Zuev, Alec White,
  David Stuck, Shaama M.S., Shane Yost, Joonho Lee, David Small,
  Daniel Levine, Susi Lehtola, Hugh Burton, Evgeny Epifanovsky
 -----------------------------------------------------------------------
 Exchange:     0.6362 Hartree-Fock + 1.0000 wB97X-2(TQZ) + LR-HF
 Correlation:  1.0000 wB97X-2(TQZ)
 Using Euler-Maclaurin-Lebedev (99,590) quadrature formula
 using 8 threads for integral computing
 -------------------------------------------------------
 OpenMP Integral computing Module                
 Release: version 1.0, May 2013, Q-Chem Inc. Pittsburgh 
 -------------------------------------------------------
 using 8 threads for integral computing
 -------------------------------------------------------
 OpenMP Integral computing Module                
 Release: version 1.0, May 2013, Q-Chem Inc. Pittsburgh 
 -------------------------------------------------------
 -------------------------------------------------------
 OpenMP BLAS3 based DFT computing Module                
 Release: version 1.0, May 2013, Q-Chem Inc. Pittsburgh 
 -------------------------------------------------------
 A restricted SCF calculation will be
 performed using GDM
 SCF converges when RMS gradient is below 1.0e-08
 ---------------------------------------
  Cycle       Energy        RMS Gradient
 ---------------------------------------
    1     -78.3483140689      1.01e-03   Normal BFGS step
    2     -78.3483162611      2.51e-04   Normal BFGS step
    3     -78.3483165345      5.99e-05   Normal BFGS step
    4     -78.3483165531      1.26e-05   Normal BFGS step
    5     -78.3483165539      2.08e-06   Normal BFGS step
    6     -78.3483165539      2.03e-07   Normal BFGS step
    7     -78.3483165539      4.36e-08   Normal BFGS step
    8     -78.3483165539      3.69e-09  Convergence criterion met
 ---------------------------------------
 SCF time:   CPU 512.12s  wall 65.00s 
 SCF   energy in the final basis set =      -78.3483165539
 Total energy in the final basis set =      -78.3483165539
 
 Components of the MP2 correlation energy:
        aaaa  correlation energy =        -0.0229085883 au
        abab  correlation energy =        -0.1687219553 au
        bbbb  correlation energy =        -0.0229085883 au
        non-Brillouin singles    =        -0.0000000000 au

 Total  MP2   correlation energy =                    -0.21453913 au
        MP2         total energy =                   -78.56285569 au
 
 --------------------------------------------------------------
 
                    Orbital Energies (a.u.)
 --------------------------------------------------------------
 
 Alpha MOs
 -- Occupied --
-10.816 -10.815  -0.970  -0.752  -0.618  -0.561  -0.489  -0.377
 -- Virtual --
  0.038   0.046   0.048   0.065   0.088   0.103   0.111   0.124
  0.145   0.148   0.159   0.178   0.187   0.193   0.234   0.237
  0.267   0.294   0.294   0.311   0.314   0.334   0.361   0.373
  0.379   0.391   0.391   0.392   0.408   0.426   0.432   0.437
  0.446   0.447   0.449   0.497   0.517   0.577   0.584   0.590
  0.634   0.692   0.729   0.761   0.772   0.797   0.809   0.838
  0.869   0.879   0.882   0.895   0.905   0.905   0.911   0.925
  0.935   0.948   0.968   0.982   0.984   0.984   1.049   1.050
  1.062   1.065   1.068   1.093   1.106   1.113   1.123   1.140
  1.234   1.258   1.262   1.327   1.367   1.399   1.419   1.451
  1.529   1.543   1.563   1.566   1.623   1.644   1.649   1.727
  1.730   1.736   1.752   1.773   1.778   1.868   1.903   1.940
  1.978   2.003   2.031   2.065   2.069   2.072   2.173   2.221
  2.241   2.291   2.378   2.539   2.703   2.890   2.912   3.064
  3.077   3.156   3.174   3.202   3.218   3.331   3.355   3.368
  3.376   3.430   3.458   3.481   3.585   3.605   3.608   3.622
  3.655   3.681   3.727   3.755   3.874   3.899   3.911   3.963
  4.002   4.017   4.098   4.194   4.228   4.236   4.236   4.285
  4.408   4.418   4.427   4.600   4.606   4.645   4.648   4.727
  4.795   4.810   4.814   4.843   4.857   4.955   5.050   5.146
  5.162   5.171   5.194   5.383   5.450   5.455   5.492   5.835
  5.852   5.953   6.389   6.406   6.520   6.538   6.830   7.056
 15.420  15.813  16.481  16.571  16.584  16.619  17.178  17.948
 41.099  41.134  41.155  41.175  41.227  41.374  41.394  41.409
 41.464  41.648  80.634  80.929  81.413  81.478  81.484  81.550
 86.308  87.690
 --------------------------------------------------------------
 
          Ground-State Mulliken Net Atomic Charges

     Atom                 Charge (a.u.)
  ----------------------------------------
      1 C                    -0.954091
      2 C                    -0.954091
      3 H                     0.477045
      4 H                     0.477045
      5 H                     0.477045
      6 H                     0.477045
  ----------------------------------------
  Sum of atomic charges =     0.000000

 -----------------------------------------------------------------
                    Cartesian Multipole Moments
 -----------------------------------------------------------------
    Charge (ESU x 10^10)
                 0.0000
    Dipole Moment (Debye)
         X      -0.0000      Y      -0.0000      Z       0.0000
       Tot       0.0000
    Quadrupole Moments (Debye-Ang)
        XX     -16.0231     XY      -0.0000     YY     -12.4369
        XZ       0.0000     YZ       0.0000     ZZ     -12.3123
    Octopole Moments (Debye-Ang^2)
       XXX       0.0000    XXY      -0.0000    XYY      -0.0000
       YYY      -0.0000    XXZ      -0.0000    XYZ      -0.0000
       YYZ       0.0000    XZZ      -0.0000    YZZ      -0.0000
       ZZZ      -0.0000
    Hexadecapole Moments (Debye-Ang^3)
      XXXX     -20.7448   XXXY      -0.0000   XXYY      -8.8784
      XYYY       0.0000   YYYY     -27.4963   XXXZ       0.0000
      XXYZ       0.0000   XYYZ       0.0000   YYYZ       0.0000
      XXZZ     -15.9390   XYZZ       0.0000   YYZZ     -13.3981
      XZZZ       0.0000   YZZZ       0.0000   ZZZZ     -69.5239
 -----------------------------------------------------------------
Archival summary:
1\1\n0080.mhg0\SP\ProcedureUnspecified\BasisUnspecified\24\yhljason\SatOct302:00:142020SatOct302:00:142020\0\\#,ProcedureUnspecified,BasisUnspecified,\\0,1\C\H,1,1.08599\H,1,1.08599,2,117.597\C,1,1.339,2,121.202,3,-180,0\H,4,1.08599,1,121.202,2,-0,0\H,4,1.08599,1,121.202,2,-180,0\\\@

 Total job time:  116.85s(wall), 924.88s(cpu) 
 Sat Oct  3 02:00:14 2020

        *************************************************************
        *                                                           *
        *  Thank you very much for using Q-Chem.  Have a nice day.  *
        *                                                           *
        *************************************************************


 
User input: 5 of 8 
 
Q-Chem Developer Version!
                  Welcome to Q-Chem
     A Quantum Leap Into The Future Of Chemistry


 Q-Chem 5.1, Q-Chem, Inc., Pleasanton, CA (2018)

 Yihan Shao,  Zhengting Gan,  E. Epifanovsky,  A. T. B. Gilbert,  M. Wormit,  
 J. Kussmann,  A. W. Lange,  A. Behn,  Jia Deng,  Xintian Feng,  D. Ghosh,  
 M. Goldey,  P. R. Horn,  L. D. Jacobson,  I. Kaliman,  T. Kus,  A. Landau,  
 Jie Liu,  E. I. Proynov,  R. M. Richard,  R. P. Steele,  E. J. Sundstrom,  
 H. L. Woodcock III,  P. M. Zimmerman,  D. Zuev,  B. Albrecht,  E. Alguire,  
 S. A. Baeppler,  D. Barton,  Z. Benda,  Y. A. Bernard,  E. J. Berquist,  
 K. B. Bravaya,  H. Burton,  D. Casanova,  Chun-Min Chang,  Yunqing Chen,  
 A. Chien,  K. D. Closser,  M. P. Coons,  S. Coriani,  S. Dasgupta,  
 A. L. Dempwolff,  M. Diedenhofen,  Hainam Do,  R. G. Edgar,  Po-Tung Fang,  
 S. Faraji,  S. Fatehi,  Qingguo Feng,  K. D. Fenk,  J. Fosso-Tande,  
 Qinghui Ge,  A. Ghysels,  G. Gidofalvi,  J. Gomes,  J. Gonthier,  A. Gunina,  
 D. Hait,  M. W. D. Hanson-Heine,  P. H. P. Harbach,  A. W. Hauser,  
 J. E. Herr,  E. G. Hohenstein,  Z. C. Holden,  Kerwin Hui,  B. C. Huynh,  
 T.-C. Jagau,  Hyunjun Ji,  B. Kaduk,  K. Khistyaev,  Jaehoon Kim,  
 P. Klunzinger,  K. Koh,  D. Kosenkov,  L. Koulias,  T. Kowalczyk,  
 C. M. Krauter,  A. Kunitsa,  Ka Un Lao,  A. Laurent,  K. V. Lawler,  
 Joonho Lee,  D. Lefrancois,  S. Lehtola,  D. S. Levine,  Yi-Pei Li,  
 You-Sheng Lin,  Fenglai Liu,  E. Livshits,  A. Luenser,  P. Manohar,  
 E. Mansoor,  S. F. Manzer,  Shan-Ping Mao,  Yuezhi Mao,  N. Mardirossian,  
 A. V. Marenich,  T. Markovich,  L. A. Martinez-Martinez,  S. A. Maurer,  
 N. J. Mayhall,  S. C. McKenzie,  J.-M. Mewes,  A. F. Morrison,  
 J. W. Mullinax,  K. Nanda,  T. S. Nguyen-Beck,  R. Olivares-Amaya,  
 J. A. Parkhill,  T. M. Perrine,  F. Plasser,  P. Pokhilko,  S. Prager,  
 A. Prociuk,  E. Ramos,  D. R. Rehn,  F. Rob,  M. Schneider,  N. Sergueev,  
 S. M. Sharada,  S. Sharma,  D. W. Small,  T. Stauch,  T. Stein,  
 Yu-Chuan Su,  A. J. W. Thom,  A. Tkatchenko,  T. Tsuchimochi,  N. M. Tubman,  
 L. Vogt,  M. L. Vidal,  O. Vydrov,  M. A. Watson,  J. Wenzel,  
 M. de Wergifosse,  T. A. Wesolowski,  A. White,  J. Witte,  A. Yamada,  
 Jun Yang,  K. Yao,  S. Yeganeh,  S. R. Yost,  Zhi-Qiang You,  A. Zech,  
 Igor Ying Zhang,  Xing Zhang,  Yan Zhao,  Ying Zhu,  B. R. Brooks,  
 G. K. L. Chan,  C. J. Cramer,  M. S. Gordon,  W. J. Hehre,  A. Klamt,  
 M. W. Schmidt,  C. D. Sherrill,  D. G. Truhlar,  A. Aspuru-Guzik,  R. Baer,  
 A. T. Bell,  N. A. Besley,  Jeng-Da Chai,  A. E. DePrince, III,  
 R. A. DiStasio Jr.,  A. Dreuw,  B. D. Dunietz,  T. R. Furlani,  
 Chao-Ping Hsu,  Yousung Jung,  Jing Kong,  D. S. Lambrecht,  WanZhen Liang,  
 C. Ochsenfeld,  V. A. Rassolov,  L. V. Slipchenko,  J. E. Subotnik,  
 T. Van Voorhis,  J. M. Herbert,  A. I. Krylov,  P. M. W. Gill,  M. Head-Gordon

 Contributors to earlier versions of Q-Chem not listed above: 
 R. D. Adamson,  B. Austin,  J. Baker,  G. J. O. Beran,  K. Brandhorst,  
 S. T. Brown,  E. F. C. Byrd,  A. K. Chakraborty,  C.-L. Cheng,  
 Siu Hung Chien,  D. M. Chipman,  D. L. Crittenden,  H. Dachsel,  
 R. J. Doerksen,  A. D. Dutoi,  L. Fusti-Molnar,  W. A. Goddard III,  
 A. Golubeva-Zadorozhnaya,  S. R. Gwaltney,  G. Hawkins,  A. Heyden,  
 S. Hirata,  G. Kedziora,  F. J. Keil,  C. Kelley,  Jihan Kim,  R. A. King,  
 R. Z. Khaliullin,  P. P. Korambath,  W. Kurlancheek,  A. M. Lee,  M. S. Lee,  
 S. V. Levchenko,  Ching Yeh Lin,  D. Liotard,  R. C. Lochan,  I. Lotan,  
 P. E. Maslen,  N. Nair,  D. P. O'Neill,  D. Neuhauser,  E. Neuscamman,  
 C. M. Oana,  R. Olson,  B. Peters,  R. Peverati,  P. A. Pieniazek,  
 Y. M. Rhee,  J. Ritchie,  M. A. Rohrdanz,  E. Rosta,  N. J. Russ,  
 H. F. Schaefer III,  N. E. Schultz,  N. Shenvi,  A. C. Simmonett,  A. Sodt,  
 D. Stuck,  K. S. Thanthiriwatte,  V. Vanovschi,  Tao Wang,  A. Warshel,  
 C. F. Williams,  Q. Wu,  X. Xu,  W. Zhang

 Please cite Q-Chem as follows:
 Y. Shao et al., Mol. Phys. 113, 184-215 (2015)
 DOI: 10.1080/00268976.2014.952696

 Q-Chem 5.1.1 for Intel X86 EM64T Linux

 Parts of Q-Chem use Armadillo 8.300.2 (Tropical Shenanigans).
 http://arma.sourceforge.net/

 Q-Chem begins on Sat Oct  3 02:00:14 2020  

Host: n0080.mhg0
0

     Scratch files written to /local/scratch/users/yhljason/C2H4_wB97X-2TQZ_aug-cc-pcVTZ.inp20201003015113//
The previous job contains 0 fragments, simply inherited here
Input Ideriv = 0
Curr. Ideriv = -1
Max.  Ideriv = 0
Analytic post-HF gradients are not available with non-HF exchange
Input Ideriv = 0
Curr. Ideriv = 0
Max.  Ideriv = 0

Checking the input file for inconsistencies... 	...done.

--------------------------------------------------------------
User input:
--------------------------------------------------------------
$molecule
read
$end

$rem

jobtype sp
method wB97X-2(TQZ)
xc_grid 000099000590
basis aug-cc-pcVTZ
max_scf_cycles 200
thresh 14
scf_convergence 8
mem_total 128000
cc_memory 96000
cc_backend xm
mem_static 1500
symmetry false
sym_ignore true
scf_guess read
unrestricted false
scf_algorithm gdm
n_frozen_core 0
$end

$multipole_field
YY 0.0001
$end


--------------------------------------------------------------
 ----------------------------------------------------------------
             Standard Nuclear Orientation (Angstroms)
    I     Atom           X                Y                Z
 ----------------------------------------------------------------
    1      C       0.0000000000     0.0000000000     0.6695000000
    2      C       0.0000000000     0.0000000000    -0.6695000000
    3      H       0.0000000000     0.9289000000     1.2321000000
    4      H       0.0000000000    -0.9289000000     1.2321000000
    5      H       0.0000000000     0.9289000000    -1.2321000000
    6      H       0.0000000000    -0.9289000000    -1.2321000000
 ----------------------------------------------------------------
 Nuclear Repulsion Energy =    33.2650904736 hartrees
 There are        8 alpha and        8 beta electrons
 Requested basis set is aug-cc-pCVTZ
 There are 74 shells and 210 basis functions

 Total QAlloc Memory Limit 128000 MB
 Mega-Array Size      1467 MB
 MEM_STATIC part      1500 MB

                       Distance Matrix (Angstroms)
             C (  1)   C (  2)   H (  3)   H (  4)   H (  5)
   C (  2)  1.339000
   H (  3)  1.085990  2.116350
   H (  4)  1.085990  2.116350  1.857800
   H (  5)  2.116350  1.085990  2.464200  3.086050
   H (  6)  2.116350  1.085990  3.086050  2.464200  1.857800
 
 Applying Cartesian multipole field
    Component          Value
    ---------          -----
     (0,2,0)        1.00000E-04
 Nucleus-field energy     =     0.0012325248 hartrees
 A cutoff of  1.0D-14 yielded   2764 shell pairs
 There are     22372 function pairs (     28815 Cartesian)
 
 -------------------------------------------------------
 OpenMP Integral Computing Module                       
 Release: version 1.0, May 2013, Q-Chem Inc. Pittsburgh 
 -------------------------------------------------------
 Integral Job Info:
 Integral job number is                      11
 Integral operator is                         1
 short-range coefficients              63615800
 long-range coefficients              100000000
 Omega coefficients                         300
 if combine SR and LR in K                    1
 Integral screening is                        0
 Integral computing path is                   2
 max size of driver memory is            800000
 size of driver memory is                776718
 size of scratch memory is              6904264
 max col of scratch BK array              10000
 max len of scratch array in speh3          662
 max len of scratch index in speh4           32
 max int batch size is                      520
 min int batch size is                       52
 fixed nKL is                                52
 max L of basis functions is                  3
 order of int derivative is                   0
 number of shells is                         74
 number of basis is                         238
 number of cartesian basis is               238
 number of contracted shell pairs          2764
 number of primitive shell pairs           6149
 maxK2 (contraction) of shell pair           64
 max number of K2 of shell pair               1
 max number of CS2 of shell pair            494
 max number of PS2 of shell pair            672
 mem total for path MDJ                  579280
 -------------------------------------------------------
 Smallest overlap matrix eigenvalue = 5.05E-06
 Guess MOs from SCF MO coefficient file

 -----------------------------------------------------------------------
  General SCF calculation program by
  Eric Jon Sundstrom, Paul Horn, Yuezhi Mao, Dmitri Zuev, Alec White,
  David Stuck, Shaama M.S., Shane Yost, Joonho Lee, David Small,
  Daniel Levine, Susi Lehtola, Hugh Burton, Evgeny Epifanovsky
 -----------------------------------------------------------------------
 Exchange:     0.6362 Hartree-Fock + 1.0000 wB97X-2(TQZ) + LR-HF
 Correlation:  1.0000 wB97X-2(TQZ)
 Using Euler-Maclaurin-Lebedev (99,590) quadrature formula
 using 8 threads for integral computing
 -------------------------------------------------------
 OpenMP Integral computing Module                
 Release: version 1.0, May 2013, Q-Chem Inc. Pittsburgh 
 -------------------------------------------------------
 using 8 threads for integral computing
 -------------------------------------------------------
 OpenMP Integral computing Module                
 Release: version 1.0, May 2013, Q-Chem Inc. Pittsburgh 
 -------------------------------------------------------
 -------------------------------------------------------
 OpenMP BLAS3 based DFT computing Module                
 Release: version 1.0, May 2013, Q-Chem Inc. Pittsburgh 
 -------------------------------------------------------
 A restricted SCF calculation will be
 performed using GDM
 SCF converges when RMS gradient is below 1.0e-08
 ---------------------------------------
  Cycle       Energy        RMS Gradient
 ---------------------------------------
    1     -78.3504324840      6.45e-04   Normal BFGS step
    2     -78.3504337824      1.26e-04   Normal BFGS step
    3     -78.3504339553      2.87e-05   Normal BFGS step
    4     -78.3504339608      8.07e-06   Normal BFGS step
    5     -78.3504339612      1.40e-06   Normal BFGS step
    6     -78.3504339612      2.30e-07   Normal BFGS step
    7     -78.3504339612      3.47e-08   Normal BFGS step
    8     -78.3504339612      7.80e-09  Convergence criterion met
 ---------------------------------------
 SCF time:   CPU 513.85s  wall 65.00s 
 SCF   energy in the final basis set =      -78.3504339612
 Total energy in the final basis set =      -78.3504339612
 
 Components of the MP2 correlation energy:
        aaaa  correlation energy =        -0.0229090195 au
        abab  correlation energy =        -0.1687136543 au
        bbbb  correlation energy =        -0.0229090195 au
        non-Brillouin singles    =        -0.0000000000 au

 Total  MP2   correlation energy =                    -0.21453169 au
        MP2         total energy =                   -78.56496565 au
 
 --------------------------------------------------------------
 
                    Orbital Energies (a.u.)
 --------------------------------------------------------------
 
 Alpha MOs
 -- Occupied --
-10.817 -10.815  -0.971  -0.753  -0.619  -0.561  -0.490  -0.378
 -- Virtual --
  0.033   0.041   0.041   0.059   0.086   0.099   0.108   0.120
  0.140   0.143   0.157   0.174   0.185   0.191   0.232   0.235
  0.264   0.291   0.292   0.308   0.312   0.331   0.358   0.371
  0.377   0.388   0.388   0.390   0.406   0.424   0.430   0.435
  0.444   0.445   0.447   0.496   0.515   0.576   0.582   0.589
  0.633   0.690   0.727   0.760   0.771   0.795   0.807   0.836
  0.867   0.877   0.880   0.893   0.904   0.904   0.910   0.924
  0.934   0.946   0.967   0.981   0.983   0.983   1.047   1.048
  1.060   1.064   1.067   1.092   1.105   1.112   1.122   1.138
  1.233   1.257   1.261   1.326   1.366   1.398   1.418   1.450
  1.528   1.542   1.562   1.565   1.622   1.643   1.648   1.726
  1.729   1.735   1.751   1.772   1.777   1.867   1.902   1.939
  1.977   2.002   2.030   2.064   2.067   2.071   2.172   2.220
  2.240   2.290   2.377   2.538   2.702   2.889   2.911   3.063
  3.076   3.155   3.174   3.201   3.217   3.330   3.354   3.367
  3.376   3.429   3.457   3.481   3.584   3.604   3.608   3.621
  3.654   3.680   3.726   3.754   3.873   3.898   3.910   3.962
  4.001   4.016   4.097   4.194   4.227   4.235   4.235   4.285
  4.407   4.418   4.426   4.599   4.605   4.644   4.647   4.727
  4.794   4.809   4.814   4.842   4.857   4.955   5.049   5.146
  5.161   5.170   5.194   5.382   5.450   5.454   5.491   5.834
  5.851   5.952   6.389   6.405   6.520   6.537   6.829   7.055
 15.419  15.813  16.480  16.571  16.583  16.619  17.177  17.947
 41.098  41.133  41.154  41.174  41.226  41.373  41.393  41.408
 41.464  41.648  80.633  80.928  81.412  81.477  81.484  81.549
 86.307  87.690
 --------------------------------------------------------------
 
          Ground-State Mulliken Net Atomic Charges

     Atom                 Charge (a.u.)
  ----------------------------------------
      1 C                    -0.954908
      2 C                    -0.954908
      3 H                     0.477454
      4 H                     0.477454
      5 H                     0.477454
      6 H                     0.477454
  ----------------------------------------
  Sum of atomic charges =     0.000000

 -----------------------------------------------------------------
                    Cartesian Multipole Moments
 -----------------------------------------------------------------
    Charge (ESU x 10^10)
                 0.0000
    Dipole Moment (Debye)
         X       0.0000      Y      -0.0000      Z      -0.0000
       Tot       0.0000
    Quadrupole Moments (Debye-Ang)
        XX     -16.0414     XY      -0.0000     YY     -12.4584
        XZ      -0.0000     YZ      -0.0000     ZZ     -12.3161
    Octopole Moments (Debye-Ang^2)
       XXX       0.0000    XXY      -0.0000    XYY      -0.0000
       YYY      -0.0000    XXZ      -0.0000    XYZ      -0.0000
       YYZ      -0.0000    XZZ      -0.0000    YZZ      -0.0000
       ZZZ      -0.0000
    Hexadecapole Moments (Debye-Ang^3)
      XXXX     -20.8440   XXXY      -0.0000   XXYY      -8.9089
      XYYY       0.0000   YYYY     -27.5907   XXXZ      -0.0000
      XXYZ      -0.0000   XYYZ      -0.0000   YYYZ      -0.0000
      XXZZ     -15.9650   XYZZ       0.0000   YYZZ     -13.4362
      XZZZ      -0.0000   YZZZ      -0.0000   ZZZZ     -69.5539
 -----------------------------------------------------------------
Archival summary:
1\1\n0080.mhg0\SP\ProcedureUnspecified\BasisUnspecified\24\yhljason\SatOct302:02:112020SatOct302:02:112020\0\\#,ProcedureUnspecified,BasisUnspecified,\\0,1\C\H,1,1.08599\H,1,1.08599,2,117.597\C,1,1.339,2,121.202,3,-180,0\H,4,1.08599,1,121.202,2,-0,0\H,4,1.08599,1,121.202,2,-180,0\\\@

 Total job time:  117.13s(wall), 923.81s(cpu) 
 Sat Oct  3 02:02:11 2020

        *************************************************************
        *                                                           *
        *  Thank you very much for using Q-Chem.  Have a nice day.  *
        *                                                           *
        *************************************************************


 
User input: 6 of 8 
 
Q-Chem Developer Version!
                  Welcome to Q-Chem
     A Quantum Leap Into The Future Of Chemistry


 Q-Chem 5.1, Q-Chem, Inc., Pleasanton, CA (2018)

 Yihan Shao,  Zhengting Gan,  E. Epifanovsky,  A. T. B. Gilbert,  M. Wormit,  
 J. Kussmann,  A. W. Lange,  A. Behn,  Jia Deng,  Xintian Feng,  D. Ghosh,  
 M. Goldey,  P. R. Horn,  L. D. Jacobson,  I. Kaliman,  T. Kus,  A. Landau,  
 Jie Liu,  E. I. Proynov,  R. M. Richard,  R. P. Steele,  E. J. Sundstrom,  
 H. L. Woodcock III,  P. M. Zimmerman,  D. Zuev,  B. Albrecht,  E. Alguire,  
 S. A. Baeppler,  D. Barton,  Z. Benda,  Y. A. Bernard,  E. J. Berquist,  
 K. B. Bravaya,  H. Burton,  D. Casanova,  Chun-Min Chang,  Yunqing Chen,  
 A. Chien,  K. D. Closser,  M. P. Coons,  S. Coriani,  S. Dasgupta,  
 A. L. Dempwolff,  M. Diedenhofen,  Hainam Do,  R. G. Edgar,  Po-Tung Fang,  
 S. Faraji,  S. Fatehi,  Qingguo Feng,  K. D. Fenk,  J. Fosso-Tande,  
 Qinghui Ge,  A. Ghysels,  G. Gidofalvi,  J. Gomes,  J. Gonthier,  A. Gunina,  
 D. Hait,  M. W. D. Hanson-Heine,  P. H. P. Harbach,  A. W. Hauser,  
 J. E. Herr,  E. G. Hohenstein,  Z. C. Holden,  Kerwin Hui,  B. C. Huynh,  
 T.-C. Jagau,  Hyunjun Ji,  B. Kaduk,  K. Khistyaev,  Jaehoon Kim,  
 P. Klunzinger,  K. Koh,  D. Kosenkov,  L. Koulias,  T. Kowalczyk,  
 C. M. Krauter,  A. Kunitsa,  Ka Un Lao,  A. Laurent,  K. V. Lawler,  
 Joonho Lee,  D. Lefrancois,  S. Lehtola,  D. S. Levine,  Yi-Pei Li,  
 You-Sheng Lin,  Fenglai Liu,  E. Livshits,  A. Luenser,  P. Manohar,  
 E. Mansoor,  S. F. Manzer,  Shan-Ping Mao,  Yuezhi Mao,  N. Mardirossian,  
 A. V. Marenich,  T. Markovich,  L. A. Martinez-Martinez,  S. A. Maurer,  
 N. J. Mayhall,  S. C. McKenzie,  J.-M. Mewes,  A. F. Morrison,  
 J. W. Mullinax,  K. Nanda,  T. S. Nguyen-Beck,  R. Olivares-Amaya,  
 J. A. Parkhill,  T. M. Perrine,  F. Plasser,  P. Pokhilko,  S. Prager,  
 A. Prociuk,  E. Ramos,  D. R. Rehn,  F. Rob,  M. Schneider,  N. Sergueev,  
 S. M. Sharada,  S. Sharma,  D. W. Small,  T. Stauch,  T. Stein,  
 Yu-Chuan Su,  A. J. W. Thom,  A. Tkatchenko,  T. Tsuchimochi,  N. M. Tubman,  
 L. Vogt,  M. L. Vidal,  O. Vydrov,  M. A. Watson,  J. Wenzel,  
 M. de Wergifosse,  T. A. Wesolowski,  A. White,  J. Witte,  A. Yamada,  
 Jun Yang,  K. Yao,  S. Yeganeh,  S. R. Yost,  Zhi-Qiang You,  A. Zech,  
 Igor Ying Zhang,  Xing Zhang,  Yan Zhao,  Ying Zhu,  B. R. Brooks,  
 G. K. L. Chan,  C. J. Cramer,  M. S. Gordon,  W. J. Hehre,  A. Klamt,  
 M. W. Schmidt,  C. D. Sherrill,  D. G. Truhlar,  A. Aspuru-Guzik,  R. Baer,  
 A. T. Bell,  N. A. Besley,  Jeng-Da Chai,  A. E. DePrince, III,  
 R. A. DiStasio Jr.,  A. Dreuw,  B. D. Dunietz,  T. R. Furlani,  
 Chao-Ping Hsu,  Yousung Jung,  Jing Kong,  D. S. Lambrecht,  WanZhen Liang,  
 C. Ochsenfeld,  V. A. Rassolov,  L. V. Slipchenko,  J. E. Subotnik,  
 T. Van Voorhis,  J. M. Herbert,  A. I. Krylov,  P. M. W. Gill,  M. Head-Gordon

 Contributors to earlier versions of Q-Chem not listed above: 
 R. D. Adamson,  B. Austin,  J. Baker,  G. J. O. Beran,  K. Brandhorst,  
 S. T. Brown,  E. F. C. Byrd,  A. K. Chakraborty,  C.-L. Cheng,  
 Siu Hung Chien,  D. M. Chipman,  D. L. Crittenden,  H. Dachsel,  
 R. J. Doerksen,  A. D. Dutoi,  L. Fusti-Molnar,  W. A. Goddard III,  
 A. Golubeva-Zadorozhnaya,  S. R. Gwaltney,  G. Hawkins,  A. Heyden,  
 S. Hirata,  G. Kedziora,  F. J. Keil,  C. Kelley,  Jihan Kim,  R. A. King,  
 R. Z. Khaliullin,  P. P. Korambath,  W. Kurlancheek,  A. M. Lee,  M. S. Lee,  
 S. V. Levchenko,  Ching Yeh Lin,  D. Liotard,  R. C. Lochan,  I. Lotan,  
 P. E. Maslen,  N. Nair,  D. P. O'Neill,  D. Neuhauser,  E. Neuscamman,  
 C. M. Oana,  R. Olson,  B. Peters,  R. Peverati,  P. A. Pieniazek,  
 Y. M. Rhee,  J. Ritchie,  M. A. Rohrdanz,  E. Rosta,  N. J. Russ,  
 H. F. Schaefer III,  N. E. Schultz,  N. Shenvi,  A. C. Simmonett,  A. Sodt,  
 D. Stuck,  K. S. Thanthiriwatte,  V. Vanovschi,  Tao Wang,  A. Warshel,  
 C. F. Williams,  Q. Wu,  X. Xu,  W. Zhang

 Please cite Q-Chem as follows:
 Y. Shao et al., Mol. Phys. 113, 184-215 (2015)
 DOI: 10.1080/00268976.2014.952696

 Q-Chem 5.1.1 for Intel X86 EM64T Linux

 Parts of Q-Chem use Armadillo 8.300.2 (Tropical Shenanigans).
 http://arma.sourceforge.net/

 Q-Chem begins on Sat Oct  3 02:02:12 2020  

Host: n0080.mhg0
0

     Scratch files written to /local/scratch/users/yhljason/C2H4_wB97X-2TQZ_aug-cc-pcVTZ.inp20201003015113//
The previous job contains 0 fragments, simply inherited here
Input Ideriv = 0
Curr. Ideriv = -1
Max.  Ideriv = 0
Analytic post-HF gradients are not available with non-HF exchange
Input Ideriv = 0
Curr. Ideriv = 0
Max.  Ideriv = 0

Checking the input file for inconsistencies... 	...done.

--------------------------------------------------------------
User input:
--------------------------------------------------------------
$molecule
read
$end

$rem

jobtype sp
method wB97X-2(TQZ)
xc_grid 000099000590
basis aug-cc-pcVTZ
max_scf_cycles 200
thresh 14
scf_convergence 8
mem_total 128000
cc_memory 96000
cc_backend xm
mem_static 1500
symmetry false
sym_ignore true
scf_guess read
unrestricted false
scf_algorithm gdm
n_frozen_core 0
$end

$multipole_field
YY -0.0001
$end


--------------------------------------------------------------
 ----------------------------------------------------------------
             Standard Nuclear Orientation (Angstroms)
    I     Atom           X                Y                Z
 ----------------------------------------------------------------
    1      C       0.0000000000     0.0000000000     0.6695000000
    2      C       0.0000000000     0.0000000000    -0.6695000000
    3      H       0.0000000000     0.9289000000     1.2321000000
    4      H       0.0000000000    -0.9289000000     1.2321000000
    5      H       0.0000000000     0.9289000000    -1.2321000000
    6      H       0.0000000000    -0.9289000000    -1.2321000000
 ----------------------------------------------------------------
 Nuclear Repulsion Energy =    33.2650904736 hartrees
 There are        8 alpha and        8 beta electrons
 Requested basis set is aug-cc-pCVTZ
 There are 74 shells and 210 basis functions

 Total QAlloc Memory Limit 128000 MB
 Mega-Array Size      1467 MB
 MEM_STATIC part      1500 MB

                       Distance Matrix (Angstroms)
             C (  1)   C (  2)   H (  3)   H (  4)   H (  5)
   C (  2)  1.339000
   H (  3)  1.085990  2.116350
   H (  4)  1.085990  2.116350  1.857800
   H (  5)  2.116350  1.085990  2.464200  3.086050
   H (  6)  2.116350  1.085990  3.086050  2.464200  1.857800
 
 Applying Cartesian multipole field
    Component          Value
    ---------          -----
     (0,2,0)       -1.00000E-04
 Nucleus-field energy     =    -0.0012325248 hartrees
 A cutoff of  1.0D-14 yielded   2764 shell pairs
 There are     22372 function pairs (     28815 Cartesian)
 
 -------------------------------------------------------
 OpenMP Integral Computing Module                       
 Release: version 1.0, May 2013, Q-Chem Inc. Pittsburgh 
 -------------------------------------------------------
 Integral Job Info:
 Integral job number is                      11
 Integral operator is                         1
 short-range coefficients              63615800
 long-range coefficients              100000000
 Omega coefficients                         300
 if combine SR and LR in K                    1
 Integral screening is                        0
 Integral computing path is                   2
 max size of driver memory is            800000
 size of driver memory is                776718
 size of scratch memory is              6904264
 max col of scratch BK array              10000
 max len of scratch array in speh3          662
 max len of scratch index in speh4           32
 max int batch size is                      520
 min int batch size is                       52
 fixed nKL is                                52
 max L of basis functions is                  3
 order of int derivative is                   0
 number of shells is                         74
 number of basis is                         238
 number of cartesian basis is               238
 number of contracted shell pairs          2764
 number of primitive shell pairs           6149
 maxK2 (contraction) of shell pair           64
 max number of K2 of shell pair               1
 max number of CS2 of shell pair            494
 max number of PS2 of shell pair            672
 mem total for path MDJ                  579280
 -------------------------------------------------------
 Smallest overlap matrix eigenvalue = 5.05E-06
 Guess MOs from SCF MO coefficient file

 -----------------------------------------------------------------------
  General SCF calculation program by
  Eric Jon Sundstrom, Paul Horn, Yuezhi Mao, Dmitri Zuev, Alec White,
  David Stuck, Shaama M.S., Shane Yost, Joonho Lee, David Small,
  Daniel Levine, Susi Lehtola, Hugh Burton, Evgeny Epifanovsky
 -----------------------------------------------------------------------
 Exchange:     0.6362 Hartree-Fock + 1.0000 wB97X-2(TQZ) + LR-HF
 Correlation:  1.0000 wB97X-2(TQZ)
 Using Euler-Maclaurin-Lebedev (99,590) quadrature formula
 using 8 threads for integral computing
 -------------------------------------------------------
 OpenMP Integral computing Module                
 Release: version 1.0, May 2013, Q-Chem Inc. Pittsburgh 
 -------------------------------------------------------
 using 8 threads for integral computing
 -------------------------------------------------------
 OpenMP Integral computing Module                
 Release: version 1.0, May 2013, Q-Chem Inc. Pittsburgh 
 -------------------------------------------------------
 -------------------------------------------------------
 OpenMP BLAS3 based DFT computing Module                
 Release: version 1.0, May 2013, Q-Chem Inc. Pittsburgh 
 -------------------------------------------------------
 A restricted SCF calculation will be
 performed using GDM
 SCF converges when RMS gradient is below 1.0e-08
 ---------------------------------------
  Cycle       Energy        RMS Gradient
 ---------------------------------------
    1     -78.3485814585      5.32e-04   Normal BFGS step
    2     -78.3485841007      2.48e-04   Normal BFGS step
    3     -78.3485843854      2.49e-05   Normal BFGS step
    4     -78.3485843959      5.58e-06   Normal BFGS step
    5     -78.3485843962      2.16e-06   Normal BFGS step
    6     -78.3485843962      3.96e-07   Normal BFGS step
    7     -78.3485843963      7.28e-08   Normal BFGS step
    8     -78.3485843962      1.27e-08   Normal BFGS step
    9     -78.3485843963      1.85e-09  Convergence criterion met
 ---------------------------------------
 SCF time:   CPU 569.21s  wall 72.00s 
 SCF   energy in the final basis set =      -78.3485843963
 Total energy in the final basis set =      -78.3485843963
 
 Components of the MP2 correlation energy:
        aaaa  correlation energy =        -0.0229084591 au
        abab  correlation energy =        -0.1687091674 au
        bbbb  correlation energy =        -0.0229084591 au
        non-Brillouin singles    =        -0.0000000000 au

 Total  MP2   correlation energy =                    -0.21452609 au
        MP2         total energy =                   -78.56311048 au
 
 --------------------------------------------------------------
 
                    Orbital Energies (a.u.)
 --------------------------------------------------------------
 
 Alpha MOs
 -- Occupied --
-10.816 -10.814  -0.970  -0.752  -0.618  -0.560  -0.489  -0.377
 -- Virtual --
  0.039   0.047   0.051   0.068   0.087   0.101   0.111   0.125
  0.145   0.151   0.158   0.181   0.188   0.193   0.234   0.238
  0.266   0.294   0.294   0.310   0.314   0.335   0.362   0.374
  0.378   0.391   0.391   0.392   0.409   0.426   0.432   0.438
  0.446   0.448   0.449   0.498   0.519   0.577   0.584   0.590
  0.634   0.693   0.728   0.762   0.772   0.798   0.810   0.838
  0.870   0.878   0.882   0.894   0.905   0.905   0.911   0.926
  0.935   0.947   0.969   0.982   0.985   0.985   1.049   1.050
  1.062   1.065   1.068   1.093   1.107   1.114   1.123   1.141
  1.235   1.258   1.263   1.327   1.367   1.400   1.419   1.451
  1.529   1.543   1.563   1.567   1.623   1.645   1.649   1.727
  1.730   1.736   1.752   1.773   1.778   1.868   1.904   1.941
  1.978   2.003   2.031   2.065   2.069   2.072   2.173   2.221
  2.242   2.292   2.378   2.539   2.703   2.890   2.912   3.064
  3.077   3.156   3.175   3.202   3.218   3.331   3.355   3.368
  3.376   3.430   3.458   3.481   3.585   3.605   3.608   3.622
  3.655   3.681   3.727   3.755   3.874   3.899   3.911   3.963
  4.002   4.017   4.098   4.195   4.228   4.236   4.237   4.285
  4.408   4.419   4.427   4.600   4.606   4.645   4.648   4.727
  4.795   4.810   4.815   4.843   4.858   4.956   5.050   5.147
  5.162   5.171   5.195   5.383   5.451   5.455   5.492   5.835
  5.852   5.953   6.390   6.406   6.521   6.538   6.830   7.056
 15.420  15.814  16.481  16.572  16.584  16.619  17.178  17.948
 41.099  41.134  41.155  41.175  41.227  41.374  41.394  41.409
 41.465  41.649  80.634  80.929  81.413  81.478  81.484  81.550
 86.308  87.690
 --------------------------------------------------------------
 
          Ground-State Mulliken Net Atomic Charges

     Atom                 Charge (a.u.)
  ----------------------------------------
      1 C                    -0.955845
      2 C                    -0.955845
      3 H                     0.477923
      4 H                     0.477923
      5 H                     0.477923
      6 H                     0.477923
  ----------------------------------------
  Sum of atomic charges =     0.000000

 -----------------------------------------------------------------
                    Cartesian Multipole Moments
 -----------------------------------------------------------------
    Charge (ESU x 10^10)
                 0.0000
    Dipole Moment (Debye)
         X      -0.0000      Y      -0.0000      Z       0.0000
       Tot       0.0000
    Quadrupole Moments (Debye-Ang)
        XX     -16.0379     XY       0.0000     YY     -12.4189
        XZ       0.0000     YZ      -0.0000     ZZ     -12.3095
    Octopole Moments (Debye-Ang^2)
       XXX      -0.0000    XXY      -0.0000    XYY      -0.0000
       YYY      -0.0000    XXZ       0.0000    XYZ      -0.0000
       YYZ       0.0000    XZZ      -0.0000    YZZ      -0.0000
       ZZZ       0.0000
    Hexadecapole Moments (Debye-Ang^3)
      XXXX     -20.8282   XXXY      -0.0000   XXYY      -8.8837
      XYYY      -0.0000   YYYY     -27.4243   XXXZ       0.0000
      XXYZ       0.0000   XYYZ       0.0000   YYYZ       0.0000
      XXZZ     -15.9573   XYZZ       0.0000   YYZZ     -13.3630
      XZZZ       0.0000   YZZZ      -0.0000   ZZZZ     -69.5160
 -----------------------------------------------------------------
Archival summary:
1\1\n0080.mhg0\SP\ProcedureUnspecified\BasisUnspecified\24\yhljason\SatOct302:04:152020SatOct302:04:152020\0\\#,ProcedureUnspecified,BasisUnspecified,\\0,1\C\H,1,1.08599\H,1,1.08599,2,117.597\C,1,1.339,2,121.202,3,-180,0\H,4,1.08599,1,121.202,2,-0,0\H,4,1.08599,1,121.202,2,-180,0\\\@

 Total job time:  123.87s(wall), 978.51s(cpu) 
 Sat Oct  3 02:04:15 2020

        *************************************************************
        *                                                           *
        *  Thank you very much for using Q-Chem.  Have a nice day.  *
        *                                                           *
        *************************************************************


 
User input: 7 of 8 
 
Q-Chem Developer Version!
                  Welcome to Q-Chem
     A Quantum Leap Into The Future Of Chemistry


 Q-Chem 5.1, Q-Chem, Inc., Pleasanton, CA (2018)

 Yihan Shao,  Zhengting Gan,  E. Epifanovsky,  A. T. B. Gilbert,  M. Wormit,  
 J. Kussmann,  A. W. Lange,  A. Behn,  Jia Deng,  Xintian Feng,  D. Ghosh,  
 M. Goldey,  P. R. Horn,  L. D. Jacobson,  I. Kaliman,  T. Kus,  A. Landau,  
 Jie Liu,  E. I. Proynov,  R. M. Richard,  R. P. Steele,  E. J. Sundstrom,  
 H. L. Woodcock III,  P. M. Zimmerman,  D. Zuev,  B. Albrecht,  E. Alguire,  
 S. A. Baeppler,  D. Barton,  Z. Benda,  Y. A. Bernard,  E. J. Berquist,  
 K. B. Bravaya,  H. Burton,  D. Casanova,  Chun-Min Chang,  Yunqing Chen,  
 A. Chien,  K. D. Closser,  M. P. Coons,  S. Coriani,  S. Dasgupta,  
 A. L. Dempwolff,  M. Diedenhofen,  Hainam Do,  R. G. Edgar,  Po-Tung Fang,  
 S. Faraji,  S. Fatehi,  Qingguo Feng,  K. D. Fenk,  J. Fosso-Tande,  
 Qinghui Ge,  A. Ghysels,  G. Gidofalvi,  J. Gomes,  J. Gonthier,  A. Gunina,  
 D. Hait,  M. W. D. Hanson-Heine,  P. H. P. Harbach,  A. W. Hauser,  
 J. E. Herr,  E. G. Hohenstein,  Z. C. Holden,  Kerwin Hui,  B. C. Huynh,  
[...]
 
 --------------------------------------------------------------
 
                    Orbital Energies (a.u.)
 --------------------------------------------------------------
 
 Alpha MOs
 -- Occupied --
-10.817 -10.815  -0.971  -0.753  -0.619  -0.562  -0.490  -0.378
 -- Virtual --
  0.034   0.039   0.044   0.058   0.085   0.099   0.106   0.118
  0.141   0.145   0.156   0.174   0.183   0.191   0.232   0.235
  0.264   0.290   0.291   0.308   0.310   0.332   0.358   0.371
  0.376   0.388   0.389   0.390   0.406   0.423   0.430   0.435
  0.444   0.445   0.446   0.495   0.515   0.576   0.582   0.587
  0.632   0.690   0.727   0.760   0.771   0.795   0.808   0.836
  0.867   0.877   0.880   0.892   0.903   0.904   0.909   0.924
  0.934   0.946   0.967   0.980   0.982   0.983   1.047   1.048
  1.061   1.063   1.066   1.092   1.105   1.112   1.122   1.138
  1.233   1.256   1.261   1.325   1.366   1.398   1.417   1.450
  1.528   1.542   1.561   1.565   1.621   1.643   1.647   1.726
  1.728   1.734   1.751   1.772   1.777   1.867   1.902   1.939
  1.977   2.002   2.030   2.064   2.068   2.071   2.171   2.220
  2.240   2.290   2.376   2.538   2.702   2.889   2.911   3.063
  3.076   3.155   3.173   3.201   3.217   3.330   3.354   3.367
  3.375   3.429   3.457   3.480   3.584   3.604   3.607   3.621
  3.654   3.680   3.726   3.754   3.873   3.898   3.910   3.962
  4.001   4.016   4.097   4.193   4.227   4.235   4.235   4.284
  4.407   4.417   4.426   4.599   4.605   4.644   4.647   4.726
  4.794   4.809   4.813   4.842   4.856   4.954   5.049   5.145
  5.161   5.170   5.193   5.382   5.449   5.454   5.491   5.834
  5.851   5.952   6.388   6.405   6.519   6.537   6.829   7.055
 15.419  15.812  16.480  16.570  16.583  16.618  17.177  17.947
 41.098  41.133  41.154  41.174  41.226  41.373  41.393  41.408
 41.463  41.647  80.633  80.928  81.412  81.477  81.483  81.549
 86.307  87.689
 --------------------------------------------------------------
 
          Ground-State Mulliken Net Atomic Charges

     Atom                 Charge (a.u.)
  ----------------------------------------
      1 C                    -0.954075
      2 C                    -0.954075
      3 H                     0.477038
      4 H                     0.477038
      5 H                     0.477038
      6 H                     0.477038
  ----------------------------------------
  Sum of atomic charges =     0.000000

 -----------------------------------------------------------------
                    Cartesian Multipole Moments
 -----------------------------------------------------------------
    Charge (ESU x 10^10)
                 0.0000
    Dipole Moment (Debye)
         X      -0.0000      Y       0.0000      Z       0.0000
       Tot       0.0000
    Quadrupole Moments (Debye-Ang)
        XX     -16.0401     XY      -0.0000     YY     -12.4419
        XZ       0.0000     YZ       0.0000     ZZ     -12.3486
    Octopole Moments (Debye-Ang^2)
       XXX      -0.0000    XXY       0.0000    XYY      -0.0000
       YYY       0.0000    XXZ       0.0000    XYZ      -0.0000
       YYZ       0.0000    XZZ      -0.0000    YZZ       0.0000
       ZZZ       0.0000
    Hexadecapole Moments (Debye-Ang^3)
      XXXX     -20.8389   XXXY      -0.0000   XXYY      -8.8986
      XYYY      -0.0000   YYYY     -27.5201   XXXZ       0.0000
      XXYZ       0.0000   XYYZ       0.0000   YYYZ       0.0000
      XXZZ     -15.9833   XYZZ      -0.0000   YYZZ     -13.4403
      XZZZ      -0.0000   YZZZ       0.0000   ZZZZ     -69.7347
 -----------------------------------------------------------------
Archival summary:
1\1\n0080.mhg0\SP\ProcedureUnspecified\BasisUnspecified\24\yhljason\SatOct302:06:122020SatOct302:06:122020\0\\#,ProcedureUnspecified,BasisUnspecified,\\0,1\C\H,1,1.08599\H,1,1.08599,2,117.597\C,1,1.339,2,121.202,3,-180,0\H,4,1.08599,1,121.202,2,-0,0\H,4,1.08599,1,121.202,2,-180,0\\\@

 Total job time:  116.71s(wall), 923.66s(cpu) 
 Sat Oct  3 02:06:12 2020

        *************************************************************
        *                                                           *
        *  Thank you very much for using Q-Chem.  Have a nice day.  *
        *                                                           *
        *************************************************************


 
User input: 8 of 8 
 
Q-Chem Developer Version!
                  Welcome to Q-Chem
     A Quantum Leap Into The Future Of Chemistry


 Q-Chem 5.1, Q-Chem, Inc., Pleasanton, CA (2018)

 Yihan Shao,  Zhengting Gan,  E. Epifanovsky,  A. T. B. Gilbert,  M. Wormit,  
 J. Kussmann,  A. W. Lange,  A. Behn,  Jia Deng,  Xintian Feng,  D. Ghosh,  
 M. Goldey,  P. R. Horn,  L. D. Jacobson,  I. Kaliman,  T. Kus,  A. Landau,  
 Jie Liu,  E. I. Proynov,  R. M. Richard,  R. P. Steele,  E. J. Sundstrom,  
 H. L. Woodcock III,  P. M. Zimmerman,  D. Zuev,  B. Albrecht,  E. Alguire,  
 S. A. Baeppler,  D. Barton,  Z. Benda,  Y. A. Bernard,  E. J. Berquist,  
 K. B. Bravaya,  H. Burton,  D. Casanova,  Chun-Min Chang,  Yunqing Chen,  
 A. Chien,  K. D. Closser,  M. P. Coons,  S. Coriani,  S. Dasgupta,  
 A. L. Dempwolff,  M. Diedenhofen,  Hainam Do,  R. G. Edgar,  Po-Tung Fang,  
 S. Faraji,  S. Fatehi,  Qingguo Feng,  K. D. Fenk,  J. Fosso-Tande,  
 Qinghui Ge,  A. Ghysels,  G. Gidofalvi,  J. Gomes,  J. Gonthier,  A. Gunina,  
 D. Hait,  M. W. D. Hanson-Heine,  P. H. P. Harbach,  A. W. Hauser,  
 J. E. Herr,  E. G. Hohenstein,  Z. C. Holden,  Kerwin Hui,  B. C. Huynh,  
 T.-C. Jagau,  Hyunjun Ji,  B. Kaduk,  K. Khistyaev,  Jaehoon Kim,  
 P. Klunzinger,  K. Koh,  D. Kosenkov,  L. Koulias,  T. Kowalczyk,  
 C. M. Krauter,  A. Kunitsa,  Ka Un Lao,  A. Laurent,  K. V. Lawler,  
 Joonho Lee,  D. Lefrancois,  S. Lehtola,  D. S. Levine,  Yi-Pei Li,  
 You-Sheng Lin,  Fenglai Liu,  E. Livshits,  A. Luenser,  P. Manohar,  
 E. Mansoor,  S. F. Manzer,  Shan-Ping Mao,  Yuezhi Mao,  N. Mardirossian,  
 A. V. Marenich,  T. Markovich,  L. A. Martinez-Martinez,  S. A. Maurer,  
 N. J. Mayhall,  S. C. McKenzie,  J.-M. Mewes,  A. F. Morrison,  
 J. W. Mullinax,  K. Nanda,  T. S. Nguyen-Beck,  R. Olivares-Amaya,  
 J. A. Parkhill,  T. M. Perrine,  F. Plasser,  P. Pokhilko,  S. Prager,  
 A. Prociuk,  E. Ramos,  D. R. Rehn,  F. Rob,  M. Schneider,  N. Sergueev,  
 S. M. Sharada,  S. Sharma,  D. W. Small,  T. Stauch,  T. Stein,  
 Yu-Chuan Su,  A. J. W. Thom,  A. Tkatchenko,  T. Tsuchimochi,  N. M. Tubman,  
 L. Vogt,  M. L. Vidal,  O. Vydrov,  M. A. Watson,  J. Wenzel,  
 M. de Wergifosse,  T. A. Wesolowski,  A. White,  J. Witte,  A. Yamada,  
 Jun Yang,  K. Yao,  S. Yeganeh,  S. R. Yost,  Zhi-Qiang You,  A. Zech,  
 Igor Ying Zhang,  Xing Zhang,  Yan Zhao,  Ying Zhu,  B. R. Brooks,  
 G. K. L. Chan,  C. J. Cramer,  M. S. Gordon,  W. J. Hehre,  A. Klamt,  
 M. W. Schmidt,  C. D. Sherrill,  D. G. Truhlar,  A. Aspuru-Guzik,  R. Baer,  
 A. T. Bell,  N. A. Besley,  Jeng-Da Chai,  A. E. DePrince, III,  
 R. A. DiStasio Jr.,  A. Dreuw,  B. D. Dunietz,  T. R. Furlani,  
 Chao-Ping Hsu,  Yousung Jung,  Jing Kong,  D. S. Lambrecht,  WanZhen Liang,  
 C. Ochsenfeld,  V. A. Rassolov,  L. V. Slipchenko,  J. E. Subotnik,  
 T. Van Voorhis,  J. M. Herbert,  A. I. Krylov,  P. M. W. Gill,  M. Head-Gordon

 Contributors to earlier versions of Q-Chem not listed above: 
 R. D. Adamson,  B. Austin,  J. Baker,  G. J. O. Beran,  K. Brandhorst,  
 S. T. Brown,  E. F. C. Byrd,  A. K. Chakraborty,  C.-L. Cheng,  
 Siu Hung Chien,  D. M. Chipman,  D. L. Crittenden,  H. Dachsel,  
 R. J. Doerksen,  A. D. Dutoi,  L. Fusti-Molnar,  W. A. Goddard III,  
 A. Golubeva-Zadorozhnaya,  S. R. Gwaltney,  G. Hawkins,  A. Heyden,  
 S. Hirata,  G. Kedziora,  F. J. Keil,  C. Kelley,  Jihan Kim,  R. A. King,  
 R. Z. Khaliullin,  P. P. Korambath,  W. Kurlancheek,  A. M. Lee,  M. S. Lee,  
 S. V. Levchenko,  Ching Yeh Lin,  D. Liotard,  R. C. Lochan,  I. Lotan,  
 P. E. Maslen,  N. Nair,  D. P. O'Neill,  D. Neuhauser,  E. Neuscamman,  
 C. M. Oana,  R. Olson,  B. Peters,  R. Peverati,  P. A. Pieniazek,  
 Y. M. Rhee,  J. Ritchie,  M. A. Rohrdanz,  E. Rosta,  N. J. Russ,  
 H. F. Schaefer III,  N. E. Schultz,  N. Shenvi,  A. C. Simmonett,  A. Sodt,  
 D. Stuck,  K. S. Thanthiriwatte,  V. Vanovschi,  Tao Wang,  A. Warshel,  
 C. F. Williams,  Q. Wu,  X. Xu,  W. Zhang

 Please cite Q-Chem as follows:
 Y. Shao et al., Mol. Phys. 113, 184-215 (2015)
 DOI: 10.1080/00268976.2014.952696

 Q-Chem 5.1.1 for Intel X86 EM64T Linux

 Parts of Q-Chem use Armadillo 8.300.2 (Tropical Shenanigans).
 http://arma.sourceforge.net/

 Q-Chem begins on Sat Oct  3 02:06:13 2020  

Host: n0080.mhg0
0

     Scratch files written to /local/scratch/users/yhljason/C2H4_wB97X-2TQZ_aug-cc-pcVTZ.inp20201003015113//
The previous job contains 0 fragments, simply inherited here
Input Ideriv = 0
Curr. Ideriv = -1
Max.  Ideriv = 0
Analytic post-HF gradients are not available with non-HF exchange
Input Ideriv = 0
Curr. Ideriv = 0
Max.  Ideriv = 0

Checking the input file for inconsistencies... 	...done.

--------------------------------------------------------------
User input:
--------------------------------------------------------------
$molecule
read
$end

$rem

jobtype sp
method wB97X-2(TQZ)
xc_grid 000099000590
basis aug-cc-pcVTZ
max_scf_cycles 200
thresh 14
scf_convergence 8
mem_total 128000
cc_memory 96000
cc_backend xm
mem_static 1500
symmetry false
sym_ignore true
scf_guess read
unrestricted false
scf_algorithm gdm
n_frozen_core 0
$end

$multipole_field
ZZ -0.0001
$end

--------------------------------------------------------------
 ----------------------------------------------------------------
             Standard Nuclear Orientation (Angstroms)
    I     Atom           X                Y                Z
 ----------------------------------------------------------------
    1      C       0.0000000000     0.0000000000     0.6695000000
    2      C       0.0000000000     0.0000000000    -0.6695000000
    3      H       0.0000000000     0.9289000000     1.2321000000
    4      H       0.0000000000    -0.9289000000     1.2321000000
    5      H       0.0000000000     0.9289000000    -1.2321000000
    6      H       0.0000000000    -0.9289000000    -1.2321000000
 ----------------------------------------------------------------
 Nuclear Repulsion Energy =    33.2650904736 hartrees
 There are        8 alpha and        8 beta electrons
 Requested basis set is aug-cc-pCVTZ
 There are 74 shells and 210 basis functions

 Total QAlloc Memory Limit 128000 MB
 Mega-Array Size      1467 MB
 MEM_STATIC part      1500 MB

                       Distance Matrix (Angstroms)
             C (  1)   C (  2)   H (  3)   H (  4)   H (  5)
   C (  2)  1.339000
   H (  3)  1.085990  2.116350
   H (  4)  1.085990  2.116350  1.857800
   H (  5)  2.116350  1.085990  2.464200  3.086050
   H (  6)  2.116350  1.085990  3.086050  2.464200  1.857800
 
 Applying Cartesian multipole field
    Component          Value
    ---------          -----
     (0,0,2)       -1.00000E-04
 Nucleus-field energy     =    -0.0040892423 hartrees
 A cutoff of  1.0D-14 yielded   2764 shell pairs
 There are     22372 function pairs (     28815 Cartesian)
 
 -------------------------------------------------------
 OpenMP Integral Computing Module                       
 Release: version 1.0, May 2013, Q-Chem Inc. Pittsburgh 
 -------------------------------------------------------
 Integral Job Info:
 Integral job number is                      11
 Integral operator is                         1
 short-range coefficients              63615800
 long-range coefficients              100000000
 Omega coefficients                         300
 if combine SR and LR in K                    1
 Integral screening is                        0
 Integral computing path is                   2
 max size of driver memory is            800000
 size of driver memory is                776718
 size of scratch memory is              6904264
 max col of scratch BK array              10000
 max len of scratch array in speh3          662
 max len of scratch index in speh4           32
 max int batch size is                      520
 min int batch size is                       52
 fixed nKL is                                52
 max L of basis functions is                  3
 order of int derivative is                   0
 number of shells is                         74
 number of basis is                         238
 number of cartesian basis is               238
 number of contracted shell pairs          2764
 number of primitive shell pairs           6149
 maxK2 (contraction) of shell pair           64
 max number of K2 of shell pair               1
 max number of CS2 of shell pair            494
 max number of PS2 of shell pair            672
 mem total for path MDJ                  579280
 -------------------------------------------------------
 Smallest overlap matrix eigenvalue = 5.05E-06
 Guess MOs from SCF MO coefficient file

 -----------------------------------------------------------------------
  General SCF calculation program by
  Eric Jon Sundstrom, Paul Horn, Yuezhi Mao, Dmitri Zuev, Alec White,
  David Stuck, Shaama M.S., Shane Yost, Joonho Lee, David Small,
  Daniel Levine, Susi Lehtola, Hugh Burton, Evgeny Epifanovsky
 -----------------------------------------------------------------------
 Exchange:     0.6362 Hartree-Fock + 1.0000 wB97X-2(TQZ) + LR-HF
 Correlation:  1.0000 wB97X-2(TQZ)
 Using Euler-Maclaurin-Lebedev (99,590) quadrature formula
 using 8 threads for integral computing
 -------------------------------------------------------
 OpenMP Integral computing Module                
 Release: version 1.0, May 2013, Q-Chem Inc. Pittsburgh 
 -------------------------------------------------------
 using 8 threads for integral computing
 -------------------------------------------------------
 OpenMP Integral computing Module                
 Release: version 1.0, May 2013, Q-Chem Inc. Pittsburgh 
 -------------------------------------------------------
 -------------------------------------------------------
 OpenMP BLAS3 based DFT computing Module                
 Release: version 1.0, May 2013, Q-Chem Inc. Pittsburgh 
 -------------------------------------------------------
 A restricted SCF calculation will be
 performed using GDM
 SCF converges when RMS gradient is below 1.0e-08
 ---------------------------------------
  Cycle       Energy        RMS Gradient
 ---------------------------------------
    1     -78.3485890208      7.53e-04   Normal BFGS step
    2     -78.3485938003      3.21e-04   Normal BFGS step
    3     -78.3485943284      2.84e-05   Normal BFGS step
    4     -78.3485943462      1.04e-05   Normal BFGS step
    5     -78.3485943469      3.52e-06   Normal BFGS step
    6     -78.3485943469      5.69e-07   Normal BFGS step
    7     -78.3485943469      5.48e-08   Normal BFGS step
    8     -78.3485943469      1.13e-08   Normal BFGS step
    9     -78.3485943469      2.83e-09  Convergence criterion met
 ---------------------------------------
 SCF time:   CPU 571.70s  wall 73.00s 
 SCF   energy in the final basis set =      -78.3485943469
 Total energy in the final basis set =      -78.3485943469
 
 Components of the MP2 correlation energy:
        aaaa  correlation energy =        -0.0229077059 au
        abab  correlation energy =        -0.1687051041 au
        bbbb  correlation energy =        -0.0229077059 au
        non-Brillouin singles    =        -0.0000000000 au

 Total  MP2   correlation energy =                    -0.21452052 au
        MP2         total energy =                   -78.56311486 au
 
 --------------------------------------------------------------
 
                    Orbital Energies (a.u.)
 --------------------------------------------------------------
 
 Alpha MOs
 -- Occupied --
-10.815 -10.814  -0.970  -0.752  -0.618  -0.560  -0.489  -0.377
 -- Virtual --
  0.039   0.048   0.050   0.069   0.088   0.101   0.113   0.128
  0.145   0.149   0.159   0.181   0.190   0.192   0.234   0.239
  0.267   0.294   0.296   0.310   0.316   0.334   0.362   0.375
  0.379   0.391   0.391   0.392   0.409   0.427   0.432   0.438
  0.446   0.448   0.449   0.498   0.518   0.577   0.584   0.592
  0.635   0.693   0.729   0.763   0.772   0.798   0.809   0.838
  0.869   0.878   0.883   0.895   0.905   0.905   0.911   0.926
  0.935   0.948   0.969   0.982   0.985   0.985   1.049   1.050
  1.062   1.066   1.068   1.094   1.107   1.114   1.124   1.141
  1.235   1.258   1.263   1.328   1.367   1.400   1.419   1.451
  1.529   1.544   1.564   1.567   1.623   1.645   1.650   1.727
  1.730   1.737   1.752   1.773   1.779   1.869   1.904   1.941
  1.979   2.003   2.031   2.066   2.069   2.072   2.173   2.222
  2.242   2.292   2.378   2.540   2.703   2.890   2.913   3.064
  3.077   3.156   3.175   3.202   3.218   3.331   3.355   3.368
  3.377   3.430   3.458   3.482   3.585   3.605   3.609   3.622
  3.655   3.681   3.727   3.755   3.874   3.899   3.911   3.963
  4.002   4.018   4.099   4.195   4.228   4.236   4.237   4.286
  4.408   4.419   4.428   4.600   4.606   4.645   4.648   4.728
  4.795   4.810   4.815   4.843   4.858   4.956   5.051   5.147
  5.162   5.171   5.195   5.383   5.451   5.455   5.492   5.835
  5.852   5.953   6.390   6.406   6.521   6.538   6.830   7.056
 15.420  15.814  16.481  16.572  16.585  16.620  17.178  17.948
 41.099  41.135  41.156  41.176  41.227  41.374  41.394  41.410
 41.465  41.649  80.634  80.929  81.414  81.479  81.485  81.550
 86.308  87.691
 --------------------------------------------------------------
 
          Ground-State Mulliken Net Atomic Charges

     Atom                 Charge (a.u.)
  ----------------------------------------
      1 C                    -0.956578
      2 C                    -0.956578
      3 H                     0.478289
      4 H                     0.478289
      5 H                     0.478289
      6 H                     0.478289
  ----------------------------------------
  Sum of atomic charges =     0.000000

 -----------------------------------------------------------------
                    Cartesian Multipole Moments
 -----------------------------------------------------------------
    Charge (ESU x 10^10)
                 0.0000
    Dipole Moment (Debye)
         X      -0.0000      Y      -0.0000      Z       0.0000
       Tot       0.0000
    Quadrupole Moments (Debye-Ang)
        XX     -16.0392     XY      -0.0000     YY     -12.4354
        XZ       0.0000     YZ       0.0000     ZZ     -12.2771
    Octopole Moments (Debye-Ang^2)
       XXX       0.0000    XXY       0.0000    XYY      -0.0000
       YYY      -0.0000    XXZ       0.0000    XYZ      -0.0000
       YYZ       0.0000    XZZ      -0.0000    YZZ       0.0000
       ZZZ       0.0000
    Hexadecapole Moments (Debye-Ang^3)
      XXXX     -20.8333   XXXY      -0.0000   XXYY      -8.8940
      XYYY       0.0000   YYYY     -27.4944   XXXZ       0.0000
      XXYZ       0.0000   XYYZ       0.0000   YYYZ       0.0000
      XXZZ     -15.9391   XYZZ      -0.0000   YYZZ     -13.3589
      XZZZ       0.0000   YZZZ       0.0000   ZZZZ     -69.3366
 -----------------------------------------------------------------
Archival summary:
1\1\n0080.mhg0\SP\ProcedureUnspecified\BasisUnspecified\24\yhljason\SatOct302:08:172020SatOct302:08:172020\0\\#,ProcedureUnspecified,BasisUnspecified,\\0,1\C\H,1,1.08599\H,1,1.08599,2,117.597\C,1,1.339,2,121.202,3,-180,0\H,4,1.08599,1,121.202,2,-0,0\H,4,1.08599,1,121.202,2,-180,0\\\@

 Total job time:  124.83s(wall), 981.27s(cpu) 
 Sat Oct  3 02:08:17 2020

        *************************************************************
        *                                                           *
        *  Thank you very much for using Q-Chem.  Have a nice day.  *
        *                                                           *
        *************************************************************


