Q-Chem Developer Version!
                  Welcome to Q-Chem
     A Quantum Leap Into The Future Of Chemistry


 Q-Chem 5.1, Q-Chem, Inc., Pleasanton, CA (2018)

 Yihan Shao,  Zhengting Gan,  E. Epifanovsky,  A. T. B. Gilbert,  M. Wormit,  
 J. Kussmann,  A. W. Lange,  A. Behn,  Jia Deng,  Xintian Feng,  D. Ghosh,  
 M. Goldey,  P. R. Horn,  L. D. Jacobson,  I. Kaliman,  T. Kus,  A. Landau,  
 Jie Liu,  E. I. Proynov,  R. M. Richard,  R. P. Steele,  E. J. Sundstrom,  
 H. L. Woodcock III,  P. M. Zimmerman,  D. Zuev,  B. Albrecht,  E. Alguire,  
 S. A. Baeppler,  D. Barton,  Z. Benda,  Y. A. Bernard,  E. J. Berquist,  
 K. B. Bravaya,  H. Burton,  D. Casanova,  Chun-Min Chang,  Yunqing Chen,  
 A. Chien,  K. D. Closser,  M. P. Coons,  S. Coriani,  S. Dasgupta,  
 A. L. Dempwolff,  M. Diedenhofen,  Hainam Do,  R. G. Edgar,  Po-Tung Fang,  
 S. Faraji,  S. Fatehi,  Qingguo Feng,  K. D. Fenk,  J. Fosso-Tande,  
 Qinghui Ge,  A. Ghysels,  G. Gidofalvi,  J. Gomes,  J. Gonthier,  A. Gunina,  
 D. Hait,  M. W. D. Hanson-Heine,  P. H. P. Harbach,  A. W. Hauser,  
 J. E. Herr,  E. G. Hohenstein,  Z. C. Holden,  Kerwin Hui,  B. C. Huynh,  
 T.-C. Jagau,  Hyunjun Ji,  B. Kaduk,  K. Khistyaev,  Jaehoon Kim,  
 P. Klunzinger,  K. Koh,  D. Kosenkov,  L. Koulias,  T. Kowalczyk,  
 C. M. Krauter,  A. Kunitsa,  Ka Un Lao,  A. Laurent,  K. V. Lawler,  
 Joonho Lee,  D. Lefrancois,  S. Lehtola,  D. S. Levine,  Yi-Pei Li,  
 You-Sheng Lin,  Fenglai Liu,  E. Livshits,  A. Luenser,  P. Manohar,  
 E. Mansoor,  S. F. Manzer,  Shan-Ping Mao,  Yuezhi Mao,  N. Mardirossian,  
 A. V. Marenich,  T. Markovich,  L. A. Martinez-Martinez,  S. A. Maurer,  
 N. J. Mayhall,  S. C. McKenzie,  J.-M. Mewes,  A. F. Morrison,  
 J. W. Mullinax,  K. Nanda,  T. S. Nguyen-Beck,  R. Olivares-Amaya,  
 J. A. Parkhill,  T. M. Perrine,  F. Plasser,  P. Pokhilko,  S. Prager,  
 A. Prociuk,  E. Ramos,  D. R. Rehn,  F. Rob,  M. Schneider,  N. Sergueev,  
 S. M. Sharada,  S. Sharma,  D. W. Small,  T. Stauch,  T. Stein,  
 Yu-Chuan Su,  A. J. W. Thom,  A. Tkatchenko,  T. Tsuchimochi,  N. M. Tubman,  
 L. Vogt,  M. L. Vidal,  O. Vydrov,  M. A. Watson,  J. Wenzel,  
 M. de Wergifosse,  T. A. Wesolowski,  A. White,  J. Witte,  A. Yamada,  
 Jun Yang,  K. Yao,  S. Yeganeh,  S. R. Yost,  Zhi-Qiang You,  A. Zech,  
 Igor Ying Zhang,  Xing Zhang,  Yan Zhao,  Ying Zhu,  B. R. Brooks,  
 G. K. L. Chan,  C. J. Cramer,  M. S. Gordon,  W. J. Hehre,  A. Klamt,  
 M. W. Schmidt,  C. D. Sherrill,  D. G. Truhlar,  A. Aspuru-Guzik,  R. Baer,  
 A. T. Bell,  N. A. Besley,  Jeng-Da Chai,  A. E. DePrince, III,  
 R. A. DiStasio Jr.,  A. Dreuw,  B. D. Dunietz,  T. R. Furlani,  
 Chao-Ping Hsu,  Yousung Jung,  Jing Kong,  D. S. Lambrecht,  WanZhen Liang,  
 C. Ochsenfeld,  V. A. Rassolov,  L. V. Slipchenko,  J. E. Subotnik,  
 T. Van Voorhis,  J. M. Herbert,  A. I. Krylov,  P. M. W. Gill,  M. Head-Gordon

 Contributors to earlier versions of Q-Chem not listed above: 
 R. D. Adamson,  B. Austin,  J. Baker,  G. J. O. Beran,  K. Brandhorst,  
 S. T. Brown,  E. F. C. Byrd,  A. K. Chakraborty,  C.-L. Cheng,  
 Siu Hung Chien,  D. M. Chipman,  D. L. Crittenden,  H. Dachsel,  
 R. J. Doerksen,  A. D. Dutoi,  L. Fusti-Molnar,  W. A. Goddard III,  
 A. Golubeva-Zadorozhnaya,  S. R. Gwaltney,  G. Hawkins,  A. Heyden,  
 S. Hirata,  G. Kedziora,  F. J. Keil,  C. Kelley,  Jihan Kim,  R. A. King,  
 R. Z. Khaliullin,  P. P. Korambath,  W. Kurlancheek,  A. M. Lee,  M. S. Lee,  
 S. V. Levchenko,  Ching Yeh Lin,  D. Liotard,  R. C. Lochan,  I. Lotan,  
 P. E. Maslen,  N. Nair,  D. P. O'Neill,  D. Neuhauser,  E. Neuscamman,  
 C. M. Oana,  R. Olson,  B. Peters,  R. Peverati,  P. A. Pieniazek,  
 Y. M. Rhee,  J. Ritchie,  M. A. Rohrdanz,  E. Rosta,  N. J. Russ,  
 H. F. Schaefer III,  N. E. Schultz,  N. Shenvi,  A. C. Simmonett,  A. Sodt,  
 D. Stuck,  K. S. Thanthiriwatte,  V. Vanovschi,  Tao Wang,  A. Warshel,  
 C. F. Williams,  Q. Wu,  X. Xu,  W. Zhang

 Please cite Q-Chem as follows:
 Y. Shao et al., Mol. Phys. 113, 184-215 (2015)
 DOI: 10.1080/00268976.2014.952696

 Q-Chem 5.1.1 for Intel X86 EM64T Linux

 Parts of Q-Chem use Armadillo 8.300.2 (Tropical Shenanigans).
 http://arma.sourceforge.net/

 Q-Chem begins on Sat Oct  3 01:51:16 2020  

Host: n0083.mhg0
0

     Scratch files written to /local/scratch/users/yhljason/CH2BH_wB97X-2TQZ_aug-cc-pcV5Z.inp20201003015114//
Input Ideriv = 0
Curr. Ideriv = -1
Max.  Ideriv = 0
Analytic post-HF gradients are not available with non-HF exchange
Input Ideriv = 0
Curr. Ideriv = 0
Max.  Ideriv = 0

Checking the input file for inconsistencies... 	...done.

--------------------------------------------------------------
User input:
--------------------------------------------------------------
$molecule
0 1
        C         0.0000000000    0.0000000000    0.5940000000
        B         0.0000000000    0.0000000000   -0.7886000000
        H         0.0000000000    0.9173000000    1.1687000000
        H         0.0000000000   -0.9173000000    1.1687000000
        H         0.0000000000    0.0000000000   -1.9586000000
$end

$rem
jobtype sp
method wB97X-2(TQZ)
xc_grid 000099000590
basis aug-cc-pcV5Z
max_scf_cycles 200
thresh 14
scf_convergence 8
scf_algorithm gdm
symmetry false
sym_ignore true
unrestricted false
gen_scfman true
internal_stability_iter 15
internal_stability_davidson_iter 200
mem_total 128000
cc_memory 96000
cc_backend xm
mem_static 1500
n_frozen_core 10000
$end



--------------------------------------------------------------
 ----------------------------------------------------------------
             Standard Nuclear Orientation (Angstroms)
    I     Atom           X                Y                Z
 ----------------------------------------------------------------
    1      C       0.0000000000     0.0000000000     0.5940000000
    2      B       0.0000000000     0.0000000000    -0.7886000000
    3      H       0.0000000000     0.9173000000     1.1687000000
    4      H       0.0000000000    -0.9173000000     1.1687000000
    5      H       0.0000000000     0.0000000000    -1.9586000000
 ----------------------------------------------------------------
 Nuclear Repulsion Energy =    23.9151802640 hartrees
 There are        7 alpha and        7 beta electrons
 Requested basis set is aug-cc-pCV5Z
 There are 142 shells and 602 basis functions

 Total QAlloc Memory Limit 128000 MB
 Mega-Array Size      1467 MB
 MEM_STATIC part      1500 MB

                       Distance Matrix (Angstroms)
             C (  1)   B (  2)   H (  3)   H (  4)
   B (  2)  1.382600
   H (  3)  1.082460  2.161588
   H (  4)  1.082460  2.161588  1.834600
   H (  5)  2.552600  1.170000  3.259056  3.259056
 
 A cutoff of  1.0D-14 yielded   9747 shell pairs
 There are    176809 function pairs (    327381 Cartesian)
 
 -------------------------------------------------------
 OpenMP Integral Computing Module                       
 Release: version 1.0, May 2013, Q-Chem Inc. Pittsburgh 
 -------------------------------------------------------
 Integral Job Info:
 Integral job number is                      11
 Integral operator is                         1
 short-range coefficients              63615800
 long-range coefficients              100000000
 Omega coefficients                         300
 if combine SR and LR in K                    1
 Integral screening is                        0
 Integral computing path is                   2
 max size of driver memory is           6400000
 size of driver memory is               5498286
 size of scratch memory is             29851430
 max col of scratch BK array             194481
 max len of scratch array in speh3         5572
 max len of scratch index in speh4           72
 max int batch size is                      520
 min int batch size is                       52
 fixed nKL is                                30
 max L of basis functions is                  5
 order of int derivative is                   0
 number of shells is                        142
 number of basis is                         817
 number of cartesian basis is               817
 number of contracted shell pairs          9747
 number of primitive shell pairs          16531
 maxK2 (contraction) of shell pair          100
 max number of K2 of shell pair               1
 max number of CS2 of shell pair           1064
 max number of PS2 of shell pair           1140
 mem total for path MDJ                 1586008
 -------------------------------------------------------
 Smallest overlap matrix eigenvalue = 9.36E-07
 Linear dependence detected in AO basis
 Number of orthogonalized atomic orbitals = 601
 Maximum deviation from orthogonality = 2.411E-10

 Scale SEOQF with 1.000000e-01/1.000000e-01/1.000000e-01

 Standard Electronic Orientation quadrupole field applied
 Nucleus-field energy     =    -0.0000000011 hartrees
 Guess from superposition of atomic densities
 Warning:  Energy on first SCF cycle will be non-variational
 SAD guess density has 14.000000 electrons

 -----------------------------------------------------------------------
  General SCF calculation program by
  Eric Jon Sundstrom, Paul Horn, Yuezhi Mao, Dmitri Zuev, Alec White,
  David Stuck, Shaama M.S., Shane Yost, Joonho Lee, David Small,
  Daniel Levine, Susi Lehtola, Hugh Burton, Evgeny Epifanovsky
 -----------------------------------------------------------------------
 Exchange:     0.6362 Hartree-Fock + 1.0000 wB97X-2(TQZ) + LR-HF
 Correlation:  1.0000 wB97X-2(TQZ)
 Using Euler-Maclaurin-Lebedev (99,590) quadrature formula
Running Object-Oriented RKS (RHF)
We will preform up to 15 macro iterations over saddle points until a stable solution is found
Energy prior to optimization (guess energy) = -64.441128104558
Begin Timing: Total SCF Calculation
Begin Timing: SCF Single Stationary Point Calculation
begin iterations for algorithm: GDM          
the SCF tolerance is set to 1.00e-08
    1     -64.4411281046      8.11e-02     00000  Normal BFGS step
    2     -64.4724672068      5.71e-02     00000  Normal BFGS step
    3     -64.4931393826      6.58e-03     00000  Normal BFGS step
    4     -64.4937498041      3.73e-03     00000  Normal BFGS step
    5     -64.4938748756      8.19e-04     00000  Normal BFGS step
    6     -64.4938812137      1.43e-04     00000  Normal BFGS step
    7     -64.4938817679      2.12e-05     00000  Normal BFGS step
    8     -64.4938817753      6.68e-06     00000  Normal BFGS step
    9     -64.4938817759      1.02e-06     00000  Normal BFGS step
   10     -64.4938817759      2.38e-07     00000  Normal BFGS step
   11     -64.4938817759      3.87e-08     00000  Normal BFGS step
   12     -64.4938817759      1.05e-08     00000  Normal BFGS step
   13     -64.4938817759      2.41e-09     00000 Convergence criterion met
Timing for Single Stationary Point: 14537.00s (wall), 112115.65s (cpu)
Begin Timing: Stability
===================================================
Beginning Test for Internal Stability
===================================================
generating davidson guess vectors based on koopmans excitations
    1      3.36e+00     00000 Davidson Iteration
    2      3.63e+00     00000 Davidson Iteration
    3      6.90e-01     00000 Davidson Iteration
    4      1.66e-01     00000 Davidson Iteration
    5      2.75e-02     00000 Davidson Iteration
    6      5.01e-03     00000 Davidson Iteration
    7      3.68e-03     00000 Davidson Iteration
    8      7.59e-04     00000 Davidson Iteration
    9      1.18e-04     00000 Davidson Iteration
   10      1.42e-05     00000 Davidson Iteration
   11      8.97e-04     00000 Davidson Iteration
   12      2.47e-04     00000 Davidson Iteration
   13      1.41e-04     00000 Davidson Iteration
   14      3.29e-05     00000 Davidson Converged
converged_eigenvalues
   0.4996
   0.9002
Threshold for negative eigenvalues: -1.0e-05
solution was a local minimum (stable)
===================================================
End Test for Internal Stability
===================================================
Our SCF solution is stable!
Timing for Total SCF: 49879.00s (wall), 390520.48s (cpu)
 Total energy in the final basis set =      -64.4938817759
    ==================================================
              The end of Object-Oriented SCFman       
    ==================================================

 Q-Chem fatal error occurred in module libmdc/qalloc.C, line 49:

 Illegal memory length in mega_alloc


 Please submit a crash report at q-chem.com/reporter 
 
 
 
User input: 2 of 2 
 
Q-Chem Developer Version!
                  Welcome to Q-Chem
     A Quantum Leap Into The Future Of Chemistry


 Q-Chem 5.1, Q-Chem, Inc., Pleasanton, CA (2018)

 Yihan Shao,  Zhengting Gan,  E. Epifanovsky,  A. T. B. Gilbert,  M. Wormit,  
 J. Kussmann,  A. W. Lange,  A. Behn,  Jia Deng,  Xintian Feng,  D. Ghosh,  
 M. Goldey,  P. R. Horn,  L. D. Jacobson,  I. Kaliman,  T. Kus,  A. Landau,  
 Jie Liu,  E. I. Proynov,  R. M. Richard,  R. P. Steele,  E. J. Sundstrom,  
 H. L. Woodcock III,  P. M. Zimmerman,  D. Zuev,  B. Albrecht,  E. Alguire,  
 S. A. Baeppler,  D. Barton,  Z. Benda,  Y. A. Bernard,  E. J. Berquist,  
 K. B. Bravaya,  H. Burton,  D. Casanova,  Chun-Min Chang,  Yunqing Chen,  
 A. Chien,  K. D. Closser,  M. P. Coons,  S. Coriani,  S. Dasgupta,  
 A. L. Dempwolff,  M. Diedenhofen,  Hainam Do,  R. G. Edgar,  Po-Tung Fang,  
 S. Faraji,  S. Fatehi,  Qingguo Feng,  K. D. Fenk,  J. Fosso-Tande,  
 Qinghui Ge,  A. Ghysels,  G. Gidofalvi,  J. Gomes,  J. Gonthier,  A. Gunina,  
 D. Hait,  M. W. D. Hanson-Heine,  P. H. P. Harbach,  A. W. Hauser,  
 J. E. Herr,  E. G. Hohenstein,  Z. C. Holden,  Kerwin Hui,  B. C. Huynh,  
 T.-C. Jagau,  Hyunjun Ji,  B. Kaduk,  K. Khistyaev,  Jaehoon Kim,  
 P. Klunzinger,  K. Koh,  D. Kosenkov,  L. Koulias,  T. Kowalczyk,  
 C. M. Krauter,  A. Kunitsa,  Ka Un Lao,  A. Laurent,  K. V. Lawler,  
 Joonho Lee,  D. Lefrancois,  S. Lehtola,  D. S. Levine,  Yi-Pei Li,  
 You-Sheng Lin,  Fenglai Liu,  E. Livshits,  A. Luenser,  P. Manohar,  
 E. Mansoor,  S. F. Manzer,  Shan-Ping Mao,  Yuezhi Mao,  N. Mardirossian,  
 A. V. Marenich,  T. Markovich,  L. A. Martinez-Martinez,  S. A. Maurer,  
 N. J. Mayhall,  S. C. McKenzie,  J.-M. Mewes,  A. F. Morrison,  
 J. W. Mullinax,  K. Nanda,  T. S. Nguyen-Beck,  R. Olivares-Amaya,  
 J. A. Parkhill,  T. M. Perrine,  F. Plasser,  P. Pokhilko,  S. Prager,  
 A. Prociuk,  E. Ramos,  D. R. Rehn,  F. Rob,  M. Schneider,  N. Sergueev,  
 S. M. Sharada,  S. Sharma,  D. W. Small,  T. Stauch,  T. Stein,  
 Yu-Chuan Su,  A. J. W. Thom,  A. Tkatchenko,  T. Tsuchimochi,  N. M. Tubman,  
 L. Vogt,  M. L. Vidal,  O. Vydrov,  M. A. Watson,  J. Wenzel,  
 M. de Wergifosse,  T. A. Wesolowski,  A. White,  J. Witte,  A. Yamada,  
 Jun Yang,  K. Yao,  S. Yeganeh,  S. R. Yost,  Zhi-Qiang You,  A. Zech,  
 Igor Ying Zhang,  Xing Zhang,  Yan Zhao,  Ying Zhu,  B. R. Brooks,  
 G. K. L. Chan,  C. J. Cramer,  M. S. Gordon,  W. J. Hehre,  A. Klamt,  
 M. W. Schmidt,  C. D. Sherrill,  D. G. Truhlar,  A. Aspuru-Guzik,  R. Baer,  
 A. T. Bell,  N. A. Besley,  Jeng-Da Chai,  A. E. DePrince, III,  
 R. A. DiStasio Jr.,  A. Dreuw,  B. D. Dunietz,  T. R. Furlani,  
 Chao-Ping Hsu,  Yousung Jung,  Jing Kong,  D. S. Lambrecht,  WanZhen Liang,  
 C. Ochsenfeld,  V. A. Rassolov,  L. V. Slipchenko,  J. E. Subotnik,  
 T. Van Voorhis,  J. M. Herbert,  A. I. Krylov,  P. M. W. Gill,  M. Head-Gordon

 Contributors to earlier versions of Q-Chem not listed above: 
 R. D. Adamson,  B. Austin,  J. Baker,  G. J. O. Beran,  K. Brandhorst,  
 S. T. Brown,  E. F. C. Byrd,  A. K. Chakraborty,  C.-L. Cheng,  
 Siu Hung Chien,  D. M. Chipman,  D. L. Crittenden,  H. Dachsel,  
 R. J. Doerksen,  A. D. Dutoi,  L. Fusti-Molnar,  W. A. Goddard III,  
 A. Golubeva-Zadorozhnaya,  S. R. Gwaltney,  G. Hawkins,  A. Heyden,  
 S. Hirata,  G. Kedziora,  F. J. Keil,  C. Kelley,  Jihan Kim,  R. A. King,  
 R. Z. Khaliullin,  P. P. Korambath,  W. Kurlancheek,  A. M. Lee,  M. S. Lee,  
 S. V. Levchenko,  Ching Yeh Lin,  D. Liotard,  R. C. Lochan,  I. Lotan,  
 P. E. Maslen,  N. Nair,  D. P. O'Neill,  D. Neuhauser,  E. Neuscamman,  
 C. M. Oana,  R. Olson,  B. Peters,  R. Peverati,  P. A. Pieniazek,  
 Y. M. Rhee,  J. Ritchie,  M. A. Rohrdanz,  E. Rosta,  N. J. Russ,  
 H. F. Schaefer III,  N. E. Schultz,  N. Shenvi,  A. C. Simmonett,  A. Sodt,  
 D. Stuck,  K. S. Thanthiriwatte,  V. Vanovschi,  Tao Wang,  A. Warshel,  
 C. F. Williams,  Q. Wu,  X. Xu,  W. Zhang

 Please cite Q-Chem as follows:
 Y. Shao et al., Mol. Phys. 113, 184-215 (2015)
 DOI: 10.1080/00268976.2014.952696

 Q-Chem 5.1.1 for Intel X86 EM64T Linux

 Parts of Q-Chem use Armadillo 8.300.2 (Tropical Shenanigans).
 http://arma.sourceforge.net/

 Q-Chem begins on Sat Oct  3 16:02:54 2020  

Host: n0083.mhg0
0

     Scratch files written to /local/scratch/users/yhljason/CH2BH_wB97X-2TQZ_aug-cc-pcV5Z.inp20201003015114//
The previous job contains 0 fragments, simply inherited here
Input Ideriv = 2
Curr. Ideriv = -1
Max.  Ideriv = 2

Checking the input file for inconsistencies... 	...done.

--------------------------------------------------------------
User input:
--------------------------------------------------------------
$molecule
read
$end

$rem

jobtype sp
method HF
xc_grid 000099000590
basis aug-cc-pcV5Z
max_scf_cycles 0
scf_guess read
thresh 14
scf_convergence 8
mem_total 128000
cc_memory 96000
cc_backend xm
mem_static 1500
symmetry false
sym_ignore true
scf_guess read
unrestricted false
scf_algorithm gdm
n_frozen_core 0
$end


--------------------------------------------------------------
 ----------------------------------------------------------------
             Standard Nuclear Orientation (Angstroms)
    I     Atom           X                Y                Z
 ----------------------------------------------------------------
    1      C       0.0000000000     0.0000000000     0.5940000000
    2      B       0.0000000000     0.0000000000    -0.7886000000
    3      H       0.0000000000     0.9173000000     1.1687000000
    4      H       0.0000000000    -0.9173000000     1.1687000000
    5      H       0.0000000000     0.0000000000    -1.9586000000
 ----------------------------------------------------------------
 Nuclear Repulsion Energy =    23.9151802640 hartrees
 There are        7 alpha and        7 beta electrons
 Requested basis set is aug-cc-pCV5Z
 There are 142 shells and 602 basis functions

 Total QAlloc Memory Limit 128000 MB
 Mega-Array Size      1467 MB
 MEM_STATIC part      1500 MB

                       Distance Matrix (Angstroms)
             C (  1)   B (  2)   H (  3)   H (  4)
   B (  2)  1.382600
   H (  3)  1.082460  2.161588
   H (  4)  1.082460  2.161588  1.834600
   H (  5)  2.552600  1.170000  3.259056  3.259056
 
 A cutoff of  1.0D-14 yielded   9747 shell pairs
 There are    176809 function pairs (    327381 Cartesian)
 
 -------------------------------------------------------
 OpenMP Integral Computing Module                       
 Release: version 1.0, May 2013, Q-Chem Inc. Pittsburgh 
 -------------------------------------------------------
 Integral Job Info:
 Integral job number is                      11
 Integral operator is                         1
 short-range coefficients                     0
 long-range coefficients              100000000
 Omega coefficients                           0
 if combine SR and LR in K                    0
 Integral screening is                        0
 Integral computing path is                   2
 max size of driver memory is           6400000
 size of driver memory is               5498286
 size of scratch memory is             29551430
 max col of scratch BK array             194481
 max len of scratch array in speh3         5572
 max len of scratch index in speh4           72
 max int batch size is                      520
 min int batch size is                       52
 fixed nKL is                                30
 max L of basis functions is                  5
 order of int derivative is                   0
 number of shells is                        142
 number of basis is                         817
 number of cartesian basis is               817
 number of contracted shell pairs          9747
 number of primitive shell pairs          16531
 maxK2 (contraction) of shell pair          100
 max number of K2 of shell pair               1
 max number of CS2 of shell pair           1064
 max number of PS2 of shell pair           1140
 mem total for path MDJ                 1586008
 -------------------------------------------------------
 Smallest overlap matrix eigenvalue = 9.36E-07
 Linear dependence detected in AO basis
 Number of orthogonalized atomic orbitals = 601
 Maximum deviation from orthogonality = 2.411E-10

 Scale SEOQF with 1.000000e-01/1.000000e-01/1.000000e-01

 Standard Electronic Orientation quadrupole field applied
 Nucleus-field energy     =    -0.0000000011 hartrees
 Guess MOs from SCF MO coefficient file
 Reading MOs from coefficient file
 Size of previous SCF MO coefficient file: 724806 (expected); 724808 (actual). 

 Q-Chem warning in module gesman/GuessMan.C, line 748:

 Inconsistent size for SCF MO coefficient file.  Please check basis and PURECART setting.

 Reading MOs from coefficient file
 The restricted Hartree-Fock energy will be evaluated
 The orbitals will not be altered
Using Q-Chem read-in guess as SCF_GUESS READ specified.

 using 8 threads for integral computing
 -------------------------------------------------------
 OpenMP Integral computing Module                
 Release: version 2.0, May 2017, Q-Chem Inc. Pleasanton 
 -------------------------------------------------------
 LTot/LBra/LKet=          20          10          10

 Q-Chem warning:

 in GenH1, ket side, handled with new code

 LTot/LBra/LBra=          20          10          10

 Q-Chem warning:

 in GenH1, bra side, handled with new code

TIMEINFO->: J/JK contribution 7868.90 sec.
Avoiding writing the new MOs to disk !!! 
 ---------------------------------------
  Cycle       Energy        RMS Gradient
 ---------------------------------------
    1     -64.2499980415      9.57E-03 Convergence criterion met
 ---------------------------------------
 SCF time:  CPU 7871.50 s  wall 990.47 s
 SCF   energy in the final basis set = -64.24999804
 Total energy in the final basis set = -64.24999804
 
 --------------------------------------------------------------
 
                    Orbital Energies (a.u.)
 --------------------------------------------------------------
 
 Alpha MOs
 -- Occupied --
-10.779  -7.296  -0.871  -0.625  -0.549  -0.534  -0.335
 -- Virtual --
  0.023   0.028   0.029   0.036   0.046   0.064   0.072   0.073
  0.083   0.085   0.104   0.109   0.117   0.120   0.138   0.149
  0.156   0.176   0.178   0.182   0.203   0.211   0.222   0.223
  0.228   0.246   0.259   0.263   0.274   0.277   0.286   0.287
  0.298   0.312   0.315   0.320   0.327   0.373   0.377   0.378
  0.389   0.398   0.406   0.409   0.433   0.447   0.462   0.463
  0.499   0.505   0.510   0.515   0.524   0.538   0.546   0.578
  0.602   0.603   0.612   0.639   0.640   0.641   0.649   0.652
  0.668   0.689   0.692   0.706   0.722   0.722   0.724   0.746
  0.750   0.762   0.778   0.779   0.790   0.798   0.821   0.844
  0.850   0.866   0.872   0.894   0.935   0.936   0.939   1.002
  1.009   1.015   1.058   1.059   1.063   1.073   1.098   1.129
  1.136   1.142   1.161   1.162   1.175   1.179   1.209   1.242
  1.263   1.281   1.287   1.299   1.302   1.309   1.315   1.328
  1.337   1.378   1.402   1.402   1.417   1.421   1.424   1.432
  1.440   1.456   1.490   1.523   1.527   1.533   1.534   1.544
  1.560   1.564   1.564   1.573   1.584   1.623   1.626   1.627
  1.630   1.671   1.683   1.701   1.756   1.803   1.823   1.880
  1.889   1.916   1.924   1.925   1.977   2.001   2.007   2.062
  2.064   2.076   2.083   2.105   2.167   2.167   2.169   2.218
  2.230   2.291   2.291   2.295   2.314   2.361   2.368   2.368
  2.374   2.418   2.443   2.453   2.466   2.484   2.498   2.504
  2.533   2.583   2.594   2.618   2.620   2.622   2.643   2.658
  2.702   2.722   2.758   2.804   2.805   2.840   2.841   2.846
  2.897   2.913   2.920   2.934   3.017   3.019   3.039   3.061
  3.074   3.129   3.150   3.154   3.155   3.198   3.244   3.252
  3.255   3.312   3.313   3.344   3.363   3.370   3.370   3.373
  3.373   3.434   3.452   3.457   3.464   3.516   3.523   3.533
  3.580   3.595   3.605   3.625   3.631   3.651   3.653   3.655
  3.667   3.673   3.729   3.751   3.784   3.795   3.819   3.885
  3.927   3.940   3.960   3.978   4.011   4.031   4.087   4.089
  4.102   4.121   4.132   4.178   4.222   4.259   4.305   4.306
  4.332   4.410   4.421   4.435   4.437   4.449   4.527   4.553
  4.582   4.606   4.645   4.716   4.733   4.742   4.826   4.863
  4.871   4.872   4.904   4.984   4.997   5.002   5.129   5.164
  5.220   5.253   5.257   5.277   5.299   5.333   5.407   5.416
  5.507   5.513   5.528   5.587   5.590   5.692   5.702   5.756
  5.771   5.811   5.871   5.911   5.942   5.972   6.005   6.076
  6.114   6.122   6.147   6.213   6.216   6.222   6.229   6.273
  6.285   6.289   6.292   6.319   6.397   6.399   6.406   6.471
  6.546   6.601   6.612   6.634   6.681   6.787   6.792   6.844
  6.868   6.954   7.043   7.062   7.073   7.080   7.157   7.242
  7.294   7.308   7.359   7.368   7.431   7.494   7.528   7.564
  7.573   7.590   7.613   7.644   7.814   7.861   7.869   7.980
  8.057   8.077   8.146   8.181   8.193   8.197   8.464   8.476
  8.524   8.601   8.640   8.646   8.745   8.892   8.935   8.947
  9.036   9.233   9.480   9.596   9.653   9.721   9.748   9.916
  9.919   9.935  10.026  10.078  10.130  10.373  10.525  10.538
 10.601  10.752  10.755  10.776  10.807  10.884  10.899  11.071
 11.291  11.476  11.572  11.671  11.714  11.822  11.901  12.110
 12.119  12.464  12.607  12.823  13.110  13.141  13.147  13.212
 13.213  13.217  13.259  13.356  13.374  13.379  13.500  13.519
 13.528  13.538  13.589  13.638  13.672  13.713  13.730  13.786
 13.849  13.875  13.893  13.985  13.992  14.128  14.213  14.295
 14.383  14.443  14.468  14.488  14.513  14.515  14.522  14.608
 14.665  14.675  14.677  14.687  14.701  14.784  14.790  14.958
 15.098  15.174  15.196  15.244  15.280  15.342  15.366  15.465
 15.468  15.472  15.541  15.601  15.853  15.862  16.013  16.109
 16.246  16.397  16.722  16.740  17.204  17.260  17.338  17.585
 17.820  17.973  18.149  18.208  18.271  18.385  18.425  18.475
 18.541  18.948  18.980  19.358  19.570  20.200  20.586  21.288
 21.823  21.999  24.456  24.463  24.694  24.841  25.605  25.884
 27.435  35.930  36.430  36.439  36.810  37.550  37.794  39.061
 39.071  39.246  39.298  39.531  39.634  40.264  40.845  41.027
 42.555  47.132  47.202  47.264  47.451  47.512  47.689  48.256
 51.071  59.563  61.566  61.648  75.262  75.326  76.023  76.191
 77.201  91.548 107.914 107.931 108.191 108.685 108.876 112.799
112.919 114.158 123.017 123.017 123.025 123.025 123.033 123.034
123.047 123.052 123.056 130.363 152.519 152.523 152.600 152.623
152.744 152.801 153.127 165.074 166.711 166.796 167.059 167.060
167.060 167.063 167.063 167.063 167.072 167.108 167.114 187.855
187.882 187.916 188.002 188.021 188.094 188.317 230.640 230.682
231.174 231.293 231.985 236.437 318.175 318.281 319.326 329.102
329.115 329.263 329.643 329.780 337.462 464.466 465.903 465.956
821.7871175.572
 --------------------------------------------------------------
 
          Ground-State Mulliken Net Atomic Charges

     Atom                 Charge (a.u.)
  ----------------------------------------
      1 C                    -0.641299
      2 B                     0.140660
      3 H                     0.263587
      4 H                     0.263587
      5 H                    -0.026535
  ----------------------------------------
  Sum of atomic charges =    -0.000000

 -----------------------------------------------------------------
                    Cartesian Multipole Moments
 -----------------------------------------------------------------
    Charge (ESU x 10^10)
                -0.0000
    Dipole Moment (Debye)
         X       0.0000      Y       0.0000      Z      -0.8196
       Tot       0.8196
    Quadrupole Moments (Debye-Ang)
        XX     -16.5308     XY       0.0000     YY     -11.8732
        XZ      -0.0000     YZ      -0.0000     ZZ     -11.6384
    Octopole Moments (Debye-Ang^2)
       XXX       0.0000    XXY       0.0000    XYY       0.0000
       YYY       0.0000    XXZ       0.3972    XYZ      -0.0000
       YYZ       1.3227    XZZ       0.0000    YZZ       0.0000
       ZZZ       1.7801
    Hexadecapole Moments (Debye-Ang^3)
      XXXX     -26.2733   XXXY       0.0000   XXYY      -8.3089
      XYYY       0.0000   YYYY     -20.7142   XXXZ      -0.0000
      XXYZ      -0.0000   XYYZ      -0.0000   YYYZ      -0.0000
      XXZZ     -18.6568   XYZZ       0.0000   YYZZ     -14.6299
      XZZZ      -0.0000   YZZZ      -0.0000   ZZZZ     -76.1614
 -----------------------------------------------------------------
Archival summary:
1\1\n0083.mhg0\SP\HF\BasisUnspecified\113\yhljason\SatOct316:19:382020SatOct316:19:382020\0\\#,HF,BasisUnspecified,\\0,1\C\H,1,1.08246\H,1,1.08246,2,115.865\B,1,1.3826,2,122.068,3,-180,0\H,4,1.17,1,180,2,0,0\\HF=-64.249998\\@

 Total job time:  1003.67s(wall), 7894.81s(cpu) 
 Sat Oct  3 16:19:38 2020

        *************************************************************
        *                                                           *
        *  Thank you very much for using Q-Chem.  Have a nice day.  *
        *                                                           *
        *************************************************************


