Q-Chem Developer Version!
                  Welcome to Q-Chem
     A Quantum Leap Into The Future Of Chemistry


 Q-Chem 5.1, Q-Chem, Inc., Pleasanton, CA (2018)

 Yihan Shao,  Zhengting Gan,  E. Epifanovsky,  A. T. B. Gilbert,  M. Wormit,  
 J. Kussmann,  A. W. Lange,  A. Behn,  Jia Deng,  Xintian Feng,  D. Ghosh,  
 M. Goldey,  P. R. Horn,  L. D. Jacobson,  I. Kaliman,  T. Kus,  A. Landau,  
 Jie Liu,  E. I. Proynov,  R. M. Richard,  R. P. Steele,  E. J. Sundstrom,  
 H. L. Woodcock III,  P. M. Zimmerman,  D. Zuev,  B. Albrecht,  E. Alguire,  
 S. A. Baeppler,  D. Barton,  Z. Benda,  Y. A. Bernard,  E. J. Berquist,  
 K. B. Bravaya,  H. Burton,  D. Casanova,  Chun-Min Chang,  Yunqing Chen,  
 A. Chien,  K. D. Closser,  M. P. Coons,  S. Coriani,  S. Dasgupta,  
 A. L. Dempwolff,  M. Diedenhofen,  Hainam Do,  R. G. Edgar,  Po-Tung Fang,  
 S. Faraji,  S. Fatehi,  Qingguo Feng,  K. D. Fenk,  J. Fosso-Tande,  
 Qinghui Ge,  A. Ghysels,  G. Gidofalvi,  J. Gomes,  J. Gonthier,  A. Gunina,  
 D. Hait,  M. W. D. Hanson-Heine,  P. H. P. Harbach,  A. W. Hauser,  
 J. E. Herr,  E. G. Hohenstein,  Z. C. Holden,  Kerwin Hui,  B. C. Huynh,  
 T.-C. Jagau,  Hyunjun Ji,  B. Kaduk,  K. Khistyaev,  Jaehoon Kim,  
 P. Klunzinger,  K. Koh,  D. Kosenkov,  L. Koulias,  T. Kowalczyk,  
 C. M. Krauter,  A. Kunitsa,  Ka Un Lao,  A. Laurent,  K. V. Lawler,  
 Joonho Lee,  D. Lefrancois,  S. Lehtola,  D. S. Levine,  Yi-Pei Li,  
 You-Sheng Lin,  Fenglai Liu,  E. Livshits,  A. Luenser,  P. Manohar,  
 E. Mansoor,  S. F. Manzer,  Shan-Ping Mao,  Yuezhi Mao,  N. Mardirossian,  
 A. V. Marenich,  T. Markovich,  L. A. Martinez-Martinez,  S. A. Maurer,  
 N. J. Mayhall,  S. C. McKenzie,  J.-M. Mewes,  A. F. Morrison,  
 J. W. Mullinax,  K. Nanda,  T. S. Nguyen-Beck,  R. Olivares-Amaya,  
 J. A. Parkhill,  T. M. Perrine,  F. Plasser,  P. Pokhilko,  S. Prager,  
 A. Prociuk,  E. Ramos,  D. R. Rehn,  F. Rob,  M. Schneider,  N. Sergueev,  
 S. M. Sharada,  S. Sharma,  D. W. Small,  T. Stauch,  T. Stein,  
 Yu-Chuan Su,  A. J. W. Thom,  A. Tkatchenko,  T. Tsuchimochi,  N. M. Tubman,  
 L. Vogt,  M. L. Vidal,  O. Vydrov,  M. A. Watson,  J. Wenzel,  
 M. de Wergifosse,  T. A. Wesolowski,  A. White,  J. Witte,  A. Yamada,  
 Jun Yang,  K. Yao,  S. Yeganeh,  S. R. Yost,  Zhi-Qiang You,  A. Zech,  
 Igor Ying Zhang,  Xing Zhang,  Yan Zhao,  Ying Zhu,  B. R. Brooks,  
 G. K. L. Chan,  C. J. Cramer,  M. S. Gordon,  W. J. Hehre,  A. Klamt,  
 M. W. Schmidt,  C. D. Sherrill,  D. G. Truhlar,  A. Aspuru-Guzik,  R. Baer,  
 A. T. Bell,  N. A. Besley,  Jeng-Da Chai,  A. E. DePrince, III,  
 R. A. DiStasio Jr.,  A. Dreuw,  B. D. Dunietz,  T. R. Furlani,  
 Chao-Ping Hsu,  Yousung Jung,  Jing Kong,  D. S. Lambrecht,  WanZhen Liang,  
 C. Ochsenfeld,  V. A. Rassolov,  L. V. Slipchenko,  J. E. Subotnik,  
 T. Van Voorhis,  J. M. Herbert,  A. I. Krylov,  P. M. W. Gill,  M. Head-Gordon

 Contributors to earlier versions of Q-Chem not listed above: 
 R. D. Adamson,  B. Austin,  J. Baker,  G. J. O. Beran,  K. Brandhorst,  
 S. T. Brown,  E. F. C. Byrd,  A. K. Chakraborty,  C.-L. Cheng,  
 Siu Hung Chien,  D. M. Chipman,  D. L. Crittenden,  H. Dachsel,  
 R. J. Doerksen,  A. D. Dutoi,  L. Fusti-Molnar,  W. A. Goddard III,  
 A. Golubeva-Zadorozhnaya,  S. R. Gwaltney,  G. Hawkins,  A. Heyden,  
 S. Hirata,  G. Kedziora,  F. J. Keil,  C. Kelley,  Jihan Kim,  R. A. King,  
 R. Z. Khaliullin,  P. P. Korambath,  W. Kurlancheek,  A. M. Lee,  M. S. Lee,  
 S. V. Levchenko,  Ching Yeh Lin,  D. Liotard,  R. C. Lochan,  I. Lotan,  
 P. E. Maslen,  N. Nair,  D. P. O'Neill,  D. Neuhauser,  E. Neuscamman,  
 C. M. Oana,  R. Olson,  B. Peters,  R. Peverati,  P. A. Pieniazek,  
 Y. M. Rhee,  J. Ritchie,  M. A. Rohrdanz,  E. Rosta,  N. J. Russ,  
 H. F. Schaefer III,  N. E. Schultz,  N. Shenvi,  A. C. Simmonett,  A. Sodt,  
 D. Stuck,  K. S. Thanthiriwatte,  V. Vanovschi,  Tao Wang,  A. Warshel,  
 C. F. Williams,  Q. Wu,  X. Xu,  W. Zhang

 Please cite Q-Chem as follows:
 Y. Shao et al., Mol. Phys. 113, 184-215 (2015)
 DOI: 10.1080/00268976.2014.952696

 Q-Chem 5.1.1 for Intel X86 EM64T Linux

 Parts of Q-Chem use Armadillo 8.300.2 (Tropical Shenanigans).
 http://arma.sourceforge.net/

 Q-Chem begins on Sat Oct  3 01:51:19 2020  

Host: n0086.mhg0
0

     Scratch files written to /local/scratch/users/yhljason/CH3_wB97X-2TQZ_aug-cc-pcVTZ.inp20201003015116//
Input Ideriv = 0
Curr. Ideriv = -1
Max.  Ideriv = 0
Input Ideriv = 1
Curr. Ideriv = 0
Max.  Ideriv = 0

Checking the input file for inconsistencies... 	...done.

--------------------------------------------------------------
User input:
--------------------------------------------------------------
$molecule
0 2
C1 0.0000   0.0000   0.0000
H2 1.0790   0.0000   0.0000
H3 -0.5395  -0.9344  0.0000
H4 -0.5395  0.9344   0.0000
$end

$rem
jobtype sp
method wB97X-2(TQZ)
xc_grid 000099000590
basis aug-cc-pcVTZ
max_scf_cycles 200
thresh 14
scf_convergence 8
scf_algorithm gdm
symmetry false
sym_ignore true
unrestricted false
gen_scfman true
internal_stability_iter 15
internal_stability_davidson_iter 200
mem_total 128000
cc_memory 96000
cc_backend xm
mem_static 1500
n_frozen_core 0
$end



--------------------------------------------------------------
 ----------------------------------------------------------------
             Standard Nuclear Orientation (Angstroms)
    I     Atom           X                Y                Z
 ----------------------------------------------------------------
    1      C       0.0000000000     0.0000000000     0.0000000000
    2      H       1.0790000000     0.0000000000     0.0000000000
    3      H      -0.5395000000    -0.9344000000     0.0000000000
    4      H      -0.5395000000     0.9344000000     0.0000000000
 ----------------------------------------------------------------
 Nuclear Repulsion Energy =     9.6774633775 hartrees
 There are        5 alpha and        4 beta electrons
 Requested basis set is aug-cc-pCVTZ
 There are 46 shells and 128 basis functions

 Total QAlloc Memory Limit 128000 MB
 Mega-Array Size      1467 MB
 MEM_STATIC part      1500 MB

                       Distance Matrix (Angstroms)
             C (  1)   H (  2)   H (  3)
   H (  2)  1.079000
   H (  3)  1.078964  1.868862
   H (  4)  1.078964  1.868862  1.868800
 
 A cutoff of  1.0D-14 yielded   1081 shell pairs
 There are      8443 function pairs (     10725 Cartesian)
 
 -------------------------------------------------------
 OpenMP Integral Computing Module                       
 Release: version 1.0, May 2013, Q-Chem Inc. Pittsburgh 
 -------------------------------------------------------
 Integral Job Info:
 Integral job number is                      11
 Integral operator is                         1
 short-range coefficients              63615800
 long-range coefficients              100000000
 Omega coefficients                         300
 if combine SR and LR in K                    1
 Integral screening is                        0
 Integral computing path is                   2
 max size of driver memory is            800000
 size of driver memory is                776718
 size of scratch memory is              6904264
 max col of scratch BK array              10000
 max len of scratch array in speh3          662
 max len of scratch index in speh4           32
 max int batch size is                      520
 min int batch size is                       52
 fixed nKL is                                52
 max L of basis functions is                  3
 order of int derivative is                   0
 number of shells is                         46
 number of basis is                         144
 number of cartesian basis is               144
 number of contracted shell pairs          1081
 number of primitive shell pairs           2360
 maxK2 (contraction) of shell pair           64
 max number of K2 of shell pair               1
 max number of CS2 of shell pair            196
 max number of PS2 of shell pair            248
 mem total for path MDJ                  541562
 -------------------------------------------------------
 Smallest overlap matrix eigenvalue = 1.00E-04

 Scale SEOQF with 1.000000e-01/1.000000e-01/1.000000e-01

 Standard Electronic Orientation quadrupole field applied
 Nucleus-field energy     =     0.0000000002 hartrees
 Guess from superposition of atomic densities
 Warning:  Energy on first SCF cycle will be non-variational
 SAD guess density has 9.000000 electrons

 -----------------------------------------------------------------------
  General SCF calculation program by
  Eric Jon Sundstrom, Paul Horn, Yuezhi Mao, Dmitri Zuev, Alec White,
  David Stuck, Shaama M.S., Shane Yost, Joonho Lee, David Small,
  Daniel Levine, Susi Lehtola, Hugh Burton, Evgeny Epifanovsky
 -----------------------------------------------------------------------
 Exchange:     0.6362 Hartree-Fock + 1.0000 wB97X-2(TQZ) + LR-HF
 Correlation:  1.0000 wB97X-2(TQZ)
 Using Euler-Maclaurin-Lebedev (99,590) quadrature formula
Running Object-Oriented ROKS (ROHF)
ROHF occupied orbitals are orthonormal
ROHF occupied orbitals are orthogonal to virtual orbitals
ROHF virtual orbitals are orthonormal
We will preform up to 15 macro iterations over saddle points until a stable solution is found
Energy prior to optimization (guess energy) = -39.514518482220
Begin Timing: Total SCF Calculation
Begin Timing: SCF Single Stationary Point Calculation
begin iterations for algorithm: GDM          
the SCF tolerance is set to 1.00e-08
    1     -39.5145184822      1.84e-01     00000  Descent step
    2     -39.6707273610      7.78e-02     00000  Normal BFGS step
    3     -39.7170185701      1.68e-02     00000  Normal BFGS step
    4     -39.7180178267      9.24e-03     00000  Normal BFGS step
    5     -39.7182427910      1.53e-03     00000  Normal BFGS step
    6     -39.7182493185      3.63e-04     00000  Normal BFGS step
    7     -39.7182498193      2.98e-05     00000  Normal BFGS step
    8     -39.7182498233      6.24e-06     00000  Normal BFGS step
    9     -39.7182498234      9.35e-07     00000  Normal BFGS step
   10     -39.7182498235      1.37e-07     00000  Normal BFGS step
   11     -39.7182498235      2.33e-08     00000  Normal BFGS step
   12     -39.7182498235      5.43e-09     00000 Convergence criterion met
The disked orbital energies are calculated using alpha and beta Focks
Timing for Single Stationary Point: 30.00s (wall), 203.16s (cpu)
Begin Timing: Stability
===================================================
Beginning Test for Internal Stability
===================================================
generating davidson guess vectors based on koopmans-like excitations
    1      1.98e-01     00000 Davidson Iteration
    2      9.91e-02     00000 Davidson Iteration
    3      1.10e-01     00000 Davidson Iteration
    4      5.09e-02     00000 Davidson Iteration
    5      3.73e-02     00000 Davidson Iteration
    6      1.72e-02     00000 Davidson Iteration
    7      1.16e-02     00000 Davidson Iteration
    8      3.83e-03     00000 Davidson Iteration
    9      1.76e-03     00000 Davidson Iteration
   10      7.78e-04     00000 Davidson Iteration
   11      2.70e-04     00000 Davidson Iteration
   12      6.52e-05     00000 Davidson Iteration
   13      2.77e-05     00000 Davidson Iteration
   14      5.02e-04     00000 Davidson Iteration
   15      1.03e-04     00000 Davidson Iteration
   16      2.38e-05     00000 Davidson Converged
converged_eigenvalues
   0.5083
   0.5083
   0.4392
Threshold for negative eigenvalues: -1.0e-05
solution was a local minimum (stable)
===================================================
End Test for Internal Stability
===================================================
Our SCF solution is stable!
The disked orbital energies are calculated using alpha and beta Focks
Timing for Total SCF: 109.00s (wall), 807.43s (cpu)
 Total energy in the final basis set =      -39.7182498235
<S^2> =          0.750000000
    ==================================================
              The end of Object-Oriented SCFman       
    ==================================================
 
 Components of the MP2 correlation energy:
        aaaa  correlation energy =        -0.0140149411 au
        abab  correlation energy =        -0.0830705826 au
        bbbb  correlation energy =        -0.0055444018 au
        non-Brillouin singles    =        -0.0018244475 au

 Total  MP2   correlation energy =                    -0.10445437 au
        MP2         total energy =                   -39.82270420 au
 
 --------------------------------------------------------------
 
                    Orbital Energies (a.u.)
 --------------------------------------------------------------
 
 Alpha MOs
 -- Occupied --
-10.820  -0.885  -0.562  -0.562  -0.358
 -- Virtual --
  0.033   0.051   0.051   0.097   0.134   0.134   0.140   0.215
  0.215   0.232   0.267   0.267   0.332   0.332   0.329   0.345
  0.367   0.387   0.401   0.401   0.417   0.417   0.448   0.448
  0.604   0.612   0.715   0.715   0.808   0.808   0.819   0.819
  0.836   0.874   0.926   0.971   0.972   0.972   0.986   0.986
  1.036   1.046   1.046   1.064   1.112   1.112   1.118   1.118
  1.278   1.393   1.393   1.530   1.559   1.559   1.563   1.564
  1.602   1.602   1.680   1.876   1.876   1.962   2.014   2.015
  2.015   2.126   2.126   2.758   2.869   2.869   2.998   3.132
  3.132   3.413   3.413   3.428   3.511   3.511   3.566   3.566
  3.578   3.606   3.789   3.827   3.838   3.838   4.125   4.125
  4.260   4.281   4.281   4.512   4.536   4.698   4.698   4.736
  4.736   4.915   4.935   5.161   5.161   5.258   5.258   5.322
  5.322   6.020   6.302   6.302   6.572   6.663  15.461  16.448
 16.448  17.381  41.152  41.152  41.376  41.399  41.399  80.674
 81.387  81.387  86.781
 
 Beta MOs
 -- Occupied --
-10.805  -0.824  -0.546  -0.546
 -- Virtual --
  0.097   0.040   0.055   0.055   0.124   0.138   0.138   0.146
  0.217   0.217   0.244   0.269   0.269   0.336   0.336   0.344
  0.346   0.366   0.396   0.400   0.400   0.416   0.416   0.452
  0.452   0.623   0.641   0.714   0.714   0.811   0.811   0.837
  0.837   0.838   0.876   0.941   0.973   0.977   0.977   0.994
  0.994   1.035   1.046   1.046   1.060   1.112   1.112   1.137
  1.137   1.277   1.394   1.394   1.532   1.566   1.566   1.566
  1.600   1.610   1.610   1.715   1.882   1.882   1.978   2.010
  2.029   2.029   2.130   2.130   2.821   2.877   2.878   3.007
  3.166   3.166   3.428   3.428   3.461   3.529   3.529   3.576
  3.577   3.580   3.631   3.808   3.830   3.843   3.843   4.136
  4.136   4.266   4.292   4.292   4.538   4.545   4.703   4.703
  4.739   4.739   4.914   4.948   5.165   5.165   5.278   5.278
  5.327   5.327   6.025   6.306   6.306   6.577   6.688  15.494
 16.453  16.453  17.398  41.162  41.162  41.388  41.398  41.399
 80.684  81.389  81.389  86.786
 --------------------------------------------------------------
 
          Ground-State Mulliken Net Atomic Charges

     Atom                 Charge (a.u.)
  ----------------------------------------
      1 C                    -1.412971
      2 H                     0.470973
      3 H                     0.470999
      4 H                     0.470999
  ----------------------------------------
  Sum of atomic charges =    -0.000000

 -----------------------------------------------------------------
                    Cartesian Multipole Moments
 -----------------------------------------------------------------
    Charge (ESU x 10^10)
                -0.0000
    Dipole Moment (Debye)
         X      -0.0000      Y       0.0000      Z       0.0000
       Tot       0.0000
    Quadrupole Moments (Debye-Ang)
        XX      -7.2646     XY       0.0000     YY      -7.2648
        XZ       0.0000     YZ      -0.0000     ZZ      -9.1444
    Octopole Moments (Debye-Ang^2)
       XXX       0.9038    XXY       0.0000    XYY      -0.9039
       YYY       0.0000    XXZ       0.0000    XYZ       0.0000
       YYZ       0.0000    XZZ      -0.0000    YZZ       0.0000
       ZZZ       0.0000
    Hexadecapole Moments (Debye-Ang^3)
      XXXX     -14.9217   XXXY       0.0000   XXYY      -4.9739
      XYYY      -0.0000   YYYY     -14.9214   XXXZ      -0.0000
      XXYZ      -0.0000   XYYZ      -0.0000   YYYZ      -0.0000
      XXZZ      -4.8884   XYZZ      -0.0000   YYZZ      -4.8882
      XZZZ      -0.0000   YZZZ      -0.0000   ZZZZ     -11.8215
 -----------------------------------------------------------------
Archival summary:
1\1\n0086.mhg0\SP\ROProcedureUnspecified\BasisUnspecified\13(2)\yhljason\SatOct301:53:262020SatOct301:53:262020\0\\#,ROProcedureUnspecified,BasisUnspecified,\\0,2\C\H,1,1.07896\H,1,1.07896,2,119.998\H,1,1.079,2,120.001,3,-180,0\\\@

 Total job time:  126.55s(wall), 938.61s(cpu) 
 Sat Oct  3 01:53:26 2020

        *************************************************************
        *                                                           *
        *  Thank you very much for using Q-Chem.  Have a nice day.  *
        *                                                           *
        *************************************************************


 
User input: 2 of 83 of 8 
 
Q-Chem Developer Version!
                  Welcome to Q-Chem
     A Quantum Leap Into The Future Of Chemistry


 Q-Chem 5.1, Q-Chem, Inc., Pleasanton, CA (2018)

 Yihan Shao,  Zhengting Gan,  E. Epifanovsky,  A. T. B. Gilbert,  M. Wormit,  
 J. Kussmann,  A. W. Lange,  A. Behn,  Jia Deng,  Xintian Feng,  D. Ghosh,  
 M. Goldey,  P. R. Horn,  L. D. Jacobson,  I. Kaliman,  T. Kus,  A. Landau,  
 Jie Liu,  E. I. Proynov,  R. M. Richard,  R. P. Steele,  E. J. Sundstrom,  
 H. L. Woodcock III,  P. M. Zimmerman,  D. Zuev,  B. Albrecht,  E. Alguire,  
 S. A. Baeppler,  D. Barton,  Z. Benda,  Y. A. Bernard,  E. J. Berquist,  
 K. B. Bravaya,  H. Burton,  D. Casanova,  Chun-Min Chang,  Yunqing Chen,  
 A. Chien,  K. D. Closser,  M. P. Coons,  S. Coriani,  S. Dasgupta,  
 A. L. Dempwolff,  M. Diedenhofen,  Hainam Do,  R. G. Edgar,  Po-Tung Fang,  
 S. Faraji,  S. Fatehi,  Qingguo Feng,  K. D. Fenk,  J. Fosso-Tande,  
 Qinghui Ge,  A. Ghysels,  G. Gidofalvi,  J. Gomes,  J. Gonthier,  A. Gunina,  
 D. Hait,  M. W. D. Hanson-Heine,  P. H. P. Harbach,  A. W. Hauser,  
 J. E. Herr,  E. G. Hohenstein,  Z. C. Holden,  Kerwin Hui,  B. C. Huynh,  
 T.-C. Jagau,  Hyunjun Ji,  B. Kaduk,  K. Khistyaev,  Jaehoon Kim,  
 P. Klunzinger,  K. Koh,  D. Kosenkov,  L. Koulias,  T. Kowalczyk,  
 C. M. Krauter,  A. Kunitsa,  Ka Un Lao,  A. Laurent,  K. V. Lawler,  
 Joonho Lee,  D. Lefrancois,  S. Lehtola,  D. S. Levine,  Yi-Pei Li,  
 You-Sheng Lin,  Fenglai Liu,  E. Livshits,  A. Luenser,  P. Manohar,  
 E. Mansoor,  S. F. Manzer,  Shan-Ping Mao,  Yuezhi Mao,  N. Mardirossian,  
 A. V. Marenich,  T. Markovich,  L. A. Martinez-Martinez,  S. A. Maurer,  
 N. J. Mayhall,  S. C. McKenzie,  J.-M. Mewes,  A. F. Morrison,  
 J. W. Mullinax,  K. Nanda,  T. S. Nguyen-Beck,  R. Olivares-Amaya,  
 J. A. Parkhill,  T. M. Perrine,  F. Plasser,  P. Pokhilko,  S. Prager,  
 A. Prociuk,  E. Ramos,  D. R. Rehn,  F. Rob,  M. Schneider,  N. Sergueev,  
 S. M. Sharada,  S. Sharma,  D. W. Small,  T. Stauch,  T. Stein,  
 Yu-Chuan Su,  A. J. W. Thom,  A. Tkatchenko,  T. Tsuchimochi,  N. M. Tubman,  
 L. Vogt,  M. L. Vidal,  O. Vydrov,  M. A. Watson,  J. Wenzel,  
 M. de Wergifosse,  T. A. Wesolowski,  A. White,  J. Witte,  A. Yamada,  
 Jun Yang,  K. Yao,  S. Yeganeh,  S. R. Yost,  Zhi-Qiang You,  A. Zech,  
 Igor Ying Zhang,  Xing Zhang,  Yan Zhao,  Ying Zhu,  B. R. Brooks,  
 G. K. L. Chan,  C. J. Cramer,  M. S. Gordon,  W. J. Hehre,  A. Klamt,  
 M. W. Schmidt,  C. D. Sherrill,  D. G. Truhlar,  A. Aspuru-Guzik,  R. Baer,  
 A. T. Bell,  N. A. Besley,  Jeng-Da Chai,  A. E. DePrince, III,  
 R. A. DiStasio Jr.,  A. Dreuw,  B. D. Dunietz,  T. R. Furlani,  
 Chao-Ping Hsu,  Yousung Jung,  Jing Kong,  D. S. Lambrecht,  WanZhen Liang,  
 C. Ochsenfeld,  V. A. Rassolov,  L. V. Slipchenko,  J. E. Subotnik,  
 T. Van Voorhis,  J. M. Herbert,  A. I. Krylov,  P. M. W. Gill,  M. Head-Gordon

 Contributors to earlier versions of Q-Chem not listed above: 
 R. D. Adamson,  B. Austin,  J. Baker,  G. J. O. Beran,  K. Brandhorst,  
 S. T. Brown,  E. F. C. Byrd,  A. K. Chakraborty,  C.-L. Cheng,  
 Siu Hung Chien,  D. M. Chipman,  D. L. Crittenden,  H. Dachsel,  
 R. J. Doerksen,  A. D. Dutoi,  L. Fusti-Molnar,  W. A. Goddard III,  
 A. Golubeva-Zadorozhnaya,  S. R. Gwaltney,  G. Hawkins,  A. Heyden,  
 S. Hirata,  G. Kedziora,  F. J. Keil,  C. Kelley,  Jihan Kim,  R. A. King,  
 R. Z. Khaliullin,  P. P. Korambath,  W. Kurlancheek,  A. M. Lee,  M. S. Lee,  
 S. V. Levchenko,  Ching Yeh Lin,  D. Liotard,  R. C. Lochan,  I. Lotan,  
 P. E. Maslen,  N. Nair,  D. P. O'Neill,  D. Neuhauser,  E. Neuscamman,  
 C. M. Oana,  R. Olson,  B. Peters,  R. Peverati,  P. A. Pieniazek,  
 Y. M. Rhee,  J. Ritchie,  M. A. Rohrdanz,  E. Rosta,  N. J. Russ,  
 H. F. Schaefer III,  N. E. Schultz,  N. Shenvi,  A. C. Simmonett,  A. Sodt,  
 D. Stuck,  K. S. Thanthiriwatte,  V. Vanovschi,  Tao Wang,  A. Warshel,  
 C. F. Williams,  Q. Wu,  X. Xu,  W. Zhang

 Please cite Q-Chem as follows:
 Y. Shao et al., Mol. Phys. 113, 184-215 (2015)
 DOI: 10.1080/00268976.2014.952696

 Q-Chem 5.1.1 for Intel X86 EM64T Linux

 Parts of Q-Chem use Armadillo 8.300.2 (Tropical Shenanigans).
 http://arma.sourceforge.net/

 Q-Chem begins on Sat Oct  3 01:53:27 2020  

Host: n0086.mhg0
0

     Scratch files written to /local/scratch/users/yhljason/CH3_wB97X-2TQZ_aug-cc-pcVTZ.inp20201003015116//
The previous job contains 0 fragments, simply inherited here
Input Ideriv = 0
Curr. Ideriv = -1
Max.  Ideriv = 0
Input Ideriv = 1
Curr. Ideriv = 0
Max.  Ideriv = 0

Checking the input file for inconsistencies... 	...done.

--------------------------------------------------------------
User input:
--------------------------------------------------------------
$molecule
read
$end

$rem

jobtype sp
method wB97X-2(TQZ)
xc_grid 000099000590
basis aug-cc-pcVTZ
max_scf_cycles 200
thresh 14
scf_convergence 8
mem_total 128000
cc_memory 96000
cc_backend xm
mem_static 1500
symmetry false
sym_ignore true
scf_guess read
unrestricted false
scf_algorithm gdm
n_frozen_core 0
$end

$multipole_field
XX 0.0001
$end


--------------------------------------------------------------
 ----------------------------------------------------------------
             Standard Nuclear Orientation (Angstroms)
    I     Atom           X                Y                Z
 ----------------------------------------------------------------
    1      C       0.0000000000     0.0000000000     0.0000000000
    2      H       1.0790000000     0.0000000000     0.0000000000
    3      H      -0.5395000000    -0.9344000000     0.0000000000
    4      H      -0.5395000000     0.9344000000     0.0000000000
 ----------------------------------------------------------------
 Nuclear Repulsion Energy =     9.6774633775 hartrees
 There are        5 alpha and        4 beta electrons
 Requested basis set is aug-cc-pCVTZ
 There are 46 shells and 128 basis functions

 Total QAlloc Memory Limit 128000 MB
 Mega-Array Size      1467 MB
 MEM_STATIC part      1500 MB

                       Distance Matrix (Angstroms)
             C (  1)   H (  2)   H (  3)
   H (  2)  1.079000
   H (  3)  1.078964  1.868862
   H (  4)  1.078964  1.868862  1.868800
 
 Applying Cartesian multipole field
    Component          Value
    ---------          -----
     (2,0,0)        1.00000E-04
 Nucleus-field energy     =     0.0006236370 hartrees
 A cutoff of  1.0D-14 yielded   1081 shell pairs
 There are      8443 function pairs (     10725 Cartesian)
 
 -------------------------------------------------------
 OpenMP Integral Computing Module                       
 Release: version 1.0, May 2013, Q-Chem Inc. Pittsburgh 
 -------------------------------------------------------
 Integral Job Info:
 Integral job number is                      11
 Integral operator is                         1
 short-range coefficients              63615800
 long-range coefficients              100000000
 Omega coefficients                         300
 if combine SR and LR in K                    1
 Integral screening is                        0
 Integral computing path is                   2
 max size of driver memory is            800000
 size of driver memory is                776718
 size of scratch memory is              6904264
 max col of scratch BK array              10000
 max len of scratch array in speh3          662
 max len of scratch index in speh4           32
 max int batch size is                      520
 min int batch size is                       52
 fixed nKL is                                52
 max L of basis functions is                  3
 order of int derivative is                   0
 number of shells is                         46
 number of basis is                         144
 number of cartesian basis is               144
 number of contracted shell pairs          1081
 number of primitive shell pairs           2360
 maxK2 (contraction) of shell pair           64
 max number of K2 of shell pair               1
 max number of CS2 of shell pair            196
 max number of PS2 of shell pair            248
 mem total for path MDJ                  541562
 -------------------------------------------------------
 Smallest overlap matrix eigenvalue = 1.00E-04
 Guess MOs from SCF MO coefficient file
 Reading MOs from coefficient file
 Reading MOs from coefficient file
 Long-range K will be added via erf
 Coulomb attenuation parameter = 0.3 bohr**(-1)
 A restricted hybrid HF-DFT SCF calculation will be
 performed using Geometric Direct Minimization
 Exchange:     0.6362 Hartree-Fock + 1.0000 wB97X-2(TQZ) + LR-HF
 Correlation:  1.0000 wB97X-2(TQZ)
 Using Euler-Maclaurin-Lebedev (99,590) quadrature formula
 SCF converges when RMS gradient is below 1.0E-08
Using Q-Chem read-in guess as SCF_GUESS READ specified.

 using 8 threads for integral computing
 -------------------------------------------------------
 OpenMP Integral computing Module                
 Release: version 1.0, May 2013, Q-Chem Inc. Pittsburgh 
 -------------------------------------------------------
 using 8 threads for integral computing
 -------------------------------------------------------
 OpenMP Integral computing Module                
 Release: version 1.0, May 2013, Q-Chem Inc. Pittsburgh 
 -------------------------------------------------------
TIMEINFO->: J/JK contribution 9.18 sec.
 -------------------------------------------------------
 OpenMP BLAS3 based DFT computing Module                
 Release: version 1.0, May 2013, Q-Chem Inc. Pittsburgh 
 -------------------------------------------------------
 ---------------------------------------
  Cycle       Energy        RMS Gradient
 ---------------------------------------
    1     -39.7187899275      2.91E-04 Normal BFGS step
TIMEINFO->: J/JK contribution 9.10 sec.
    2     -39.7187902829      2.30E-04 Normal BFGS step
TIMEINFO->: J/JK contribution 9.11 sec.
    3     -39.7187903434      4.84E-05 Normal BFGS step
TIMEINFO->: J/JK contribution 9.02 sec.
    4     -39.7187903463      9.40E-06 Normal BFGS step
TIMEINFO->: J/JK contribution 8.95 sec.
    5     -39.7187903464      1.67E-06 Normal BFGS step
TIMEINFO->: J/JK contribution 9.00 sec.
    6     -39.7187903464      3.69E-07 Normal BFGS step
TIMEINFO->: J/JK contribution 8.93 sec.
    7     -39.7187903464      3.81E-08 Normal BFGS step
TIMEINFO->: J/JK contribution 9.04 sec.
    8     -39.7187903464      8.44E-09 Convergence criterion met
 ---------------------------------------
 SCF time:  CPU 138.95 s  wall 17.52 s
 SCF   energy in the final basis set = -39.71879035
 Total energy in the final basis set = -39.71879035
 
 Components of the MP2 correlation energy:
        aaaa  correlation energy =        -0.0140156971 au
        abab  correlation energy =        -0.0830716471 au
        bbbb  correlation energy =        -0.0055443244 au
        non-Brillouin singles    =        -0.0018241355 au

 Total  MP2   correlation energy =                    -0.10445580 au
        MP2         total energy =                   -39.82324615 au
 
 --------------------------------------------------------------
 
                    Orbital Energies (a.u.)
 --------------------------------------------------------------
 
 Alpha MOs
 -- Occupied --
-10.820  -0.885  -0.563  -0.562  -0.358
 -- Virtual --
  0.031   0.046   0.049   0.096   0.131   0.132   0.138   0.213
  0.214   0.230   0.265   0.266   0.330   0.331   0.327   0.344
  0.365   0.386   0.400   0.400   0.415   0.416   0.446   0.446
  0.603   0.610   0.714   0.714   0.806   0.807   0.817   0.818
  0.835   0.871   0.926   0.971   0.971   0.972   0.985   0.985
  1.036   1.045   1.045   1.063   1.112   1.112   1.119   1.119
  1.277   1.392   1.393   1.530   1.558   1.558   1.563   1.565
  1.602   1.602   1.681   1.876   1.876   1.961   2.014   2.015
  2.015   2.126   2.126   2.759   2.869   2.869   2.998   3.131
  3.132   3.412   3.413   3.428   3.511   3.511   3.566   3.566
  3.577   3.605   3.790   3.827   3.837   3.837   4.125   4.125
  4.260   4.281   4.281   4.512   4.535   4.698   4.698   4.735
  4.735   4.915   4.935   5.160   5.160   5.258   5.258   5.321
  5.321   6.020   6.301   6.301   6.572   6.663  15.461  16.448
 16.448  17.380  41.152  41.152  41.375  41.398  41.398  80.673
 81.387  81.387  86.780
 
 Beta MOs
 -- Occupied --
-10.805  -0.824  -0.547  -0.547
 -- Virtual --
  0.097   0.038   0.050   0.053   0.124   0.135   0.137   0.144
  0.215   0.216   0.245   0.268   0.268   0.334   0.335   0.343
  0.345   0.365   0.394   0.399   0.399   0.414   0.415   0.450
  0.451   0.623   0.641   0.713   0.714   0.810   0.811   0.836
  0.837   0.837   0.876   0.940   0.973   0.976   0.976   0.994
  0.994   1.034   1.045   1.045   1.060   1.111   1.111   1.136
  1.136   1.277   1.393   1.393   1.532   1.565   1.566   1.566
  1.599   1.609   1.609   1.714   1.881   1.881   1.978   2.009
  2.028   2.028   2.129   2.129   2.820   2.877   2.877   3.006
  3.166   3.166   3.428   3.428   3.461   3.529   3.529   3.576
  3.576   3.580   3.631   3.807   3.830   3.843   3.843   4.135
  4.135   4.265   4.292   4.292   4.537   4.544   4.703   4.703
  4.739   4.739   4.914   4.948   5.164   5.164   5.277   5.278
  5.327   5.327   6.024   6.305   6.305   6.577   6.688  15.493
 16.453  16.453  17.398  41.162  41.162  41.387  41.398  41.398
 80.684  81.389  81.389  86.785
 --------------------------------------------------------------
 
          Ground-State Mulliken Net Atomic Charges

     Atom                 Charge (a.u.)
  ----------------------------------------
      1 C                    -1.412258
      2 H                     0.470204
      3 H                     0.471027
      4 H                     0.471027
  ----------------------------------------
  Sum of atomic charges =     0.000000

 -----------------------------------------------------------------
                    Cartesian Multipole Moments
 -----------------------------------------------------------------
    Charge (ESU x 10^10)
                 0.0000
    Dipole Moment (Debye)
         X      -0.0014      Y       0.0000      Z       0.0000
       Tot       0.0014
    Quadrupole Moments (Debye-Ang)
        XX      -7.2759     XY      -0.0000     YY      -7.2652
        XZ       0.0000     YZ      -0.0000     ZZ      -9.1458
    Octopole Moments (Debye-Ang^2)
       XXX       0.8956    XXY       0.0000    XYY      -0.9032
       YYY       0.0000    XXZ       0.0000    XYZ      -0.0000
       YYZ       0.0000    XZZ      -0.0006    YZZ       0.0000
       ZZZ       0.0000
    Hexadecapole Moments (Debye-Ang^3)
      XXXX     -14.9693   XXXY      -0.0000   XXYY      -4.9817
      XYYY      -0.0000   YYYY     -14.9234   XXXZ       0.0000
      XXYZ      -0.0000   XYYZ      -0.0000   YYYZ      -0.0000
      XXZZ      -4.8961   XYZZ      -0.0000   YYZZ      -4.8898
      XZZZ       0.0000   YZZZ      -0.0000   ZZZZ     -11.8287
 -----------------------------------------------------------------
Archival summary:
1\1\n0086.mhg0\SP\ROProcedureUnspecified\BasisUnspecified\13(2)\yhljason\SatOct301:54:002020SatOct301:54:002020\0\\#,ROProcedureUnspecified,BasisUnspecified,\\0,2\C\H,1,1.07896\H,1,1.07896,2,119.998\H,1,1.079,2,120.001,3,-180,0\\\@

 Total job time:  32.67s(wall), 259.16s(cpu) 
 Sat Oct  3 01:54:00 2020

        *************************************************************
        *                                                           *
        *  Thank you very much for using Q-Chem.  Have a nice day.  *
        *                                                           *
        *************************************************************


 
User input: 4 of 8 
 
Q-Chem Developer Version!
                  Welcome to Q-Chem
     A Quantum Leap Into The Future Of Chemistry


 Q-Chem 5.1, Q-Chem, Inc., Pleasanton, CA (2018)

 Yihan Shao,  Zhengting Gan,  E. Epifanovsky,  A. T. B. Gilbert,  M. Wormit,  
 J. Kussmann,  A. W. Lange,  A. Behn,  Jia Deng,  Xintian Feng,  D. Ghosh,  
 M. Goldey,  P. R. Horn,  L. D. Jacobson,  I. Kaliman,  T. Kus,  A. Landau,  
 Jie Liu,  E. I. Proynov,  R. M. Richard,  R. P. Steele,  E. J. Sundstrom,  
 H. L. Woodcock III,  P. M. Zimmerman,  D. Zuev,  B. Albrecht,  E. Alguire,  
 S. A. Baeppler,  D. Barton,  Z. Benda,  Y. A. Bernard,  E. J. Berquist,  
 K. B. Bravaya,  H. Burton,  D. Casanova,  Chun-Min Chang,  Yunqing Chen,  
 A. Chien,  K. D. Closser,  M. P. Coons,  S. Coriani,  S. Dasgupta,  
 A. L. Dempwolff,  M. Diedenhofen,  Hainam Do,  R. G. Edgar,  Po-Tung Fang,  
 S. Faraji,  S. Fatehi,  Qingguo Feng,  K. D. Fenk,  J. Fosso-Tande,  
 Qinghui Ge,  A. Ghysels,  G. Gidofalvi,  J. Gomes,  J. Gonthier,  A. Gunina,  
 D. Hait,  M. W. D. Hanson-Heine,  P. H. P. Harbach,  A. W. Hauser,  
 J. E. Herr,  E. G. Hohenstein,  Z. C. Holden,  Kerwin Hui,  B. C. Huynh,  
 T.-C. Jagau,  Hyunjun Ji,  B. Kaduk,  K. Khistyaev,  Jaehoon Kim,  
 P. Klunzinger,  K. Koh,  D. Kosenkov,  L. Koulias,  T. Kowalczyk,  
 C. M. Krauter,  A. Kunitsa,  Ka Un Lao,  A. Laurent,  K. V. Lawler,  
 Joonho Lee,  D. Lefrancois,  S. Lehtola,  D. S. Levine,  Yi-Pei Li,  
 You-Sheng Lin,  Fenglai Liu,  E. Livshits,  A. Luenser,  P. Manohar,  
 E. Mansoor,  S. F. Manzer,  Shan-Ping Mao,  Yuezhi Mao,  N. Mardirossian,  
 A. V. Marenich,  T. Markovich,  L. A. Martinez-Martinez,  S. A. Maurer,  
 N. J. Mayhall,  S. C. McKenzie,  J.-M. Mewes,  A. F. Morrison,  
 J. W. Mullinax,  K. Nanda,  T. S. Nguyen-Beck,  R. Olivares-Amaya,  
 J. A. Parkhill,  T. M. Perrine,  F. Plasser,  P. Pokhilko,  S. Prager,  
 A. Prociuk,  E. Ramos,  D. R. Rehn,  F. Rob,  M. Schneider,  N. Sergueev,  
 S. M. Sharada,  S. Sharma,  D. W. Small,  T. Stauch,  T. Stein,  
 Yu-Chuan Su,  A. J. W. Thom,  A. Tkatchenko,  T. Tsuchimochi,  N. M. Tubman,  
 L. Vogt,  M. L. Vidal,  O. Vydrov,  M. A. Watson,  J. Wenzel,  
 M. de Wergifosse,  T. A. Wesolowski,  A. White,  J. Witte,  A. Yamada,  
 Jun Yang,  K. Yao,  S. Yeganeh,  S. R. Yost,  Zhi-Qiang You,  A. Zech,  
 Igor Ying Zhang,  Xing Zhang,  Yan Zhao,  Ying Zhu,  B. R. Brooks,  
 G. K. L. Chan,  C. J. Cramer,  M. S. Gordon,  W. J. Hehre,  A. Klamt,  
 M. W. Schmidt,  C. D. Sherrill,  D. G. Truhlar,  A. Aspuru-Guzik,  R. Baer,  
 A. T. Bell,  N. A. Besley,  Jeng-Da Chai,  A. E. DePrince, III,  
 R. A. DiStasio Jr.,  A. Dreuw,  B. D. Dunietz,  T. R. Furlani,  
 Chao-Ping Hsu,  Yousung Jung,  Jing Kong,  D. S. Lambrecht,  WanZhen Liang,  
 C. Ochsenfeld,  V. A. Rassolov,  L. V. Slipchenko,  J. E. Subotnik,  
 T. Van Voorhis,  J. M. Herbert,  A. I. Krylov,  P. M. W. Gill,  M. Head-Gordon

 Contributors to earlier versions of Q-Chem not listed above: 
 R. D. Adamson,  B. Austin,  J. Baker,  G. J. O. Beran,  K. Brandhorst,  
 S. T. Brown,  E. F. C. Byrd,  A. K. Chakraborty,  C.-L. Cheng,  
 Siu Hung Chien,  D. M. Chipman,  D. L. Crittenden,  H. Dachsel,  
 R. J. Doerksen,  A. D. Dutoi,  L. Fusti-Molnar,  W. A. Goddard III,  
 A. Golubeva-Zadorozhnaya,  S. R. Gwaltney,  G. Hawkins,  A. Heyden,  
 S. Hirata,  G. Kedziora,  F. J. Keil,  C. Kelley,  Jihan Kim,  R. A. King,  
 R. Z. Khaliullin,  P. P. Korambath,  W. Kurlancheek,  A. M. Lee,  M. S. Lee,  
 S. V. Levchenko,  Ching Yeh Lin,  D. Liotard,  R. C. Lochan,  I. Lotan,  
 P. E. Maslen,  N. Nair,  D. P. O'Neill,  D. Neuhauser,  E. Neuscamman,  
 C. M. Oana,  R. Olson,  B. Peters,  R. Peverati,  P. A. Pieniazek,  
 Y. M. Rhee,  J. Ritchie,  M. A. Rohrdanz,  E. Rosta,  N. J. Russ,  
 H. F. Schaefer III,  N. E. Schultz,  N. Shenvi,  A. C. Simmonett,  A. Sodt,  
 D. Stuck,  K. S. Thanthiriwatte,  V. Vanovschi,  Tao Wang,  A. Warshel,  
 C. F. Williams,  Q. Wu,  X. Xu,  W. Zhang

 Please cite Q-Chem as follows:
 Y. Shao et al., Mol. Phys. 113, 184-215 (2015)
 DOI: 10.1080/00268976.2014.952696

 Q-Chem 5.1.1 for Intel X86 EM64T Linux

 Parts of Q-Chem use Armadillo 8.300.2 (Tropical Shenanigans).
 http://arma.sourceforge.net/

 Q-Chem begins on Sat Oct  3 01:54:00 2020  

Host: n0086.mhg0
0

     Scratch files written to /local/scratch/users/yhljason/CH3_wB97X-2TQZ_aug-cc-pcVTZ.inp20201003015116//
The previous job contains 0 fragments, simply inherited here
Input Ideriv = 0
Curr. Ideriv = -1
Max.  Ideriv = 0
Input Ideriv = 1
Curr. Ideriv = 0
Max.  Ideriv = 0

Checking the input file for inconsistencies... 	...done.

--------------------------------------------------------------
User input:
--------------------------------------------------------------
$molecule
read
$end

$rem

jobtype sp
method wB97X-2(TQZ)
xc_grid 000099000590
basis aug-cc-pcVTZ
max_scf_cycles 200
thresh 14
scf_convergence 8
mem_total 128000
cc_memory 96000
cc_backend xm
mem_static 1500
symmetry false
sym_ignore true
scf_guess read
unrestricted false
scf_algorithm gdm
n_frozen_core 0
$end

$multipole_field
XX -0.0001
$end


--------------------------------------------------------------
 ----------------------------------------------------------------
             Standard Nuclear Orientation (Angstroms)
    I     Atom           X                Y                Z
 ----------------------------------------------------------------
    1      C       0.0000000000     0.0000000000     0.0000000000
    2      H       1.0790000000     0.0000000000     0.0000000000
    3      H      -0.5395000000    -0.9344000000     0.0000000000
    4      H      -0.5395000000     0.9344000000     0.0000000000
 ----------------------------------------------------------------
 Nuclear Repulsion Energy =     9.6774633775 hartrees
 There are        5 alpha and        4 beta electrons
 Requested basis set is aug-cc-pCVTZ
 There are 46 shells and 128 basis functions

 Total QAlloc Memory Limit 128000 MB
 Mega-Array Size      1467 MB
 MEM_STATIC part      1500 MB

                       Distance Matrix (Angstroms)
             C (  1)   H (  2)   H (  3)
   H (  2)  1.079000
   H (  3)  1.078964  1.868862
   H (  4)  1.078964  1.868862  1.868800
 
 Applying Cartesian multipole field
    Component          Value
    ---------          -----
     (2,0,0)       -1.00000E-04
 Nucleus-field energy     =    -0.0006236370 hartrees
 A cutoff of  1.0D-14 yielded   1081 shell pairs
 There are      8443 function pairs (     10725 Cartesian)
 
 -------------------------------------------------------
 OpenMP Integral Computing Module                       
 Release: version 1.0, May 2013, Q-Chem Inc. Pittsburgh 
 -------------------------------------------------------
 Integral Job Info:
 Integral job number is                      11
 Integral operator is                         1
 short-range coefficients              63615800
 long-range coefficients              100000000
 Omega coefficients                         300
 if combine SR and LR in K                    1
 Integral screening is                        0
 Integral computing path is                   2
 max size of driver memory is            800000
 size of driver memory is                776718
 size of scratch memory is              6904264
 max col of scratch BK array              10000
 max len of scratch array in speh3          662
 max len of scratch index in speh4           32
 max int batch size is                      520
 min int batch size is                       52
 fixed nKL is                                52
 max L of basis functions is                  3
 order of int derivative is                   0
 number of shells is                         46
 number of basis is                         144
 number of cartesian basis is               144
 number of contracted shell pairs          1081
 number of primitive shell pairs           2360
 maxK2 (contraction) of shell pair           64
 max number of K2 of shell pair               1
 max number of CS2 of shell pair            196
 max number of PS2 of shell pair            248
 mem total for path MDJ                  541562
 -------------------------------------------------------
 Smallest overlap matrix eigenvalue = 1.00E-04
 Guess MOs from SCF MO coefficient file
 Reading MOs from coefficient file
 Reading MOs from coefficient file
 Long-range K will be added via erf
 Coulomb attenuation parameter = 0.3 bohr**(-1)
 A restricted hybrid HF-DFT SCF calculation will be
 performed using Geometric Direct Minimization
 Exchange:     0.6362 Hartree-Fock + 1.0000 wB97X-2(TQZ) + LR-HF
 Correlation:  1.0000 wB97X-2(TQZ)
 Using Euler-Maclaurin-Lebedev (99,590) quadrature formula
 SCF converges when RMS gradient is below 1.0E-08
Using Q-Chem read-in guess as SCF_GUESS READ specified.

 using 8 threads for integral computing
 -------------------------------------------------------
 OpenMP Integral computing Module                
 Release: version 1.0, May 2013, Q-Chem Inc. Pittsburgh 
 -------------------------------------------------------
 using 8 threads for integral computing
 -------------------------------------------------------
 OpenMP Integral computing Module                
 Release: version 1.0, May 2013, Q-Chem Inc. Pittsburgh 
 -------------------------------------------------------
TIMEINFO->: J/JK contribution 9.07 sec.
 -------------------------------------------------------
 OpenMP BLAS3 based DFT computing Module                
 Release: version 1.0, May 2013, Q-Chem Inc. Pittsburgh 
 -------------------------------------------------------
 ---------------------------------------
  Cycle       Energy        RMS Gradient
 ---------------------------------------
    1     -39.7177084614      5.83E-04 Normal BFGS step
TIMEINFO->: J/JK contribution 9.09 sec.
    2     -39.7177098850      4.55E-04 Normal BFGS step
TIMEINFO->: J/JK contribution 9.12 sec.
    3     -39.7177101250      9.58E-05 Normal BFGS step
TIMEINFO->: J/JK contribution 8.94 sec.
    4     -39.7177101363      1.84E-05 Normal BFGS step
TIMEINFO->: J/JK contribution 9.11 sec.
    5     -39.7177101369      3.30E-06 Normal BFGS step
TIMEINFO->: J/JK contribution 9.14 sec.
    6     -39.7177101369      7.33E-07 Normal BFGS step
TIMEINFO->: J/JK contribution 9.04 sec.
    7     -39.7177101369      7.44E-08 Normal BFGS step
TIMEINFO->: J/JK contribution 8.99 sec.
   GDM::WARNING energy changes are now smaller than effective accuracy.
   GDM::        calculation will continue, but THRESH should be increased
   GDM::        or SCF_CONVERGENCE decreased.
   GDM::        effective_thresh =   5.000000000000000E-011
    8     -39.7177101369      1.65E-08 Normal BFGS step
TIMEINFO->: J/JK contribution 8.96 sec.
    9     -39.7177101369      2.53E-09 Convergence criterion met
 ---------------------------------------
 SCF time:  CPU 157.07 s  wall 19.80 s
 SCF   energy in the final basis set = -39.71771014
 Total energy in the final basis set = -39.71771014
 
 Components of the MP2 correlation energy:
        aaaa  correlation energy =        -0.0140141937 au
        abab  correlation energy =        -0.0830695313 au
        bbbb  correlation energy =        -0.0055444825 au
        non-Brillouin singles    =        -0.0018247586 au

 Total  MP2   correlation energy =                    -0.10445297 au
        MP2         total energy =                   -39.82216310 au
 
 --------------------------------------------------------------
 
                    Orbital Energies (a.u.)
 --------------------------------------------------------------
 
 Alpha MOs
 -- Occupied --
-10.819  -0.885  -0.562  -0.562  -0.358
 -- Virtual --
  0.036   0.053   0.056   0.098   0.135   0.137   0.142   0.216
  0.217   0.231   0.267   0.267   0.333   0.329   0.334   0.347
  0.368   0.389   0.402   0.402   0.418   0.419   0.449   0.449
  0.604   0.611   0.715   0.716   0.808   0.809   0.818   0.819
  0.837   0.873   0.927   0.972   0.973   0.973   0.986   0.986
  1.038   1.047   1.047   1.064   1.113   1.113   1.120   1.120
  1.278   1.394   1.394   1.531   1.559   1.560   1.564   1.565
  1.603   1.603   1.682   1.877   1.877   1.962   2.015   2.016
  2.016   2.127   2.127   2.759   2.870   2.870   2.999   3.132
  3.132   3.413   3.413   3.429   3.512   3.512   3.567   3.567
  3.578   3.605   3.791   3.828   3.838   3.838   4.126   4.126
  4.261   4.282   4.282   4.513   4.536   4.699   4.699   4.736
  4.736   4.916   4.936   5.161   5.161   5.259   5.259   5.322
  5.322   6.021   6.302   6.302   6.573   6.664  15.462  16.449
 16.449  17.381  41.153  41.153  41.376  41.399  41.399  80.674
 81.388  81.388  86.781
 
 Beta MOs
 -- Occupied --
-10.804  -0.823  -0.546  -0.546
 -- Virtual --
  0.098   0.043   0.057   0.060   0.125   0.140   0.141   0.148
  0.218   0.218   0.246   0.269   0.270   0.337   0.345   0.338
  0.348   0.367   0.397   0.401   0.401   0.417   0.418   0.453
  0.453   0.625   0.642   0.715   0.715   0.812   0.813   0.837
  0.838   0.838   0.878   0.941   0.974   0.977   0.978   0.995
  0.995   1.035   1.046   1.047   1.061   1.112   1.113   1.137
  1.137   1.278   1.394   1.394   1.533   1.566   1.567   1.567
  1.600   1.610   1.610   1.714   1.882   1.882   1.979   2.010
  2.029   2.029   2.130   2.130   2.821   2.878   2.878   3.007
  3.167   3.167   3.429   3.429   3.462   3.530   3.530   3.577
  3.577   3.581   3.631   3.808   3.831   3.844   3.844   4.136
  4.136   4.266   4.293   4.293   4.538   4.545   4.704   4.704
  4.739   4.739   4.915   4.948   5.165   5.165   5.278   5.278
  5.328   5.328   6.025   6.306   6.306   6.577   6.688  15.494
 16.454  16.454  17.398  41.162  41.162  41.388  41.399  41.399
 80.685  81.389  81.389  86.786
 --------------------------------------------------------------
 
          Ground-State Mulliken Net Atomic Charges

     Atom                 Charge (a.u.)
  ----------------------------------------
      1 C                    -1.413692
      2 H                     0.471751
      3 H                     0.470971
      4 H                     0.470971
  ----------------------------------------
  Sum of atomic charges =     0.000000

 -----------------------------------------------------------------
                    Cartesian Multipole Moments
 -----------------------------------------------------------------
    Charge (ESU x 10^10)
                 0.0000
    Dipole Moment (Debye)
         X       0.0013      Y       0.0000      Z      -0.0000
       Tot       0.0013
    Quadrupole Moments (Debye-Ang)
        XX      -7.2534     XY      -0.0000     YY      -7.2643
        XZ      -0.0000     YZ      -0.0000     ZZ      -9.1430
    Octopole Moments (Debye-Ang^2)
       XXX       0.9119    XXY       0.0000    XYY      -0.9045
       YYY       0.0000    XXZ      -0.0000    XYZ       0.0000
       YYZ      -0.0000    XZZ       0.0005    YZZ       0.0000
       ZZZ      -0.0000
    Hexadecapole Moments (Debye-Ang^3)
      XXXX     -14.8746   XXXY      -0.0000   XXYY      -4.9660
      XYYY      -0.0000   YYYY     -14.9194   XXXZ      -0.0000
      XXYZ      -0.0000   XYYZ      -0.0000   YYYZ      -0.0000
      XXZZ      -4.8807   XYZZ       0.0000   YYZZ      -4.8867
      XZZZ      -0.0000   YZZZ      -0.0000   ZZZZ     -11.8144
 -----------------------------------------------------------------
Archival summary:
1\1\n0086.mhg0\SP\ROProcedureUnspecified\BasisUnspecified\13(2)\yhljason\SatOct301:54:352020SatOct301:54:352020\0\\#,ROProcedureUnspecified,BasisUnspecified,\\0,2\C\H,1,1.07896\H,1,1.07896,2,119.998\H,1,1.079,2,120.001,3,-180,0\\\@

 Total job time:  35.01s(wall), 277.71s(cpu) 
 Sat Oct  3 01:54:35 2020

        *************************************************************
        *                                                           *
        *  Thank you very much for using Q-Chem.  Have a nice day.  *
        *                                                           *
        *************************************************************


 
User input: 5 of 8 
 
Q-Chem Developer Version!
                  Welcome to Q-Chem
     A Quantum Leap Into The Future Of Chemistry


 Q-Chem 5.1, Q-Chem, Inc., Pleasanton, CA (2018)

 Yihan Shao,  Zhengting Gan,  E. Epifanovsky,  A. T. B. Gilbert,  M. Wormit,  
 J. Kussmann,  A. W. Lange,  A. Behn,  Jia Deng,  Xintian Feng,  D. Ghosh,  
 M. Goldey,  P. R. Horn,  L. D. Jacobson,  I. Kaliman,  T. Kus,  A. Landau,  
 Jie Liu,  E. I. Proynov,  R. M. Richard,  R. P. Steele,  E. J. Sundstrom,  
 H. L. Woodcock III,  P. M. Zimmerman,  D. Zuev,  B. Albrecht,  E. Alguire,  
 S. A. Baeppler,  D. Barton,  Z. Benda,  Y. A. Bernard,  E. J. Berquist,  
 K. B. Bravaya,  H. Burton,  D. Casanova,  Chun-Min Chang,  Yunqing Chen,  
 A. Chien,  K. D. Closser,  M. P. Coons,  S. Coriani,  S. Dasgupta,  
 A. L. Dempwolff,  M. Diedenhofen,  Hainam Do,  R. G. Edgar,  Po-Tung Fang,  
 S. Faraji,  S. Fatehi,  Qingguo Feng,  K. D. Fenk,  J. Fosso-Tande,  
 Qinghui Ge,  A. Ghysels,  G. Gidofalvi,  J. Gomes,  J. Gonthier,  A. Gunina,  
 D. Hait,  M. W. D. Hanson-Heine,  P. H. P. Harbach,  A. W. Hauser,  
 J. E. Herr,  E. G. Hohenstein,  Z. C. Holden,  Kerwin Hui,  B. C. Huynh,  
 T.-C. Jagau,  Hyunjun Ji,  B. Kaduk,  K. Khistyaev,  Jaehoon Kim,  
 P. Klunzinger,  K. Koh,  D. Kosenkov,  L. Koulias,  T. Kowalczyk,  
 C. M. Krauter,  A. Kunitsa,  Ka Un Lao,  A. Laurent,  K. V. Lawler,  
 Joonho Lee,  D. Lefrancois,  S. Lehtola,  D. S. Levine,  Yi-Pei Li,  
 You-Sheng Lin,  Fenglai Liu,  E. Livshits,  A. Luenser,  P. Manohar,  
 E. Mansoor,  S. F. Manzer,  Shan-Ping Mao,  Yuezhi Mao,  N. Mardirossian,  
 A. V. Marenich,  T. Markovich,  L. A. Martinez-Martinez,  S. A. Maurer,  
 N. J. Mayhall,  S. C. McKenzie,  J.-M. Mewes,  A. F. Morrison,  
 J. W. Mullinax,  K. Nanda,  T. S. Nguyen-Beck,  R. Olivares-Amaya,  
 J. A. Parkhill,  T. M. Perrine,  F. Plasser,  P. Pokhilko,  S. Prager,  
 A. Prociuk,  E. Ramos,  D. R. Rehn,  F. Rob,  M. Schneider,  N. Sergueev,  
 S. M. Sharada,  S. Sharma,  D. W. Small,  T. Stauch,  T. Stein,  
 Yu-Chuan Su,  A. J. W. Thom,  A. Tkatchenko,  T. Tsuchimochi,  N. M. Tubman,  
 L. Vogt,  M. L. Vidal,  O. Vydrov,  M. A. Watson,  J. Wenzel,  
 M. de Wergifosse,  T. A. Wesolowski,  A. White,  J. Witte,  A. Yamada,  
 Jun Yang,  K. Yao,  S. Yeganeh,  S. R. Yost,  Zhi-Qiang You,  A. Zech,  
 Igor Ying Zhang,  Xing Zhang,  Yan Zhao,  Ying Zhu,  B. R. Brooks,  
 G. K. L. Chan,  C. J. Cramer,  M. S. Gordon,  W. J. Hehre,  A. Klamt,  
 M. W. Schmidt,  C. D. Sherrill,  D. G. Truhlar,  A. Aspuru-Guzik,  R. Baer,  
 A. T. Bell,  N. A. Besley,  Jeng-Da Chai,  A. E. DePrince, III,  
 R. A. DiStasio Jr.,  A. Dreuw,  B. D. Dunietz,  T. R. Furlani,  
 Chao-Ping Hsu,  Yousung Jung,  Jing Kong,  D. S. Lambrecht,  WanZhen Liang,  
 C. Ochsenfeld,  V. A. Rassolov,  L. V. Slipchenko,  J. E. Subotnik,  
 T. Van Voorhis,  J. M. Herbert,  A. I. Krylov,  P. M. W. Gill,  M. Head-Gordon

 Contributors to earlier versions of Q-Chem not listed above: 
 R. D. Adamson,  B. Austin,  J. Baker,  G. J. O. Beran,  K. Brandhorst,  
 S. T. Brown,  E. F. C. Byrd,  A. K. Chakraborty,  C.-L. Cheng,  
 Siu Hung Chien,  D. M. Chipman,  D. L. Crittenden,  H. Dachsel,  
 R. J. Doerksen,  A. D. Dutoi,  L. Fusti-Molnar,  W. A. Goddard III,  
 A. Golubeva-Zadorozhnaya,  S. R. Gwaltney,  G. Hawkins,  A. Heyden,  
 S. Hirata,  G. Kedziora,  F. J. Keil,  C. Kelley,  Jihan Kim,  R. A. King,  
 R. Z. Khaliullin,  P. P. Korambath,  W. Kurlancheek,  A. M. Lee,  M. S. Lee,  
 S. V. Levchenko,  Ching Yeh Lin,  D. Liotard,  R. C. Lochan,  I. Lotan,  
 P. E. Maslen,  N. Nair,  D. P. O'Neill,  D. Neuhauser,  E. Neuscamman,  
 C. M. Oana,  R. Olson,  B. Peters,  R. Peverati,  P. A. Pieniazek,  
 Y. M. Rhee,  J. Ritchie,  M. A. Rohrdanz,  E. Rosta,  N. J. Russ,  
 H. F. Schaefer III,  N. E. Schultz,  N. Shenvi,  A. C. Simmonett,  A. Sodt,  
 D. Stuck,  K. S. Thanthiriwatte,  V. Vanovschi,  Tao Wang,  A. Warshel,  
 C. F. Williams,  Q. Wu,  X. Xu,  W. Zhang

 Please cite Q-Chem as follows:
 Y. Shao et al., Mol. Phys. 113, 184-215 (2015)
 DOI: 10.1080/00268976.2014.952696

 Q-Chem 5.1.1 for Intel X86 EM64T Linux

 Parts of Q-Chem use Armadillo 8.300.2 (Tropical Shenanigans).
 http://arma.sourceforge.net/

 Q-Chem begins on Sat Oct  3 01:54:35 2020  

Host: n0086.mhg0
0

     Scratch files written to /local/scratch/users/yhljason/CH3_wB97X-2TQZ_aug-cc-pcVTZ.inp20201003015116//
The previous job contains 0 fragments, simply inherited here
Input Ideriv = 0
Curr. Ideriv = -1
Max.  Ideriv = 0
Input Ideriv = 1
Curr. Ideriv = 0
Max.  Ideriv = 0

Checking the input file for inconsistencies... 	...done.

--------------------------------------------------------------
User input:
--------------------------------------------------------------
$molecule
read
$end

$rem

jobtype sp
method wB97X-2(TQZ)
xc_grid 000099000590
basis aug-cc-pcVTZ
max_scf_cycles 200
thresh 14
scf_convergence 8
mem_total 128000
cc_memory 96000
cc_backend xm
mem_static 1500
symmetry false
sym_ignore true
scf_guess read
unrestricted false
scf_algorithm gdm
n_frozen_core 0
$end

$multipole_field
YY 0.0001
$end


--------------------------------------------------------------
 ----------------------------------------------------------------
             Standard Nuclear Orientation (Angstroms)
    I     Atom           X                Y                Z
 ----------------------------------------------------------------
    1      C       0.0000000000     0.0000000000     0.0000000000
    2      H       1.0790000000     0.0000000000     0.0000000000
    3      H      -0.5395000000    -0.9344000000     0.0000000000
    4      H      -0.5395000000     0.9344000000     0.0000000000
 ----------------------------------------------------------------
 Nuclear Repulsion Energy =     9.6774633775 hartrees
 There are        5 alpha and        4 beta electrons
 Requested basis set is aug-cc-pCVTZ
 There are 46 shells and 128 basis functions

 Total QAlloc Memory Limit 128000 MB
 Mega-Array Size      1467 MB
 MEM_STATIC part      1500 MB

                       Distance Matrix (Angstroms)
             C (  1)   H (  2)   H (  3)
   H (  2)  1.079000
   H (  3)  1.078964  1.868862
   H (  4)  1.078964  1.868862  1.868800
 
 Applying Cartesian multipole field
    Component          Value
    ---------          -----
     (0,2,0)        1.00000E-04
 Nucleus-field energy     =     0.0006235817 hartrees
 A cutoff of  1.0D-14 yielded   1081 shell pairs
 There are      8443 function pairs (     10725 Cartesian)
 
 -------------------------------------------------------
 OpenMP Integral Computing Module                       
 Release: version 1.0, May 2013, Q-Chem Inc. Pittsburgh 
 -------------------------------------------------------
 Integral Job Info:
 Integral job number is                      11
 Integral operator is                         1
 short-range coefficients              63615800
 long-range coefficients              100000000
 Omega coefficients                         300
 if combine SR and LR in K                    1
 Integral screening is                        0
 Integral computing path is                   2
 max size of driver memory is            800000
 size of driver memory is                776718
 size of scratch memory is              6904264
 max col of scratch BK array              10000
 max len of scratch array in speh3          662
 max len of scratch index in speh4           32
 max int batch size is                      520
 min int batch size is                       52
 fixed nKL is                                52
 max L of basis functions is                  3
 order of int derivative is                   0
 number of shells is                         46
 number of basis is                         144
 number of cartesian basis is               144
 number of contracted shell pairs          1081
 number of primitive shell pairs           2360
 maxK2 (contraction) of shell pair           64
 max number of K2 of shell pair               1
 max number of CS2 of shell pair            196
 max number of PS2 of shell pair            248
 mem total for path MDJ                  541562
 -------------------------------------------------------
 Smallest overlap matrix eigenvalue = 1.00E-04
 Guess MOs from SCF MO coefficient file
 Reading MOs from coefficient file
 Reading MOs from coefficient file
 Long-range K will be added via erf
 Coulomb attenuation parameter = 0.3 bohr**(-1)
 A restricted hybrid HF-DFT SCF calculation will be
 performed using Geometric Direct Minimization
 Exchange:     0.6362 Hartree-Fock + 1.0000 wB97X-2(TQZ) + LR-HF
 Correlation:  1.0000 wB97X-2(TQZ)
 Using Euler-Maclaurin-Lebedev (99,590) quadrature formula
 SCF converges when RMS gradient is below 1.0E-08
Using Q-Chem read-in guess as SCF_GUESS READ specified.

 using 8 threads for integral computing
 -------------------------------------------------------
 OpenMP Integral computing Module                
 Release: version 1.0, May 2013, Q-Chem Inc. Pittsburgh 
 -------------------------------------------------------
 using 8 threads for integral computing
 -------------------------------------------------------
 OpenMP Integral computing Module                
 Release: version 1.0, May 2013, Q-Chem Inc. Pittsburgh 
 -------------------------------------------------------
TIMEINFO->: J/JK contribution 9.11 sec.
 -------------------------------------------------------
 OpenMP BLAS3 based DFT computing Module                
 Release: version 1.0, May 2013, Q-Chem Inc. Pittsburgh 
 -------------------------------------------------------
 ---------------------------------------
  Cycle       Energy        RMS Gradient
 ---------------------------------------
    1     -39.7187894919      4.68E-04 Normal BFGS step
TIMEINFO->: J/JK contribution 9.11 sec.
    2     -39.7187901652      4.59E-04 Normal BFGS step
TIMEINFO->: J/JK contribution 9.25 sec.
    3     -39.7187903564      6.39E-05 Normal BFGS step
TIMEINFO->: J/JK contribution 9.11 sec.
    4     -39.7187903595      1.79E-05 Normal BFGS step
TIMEINFO->: J/JK contribution 9.03 sec.
    5     -39.7187903598      1.97E-06 Normal BFGS step
TIMEINFO->: J/JK contribution 9.16 sec.
    6     -39.7187903598      4.76E-07 Normal BFGS step
TIMEINFO->: J/JK contribution 9.06 sec.
    7     -39.7187903598      3.33E-08 Normal BFGS step
TIMEINFO->: J/JK contribution 9.02 sec.
   GDM::WARNING energy changes are now smaller than effective accuracy.
   GDM::        calculation will continue, but THRESH should be increased
   GDM::        or SCF_CONVERGENCE decreased.
   GDM::        effective_thresh =   5.000000000000000E-011
    8     -39.7187903598      4.93E-09 Convergence criterion met
 ---------------------------------------
 SCF time:  CPU 140.91 s  wall 17.76 s
 SCF   energy in the final basis set = -39.71879036
 Total energy in the final basis set = -39.71879036
 
 Components of the MP2 correlation energy:
        aaaa  correlation energy =        -0.0140156972 au
        abab  correlation energy =        -0.0830716470 au
        bbbb  correlation energy =        -0.0055443245 au
        non-Brillouin singles    =        -0.0018241355 au

 Total  MP2   correlation energy =                    -0.10445580 au
        MP2         total energy =                   -39.82324616 au
 
 --------------------------------------------------------------
 
                    Orbital Energies (a.u.)
 --------------------------------------------------------------
 
 Alpha MOs
 -- Occupied --
-10.820  -0.885  -0.563  -0.562  -0.358
 -- Virtual --
  0.031   0.046   0.049   0.096   0.131   0.132   0.138   0.213
  0.214   0.230   0.265   0.266   0.330   0.331   0.327   0.344
  0.365   0.386   0.400   0.400   0.415   0.416   0.446   0.446
  0.603   0.610   0.714   0.714   0.806   0.807   0.817   0.818
  0.835   0.871   0.926   0.971   0.971   0.972   0.985   0.985
  1.036   1.045   1.045   1.063   1.112   1.112   1.119   1.119
  1.277   1.392   1.393   1.530   1.558   1.558   1.563   1.565
  1.602   1.602   1.681   1.876   1.876   1.961   2.014   2.015
  2.015   2.126   2.126   2.759   2.869   2.869   2.998   3.131
  3.132   3.412   3.413   3.428   3.511   3.511   3.566   3.566
  3.577   3.605   3.790   3.827   3.837   3.837   4.125   4.125
  4.260   4.281   4.281   4.512   4.535   4.698   4.698   4.735
  4.735   4.915   4.935   5.160   5.160   5.258   5.258   5.321
  5.321   6.020   6.301   6.301   6.572   6.663  15.461  16.448
 16.448  17.380  41.152  41.152  41.375  41.398  41.398  80.673
 81.387  81.387  86.780
 
 Beta MOs
 -- Occupied --
-10.805  -0.824  -0.547  -0.547
 -- Virtual --
  0.097   0.038   0.050   0.053   0.124   0.135   0.137   0.144
  0.215   0.216   0.245   0.268   0.268   0.334   0.335   0.343
  0.345   0.365   0.394   0.399   0.399   0.414   0.415   0.450
  0.451   0.623   0.641   0.713   0.714   0.810   0.811   0.836
  0.837   0.837   0.876   0.940   0.973   0.976   0.976   0.994
  0.994   1.034   1.045   1.045   1.060   1.111   1.111   1.136
  1.136   1.277   1.393   1.393   1.532   1.565   1.566   1.566
  1.599   1.609   1.609   1.714   1.881   1.881   1.978   2.009
  2.028   2.028   2.129   2.129   2.820   2.877   2.877   3.006
  3.166   3.166   3.428   3.428   3.461   3.529   3.529   3.576
  3.576   3.580   3.631   3.807   3.830   3.843   3.843   4.135
  4.135   4.265   4.292   4.292   4.537   4.544   4.703   4.703
  4.739   4.739   4.914   4.948   5.164   5.164   5.278   5.278
  5.327   5.327   6.024   6.305   6.305   6.577   6.688  15.493
 16.453  16.453  17.398  41.162  41.162  41.387  41.398  41.398
 80.684  81.389  81.389  86.785
 --------------------------------------------------------------
 
          Ground-State Mulliken Net Atomic Charges

     Atom                 Charge (a.u.)
  ----------------------------------------
      1 C                    -1.412258
      2 H                     0.471269
      3 H                     0.470494
      4 H                     0.470494
  ----------------------------------------
  Sum of atomic charges =     0.000000

 -----------------------------------------------------------------
                    Cartesian Multipole Moments
 -----------------------------------------------------------------
    Charge (ESU x 10^10)
                 0.0000
    Dipole Moment (Debye)
         X       0.0013      Y       0.0000      Z      -0.0000
       Tot       0.0013
    Quadrupole Moments (Debye-Ang)
        XX      -7.2650     XY      -0.0000     YY      -7.2760
        XZ      -0.0000     YZ      -0.0000     ZZ      -9.1458
    Octopole Moments (Debye-Ang^2)
       XXX       0.9069    XXY       0.0000    XYY      -0.8995
       YYY       0.0000    XXZ      -0.0000    XYZ      -0.0000
       YYZ      -0.0000    XZZ       0.0005    YZZ       0.0000
       ZZZ      -0.0000
    Hexadecapole Moments (Debye-Ang^3)
      XXXX     -14.9232   XXXY       0.0000   XXYY      -4.9823
      XYYY       0.0000   YYYY     -14.9684   XXXZ      -0.0000
      XXYZ       0.0000   XYYZ      -0.0000   YYYZ       0.0000
      XXZZ      -4.8900   XYZZ       0.0000   YYZZ      -4.8960
      XZZZ      -0.0000   YZZZ      -0.0000   ZZZZ     -11.8287
 -----------------------------------------------------------------
Archival summary:
1\1\n0086.mhg0\SP\ROProcedureUnspecified\BasisUnspecified\13(2)\yhljason\SatOct301:55:082020SatOct301:55:082020\0\\#,ROProcedureUnspecified,BasisUnspecified,\\0,2\C\H,1,1.07896\H,1,1.07896,2,119.998\H,1,1.079,2,120.001,3,-180,0\\\@

 Total job time:  32.93s(wall), 261.19s(cpu) 
 Sat Oct  3 01:55:08 2020

        *************************************************************
        *                                                           *
        *  Thank you very much for using Q-Chem.  Have a nice day.  *
        *                                                           *
        *************************************************************


 
User input: 6 of 8 
 
Q-Chem Developer Version!
                  Welcome to Q-Chem
     A Quantum Leap Into The Future Of Chemistry


 Q-Chem 5.1, Q-Chem, Inc., Pleasanton, CA (2018)

 Yihan Shao,  Zhengting Gan,  E. Epifanovsky,  A. T. B. Gilbert,  M. Wormit,  
 J. Kussmann,  A. W. Lange,  A. Behn,  Jia Deng,  Xintian Feng,  D. Ghosh,  
 M. Goldey,  P. R. Horn,  L. D. Jacobson,  I. Kaliman,  T. Kus,  A. Landau,  
 Jie Liu,  E. I. Proynov,  R. M. Richard,  R. P. Steele,  E. J. Sundstrom,  
 H. L. Woodcock III,  P. M. Zimmerman,  D. Zuev,  B. Albrecht,  E. Alguire,  
 S. A. Baeppler,  D. Barton,  Z. Benda,  Y. A. Bernard,  E. J. Berquist,  
 K. B. Bravaya,  H. Burton,  D. Casanova,  Chun-Min Chang,  Yunqing Chen,  
 A. Chien,  K. D. Closser,  M. P. Coons,  S. Coriani,  S. Dasgupta,  
 A. L. Dempwolff,  M. Diedenhofen,  Hainam Do,  R. G. Edgar,  Po-Tung Fang,  
 S. Faraji,  S. Fatehi,  Qingguo Feng,  K. D. Fenk,  J. Fosso-Tande,  
 Qinghui Ge,  A. Ghysels,  G. Gidofalvi,  J. Gomes,  J. Gonthier,  A. Gunina,  
 D. Hait,  M. W. D. Hanson-Heine,  P. H. P. Harbach,  A. W. Hauser,  
 J. E. Herr,  E. G. Hohenstein,  Z. C. Holden,  Kerwin Hui,  B. C. Huynh,  
 T.-C. Jagau,  Hyunjun Ji,  B. Kaduk,  K. Khistyaev,  Jaehoon Kim,  
 P. Klunzinger,  K. Koh,  D. Kosenkov,  L. Koulias,  T. Kowalczyk,  
 C. M. Krauter,  A. Kunitsa,  Ka Un Lao,  A. Laurent,  K. V. Lawler,  
 Joonho Lee,  D. Lefrancois,  S. Lehtola,  D. S. Levine,  Yi-Pei Li,  
 You-Sheng Lin,  Fenglai Liu,  E. Livshits,  A. Luenser,  P. Manohar,  
 E. Mansoor,  S. F. Manzer,  Shan-Ping Mao,  Yuezhi Mao,  N. Mardirossian,  
 A. V. Marenich,  T. Markovich,  L. A. Martinez-Martinez,  S. A. Maurer,  
 N. J. Mayhall,  S. C. McKenzie,  J.-M. Mewes,  A. F. Morrison,  
 J. W. Mullinax,  K. Nanda,  T. S. Nguyen-Beck,  R. Olivares-Amaya,  
 J. A. Parkhill,  T. M. Perrine,  F. Plasser,  P. Pokhilko,  S. Prager,  
 A. Prociuk,  E. Ramos,  D. R. Rehn,  F. Rob,  M. Schneider,  N. Sergueev,  
 S. M. Sharada,  S. Sharma,  D. W. Small,  T. Stauch,  T. Stein,  
 Yu-Chuan Su,  A. J. W. Thom,  A. Tkatchenko,  T. Tsuchimochi,  N. M. Tubman,  
 L. Vogt,  M. L. Vidal,  O. Vydrov,  M. A. Watson,  J. Wenzel,  
 M. de Wergifosse,  T. A. Wesolowski,  A. White,  J. Witte,  A. Yamada,  
 Jun Yang,  K. Yao,  S. Yeganeh,  S. R. Yost,  Zhi-Qiang You,  A. Zech,  
 Igor Ying Zhang,  Xing Zhang,  Yan Zhao,  Ying Zhu,  B. R. Brooks,  
 G. K. L. Chan,  C. J. Cramer,  M. S. Gordon,  W. J. Hehre,  A. Klamt,  
 M. W. Schmidt,  C. D. Sherrill,  D. G. Truhlar,  A. Aspuru-Guzik,  R. Baer,  
 A. T. Bell,  N. A. Besley,  Jeng-Da Chai,  A. E. DePrince, III,  
 R. A. DiStasio Jr.,  A. Dreuw,  B. D. Dunietz,  T. R. Furlani,  
 Chao-Ping Hsu,  Yousung Jung,  Jing Kong,  D. S. Lambrecht,  WanZhen Liang,  
 C. Ochsenfeld,  V. A. Rassolov,  L. V. Slipchenko,  J. E. Subotnik,  
 T. Van Voorhis,  J. M. Herbert,  A. I. Krylov,  P. M. W. Gill,  M. Head-Gordon

 Contributors to earlier versions of Q-Chem not listed above: 
 R. D. Adamson,  B. Austin,  J. Baker,  G. J. O. Beran,  K. Brandhorst,  
 S. T. Brown,  E. F. C. Byrd,  A. K. Chakraborty,  C.-L. Cheng,  
 Siu Hung Chien,  D. M. Chipman,  D. L. Crittenden,  H. Dachsel,  
 R. J. Doerksen,  A. D. Dutoi,  L. Fusti-Molnar,  W. A. Goddard III,  
 A. Golubeva-Zadorozhnaya,  S. R. Gwaltney,  G. Hawkins,  A. Heyden,  
 S. Hirata,  G. Kedziora,  F. J. Keil,  C. Kelley,  Jihan Kim,  R. A. King,  
 R. Z. Khaliullin,  P. P. Korambath,  W. Kurlancheek,  A. M. Lee,  M. S. Lee,  
 S. V. Levchenko,  Ching Yeh Lin,  D. Liotard,  R. C. Lochan,  I. Lotan,  
 P. E. Maslen,  N. Nair,  D. P. O'Neill,  D. Neuhauser,  E. Neuscamman,  
 C. M. Oana,  R. Olson,  B. Peters,  R. Peverati,  P. A. Pieniazek,  
 Y. M. Rhee,  J. Ritchie,  M. A. Rohrdanz,  E. Rosta,  N. J. Russ,  
 H. F. Schaefer III,  N. E. Schultz,  N. Shenvi,  A. C. Simmonett,  A. Sodt,  
 D. Stuck,  K. S. Thanthiriwatte,  V. Vanovschi,  Tao Wang,  A. Warshel,  
 C. F. Williams,  Q. Wu,  X. Xu,  W. Zhang

 Please cite Q-Chem as follows:
 Y. Shao et al., Mol. Phys. 113, 184-215 (2015)
 DOI: 10.1080/00268976.2014.952696

 Q-Chem 5.1.1 for Intel X86 EM64T Linux

 Parts of Q-Chem use Armadillo 8.300.2 (Tropical Shenanigans).
 http://arma.sourceforge.net/

 Q-Chem begins on Sat Oct  3 01:55:08 2020  

Host: n0086.mhg0
0

     Scratch files written to /local/scratch/users/yhljason/CH3_wB97X-2TQZ_aug-cc-pcVTZ.inp20201003015116//
The previous job contains 0 fragments, simply inherited here
Input Ideriv = 0
Curr. Ideriv = -1
Max.  Ideriv = 0
Input Ideriv = 1
Curr. Ideriv = 0
Max.  Ideriv = 0

Checking the input file for inconsistencies... 	...done.

--------------------------------------------------------------
User input:
--------------------------------------------------------------
$molecule
read
$end

$rem

jobtype sp
method wB97X-2(TQZ)
xc_grid 000099000590
basis aug-cc-pcVTZ
max_scf_cycles 200
thresh 14
scf_convergence 8
mem_total 128000
cc_memory 96000
cc_backend xm
mem_static 1500
symmetry false
sym_ignore true
scf_guess read
unrestricted false
scf_algorithm gdm
n_frozen_core 0
$end

$multipole_field
YY -0.0001
$end


--------------------------------------------------------------
 ----------------------------------------------------------------
             Standard Nuclear Orientation (Angstroms)
    I     Atom           X                Y                Z
 ----------------------------------------------------------------
    1      C       0.0000000000     0.0000000000     0.0000000000
    2      H       1.0790000000     0.0000000000     0.0000000000
    3      H      -0.5395000000    -0.9344000000     0.0000000000
    4      H      -0.5395000000     0.9344000000     0.0000000000
 ----------------------------------------------------------------
 Nuclear Repulsion Energy =     9.6774633775 hartrees
 There are        5 alpha and        4 beta electrons
 Requested basis set is aug-cc-pCVTZ
 There are 46 shells and 128 basis functions

 Total QAlloc Memory Limit 128000 MB
 Mega-Array Size      1467 MB
 MEM_STATIC part      1500 MB

                       Distance Matrix (Angstroms)
             C (  1)   H (  2)   H (  3)
   H (  2)  1.079000
   H (  3)  1.078964  1.868862
   H (  4)  1.078964  1.868862  1.868800
 
 Applying Cartesian multipole field
    Component          Value
    ---------          -----
     (0,2,0)       -1.00000E-04
 Nucleus-field energy     =    -0.0006235817 hartrees
 A cutoff of  1.0D-14 yielded   1081 shell pairs
 There are      8443 function pairs (     10725 Cartesian)
 
 -------------------------------------------------------
 OpenMP Integral Computing Module                       
 Release: version 1.0, May 2013, Q-Chem Inc. Pittsburgh 
 -------------------------------------------------------
 Integral Job Info:
 Integral job number is                      11
 Integral operator is                         1
 short-range coefficients              63615800
 long-range coefficients              100000000
 Omega coefficients                         300
 if combine SR and LR in K                    1
 Integral screening is                        0
 Integral computing path is                   2
 max size of driver memory is            800000
 size of driver memory is                776718
 size of scratch memory is              6904264
 max col of scratch BK array              10000
 max len of scratch array in speh3          662
 max len of scratch index in speh4           32
 max int batch size is                      520
 min int batch size is                       52
 fixed nKL is                                52
 max L of basis functions is                  3
 order of int derivative is                   0
 number of shells is                         46
 number of basis is                         144
 number of cartesian basis is               144
 number of contracted shell pairs          1081
 number of primitive shell pairs           2360
 maxK2 (contraction) of shell pair           64
 max number of K2 of shell pair               1
 max number of CS2 of shell pair            196
 max number of PS2 of shell pair            248
 mem total for path MDJ                  541562
 -------------------------------------------------------
 Smallest overlap matrix eigenvalue = 1.00E-04
 Guess MOs from SCF MO coefficient file
 Reading MOs from coefficient file
 Reading MOs from coefficient file
 Long-range K will be added via erf
 Coulomb attenuation parameter = 0.3 bohr**(-1)
 A restricted hybrid HF-DFT SCF calculation will be
 performed using Geometric Direct Minimization
 Exchange:     0.6362 Hartree-Fock + 1.0000 wB97X-2(TQZ) + LR-HF
 Correlation:  1.0000 wB97X-2(TQZ)
 Using Euler-Maclaurin-Lebedev (99,590) quadrature formula
 SCF converges when RMS gradient is below 1.0E-08
Using Q-Chem read-in guess as SCF_GUESS READ specified.

 using 8 threads for integral computing
 -------------------------------------------------------
 OpenMP Integral computing Module                
 Release: version 1.0, May 2013, Q-Chem Inc. Pittsburgh 
 -------------------------------------------------------
 using 8 threads for integral computing
 -------------------------------------------------------
 OpenMP Integral computing Module                
 Release: version 1.0, May 2013, Q-Chem Inc. Pittsburgh 
 -------------------------------------------------------
TIMEINFO->: J/JK contribution 9.05 sec.
 -------------------------------------------------------
 OpenMP BLAS3 based DFT computing Module                
 Release: version 1.0, May 2013, Q-Chem Inc. Pittsburgh 
 -------------------------------------------------------
 ---------------------------------------
  Cycle       Energy        RMS Gradient
 ---------------------------------------
    1     -39.7177084481      5.86E-04 Normal BFGS step
TIMEINFO->: J/JK contribution 9.02 sec.
    2     -39.7177098715      4.55E-04 Normal BFGS step
TIMEINFO->: J/JK contribution 9.04 sec.
    3     -39.7177101115      9.58E-05 Normal BFGS step
TIMEINFO->: J/JK contribution 8.99 sec.
    4     -39.7177101228      1.84E-05 Normal BFGS step
TIMEINFO->: J/JK contribution 9.02 sec.
    5     -39.7177101234      3.30E-06 Normal BFGS step
TIMEINFO->: J/JK contribution 9.06 sec.
    6     -39.7177101234      7.33E-07 Normal BFGS step
TIMEINFO->: J/JK contribution 9.07 sec.
    7     -39.7177101234      7.47E-08 Normal BFGS step
TIMEINFO->: J/JK contribution 9.13 sec.
   GDM::WARNING energy changes are now smaller than effective accuracy.
   GDM::        calculation will continue, but THRESH should be increased
   GDM::        or SCF_CONVERGENCE decreased.
   GDM::        effective_thresh =   5.000000000000000E-011
    8     -39.7177101234      1.66E-08 Normal BFGS step
TIMEINFO->: J/JK contribution 9.03 sec.
   GDM::WARNING energy changes are now smaller than effective accuracy.
   GDM::        calculation will continue, but THRESH should be increased
   GDM::        or SCF_CONVERGENCE decreased.
   GDM::        effective_thresh =   5.000000000000000E-011
    9     -39.7177101234      2.54E-09 Convergence criterion met
 ---------------------------------------
 SCF time:  CPU 157.09 s  wall 19.81 s
 SCF   energy in the final basis set = -39.71771012
 Total energy in the final basis set = -39.71771012
 
 Components of the MP2 correlation energy:
        aaaa  correlation energy =        -0.0140141935 au
        abab  correlation energy =        -0.0830695314 au
        bbbb  correlation energy =        -0.0055444823 au
        non-Brillouin singles    =        -0.0018247586 au

 Total  MP2   correlation energy =                    -0.10445297 au
        MP2         total energy =                   -39.82216309 au
 
 --------------------------------------------------------------
 
                    Orbital Energies (a.u.)
 --------------------------------------------------------------
 
 Alpha MOs
 -- Occupied --
-10.819  -0.885  -0.562  -0.562  -0.358
 -- Virtual --
  0.036   0.053   0.056   0.098   0.135   0.137   0.142   0.216
  0.217   0.231   0.267   0.267   0.333   0.329   0.334   0.347
  0.368   0.389   0.402   0.402   0.418   0.419   0.449   0.449
  0.604   0.611   0.715   0.716   0.808   0.809   0.818   0.819
  0.837   0.873   0.927   0.972   0.973   0.973   0.986   0.986
  1.038   1.047   1.047   1.064   1.113   1.113   1.120   1.120
  1.278   1.394   1.394   1.531   1.559   1.560   1.564   1.565
  1.603   1.603   1.682   1.877   1.877   1.962   2.015   2.016
  2.016   2.127   2.127   2.759   2.870   2.870   2.999   3.132
  3.132   3.413   3.413   3.429   3.512   3.512   3.567   3.567
  3.578   3.605   3.791   3.828   3.838   3.838   4.126   4.126
  4.261   4.282   4.282   4.513   4.536   4.699   4.699   4.736
  4.736   4.916   4.936   5.161   5.161   5.259   5.259   5.322
  5.322   6.021   6.302   6.302   6.573   6.664  15.462  16.449
 16.449  17.381  41.153  41.153  41.376  41.399  41.399  80.674
 81.388  81.388  86.781
 
 Beta MOs
 -- Occupied --
-10.804  -0.823  -0.546  -0.546
 -- Virtual --
  0.098   0.043   0.057   0.060   0.125   0.140   0.141   0.148
  0.218   0.218   0.246   0.269   0.270   0.337   0.345   0.338
  0.348   0.367   0.397   0.401   0.401   0.417   0.418   0.453
  0.453   0.625   0.642   0.715   0.715   0.812   0.813   0.837
  0.838   0.838   0.878   0.941   0.974   0.977   0.978   0.995
  0.995   1.035   1.046   1.047   1.061   1.112   1.113   1.137
  1.137   1.278   1.394   1.394   1.533   1.566   1.567   1.567
  1.600   1.610   1.610   1.714   1.882   1.882   1.979   2.010
  2.029   2.029   2.130   2.130   2.821   2.878   2.878   3.007
  3.167   3.167   3.429   3.429   3.462   3.530   3.530   3.577
  3.577   3.581   3.631   3.808   3.831   3.844   3.844   4.136
  4.136   4.266   4.293   4.293   4.538   4.545   4.704   4.704
  4.739   4.739   4.915   4.948   5.165   5.165   5.278   5.278
  5.328   5.328   6.025   6.306   6.306   6.577   6.688  15.494
 16.453  16.454  17.398  41.162  41.162  41.388  41.399  41.399
 80.685  81.389  81.389  86.786
 --------------------------------------------------------------
 
          Ground-State Mulliken Net Atomic Charges

     Atom                 Charge (a.u.)
  ----------------------------------------
      1 C                    -1.413692
      2 H                     0.470678
      3 H                     0.471507
      4 H                     0.471507
  ----------------------------------------
  Sum of atomic charges =     0.000000

 -----------------------------------------------------------------
                    Cartesian Multipole Moments
 -----------------------------------------------------------------
    Charge (ESU x 10^10)
                 0.0000
    Dipole Moment (Debye)
         X      -0.0014      Y       0.0000      Z       0.0000
       Tot       0.0014
    Quadrupole Moments (Debye-Ang)
        XX      -7.2641     XY      -0.0000     YY      -7.2535
        XZ       0.0000     YZ      -0.0000     ZZ      -9.1430
    Octopole Moments (Debye-Ang^2)
       XXX       0.9007    XXY       0.0000    XYY      -0.9082
       YYY       0.0000    XXZ       0.0000    XYZ       0.0000
       YYZ       0.0000    XZZ      -0.0006    YZZ       0.0000
       ZZZ       0.0000
    Hexadecapole Moments (Debye-Ang^3)
[...]
  0.836   0.872   0.926   0.971   0.972   0.972   0.985   0.985
  1.036   1.046   1.046   1.064   1.112   1.112   1.119   1.119
  1.277   1.393   1.393   1.530   1.559   1.559   1.563   1.564
  1.602   1.602   1.681   1.876   1.876   1.961   2.014   2.015
  2.015   2.126   2.126   2.758   2.869   2.869   2.998   3.131
  3.131   3.413   3.413   3.428   3.511   3.511   3.566   3.566
  3.578   3.605   3.791   3.827   3.837   3.837   4.125   4.125
  4.260   4.281   4.281   4.512   4.535   4.698   4.698   4.735
  4.735   4.915   4.935   5.161   5.161   5.258   5.258   5.322
  5.322   6.020   6.301   6.301   6.572   6.663  15.461  16.448
 16.448  17.380  41.152  41.152  41.375  41.398  41.398  80.673
 81.387  81.387  86.780
 
 Beta MOs
 -- Occupied --
-10.805  -0.824  -0.547  -0.547
 -- Virtual --
  0.097   0.039   0.053   0.053   0.122   0.137   0.137   0.144
  0.216   0.216   0.244   0.268   0.268   0.343   0.335   0.335
  0.346   0.365   0.395   0.399   0.399   0.415   0.415   0.451
  0.451   0.623   0.641   0.714   0.714   0.811   0.811   0.837
  0.837   0.837   0.876   0.940   0.973   0.977   0.977   0.994
  0.994   1.034   1.045   1.045   1.060   1.111   1.111   1.136
  1.136   1.277   1.393   1.393   1.532   1.566   1.566   1.566
  1.599   1.609   1.609   1.713   1.881   1.881   1.978   2.010
  2.028   2.028   2.130   2.130   2.820   2.877   2.877   3.006
  3.166   3.166   3.428   3.428   3.461   3.529   3.529   3.576
  3.576   3.580   3.631   3.807   3.830   3.843   3.843   4.136
  4.136   4.266   4.292   4.292   4.537   4.545   4.703   4.703
  4.739   4.739   4.914   4.948   5.165   5.165   5.278   5.278
  5.327   5.327   6.025   6.305   6.305   6.577   6.688  15.493
 16.453  16.453  17.398  41.162  41.162  41.387  41.398  41.398
 80.684  81.389  81.389  86.785
 --------------------------------------------------------------
 
          Ground-State Mulliken Net Atomic Charges

     Atom                 Charge (a.u.)
  ----------------------------------------
      1 C                    -1.413963
      2 H                     0.471303
      3 H                     0.471330
      4 H                     0.471330
  ----------------------------------------
  Sum of atomic charges =     0.000000

 -----------------------------------------------------------------
                    Cartesian Multipole Moments
 -----------------------------------------------------------------
    Charge (ESU x 10^10)
                 0.0000
    Dipole Moment (Debye)
         X      -0.0000      Y      -0.0000      Z      -0.0000
       Tot       0.0000
    Quadrupole Moments (Debye-Ang)
        XX      -7.2660     XY       0.0000     YY      -7.2662
        XZ      -0.0000     YZ       0.0000     ZZ      -9.1550
    Octopole Moments (Debye-Ang^2)
       XXX       0.9047    XXY      -0.0000    XYY      -0.9047
       YYY      -0.0000    XXZ      -0.0000    XYZ      -0.0000
       YYZ       0.0000    XZZ      -0.0000    YZZ       0.0000
       ZZZ      -0.0000
    Hexadecapole Moments (Debye-Ang^3)
      XXXX     -14.9294   XXXY      -0.0000   XXYY      -4.9764
      XYYY       0.0000   YYYY     -14.9291   XXXZ      -0.0000
      XXYZ       0.0000   XYYZ      -0.0000   YYYZ       0.0000
      XXZZ      -4.8998   XYZZ       0.0000   YYZZ      -4.8996
      XZZZ      -0.0000   YZZZ       0.0000   ZZZZ     -11.8805
 -----------------------------------------------------------------
Archival summary:
1\1\n0086.mhg0\SP\ROProcedureUnspecified\BasisUnspecified\13(2)\yhljason\SatOct301:56:192020SatOct301:56:192020\0\\#,ROProcedureUnspecified,BasisUnspecified,\\0,2\C\H,1,1.07896\H,1,1.07896,2,119.998\H,1,1.079,2,120.001,3,-180,0\\\@

 Total job time:  35.31s(wall), 278.32s(cpu) 
 Sat Oct  3 01:56:19 2020

        *************************************************************
        *                                                           *
        *  Thank you very much for using Q-Chem.  Have a nice day.  *
        *                                                           *
        *************************************************************


 
User input: 8 of 8 
 
Q-Chem Developer Version!
                  Welcome to Q-Chem
     A Quantum Leap Into The Future Of Chemistry


 Q-Chem 5.1, Q-Chem, Inc., Pleasanton, CA (2018)

 Yihan Shao,  Zhengting Gan,  E. Epifanovsky,  A. T. B. Gilbert,  M. Wormit,  
 J. Kussmann,  A. W. Lange,  A. Behn,  Jia Deng,  Xintian Feng,  D. Ghosh,  
 M. Goldey,  P. R. Horn,  L. D. Jacobson,  I. Kaliman,  T. Kus,  A. Landau,  
 Jie Liu,  E. I. Proynov,  R. M. Richard,  R. P. Steele,  E. J. Sundstrom,  
 H. L. Woodcock III,  P. M. Zimmerman,  D. Zuev,  B. Albrecht,  E. Alguire,  
 S. A. Baeppler,  D. Barton,  Z. Benda,  Y. A. Bernard,  E. J. Berquist,  
 K. B. Bravaya,  H. Burton,  D. Casanova,  Chun-Min Chang,  Yunqing Chen,  
 A. Chien,  K. D. Closser,  M. P. Coons,  S. Coriani,  S. Dasgupta,  
 A. L. Dempwolff,  M. Diedenhofen,  Hainam Do,  R. G. Edgar,  Po-Tung Fang,  
 S. Faraji,  S. Fatehi,  Qingguo Feng,  K. D. Fenk,  J. Fosso-Tande,  
 Qinghui Ge,  A. Ghysels,  G. Gidofalvi,  J. Gomes,  J. Gonthier,  A. Gunina,  
 D. Hait,  M. W. D. Hanson-Heine,  P. H. P. Harbach,  A. W. Hauser,  
 J. E. Herr,  E. G. Hohenstein,  Z. C. Holden,  Kerwin Hui,  B. C. Huynh,  
 T.-C. Jagau,  Hyunjun Ji,  B. Kaduk,  K. Khistyaev,  Jaehoon Kim,  
 P. Klunzinger,  K. Koh,  D. Kosenkov,  L. Koulias,  T. Kowalczyk,  
 C. M. Krauter,  A. Kunitsa,  Ka Un Lao,  A. Laurent,  K. V. Lawler,  
 Joonho Lee,  D. Lefrancois,  S. Lehtola,  D. S. Levine,  Yi-Pei Li,  
 You-Sheng Lin,  Fenglai Liu,  E. Livshits,  A. Luenser,  P. Manohar,  
 E. Mansoor,  S. F. Manzer,  Shan-Ping Mao,  Yuezhi Mao,  N. Mardirossian,  
 A. V. Marenich,  T. Markovich,  L. A. Martinez-Martinez,  S. A. Maurer,  
 N. J. Mayhall,  S. C. McKenzie,  J.-M. Mewes,  A. F. Morrison,  
 J. W. Mullinax,  K. Nanda,  T. S. Nguyen-Beck,  R. Olivares-Amaya,  
 J. A. Parkhill,  T. M. Perrine,  F. Plasser,  P. Pokhilko,  S. Prager,  
 A. Prociuk,  E. Ramos,  D. R. Rehn,  F. Rob,  M. Schneider,  N. Sergueev,  
 S. M. Sharada,  S. Sharma,  D. W. Small,  T. Stauch,  T. Stein,  
 Yu-Chuan Su,  A. J. W. Thom,  A. Tkatchenko,  T. Tsuchimochi,  N. M. Tubman,  
 L. Vogt,  M. L. Vidal,  O. Vydrov,  M. A. Watson,  J. Wenzel,  
 M. de Wergifosse,  T. A. Wesolowski,  A. White,  J. Witte,  A. Yamada,  
 Jun Yang,  K. Yao,  S. Yeganeh,  S. R. Yost,  Zhi-Qiang You,  A. Zech,  
 Igor Ying Zhang,  Xing Zhang,  Yan Zhao,  Ying Zhu,  B. R. Brooks,  
 G. K. L. Chan,  C. J. Cramer,  M. S. Gordon,  W. J. Hehre,  A. Klamt,  
 M. W. Schmidt,  C. D. Sherrill,  D. G. Truhlar,  A. Aspuru-Guzik,  R. Baer,  
 A. T. Bell,  N. A. Besley,  Jeng-Da Chai,  A. E. DePrince, III,  
 R. A. DiStasio Jr.,  A. Dreuw,  B. D. Dunietz,  T. R. Furlani,  
 Chao-Ping Hsu,  Yousung Jung,  Jing Kong,  D. S. Lambrecht,  WanZhen Liang,  
 C. Ochsenfeld,  V. A. Rassolov,  L. V. Slipchenko,  J. E. Subotnik,  
 T. Van Voorhis,  J. M. Herbert,  A. I. Krylov,  P. M. W. Gill,  M. Head-Gordon

 Contributors to earlier versions of Q-Chem not listed above: 
 R. D. Adamson,  B. Austin,  J. Baker,  G. J. O. Beran,  K. Brandhorst,  
 S. T. Brown,  E. F. C. Byrd,  A. K. Chakraborty,  C.-L. Cheng,  
 Siu Hung Chien,  D. M. Chipman,  D. L. Crittenden,  H. Dachsel,  
 R. J. Doerksen,  A. D. Dutoi,  L. Fusti-Molnar,  W. A. Goddard III,  
 A. Golubeva-Zadorozhnaya,  S. R. Gwaltney,  G. Hawkins,  A. Heyden,  
 S. Hirata,  G. Kedziora,  F. J. Keil,  C. Kelley,  Jihan Kim,  R. A. King,  
 R. Z. Khaliullin,  P. P. Korambath,  W. Kurlancheek,  A. M. Lee,  M. S. Lee,  
 S. V. Levchenko,  Ching Yeh Lin,  D. Liotard,  R. C. Lochan,  I. Lotan,  
 P. E. Maslen,  N. Nair,  D. P. O'Neill,  D. Neuhauser,  E. Neuscamman,  
 C. M. Oana,  R. Olson,  B. Peters,  R. Peverati,  P. A. Pieniazek,  
 Y. M. Rhee,  J. Ritchie,  M. A. Rohrdanz,  E. Rosta,  N. J. Russ,  
 H. F. Schaefer III,  N. E. Schultz,  N. Shenvi,  A. C. Simmonett,  A. Sodt,  
 D. Stuck,  K. S. Thanthiriwatte,  V. Vanovschi,  Tao Wang,  A. Warshel,  
 C. F. Williams,  Q. Wu,  X. Xu,  W. Zhang

 Please cite Q-Chem as follows:
 Y. Shao et al., Mol. Phys. 113, 184-215 (2015)
 DOI: 10.1080/00268976.2014.952696

 Q-Chem 5.1.1 for Intel X86 EM64T Linux

 Parts of Q-Chem use Armadillo 8.300.2 (Tropical Shenanigans).
 http://arma.sourceforge.net/

 Q-Chem begins on Sat Oct  3 01:56:19 2020  

Host: n0086.mhg0
0

     Scratch files written to /local/scratch/users/yhljason/CH3_wB97X-2TQZ_aug-cc-pcVTZ.inp20201003015116//
The previous job contains 0 fragments, simply inherited here
Input Ideriv = 0
Curr. Ideriv = -1
Max.  Ideriv = 0
Input Ideriv = 1
Curr. Ideriv = 0
Max.  Ideriv = 0

Checking the input file for inconsistencies... 	...done.

--------------------------------------------------------------
User input:
--------------------------------------------------------------
$molecule
read
$end

$rem

jobtype sp
method wB97X-2(TQZ)
xc_grid 000099000590
basis aug-cc-pcVTZ
max_scf_cycles 200
thresh 14
scf_convergence 8
mem_total 128000
cc_memory 96000
cc_backend xm
mem_static 1500
symmetry false
sym_ignore true
scf_guess read
unrestricted false
scf_algorithm gdm
n_frozen_core 0
$end

$multipole_field
ZZ -0.0001
$end

--------------------------------------------------------------
 ----------------------------------------------------------------
             Standard Nuclear Orientation (Angstroms)
    I     Atom           X                Y                Z
 ----------------------------------------------------------------
    1      C       0.0000000000     0.0000000000     0.0000000000
    2      H       1.0790000000     0.0000000000     0.0000000000
    3      H      -0.5395000000    -0.9344000000     0.0000000000
    4      H      -0.5395000000     0.9344000000     0.0000000000
 ----------------------------------------------------------------
 Nuclear Repulsion Energy =     9.6774633775 hartrees
 There are        5 alpha and        4 beta electrons
 Requested basis set is aug-cc-pCVTZ
 There are 46 shells and 128 basis functions

 Total QAlloc Memory Limit 128000 MB
 Mega-Array Size      1467 MB
 MEM_STATIC part      1500 MB

                       Distance Matrix (Angstroms)
             C (  1)   H (  2)   H (  3)
   H (  2)  1.079000
   H (  3)  1.078964  1.868862
   H (  4)  1.078964  1.868862  1.868800
 
 Applying Cartesian multipole field
    Component          Value
    ---------          -----
     (0,0,2)       -1.00000E-04
 A cutoff of  1.0D-14 yielded   1081 shell pairs
 There are      8443 function pairs (     10725 Cartesian)
 
 -------------------------------------------------------
 OpenMP Integral Computing Module                       
 Release: version 1.0, May 2013, Q-Chem Inc. Pittsburgh 
 -------------------------------------------------------
 Integral Job Info:
 Integral job number is                      11
 Integral operator is                         1
 short-range coefficients              63615800
 long-range coefficients              100000000
 Omega coefficients                         300
 if combine SR and LR in K                    1
 Integral screening is                        0
 Integral computing path is                   2
 max size of driver memory is            800000
 size of driver memory is                776718
 size of scratch memory is              6904264
 max col of scratch BK array              10000
 max len of scratch array in speh3          662
 max len of scratch index in speh4           32
 max int batch size is                      520
 min int batch size is                       52
 fixed nKL is                                52
 max L of basis functions is                  3
 order of int derivative is                   0
 number of shells is                         46
 number of basis is                         144
 number of cartesian basis is               144
 number of contracted shell pairs          1081
 number of primitive shell pairs           2360
 maxK2 (contraction) of shell pair           64
 max number of K2 of shell pair               1
 max number of CS2 of shell pair            196
 max number of PS2 of shell pair            248
 mem total for path MDJ                  541562
 -------------------------------------------------------
 Smallest overlap matrix eigenvalue = 1.00E-04
 Guess MOs from SCF MO coefficient file
 Reading MOs from coefficient file
 Reading MOs from coefficient file
 Long-range K will be added via erf
 Coulomb attenuation parameter = 0.3 bohr**(-1)
 A restricted hybrid HF-DFT SCF calculation will be
 performed using Geometric Direct Minimization
 Exchange:     0.6362 Hartree-Fock + 1.0000 wB97X-2(TQZ) + LR-HF
 Correlation:  1.0000 wB97X-2(TQZ)
 Using Euler-Maclaurin-Lebedev (99,590) quadrature formula
 SCF converges when RMS gradient is below 1.0E-08
Using Q-Chem read-in guess as SCF_GUESS READ specified.

 using 8 threads for integral computing
 -------------------------------------------------------
 OpenMP Integral computing Module                
 Release: version 1.0, May 2013, Q-Chem Inc. Pittsburgh 
 -------------------------------------------------------
 using 8 threads for integral computing
 -------------------------------------------------------
 OpenMP Integral computing Module                
 Release: version 1.0, May 2013, Q-Chem Inc. Pittsburgh 
 -------------------------------------------------------
TIMEINFO->: J/JK contribution 9.18 sec.
 -------------------------------------------------------
 OpenMP BLAS3 based DFT computing Module                
 Release: version 1.0, May 2013, Q-Chem Inc. Pittsburgh 
 -------------------------------------------------------
 ---------------------------------------
  Cycle       Energy        RMS Gradient
 ---------------------------------------
    1     -39.7175687728      1.64E-03 Normal BFGS step
TIMEINFO->: J/JK contribution 9.06 sec.
    2     -39.7175699598      8.95E-04 Normal BFGS step
TIMEINFO->: J/JK contribution 9.05 sec.
    3     -39.7175703415      5.42E-05 Normal BFGS step
TIMEINFO->: J/JK contribution 9.09 sec.
    4     -39.7175703468      1.89E-05 Normal BFGS step
TIMEINFO->: J/JK contribution 9.00 sec.
    5     -39.7175703473      2.57E-06 Normal BFGS step
TIMEINFO->: J/JK contribution 9.10 sec.
    6     -39.7175703473      3.05E-07 Normal BFGS step
TIMEINFO->: J/JK contribution 9.11 sec.
    7     -39.7175703473      5.53E-08 Normal BFGS step
TIMEINFO->: J/JK contribution 9.06 sec.
   GDM::WARNING energy changes are now smaller than effective accuracy.
   GDM::        calculation will continue, but THRESH should be increased
   GDM::        or SCF_CONVERGENCE decreased.
   GDM::        effective_thresh =   5.000000000000000E-011
    8     -39.7175703473      6.27E-09 Convergence criterion met
 ---------------------------------------
 SCF time:  CPU 139.92 s  wall 17.65 s
 SCF   energy in the final basis set = -39.71757035
 Total energy in the final basis set = -39.71757035
 
 Components of the MP2 correlation energy:
        aaaa  correlation energy =        -0.0140130537 au
        abab  correlation energy =        -0.0830685032 au
        bbbb  correlation energy =        -0.0055436163 au
        non-Brillouin singles    =        -0.0018261624 au

 Total  MP2   correlation energy =                    -0.10445134 au
        MP2         total energy =                   -39.82202168 au
 
 --------------------------------------------------------------
 
                    Orbital Energies (a.u.)
 --------------------------------------------------------------
 
 Alpha MOs
 -- Occupied --
-10.819  -0.885  -0.562  -0.562  -0.358
 -- Virtual --
  0.035   0.052   0.052   0.100   0.135   0.135   0.142   0.215
  0.215   0.232   0.267   0.267   0.333   0.333   0.330   0.346
  0.367   0.388   0.402   0.402   0.417   0.417   0.448   0.448
  0.604   0.612   0.715   0.715   0.808   0.808   0.819   0.819
  0.836   0.873   0.927   0.972   0.973   0.973   0.986   0.986
  1.037   1.046   1.046   1.064   1.113   1.113   1.120   1.120
  1.278   1.393   1.393   1.530   1.559   1.559   1.564   1.565
  1.603   1.603   1.682   1.877   1.877   1.962   2.015   2.016
  2.016   2.126   2.126   2.759   2.870   2.870   2.999   3.132
  3.132   3.413   3.413   3.429   3.512   3.512   3.567   3.567
  3.578   3.605   3.791   3.827   3.838   3.838   4.126   4.126
  4.260   4.282   4.282   4.512   4.536   4.699   4.699   4.736
  4.736   4.916   4.936   5.161   5.161   5.259   5.259   5.322
  5.322   6.021   6.302   6.302   6.573   6.664  15.462  16.449
 16.449  17.381  41.153  41.153  41.376  41.399  41.399  80.674
 81.388  81.388  86.781
 
 Beta MOs
 -- Occupied --
-10.804  -0.824  -0.546  -0.546
 -- Virtual --
  0.098   0.042   0.056   0.056   0.127   0.139   0.139   0.147
  0.217   0.217   0.246   0.270   0.270   0.337   0.337   0.346
  0.346   0.367   0.396   0.401   0.401   0.417   0.417   0.452
  0.452   0.625   0.642   0.715   0.715   0.812   0.812   0.838
  0.838   0.838   0.878   0.941   0.974   0.977   0.977   0.995
  0.995   1.035   1.046   1.046   1.061   1.112   1.112   1.137
  1.137   1.278   1.394   1.394   1.533   1.566   1.566   1.566
  1.600   1.610   1.610   1.715   1.882   1.882   1.979   2.010
  2.029   2.029   2.130   2.130   2.821   2.878   2.878   3.007
  3.167   3.167   3.429   3.429   3.462   3.530   3.530   3.577
  3.577   3.581   3.631   3.808   3.830   3.844   3.844   4.136
  4.136   4.266   4.292   4.292   4.538   4.545   4.703   4.704
  4.739   4.739   4.915   4.948   5.165   5.165   5.278   5.278
  5.328   5.328   6.025   6.306   6.306   6.577   6.688  15.494
 16.453  16.454  17.398  41.162  41.162  41.388  41.399  41.399
 80.684  81.389  81.389  86.786
 --------------------------------------------------------------
 
          Ground-State Mulliken Net Atomic Charges

     Atom                 Charge (a.u.)
  ----------------------------------------
      1 C                    -1.412010
      2 H                     0.470652
      3 H                     0.470679
      4 H                     0.470679
  ----------------------------------------
  Sum of atomic charges =     0.000000

 -----------------------------------------------------------------
                    Cartesian Multipole Moments
 -----------------------------------------------------------------
    Charge (ESU x 10^10)
                 0.0000
    Dipole Moment (Debye)
         X      -0.0000      Y       0.0000      Z      -0.0000
       Tot       0.0000
    Quadrupole Moments (Debye-Ang)
        XX      -7.2632     XY      -0.0000     YY      -7.2634
        XZ      -0.0000     YZ      -0.0000     ZZ      -9.1340
    Octopole Moments (Debye-Ang^2)
       XXX       0.9030    XXY       0.0000    XYY      -0.9030
       YYY       0.0000    XXZ      -0.0000    XYZ      -0.0000
       YYZ      -0.0000    XZZ      -0.0000    YZZ       0.0000
       ZZZ      -0.0000
    Hexadecapole Moments (Debye-Ang^3)
      XXXX     -14.9142   XXXY      -0.0000   XXYY      -4.9713
      XYYY      -0.0000   YYYY     -14.9139   XXXZ      -0.0000
      XXYZ      -0.0000   XYYZ      -0.0000   YYYZ      -0.0000
      XXZZ      -4.8772   XYZZ      -0.0000   YYZZ      -4.8771
      XZZZ      -0.0000   YZZZ      -0.0000   ZZZZ     -11.7641
 -----------------------------------------------------------------
Archival summary:
1\1\n0086.mhg0\SP\ROProcedureUnspecified\BasisUnspecified\13(2)\yhljason\SatOct301:56:522020SatOct301:56:522020\0\\#,ROProcedureUnspecified,BasisUnspecified,\\0,2\C\H,1,1.07896\H,1,1.07896,2,119.998\H,1,1.079,2,120.001,3,-180,0\\\@

 Total job time:  33.03s(wall), 261.12s(cpu) 
 Sat Oct  3 01:56:52 2020

        *************************************************************
        *                                                           *
        *  Thank you very much for using Q-Chem.  Have a nice day.  *
        *                                                           *
        *************************************************************


