Q-Chem Developer Version!
                  Welcome to Q-Chem
     A Quantum Leap Into The Future Of Chemistry


 Q-Chem 5.1, Q-Chem, Inc., Pleasanton, CA (2018)

 Yihan Shao,  Zhengting Gan,  E. Epifanovsky,  A. T. B. Gilbert,  M. Wormit,  
 J. Kussmann,  A. W. Lange,  A. Behn,  Jia Deng,  Xintian Feng,  D. Ghosh,  
 M. Goldey,  P. R. Horn,  L. D. Jacobson,  I. Kaliman,  T. Kus,  A. Landau,  
 Jie Liu,  E. I. Proynov,  R. M. Richard,  R. P. Steele,  E. J. Sundstrom,  
 H. L. Woodcock III,  P. M. Zimmerman,  D. Zuev,  B. Albrecht,  E. Alguire,  
 S. A. Baeppler,  D. Barton,  Z. Benda,  Y. A. Bernard,  E. J. Berquist,  
 K. B. Bravaya,  H. Burton,  D. Casanova,  Chun-Min Chang,  Yunqing Chen,  
 A. Chien,  K. D. Closser,  M. P. Coons,  S. Coriani,  S. Dasgupta,  
 A. L. Dempwolff,  M. Diedenhofen,  Hainam Do,  R. G. Edgar,  Po-Tung Fang,  
 S. Faraji,  S. Fatehi,  Qingguo Feng,  K. D. Fenk,  J. Fosso-Tande,  
 Qinghui Ge,  A. Ghysels,  G. Gidofalvi,  J. Gomes,  J. Gonthier,  A. Gunina,  
 D. Hait,  M. W. D. Hanson-Heine,  P. H. P. Harbach,  A. W. Hauser,  
 J. E. Herr,  E. G. Hohenstein,  Z. C. Holden,  Kerwin Hui,  B. C. Huynh,  
 T.-C. Jagau,  Hyunjun Ji,  B. Kaduk,  K. Khistyaev,  Jaehoon Kim,  
 P. Klunzinger,  K. Koh,  D. Kosenkov,  L. Koulias,  T. Kowalczyk,  
 C. M. Krauter,  A. Kunitsa,  Ka Un Lao,  A. Laurent,  K. V. Lawler,  
 Joonho Lee,  D. Lefrancois,  S. Lehtola,  D. S. Levine,  Yi-Pei Li,  
 You-Sheng Lin,  Fenglai Liu,  E. Livshits,  A. Luenser,  P. Manohar,  
 E. Mansoor,  S. F. Manzer,  Shan-Ping Mao,  Yuezhi Mao,  N. Mardirossian,  
 A. V. Marenich,  T. Markovich,  L. A. Martinez-Martinez,  S. A. Maurer,  
 N. J. Mayhall,  S. C. McKenzie,  J.-M. Mewes,  A. F. Morrison,  
 J. W. Mullinax,  K. Nanda,  T. S. Nguyen-Beck,  R. Olivares-Amaya,  
 J. A. Parkhill,  T. M. Perrine,  F. Plasser,  P. Pokhilko,  S. Prager,  
 A. Prociuk,  E. Ramos,  D. R. Rehn,  F. Rob,  M. Schneider,  N. Sergueev,  
 S. M. Sharada,  S. Sharma,  D. W. Small,  T. Stauch,  T. Stein,  
 Yu-Chuan Su,  A. J. W. Thom,  A. Tkatchenko,  T. Tsuchimochi,  N. M. Tubman,  
 L. Vogt,  M. L. Vidal,  O. Vydrov,  M. A. Watson,  J. Wenzel,  
 M. de Wergifosse,  T. A. Wesolowski,  A. White,  J. Witte,  A. Yamada,  
 Jun Yang,  K. Yao,  S. Yeganeh,  S. R. Yost,  Zhi-Qiang You,  A. Zech,  
 Igor Ying Zhang,  Xing Zhang,  Yan Zhao,  Ying Zhu,  B. R. Brooks,  
 G. K. L. Chan,  C. J. Cramer,  M. S. Gordon,  W. J. Hehre,  A. Klamt,  
 M. W. Schmidt,  C. D. Sherrill,  D. G. Truhlar,  A. Aspuru-Guzik,  R. Baer,  
 A. T. Bell,  N. A. Besley,  Jeng-Da Chai,  A. E. DePrince, III,  
 R. A. DiStasio Jr.,  A. Dreuw,  B. D. Dunietz,  T. R. Furlani,  
 Chao-Ping Hsu,  Yousung Jung,  Jing Kong,  D. S. Lambrecht,  WanZhen Liang,  
 C. Ochsenfeld,  V. A. Rassolov,  L. V. Slipchenko,  J. E. Subotnik,  
 T. Van Voorhis,  J. M. Herbert,  A. I. Krylov,  P. M. W. Gill,  M. Head-Gordon

 Contributors to earlier versions of Q-Chem not listed above: 
 R. D. Adamson,  B. Austin,  J. Baker,  G. J. O. Beran,  K. Brandhorst,  
 S. T. Brown,  E. F. C. Byrd,  A. K. Chakraborty,  C.-L. Cheng,  
 Siu Hung Chien,  D. M. Chipman,  D. L. Crittenden,  H. Dachsel,  
 R. J. Doerksen,  A. D. Dutoi,  L. Fusti-Molnar,  W. A. Goddard III,  
 A. Golubeva-Zadorozhnaya,  S. R. Gwaltney,  G. Hawkins,  A. Heyden,  
 S. Hirata,  G. Kedziora,  F. J. Keil,  C. Kelley,  Jihan Kim,  R. A. King,  
 R. Z. Khaliullin,  P. P. Korambath,  W. Kurlancheek,  A. M. Lee,  M. S. Lee,  
 S. V. Levchenko,  Ching Yeh Lin,  D. Liotard,  R. C. Lochan,  I. Lotan,  
 P. E. Maslen,  N. Nair,  D. P. O'Neill,  D. Neuhauser,  E. Neuscamman,  
 C. M. Oana,  R. Olson,  B. Peters,  R. Peverati,  P. A. Pieniazek,  
 Y. M. Rhee,  J. Ritchie,  M. A. Rohrdanz,  E. Rosta,  N. J. Russ,  
 H. F. Schaefer III,  N. E. Schultz,  N. Shenvi,  A. C. Simmonett,  A. Sodt,  
 D. Stuck,  K. S. Thanthiriwatte,  V. Vanovschi,  Tao Wang,  A. Warshel,  
 C. F. Williams,  Q. Wu,  X. Xu,  W. Zhang

 Please cite Q-Chem as follows:
 Y. Shao et al., Mol. Phys. 113, 184-215 (2015)
 DOI: 10.1080/00268976.2014.952696

 Q-Chem 5.1.1 for Intel X86 EM64T Linux

 Parts of Q-Chem use Armadillo 8.300.2 (Tropical Shenanigans).
 http://arma.sourceforge.net/

 Q-Chem begins on Sat Oct  3 01:51:19 2020  

Host: n0090.mhg0
0

     Scratch files written to /local/scratch/users/yhljason/CO_wB97X-2TQZ_aug-cc-pcVQZ.inp20201003015118//
Input Ideriv = 0
Curr. Ideriv = -1
Max.  Ideriv = 0
Analytic post-HF gradients are not available with non-HF exchange
Input Ideriv = 0
Curr. Ideriv = 0
Max.  Ideriv = 0

Checking the input file for inconsistencies... 	...done.

--------------------------------------------------------------
User input:
--------------------------------------------------------------
$molecule
0 1
C1	0.0000	0.0000	0.0000
O2	0.0000	0.0000	1.1282
$end

$rem
jobtype sp
method wB97X-2(TQZ)
xc_grid 000099000590
basis aug-cc-pcVQZ
max_scf_cycles 200
thresh 14
scf_convergence 8
scf_algorithm gdm
symmetry false
sym_ignore true
unrestricted false
gen_scfman true
internal_stability_iter 15
internal_stability_davidson_iter 200
mem_total 128000
cc_memory 96000
cc_backend xm
mem_static 1500
n_frozen_core 0
$end



--------------------------------------------------------------
 ----------------------------------------------------------------
             Standard Nuclear Orientation (Angstroms)
    I     Atom           X                Y                Z
 ----------------------------------------------------------------
    1      C       0.0000000000     0.0000000000     0.0000000000
    2      O       0.0000000000     0.0000000000     1.1282000000
 ----------------------------------------------------------------
 Nuclear Repulsion Energy =    22.5141873058 hartrees
 There are        7 alpha and        7 beta electrons
 Requested basis set is aug-cc-pCVQZ
 There are 58 shells and 218 basis functions

 Total QAlloc Memory Limit 128000 MB
 Mega-Array Size      1467 MB
 MEM_STATIC part      1500 MB

                       Distance Matrix (Angstroms)
             C (  1)
   O (  2)  1.128200
 
 A cutoff of  1.0D-14 yielded   1663 shell pairs
 There are     23843 function pairs (     39083 Cartesian)
 
 -------------------------------------------------------
 OpenMP Integral Computing Module                       
 Release: version 1.0, May 2013, Q-Chem Inc. Pittsburgh 
 -------------------------------------------------------
 Integral Job Info:
 Integral job number is                      11
 Integral operator is                         1
 short-range coefficients              63615800
 long-range coefficients              100000000
 Omega coefficients                         300
 if combine SR and LR in K                    1
 Integral screening is                        0
 Integral computing path is                   2
 max size of driver memory is           3200000
 size of driver memory is               1704330
 size of scratch memory is             18852824
 max col of scratch BK array              50625
 max len of scratch array in speh3         2114
 max len of scratch index in speh4           50
 max int batch size is                      520
 min int batch size is                       52
 fixed nKL is                                52
 max L of basis functions is                  4
 order of int derivative is                   0
 number of shells is                         58
 number of basis is                         278
 number of cartesian basis is               278
 number of contracted shell pairs          1663
 number of primitive shell pairs           4042
 maxK2 (contraction) of shell pair           81
 max number of K2 of shell pair               1
 max number of CS2 of shell pair            189
 max number of PS2 of shell pair            486
 mem total for path MDJ                  675334
 -------------------------------------------------------
 Smallest overlap matrix eigenvalue = 8.78E-05

 Scale SEOQF with 1.000000e-01/1.000000e-01/1.000000e-01

 Standard Electronic Orientation quadrupole field applied
 Nucleus-field energy     =    -0.0000000011 hartrees
 Guess from superposition of atomic densities
 Warning:  Energy on first SCF cycle will be non-variational
 SAD guess density has 14.000000 electrons

 -----------------------------------------------------------------------
  General SCF calculation program by
  Eric Jon Sundstrom, Paul Horn, Yuezhi Mao, Dmitri Zuev, Alec White,
  David Stuck, Shaama M.S., Shane Yost, Joonho Lee, David Small,
  Daniel Levine, Susi Lehtola, Hugh Burton, Evgeny Epifanovsky
 -----------------------------------------------------------------------
 Exchange:     0.6362 Hartree-Fock + 1.0000 wB97X-2(TQZ) + LR-HF
 Correlation:  1.0000 wB97X-2(TQZ)
 Using Euler-Maclaurin-Lebedev (99,590) quadrature formula
Running Object-Oriented RKS (RHF)
We will preform up to 15 macro iterations over saddle points until a stable solution is found
Energy prior to optimization (guess energy) = -113.046831437695
Begin Timing: Total SCF Calculation
Begin Timing: SCF Single Stationary Point Calculation
begin iterations for algorithm: GDM          
the SCF tolerance is set to 1.00e-08
    1    -113.0468314377      8.74e-02     00000  Normal BFGS step
    2    -113.0443838619      9.33e-02     00000 Line search: overstep
    3    -113.0764622894      1.21e-02     00000  Normal BFGS step
    4    -113.0787594925      3.55e-03     00000  Normal BFGS step
    5    -113.0789007390      4.78e-04     00000  Normal BFGS step
    6    -113.0789034993      6.88e-05     00000  Normal BFGS step
    7    -113.0789035697      1.39e-05     00000  Normal BFGS step
    8    -113.0789035727      3.37e-06     00000  Normal BFGS step
    9    -113.0789035728      6.17e-07     00000  Normal BFGS step
   10    -113.0789035729      1.12e-07     00000  Normal BFGS step
   11    -113.0789035729      3.31e-08     00000  Normal BFGS step
   12    -113.0789035729      3.93e-08     00000  Normal BFGS step
   13    -113.0789035729      1.68e-09     00000 Convergence criterion met
Timing for Single Stationary Point: 127.00s (wall), 1017.08s (cpu)
Begin Timing: Stability
===================================================
Beginning Test for Internal Stability
===================================================
generating davidson guess vectors based on koopmans excitations
    1      3.96e+00     00000 Davidson Iteration
    2      3.05e+00     00000 Davidson Iteration
    3      1.04e+00     00000 Davidson Iteration
    4      4.25e-01     00000 Davidson Iteration
    5      4.62e-02     00000 Davidson Iteration
    6      1.80e-02     00000 Davidson Iteration
    7      6.15e-03     00000 Davidson Iteration
    8      2.07e-03     00000 Davidson Iteration
    9      4.55e-04     00000 Davidson Iteration
   10      2.70e-04     00000 Davidson Iteration
   11      1.59e-03     00000 Davidson Iteration
   12      3.41e-04     00000 Davidson Iteration
   13      1.71e-04     00000 Davidson Iteration
   14      6.46e-05     00000 Davidson Iteration
   15      7.60e-03     00000 Davidson Iteration
   16      2.77e-03     00000 Davidson Iteration
   17      3.29e-03     00000 Davidson Iteration
   18      3.70e-04     00000 Davidson Iteration
   19      1.59e-04     00000 Davidson Iteration
   20      6.13e-05     00000 Davidson Converged
converged_eigenvalues
   1.4143
   1.4143
   1.3035
   1.3035
Threshold for negative eigenvalues: -1.0e-05
solution was a local minimum (stable)
===================================================
End Test for Internal Stability
===================================================
Our SCF solution is stable!
Timing for Total SCF: 583.00s (wall), 4661.44s (cpu)
 Total energy in the final basis set =     -113.0789035729
    ==================================================
              The end of Object-Oriented SCFman       
    ==================================================
 
 Components of the MP2 correlation energy:
        aaaa  correlation energy =        -0.0306157255 au
        abab  correlation energy =        -0.1857508761 au
        bbbb  correlation energy =        -0.0306157255 au
        non-Brillouin singles    =        -0.0000000000 au

 Total  MP2   correlation energy =                    -0.24698233 au
        MP2         total energy =                  -113.32588590 au
 
 --------------------------------------------------------------
 
                    Orbital Energies (a.u.)
 --------------------------------------------------------------
 
 Alpha MOs
 -- Occupied --
-20.083 -10.938  -1.419  -0.756  -0.618  -0.618  -0.529
 -- Virtual --
  0.064   0.064   0.064   0.081   0.120   0.120   0.160   0.167
  0.167   0.224   0.229   0.229   0.300   0.318   0.318   0.381
  0.381   0.385   0.496   0.522   0.522   0.603   0.603   0.622
  0.734   0.734   0.747   0.747   0.758   0.803   0.803   0.857
  0.862   0.862   0.876   0.876   0.885   1.043   1.043   1.141
  1.413   1.413   1.425   1.474   1.474   1.507   1.507   1.629
  1.726   1.726   1.728   1.754   1.754   1.918   1.918   2.071
  2.071   2.076   2.131   2.131   2.203   2.203   2.260   2.278
  2.278   2.320   2.320   2.322   2.322   2.421   2.507   2.507
  2.766   2.766   2.871   2.949   2.949   3.398   3.650   3.650
  3.654   3.654   3.834   3.982   3.982   4.082   4.082   4.123
  4.123   4.169   4.204   4.204   4.271   4.271   4.421   4.648
  4.648   4.899   5.009   5.009   5.046   5.046   5.693   5.693
  5.725   5.812   5.812   6.036   6.036   6.118   6.197   6.197
  6.211   6.211   6.338   6.338   6.477   6.477   6.926   7.231
  7.231   7.364   7.364   7.638   8.096   8.342   8.342   9.901
  9.901  10.338  10.431  10.431  10.710  10.710  10.951  10.959
 10.959  11.189  11.189  11.427  11.653  11.653  12.089  12.089
 12.437  12.437  12.652  12.652  13.092  13.961  13.961  15.365
 17.753  19.154  19.154  20.408  26.254  26.254  26.735  26.735
 27.944  33.392  33.392  34.605  36.428  46.687  46.687  47.289
 47.289  48.152  63.620  66.338  66.338  67.306  98.163  98.163
 98.185  98.185  98.253  98.253  98.264 102.727 102.727 102.776
102.776 102.803 102.803 102.866 114.553 114.553 114.787 114.787
115.403 116.307 116.307 117.343 122.091 197.696 197.696 198.023
198.023 198.456 215.541 224.293 224.293 225.089 394.157 394.157
395.013 507.683 893.108
 --------------------------------------------------------------
 
          Ground-State Mulliken Net Atomic Charges

     Atom                 Charge (a.u.)
  ----------------------------------------
      1 C                     0.244848
      2 O                    -0.244848
  ----------------------------------------
  Sum of atomic charges =    -0.000000

 -----------------------------------------------------------------
                    Cartesian Multipole Moments
 -----------------------------------------------------------------
    Charge (ESU x 10^10)
                -0.0000
    Dipole Moment (Debye)
         X       0.0000      Y       0.0000      Z      -0.1073
       Tot       0.1073
    Quadrupole Moments (Debye-Ang)
        XX     -10.2937     XY      -0.0000     YY     -10.2937
        XZ      -0.0000     YZ       0.0000     ZZ     -12.4611
    Octopole Moments (Debye-Ang^2)
       XXX       0.0000    XXY      -0.0000    XYY       0.0000
       YYY      -0.0000    XXZ      -5.5116    XYZ      -0.0000
       YYZ      -5.5116    XZZ      -0.0000    YZZ       0.0000
       ZZZ     -17.6900
    Hexadecapole Moments (Debye-Ang^3)
      XXXX      -9.4281   XXXY      -0.0000   XXYY      -3.1427
      XYYY      -0.0000   YYYY      -9.4281   XXXZ       0.0000
      XXYZ       0.0000   XYYZ       0.0000   YYYZ      -0.0000
      XXZZ      -9.9940   XYZZ      -0.0000   YYZZ      -9.9940
      XZZZ      -0.0000   YZZZ       0.0000   ZZZZ     -51.9907
 -----------------------------------------------------------------
Archival summary:
1\1\n0090.mhg0\SP\ProcedureUnspecified\BasisUnspecified\11\yhljason\SatOct302:02:572020SatOct302:02:572020\0\\#,ProcedureUnspecified,BasisUnspecified,\\0,1\C\O,1,1.1282\\\@

 Total job time:  698.02s(wall), 5571.93s(cpu) 
 Sat Oct  3 02:02:57 2020

        *************************************************************
        *                                                           *
        *  Thank you very much for using Q-Chem.  Have a nice day.  *
        *                                                           *
        *************************************************************


 
User input: 2 of 83 of 8 
 
Q-Chem Developer Version!
                  Welcome to Q-Chem
     A Quantum Leap Into The Future Of Chemistry


 Q-Chem 5.1, Q-Chem, Inc., Pleasanton, CA (2018)

 Yihan Shao,  Zhengting Gan,  E. Epifanovsky,  A. T. B. Gilbert,  M. Wormit,  
 J. Kussmann,  A. W. Lange,  A. Behn,  Jia Deng,  Xintian Feng,  D. Ghosh,  
 M. Goldey,  P. R. Horn,  L. D. Jacobson,  I. Kaliman,  T. Kus,  A. Landau,  
 Jie Liu,  E. I. Proynov,  R. M. Richard,  R. P. Steele,  E. J. Sundstrom,  
 H. L. Woodcock III,  P. M. Zimmerman,  D. Zuev,  B. Albrecht,  E. Alguire,  
 S. A. Baeppler,  D. Barton,  Z. Benda,  Y. A. Bernard,  E. J. Berquist,  
 K. B. Bravaya,  H. Burton,  D. Casanova,  Chun-Min Chang,  Yunqing Chen,  
 A. Chien,  K. D. Closser,  M. P. Coons,  S. Coriani,  S. Dasgupta,  
 A. L. Dempwolff,  M. Diedenhofen,  Hainam Do,  R. G. Edgar,  Po-Tung Fang,  
 S. Faraji,  S. Fatehi,  Qingguo Feng,  K. D. Fenk,  J. Fosso-Tande,  
 Qinghui Ge,  A. Ghysels,  G. Gidofalvi,  J. Gomes,  J. Gonthier,  A. Gunina,  
 D. Hait,  M. W. D. Hanson-Heine,  P. H. P. Harbach,  A. W. Hauser,  
 J. E. Herr,  E. G. Hohenstein,  Z. C. Holden,  Kerwin Hui,  B. C. Huynh,  
 T.-C. Jagau,  Hyunjun Ji,  B. Kaduk,  K. Khistyaev,  Jaehoon Kim,  
 P. Klunzinger,  K. Koh,  D. Kosenkov,  L. Koulias,  T. Kowalczyk,  
 C. M. Krauter,  A. Kunitsa,  Ka Un Lao,  A. Laurent,  K. V. Lawler,  
 Joonho Lee,  D. Lefrancois,  S. Lehtola,  D. S. Levine,  Yi-Pei Li,  
 You-Sheng Lin,  Fenglai Liu,  E. Livshits,  A. Luenser,  P. Manohar,  
 E. Mansoor,  S. F. Manzer,  Shan-Ping Mao,  Yuezhi Mao,  N. Mardirossian,  
 A. V. Marenich,  T. Markovich,  L. A. Martinez-Martinez,  S. A. Maurer,  
 N. J. Mayhall,  S. C. McKenzie,  J.-M. Mewes,  A. F. Morrison,  
 J. W. Mullinax,  K. Nanda,  T. S. Nguyen-Beck,  R. Olivares-Amaya,  
 J. A. Parkhill,  T. M. Perrine,  F. Plasser,  P. Pokhilko,  S. Prager,  
 A. Prociuk,  E. Ramos,  D. R. Rehn,  F. Rob,  M. Schneider,  N. Sergueev,  
 S. M. Sharada,  S. Sharma,  D. W. Small,  T. Stauch,  T. Stein,  
 Yu-Chuan Su,  A. J. W. Thom,  A. Tkatchenko,  T. Tsuchimochi,  N. M. Tubman,  
 L. Vogt,  M. L. Vidal,  O. Vydrov,  M. A. Watson,  J. Wenzel,  
 M. de Wergifosse,  T. A. Wesolowski,  A. White,  J. Witte,  A. Yamada,  
 Jun Yang,  K. Yao,  S. Yeganeh,  S. R. Yost,  Zhi-Qiang You,  A. Zech,  
 Igor Ying Zhang,  Xing Zhang,  Yan Zhao,  Ying Zhu,  B. R. Brooks,  
 G. K. L. Chan,  C. J. Cramer,  M. S. Gordon,  W. J. Hehre,  A. Klamt,  
 M. W. Schmidt,  C. D. Sherrill,  D. G. Truhlar,  A. Aspuru-Guzik,  R. Baer,  
 A. T. Bell,  N. A. Besley,  Jeng-Da Chai,  A. E. DePrince, III,  
 R. A. DiStasio Jr.,  A. Dreuw,  B. D. Dunietz,  T. R. Furlani,  
 Chao-Ping Hsu,  Yousung Jung,  Jing Kong,  D. S. Lambrecht,  WanZhen Liang,  
 C. Ochsenfeld,  V. A. Rassolov,  L. V. Slipchenko,  J. E. Subotnik,  
 T. Van Voorhis,  J. M. Herbert,  A. I. Krylov,  P. M. W. Gill,  M. Head-Gordon

 Contributors to earlier versions of Q-Chem not listed above: 
 R. D. Adamson,  B. Austin,  J. Baker,  G. J. O. Beran,  K. Brandhorst,  
 S. T. Brown,  E. F. C. Byrd,  A. K. Chakraborty,  C.-L. Cheng,  
 Siu Hung Chien,  D. M. Chipman,  D. L. Crittenden,  H. Dachsel,  
 R. J. Doerksen,  A. D. Dutoi,  L. Fusti-Molnar,  W. A. Goddard III,  
 A. Golubeva-Zadorozhnaya,  S. R. Gwaltney,  G. Hawkins,  A. Heyden,  
 S. Hirata,  G. Kedziora,  F. J. Keil,  C. Kelley,  Jihan Kim,  R. A. King,  
 R. Z. Khaliullin,  P. P. Korambath,  W. Kurlancheek,  A. M. Lee,  M. S. Lee,  
 S. V. Levchenko,  Ching Yeh Lin,  D. Liotard,  R. C. Lochan,  I. Lotan,  
 P. E. Maslen,  N. Nair,  D. P. O'Neill,  D. Neuhauser,  E. Neuscamman,  
 C. M. Oana,  R. Olson,  B. Peters,  R. Peverati,  P. A. Pieniazek,  
 Y. M. Rhee,  J. Ritchie,  M. A. Rohrdanz,  E. Rosta,  N. J. Russ,  
 H. F. Schaefer III,  N. E. Schultz,  N. Shenvi,  A. C. Simmonett,  A. Sodt,  
 D. Stuck,  K. S. Thanthiriwatte,  V. Vanovschi,  Tao Wang,  A. Warshel,  
 C. F. Williams,  Q. Wu,  X. Xu,  W. Zhang

 Please cite Q-Chem as follows:
 Y. Shao et al., Mol. Phys. 113, 184-215 (2015)
 DOI: 10.1080/00268976.2014.952696

 Q-Chem 5.1.1 for Intel X86 EM64T Linux

 Parts of Q-Chem use Armadillo 8.300.2 (Tropical Shenanigans).
 http://arma.sourceforge.net/

 Q-Chem begins on Sat Oct  3 02:03:07 2020  

Host: n0090.mhg0
0

     Scratch files written to /local/scratch/users/yhljason/CO_wB97X-2TQZ_aug-cc-pcVQZ.inp20201003015118//
The previous job contains 0 fragments, simply inherited here
Input Ideriv = 0
Curr. Ideriv = -1
Max.  Ideriv = 0
Analytic post-HF gradients are not available with non-HF exchange
Input Ideriv = 0
Curr. Ideriv = 0
Max.  Ideriv = 0

Checking the input file for inconsistencies... 	...done.

--------------------------------------------------------------
User input:
--------------------------------------------------------------
$molecule
read
$end

$rem

jobtype sp
method wB97X-2(TQZ)
xc_grid 000099000590
basis aug-cc-pcVQZ
max_scf_cycles 200
thresh 14
scf_convergence 8
mem_total 128000
cc_memory 96000
cc_backend xm
mem_static 1500
symmetry false
sym_ignore true
scf_guess read
unrestricted false
scf_algorithm gdm
n_frozen_core 0
$end

$multipole_field
XX 0.0001
$end


--------------------------------------------------------------
 ----------------------------------------------------------------
             Standard Nuclear Orientation (Angstroms)
    I     Atom           X                Y                Z
 ----------------------------------------------------------------
    1      C       0.0000000000     0.0000000000     0.0000000000
    2      O       0.0000000000     0.0000000000     1.1282000000
 ----------------------------------------------------------------
 Nuclear Repulsion Energy =    22.5141873058 hartrees
 There are        7 alpha and        7 beta electrons
 Requested basis set is aug-cc-pCVQZ
 There are 58 shells and 218 basis functions

 Total QAlloc Memory Limit 128000 MB
 Mega-Array Size      1467 MB
 MEM_STATIC part      1500 MB

                       Distance Matrix (Angstroms)
             C (  1)
   O (  2)  1.128200
 
 Applying Cartesian multipole field
    Component          Value
    ---------          -----
     (2,0,0)        1.00000E-04
 A cutoff of  1.0D-14 yielded   1663 shell pairs
 There are     23843 function pairs (     39083 Cartesian)
 
 -------------------------------------------------------
 OpenMP Integral Computing Module                       
 Release: version 1.0, May 2013, Q-Chem Inc. Pittsburgh 
 -------------------------------------------------------
 Integral Job Info:
 Integral job number is                      11
 Integral operator is                         1
 short-range coefficients              63615800
 long-range coefficients              100000000
 Omega coefficients                         300
 if combine SR and LR in K                    1
 Integral screening is                        0
 Integral computing path is                   2
 max size of driver memory is           3200000
 size of driver memory is               1704330
 size of scratch memory is             18852824
 max col of scratch BK array              50625
 max len of scratch array in speh3         2114
 max len of scratch index in speh4           50
 max int batch size is                      520
 min int batch size is                       52
 fixed nKL is                                52
 max L of basis functions is                  4
 order of int derivative is                   0
 number of shells is                         58
 number of basis is                         278
 number of cartesian basis is               278
 number of contracted shell pairs          1663
 number of primitive shell pairs           4042
 maxK2 (contraction) of shell pair           81
 max number of K2 of shell pair               1
 max number of CS2 of shell pair            189
 max number of PS2 of shell pair            486
 mem total for path MDJ                  675334
 -------------------------------------------------------
 Smallest overlap matrix eigenvalue = 8.78E-05
 Guess MOs from SCF MO coefficient file

 -----------------------------------------------------------------------
  General SCF calculation program by
  Eric Jon Sundstrom, Paul Horn, Yuezhi Mao, Dmitri Zuev, Alec White,
  David Stuck, Shaama M.S., Shane Yost, Joonho Lee, David Small,
  Daniel Levine, Susi Lehtola, Hugh Burton, Evgeny Epifanovsky
 -----------------------------------------------------------------------
 Exchange:     0.6362 Hartree-Fock + 1.0000 wB97X-2(TQZ) + LR-HF
 Correlation:  1.0000 wB97X-2(TQZ)
 Using Euler-Maclaurin-Lebedev (99,590) quadrature formula
 using 8 threads for integral computing
 -------------------------------------------------------
 OpenMP Integral computing Module                
 Release: version 1.0, May 2013, Q-Chem Inc. Pittsburgh 
 -------------------------------------------------------
 using 8 threads for integral computing
 -------------------------------------------------------
 OpenMP Integral computing Module                
 Release: version 1.0, May 2013, Q-Chem Inc. Pittsburgh 
 -------------------------------------------------------
 -------------------------------------------------------
 OpenMP BLAS3 based DFT computing Module                
 Release: version 1.0, May 2013, Q-Chem Inc. Pittsburgh 
 -------------------------------------------------------
 A restricted SCF calculation will be
 performed using GDM
 SCF converges when RMS gradient is below 1.0e-08
 ---------------------------------------
  Cycle       Energy        RMS Gradient
 ---------------------------------------
    1    -113.0796688874      1.49e-04   Normal BFGS step
    2    -113.0796690790      4.48e-05   Normal BFGS step
    3    -113.0796690935      4.71e-05   Normal BFGS step
    4    -113.0796690990      1.06e-05   Normal BFGS step
    5    -113.0796690994      2.24e-06   Normal BFGS step
    6    -113.0796690995      1.56e-06   Normal BFGS step
    7    -113.0796690995      2.08e-07   Normal BFGS step
    8    -113.0796690995      5.30e-08   Normal BFGS step
    9    -113.0796690995      1.14e-08   Normal BFGS step
   10    -113.0796690995      2.67e-09  Convergence criterion met
 ---------------------------------------
 SCF time:   CPU 880.74s  wall 111.00s 
 SCF   energy in the final basis set =     -113.0796690995
 Total energy in the final basis set =     -113.0796690995
 
 Components of the MP2 correlation energy:
        aaaa  correlation energy =        -0.0306167720 au
        abab  correlation energy =        -0.1857521420 au
        bbbb  correlation energy =        -0.0306167720 au
        non-Brillouin singles    =        -0.0000000000 au

 Total  MP2   correlation energy =                    -0.24698569 au
        MP2         total energy =                  -113.32665479 au
 
 --------------------------------------------------------------
 
                    Orbital Energies (a.u.)
 --------------------------------------------------------------
 
 Alpha MOs
 -- Occupied --
-20.083 -10.938  -1.419  -0.757  -0.618  -0.618  -0.529
 -- Virtual --
  0.061   0.063   0.063   0.079   0.118   0.119   0.159   0.165
  0.166   0.223   0.228   0.228   0.299   0.316   0.317   0.380
  0.380   0.385   0.495   0.521   0.521   0.602   0.603   0.621
  0.733   0.733   0.746   0.746   0.757   0.802   0.803   0.856
  0.861   0.861   0.875   0.875   0.884   1.042   1.043   1.141
  1.412   1.412   1.424   1.473   1.473   1.507   1.507   1.629
  1.726   1.726   1.728   1.753   1.753   1.917   1.917   2.071
  2.071   2.076   2.131   2.131   2.203   2.203   2.260   2.277
  2.277   2.320   2.320   2.322   2.322   2.421   2.506   2.507
  2.766   2.766   2.871   2.949   2.949   3.398   3.650   3.650
  3.653   3.654   3.833   3.981   3.981   4.082   4.082   4.122
  4.123   4.169   4.204   4.204   4.271   4.271   4.421   4.648
  4.648   4.899   5.009   5.009   5.046   5.046   5.693   5.693
  5.725   5.812   5.812   6.036   6.036   6.118   6.197   6.197
  6.211   6.211   6.338   6.338   6.477   6.477   6.926   7.231
  7.231   7.364   7.364   7.638   8.095   8.342   8.342   9.900
  9.900  10.338  10.431  10.431  10.710  10.710  10.951  10.959
 10.959  11.189  11.189  11.427  11.652  11.652  12.089  12.089
 12.437  12.437  12.652  12.652  13.092  13.961  13.961  15.365
 17.753  19.154  19.154  20.407  26.254  26.254  26.734  26.734
 27.944  33.391  33.392  34.605  36.427  46.686  46.686  47.288
 47.288  48.152  63.619  66.338  66.338  67.306  98.163  98.163
 98.185  98.185  98.253  98.253  98.264 102.726 102.726 102.776
102.776 102.803 102.803 102.866 114.553 114.553 114.787 114.787
115.403 116.307 116.307 117.343 122.091 197.696 197.696 198.023
198.023 198.456 215.540 224.292 224.292 225.089 394.157 394.157
395.013 507.683 893.108
 --------------------------------------------------------------
 
          Ground-State Mulliken Net Atomic Charges

     Atom                 Charge (a.u.)
  ----------------------------------------
      1 C                     0.244363
      2 O                    -0.244363
  ----------------------------------------
  Sum of atomic charges =     0.000000

 -----------------------------------------------------------------
                    Cartesian Multipole Moments
 -----------------------------------------------------------------
    Charge (ESU x 10^10)
                 0.0000
    Dipole Moment (Debye)
         X       0.0000      Y      -0.0000      Z      -0.1070
       Tot       0.1070
    Quadrupole Moments (Debye-Ang)
        XX     -10.2995     XY       0.0000     YY     -10.2947
        XZ      -0.0000     YZ      -0.0000     ZZ     -12.4611
    Octopole Moments (Debye-Ang^2)
       XXX       0.0000    XXY      -0.0000    XYY       0.0000
       YYY       0.0000    XXZ      -5.5129    XYZ       0.0000
       YYZ      -5.5119    XZZ       0.0000    YZZ       0.0000
       ZZZ     -17.6895
    Hexadecapole Moments (Debye-Ang^3)
      XXXX      -9.4472   XXXY       0.0000   XXYY      -3.1464
      XYYY       0.0000   YYYY      -9.4312   XXXZ      -0.0000
      XXYZ       0.0000   XYYZ      -0.0000   YYYZ       0.0000
      XXZZ      -9.9996   XYZZ       0.0000   YYZZ      -9.9953
      XZZZ      -0.0000   YZZZ       0.0000   ZZZZ     -51.9931
 -----------------------------------------------------------------
Archival summary:
1\1\n0090.mhg0\SP\ProcedureUnspecified\BasisUnspecified\11\yhljason\SatOct302:06:422020SatOct302:06:422020\0\\#,ProcedureUnspecified,BasisUnspecified,\\0,1\C\O,1,1.1282\\\@

 Total job time:  215.50s(wall), 1716.02s(cpu) 
 Sat Oct  3 02:06:42 2020

        *************************************************************
        *                                                           *
        *  Thank you very much for using Q-Chem.  Have a nice day.  *
        *                                                           *
        *************************************************************


 
User input: 4 of 8 
 
Q-Chem Developer Version!
                  Welcome to Q-Chem
     A Quantum Leap Into The Future Of Chemistry


 Q-Chem 5.1, Q-Chem, Inc., Pleasanton, CA (2018)

 Yihan Shao,  Zhengting Gan,  E. Epifanovsky,  A. T. B. Gilbert,  M. Wormit,  
 J. Kussmann,  A. W. Lange,  A. Behn,  Jia Deng,  Xintian Feng,  D. Ghosh,  
 M. Goldey,  P. R. Horn,  L. D. Jacobson,  I. Kaliman,  T. Kus,  A. Landau,  
 Jie Liu,  E. I. Proynov,  R. M. Richard,  R. P. Steele,  E. J. Sundstrom,  
 H. L. Woodcock III,  P. M. Zimmerman,  D. Zuev,  B. Albrecht,  E. Alguire,  
 S. A. Baeppler,  D. Barton,  Z. Benda,  Y. A. Bernard,  E. J. Berquist,  
 K. B. Bravaya,  H. Burton,  D. Casanova,  Chun-Min Chang,  Yunqing Chen,  
 A. Chien,  K. D. Closser,  M. P. Coons,  S. Coriani,  S. Dasgupta,  
 A. L. Dempwolff,  M. Diedenhofen,  Hainam Do,  R. G. Edgar,  Po-Tung Fang,  
 S. Faraji,  S. Fatehi,  Qingguo Feng,  K. D. Fenk,  J. Fosso-Tande,  
 Qinghui Ge,  A. Ghysels,  G. Gidofalvi,  J. Gomes,  J. Gonthier,  A. Gunina,  
 D. Hait,  M. W. D. Hanson-Heine,  P. H. P. Harbach,  A. W. Hauser,  
 J. E. Herr,  E. G. Hohenstein,  Z. C. Holden,  Kerwin Hui,  B. C. Huynh,  
 T.-C. Jagau,  Hyunjun Ji,  B. Kaduk,  K. Khistyaev,  Jaehoon Kim,  
 P. Klunzinger,  K. Koh,  D. Kosenkov,  L. Koulias,  T. Kowalczyk,  
 C. M. Krauter,  A. Kunitsa,  Ka Un Lao,  A. Laurent,  K. V. Lawler,  
 Joonho Lee,  D. Lefrancois,  S. Lehtola,  D. S. Levine,  Yi-Pei Li,  
 You-Sheng Lin,  Fenglai Liu,  E. Livshits,  A. Luenser,  P. Manohar,  
 E. Mansoor,  S. F. Manzer,  Shan-Ping Mao,  Yuezhi Mao,  N. Mardirossian,  
 A. V. Marenich,  T. Markovich,  L. A. Martinez-Martinez,  S. A. Maurer,  
 N. J. Mayhall,  S. C. McKenzie,  J.-M. Mewes,  A. F. Morrison,  
 J. W. Mullinax,  K. Nanda,  T. S. Nguyen-Beck,  R. Olivares-Amaya,  
 J. A. Parkhill,  T. M. Perrine,  F. Plasser,  P. Pokhilko,  S. Prager,  
 A. Prociuk,  E. Ramos,  D. R. Rehn,  F. Rob,  M. Schneider,  N. Sergueev,  
 S. M. Sharada,  S. Sharma,  D. W. Small,  T. Stauch,  T. Stein,  
 Yu-Chuan Su,  A. J. W. Thom,  A. Tkatchenko,  T. Tsuchimochi,  N. M. Tubman,  
 L. Vogt,  M. L. Vidal,  O. Vydrov,  M. A. Watson,  J. Wenzel,  
 M. de Wergifosse,  T. A. Wesolowski,  A. White,  J. Witte,  A. Yamada,  
 Jun Yang,  K. Yao,  S. Yeganeh,  S. R. Yost,  Zhi-Qiang You,  A. Zech,  
 Igor Ying Zhang,  Xing Zhang,  Yan Zhao,  Ying Zhu,  B. R. Brooks,  
 G. K. L. Chan,  C. J. Cramer,  M. S. Gordon,  W. J. Hehre,  A. Klamt,  
 M. W. Schmidt,  C. D. Sherrill,  D. G. Truhlar,  A. Aspuru-Guzik,  R. Baer,  
 A. T. Bell,  N. A. Besley,  Jeng-Da Chai,  A. E. DePrince, III,  
 R. A. DiStasio Jr.,  A. Dreuw,  B. D. Dunietz,  T. R. Furlani,  
 Chao-Ping Hsu,  Yousung Jung,  Jing Kong,  D. S. Lambrecht,  WanZhen Liang,  
 C. Ochsenfeld,  V. A. Rassolov,  L. V. Slipchenko,  J. E. Subotnik,  
 T. Van Voorhis,  J. M. Herbert,  A. I. Krylov,  P. M. W. Gill,  M. Head-Gordon

 Contributors to earlier versions of Q-Chem not listed above: 
 R. D. Adamson,  B. Austin,  J. Baker,  G. J. O. Beran,  K. Brandhorst,  
 S. T. Brown,  E. F. C. Byrd,  A. K. Chakraborty,  C.-L. Cheng,  
 Siu Hung Chien,  D. M. Chipman,  D. L. Crittenden,  H. Dachsel,  
 R. J. Doerksen,  A. D. Dutoi,  L. Fusti-Molnar,  W. A. Goddard III,  
 A. Golubeva-Zadorozhnaya,  S. R. Gwaltney,  G. Hawkins,  A. Heyden,  
 S. Hirata,  G. Kedziora,  F. J. Keil,  C. Kelley,  Jihan Kim,  R. A. King,  
 R. Z. Khaliullin,  P. P. Korambath,  W. Kurlancheek,  A. M. Lee,  M. S. Lee,  
 S. V. Levchenko,  Ching Yeh Lin,  D. Liotard,  R. C. Lochan,  I. Lotan,  
 P. E. Maslen,  N. Nair,  D. P. O'Neill,  D. Neuhauser,  E. Neuscamman,  
 C. M. Oana,  R. Olson,  B. Peters,  R. Peverati,  P. A. Pieniazek,  
 Y. M. Rhee,  J. Ritchie,  M. A. Rohrdanz,  E. Rosta,  N. J. Russ,  
 H. F. Schaefer III,  N. E. Schultz,  N. Shenvi,  A. C. Simmonett,  A. Sodt,  
 D. Stuck,  K. S. Thanthiriwatte,  V. Vanovschi,  Tao Wang,  A. Warshel,  
 C. F. Williams,  Q. Wu,  X. Xu,  W. Zhang

 Please cite Q-Chem as follows:
 Y. Shao et al., Mol. Phys. 113, 184-215 (2015)
 DOI: 10.1080/00268976.2014.952696

 Q-Chem 5.1.1 for Intel X86 EM64T Linux

 Parts of Q-Chem use Armadillo 8.300.2 (Tropical Shenanigans).
 http://arma.sourceforge.net/

 Q-Chem begins on Sat Oct  3 02:06:42 2020  

Host: n0090.mhg0
0

     Scratch files written to /local/scratch/users/yhljason/CO_wB97X-2TQZ_aug-cc-pcVQZ.inp20201003015118//
The previous job contains 0 fragments, simply inherited here
Input Ideriv = 0
Curr. Ideriv = -1
Max.  Ideriv = 0
Analytic post-HF gradients are not available with non-HF exchange
Input Ideriv = 0
Curr. Ideriv = 0
Max.  Ideriv = 0

Checking the input file for inconsistencies... 	...done.

--------------------------------------------------------------
User input:
--------------------------------------------------------------
$molecule
read
$end

$rem

jobtype sp
method wB97X-2(TQZ)
xc_grid 000099000590
basis aug-cc-pcVQZ
max_scf_cycles 200
thresh 14
scf_convergence 8
mem_total 128000
cc_memory 96000
cc_backend xm
mem_static 1500
symmetry false
sym_ignore true
scf_guess read
unrestricted false
scf_algorithm gdm
n_frozen_core 0
$end

$multipole_field
XX -0.0001
$end


--------------------------------------------------------------
 ----------------------------------------------------------------
             Standard Nuclear Orientation (Angstroms)
    I     Atom           X                Y                Z
 ----------------------------------------------------------------
    1      C       0.0000000000     0.0000000000     0.0000000000
    2      O       0.0000000000     0.0000000000     1.1282000000
 ----------------------------------------------------------------
 Nuclear Repulsion Energy =    22.5141873058 hartrees
 There are        7 alpha and        7 beta electrons
 Requested basis set is aug-cc-pCVQZ
 There are 58 shells and 218 basis functions

 Total QAlloc Memory Limit 128000 MB
 Mega-Array Size      1467 MB
 MEM_STATIC part      1500 MB

                       Distance Matrix (Angstroms)
             C (  1)
   O (  2)  1.128200
 
 Applying Cartesian multipole field
    Component          Value
    ---------          -----
     (2,0,0)       -1.00000E-04
 A cutoff of  1.0D-14 yielded   1663 shell pairs
 There are     23843 function pairs (     39083 Cartesian)
 
 -------------------------------------------------------
 OpenMP Integral Computing Module                       
 Release: version 1.0, May 2013, Q-Chem Inc. Pittsburgh 
 -------------------------------------------------------
 Integral Job Info:
 Integral job number is                      11
 Integral operator is                         1
 short-range coefficients              63615800
 long-range coefficients              100000000
 Omega coefficients                         300
 if combine SR and LR in K                    1
 Integral screening is                        0
 Integral computing path is                   2
 max size of driver memory is           3200000
 size of driver memory is               1704330
 size of scratch memory is             18852824
 max col of scratch BK array              50625
 max len of scratch array in speh3         2114
 max len of scratch index in speh4           50
 max int batch size is                      520
 min int batch size is                       52
 fixed nKL is                                52
 max L of basis functions is                  4
 order of int derivative is                   0
 number of shells is                         58
 number of basis is                         278
 number of cartesian basis is               278
 number of contracted shell pairs          1663
 number of primitive shell pairs           4042
 maxK2 (contraction) of shell pair           81
 max number of K2 of shell pair               1
 max number of CS2 of shell pair            189
 max number of PS2 of shell pair            486
 mem total for path MDJ                  675334
 -------------------------------------------------------
 Smallest overlap matrix eigenvalue = 8.78E-05
 Guess MOs from SCF MO coefficient file

 -----------------------------------------------------------------------
  General SCF calculation program by
  Eric Jon Sundstrom, Paul Horn, Yuezhi Mao, Dmitri Zuev, Alec White,
  David Stuck, Shaama M.S., Shane Yost, Joonho Lee, David Small,
  Daniel Levine, Susi Lehtola, Hugh Burton, Evgeny Epifanovsky
 -----------------------------------------------------------------------
 Exchange:     0.6362 Hartree-Fock + 1.0000 wB97X-2(TQZ) + LR-HF
 Correlation:  1.0000 wB97X-2(TQZ)
 Using Euler-Maclaurin-Lebedev (99,590) quadrature formula
 using 8 threads for integral computing
 -------------------------------------------------------
 OpenMP Integral computing Module                
 Release: version 1.0, May 2013, Q-Chem Inc. Pittsburgh 
 -------------------------------------------------------
 using 8 threads for integral computing
 -------------------------------------------------------
 OpenMP Integral computing Module                
 Release: version 1.0, May 2013, Q-Chem Inc. Pittsburgh 
 -------------------------------------------------------
 -------------------------------------------------------
 OpenMP BLAS3 based DFT computing Module                
 Release: version 1.0, May 2013, Q-Chem Inc. Pittsburgh 
 -------------------------------------------------------
 A restricted SCF calculation will be
 performed using GDM
 SCF converges when RMS gradient is below 1.0e-08
 ---------------------------------------
  Cycle       Energy        RMS Gradient
 ---------------------------------------
    1    -113.0781376214      3.08e-04   Normal BFGS step
    2    -113.0781383883      9.19e-05   Normal BFGS step
    3    -113.0781384459      9.19e-05   Normal BFGS step
    4    -113.0781384677      2.10e-05   Normal BFGS step
    5    -113.0781384696      4.34e-06   Normal BFGS step
    6    -113.0781384697      3.04e-06   Normal BFGS step
    7    -113.0781384698      4.10e-07   Normal BFGS step
    8    -113.0781384698      1.06e-07   Normal BFGS step
    9    -113.0781384698      2.23e-08   Normal BFGS step
   10    -113.0781384698      5.26e-09  Convergence criterion met
 ---------------------------------------
 SCF time:   CPU 874.77s  wall 110.00s 
 SCF   energy in the final basis set =     -113.0781384698
 Total energy in the final basis set =     -113.0781384698
 
 Components of the MP2 correlation energy:
        aaaa  correlation energy =        -0.0306146849 au
        abab  correlation energy =        -0.1857496245 au
        bbbb  correlation energy =        -0.0306146849 au
        non-Brillouin singles    =        -0.0000000000 au

 Total  MP2   correlation energy =                    -0.24697899 au
        MP2         total energy =                  -113.32511746 au
 
 --------------------------------------------------------------
 
                    Orbital Energies (a.u.)
 --------------------------------------------------------------
 
 Alpha MOs
 -- Occupied --
-20.083 -10.937  -1.419  -0.756  -0.618  -0.618  -0.529
 -- Virtual --
  0.065   0.066   0.066   0.082   0.120   0.121   0.161   0.168
  0.170   0.225   0.230   0.230   0.301   0.318   0.319   0.381
  0.382   0.386   0.497   0.522   0.522   0.603   0.604   0.622
  0.734   0.734   0.747   0.747   0.758   0.803   0.804   0.857
  0.862   0.862   0.877   0.877   0.885   1.043   1.044   1.141
  1.413   1.413   1.425   1.474   1.474   1.507   1.508   1.630
  1.727   1.727   1.729   1.754   1.754   1.918   1.918   2.072
  2.072   2.076   2.131   2.131   2.204   2.204   2.260   2.278
  2.278   2.320   2.320   2.323   2.323   2.422   2.507   2.507
  2.766   2.767   2.871   2.949   2.949   3.398   3.650   3.650
  3.654   3.654   3.834   3.982   3.982   4.082   4.082   4.123
  4.123   4.170   4.205   4.205   4.271   4.271   4.421   4.648
  4.648   4.899   5.010   5.010   5.046   5.046   5.693   5.694
  5.725   5.812   5.812   6.037   6.037   6.118   6.197   6.197
  6.212   6.212   6.338   6.338   6.477   6.477   6.926   7.231
  7.231   7.364   7.364   7.638   8.096   8.342   8.342   9.901
  9.901  10.338  10.431  10.431  10.710  10.710  10.951  10.959
 10.959  11.189  11.189  11.428  11.653  11.653  12.089  12.089
 12.437  12.437  12.652  12.652  13.092  13.961  13.961  15.366
 17.753  19.154  19.154  20.408  26.254  26.254  26.735  26.735
 27.945  33.392  33.392  34.606  36.428  46.687  46.687  47.289
 47.289  48.152  63.620  66.338  66.338  67.307  98.163  98.163
 98.185  98.185  98.253  98.253  98.264 102.727 102.727 102.777
102.777 102.803 102.803 102.866 114.553 114.553 114.788 114.788
115.403 116.308 116.308 117.343 122.091 197.697 197.697 198.023
198.023 198.456 215.541 224.293 224.293 225.089 394.157 394.157
395.013 507.684 893.108
 --------------------------------------------------------------
 
          Ground-State Mulliken Net Atomic Charges

     Atom                 Charge (a.u.)
  ----------------------------------------
      1 C                     0.245326
      2 O                    -0.245326
  ----------------------------------------
  Sum of atomic charges =     0.000000

 -----------------------------------------------------------------
                    Cartesian Multipole Moments
 -----------------------------------------------------------------
    Charge (ESU x 10^10)
                 0.0000
    Dipole Moment (Debye)
         X      -0.0000      Y      -0.0000      Z      -0.1076
       Tot       0.1076
    Quadrupole Moments (Debye-Ang)
        XX     -10.2881     XY       0.0000     YY     -10.2928
        XZ      -0.0000     YZ       0.0000     ZZ     -12.4611
    Octopole Moments (Debye-Ang^2)
       XXX      -0.0000    XXY       0.0000    XYY      -0.0000
       YYY       0.0000    XXZ      -5.5103    XYZ       0.0000
       YYZ      -5.5113    XZZ      -0.0000    YZZ       0.0000
       ZZZ     -17.6905
    Hexadecapole Moments (Debye-Ang^3)
      XXXX      -9.4092   XXXY       0.0000   XXYY      -3.1391
      XYYY       0.0000   YYYY      -9.4251   XXXZ      -0.0000
      XXYZ       0.0000   XYYZ      -0.0000   YYYZ       0.0000
      XXZZ      -9.9884   XYZZ       0.0000   YYZZ      -9.9927
      XZZZ      -0.0000   YZZZ       0.0000   ZZZZ     -51.9883
 -----------------------------------------------------------------
Archival summary:
1\1\n0090.mhg0\SP\ProcedureUnspecified\BasisUnspecified\11\yhljason\SatOct302:10:112020SatOct302:10:112020\0\\#,ProcedureUnspecified,BasisUnspecified,\\0,1\C\O,1,1.1282\\\@

 Total job time:  209.15s(wall), 1665.80s(cpu) 
 Sat Oct  3 02:10:11 2020

        *************************************************************
        *                                                           *
        *  Thank you very much for using Q-Chem.  Have a nice day.  *
        *                                                           *
        *************************************************************


 
User input: 5 of 8 
 
Q-Chem Developer Version!
                  Welcome to Q-Chem
     A Quantum Leap Into The Future Of Chemistry


 Q-Chem 5.1, Q-Chem, Inc., Pleasanton, CA (2018)

 Yihan Shao,  Zhengting Gan,  E. Epifanovsky,  A. T. B. Gilbert,  M. Wormit,  
 J. Kussmann,  A. W. Lange,  A. Behn,  Jia Deng,  Xintian Feng,  D. Ghosh,  
 M. Goldey,  P. R. Horn,  L. D. Jacobson,  I. Kaliman,  T. Kus,  A. Landau,  
 Jie Liu,  E. I. Proynov,  R. M. Richard,  R. P. Steele,  E. J. Sundstrom,  
 H. L. Woodcock III,  P. M. Zimmerman,  D. Zuev,  B. Albrecht,  E. Alguire,  
 S. A. Baeppler,  D. Barton,  Z. Benda,  Y. A. Bernard,  E. J. Berquist,  
 K. B. Bravaya,  H. Burton,  D. Casanova,  Chun-Min Chang,  Yunqing Chen,  
 A. Chien,  K. D. Closser,  M. P. Coons,  S. Coriani,  S. Dasgupta,  
 A. L. Dempwolff,  M. Diedenhofen,  Hainam Do,  R. G. Edgar,  Po-Tung Fang,  
 S. Faraji,  S. Fatehi,  Qingguo Feng,  K. D. Fenk,  J. Fosso-Tande,  
 Qinghui Ge,  A. Ghysels,  G. Gidofalvi,  J. Gomes,  J. Gonthier,  A. Gunina,  
 D. Hait,  M. W. D. Hanson-Heine,  P. H. P. Harbach,  A. W. Hauser,  
 J. E. Herr,  E. G. Hohenstein,  Z. C. Holden,  Kerwin Hui,  B. C. Huynh,  
 T.-C. Jagau,  Hyunjun Ji,  B. Kaduk,  K. Khistyaev,  Jaehoon Kim,  
 P. Klunzinger,  K. Koh,  D. Kosenkov,  L. Koulias,  T. Kowalczyk,  
 C. M. Krauter,  A. Kunitsa,  Ka Un Lao,  A. Laurent,  K. V. Lawler,  
 Joonho Lee,  D. Lefrancois,  S. Lehtola,  D. S. Levine,  Yi-Pei Li,  
 You-Sheng Lin,  Fenglai Liu,  E. Livshits,  A. Luenser,  P. Manohar,  
 E. Mansoor,  S. F. Manzer,  Shan-Ping Mao,  Yuezhi Mao,  N. Mardirossian,  
 A. V. Marenich,  T. Markovich,  L. A. Martinez-Martinez,  S. A. Maurer,  
 N. J. Mayhall,  S. C. McKenzie,  J.-M. Mewes,  A. F. Morrison,  
 J. W. Mullinax,  K. Nanda,  T. S. Nguyen-Beck,  R. Olivares-Amaya,  
 J. A. Parkhill,  T. M. Perrine,  F. Plasser,  P. Pokhilko,  S. Prager,  
 A. Prociuk,  E. Ramos,  D. R. Rehn,  F. Rob,  M. Schneider,  N. Sergueev,  
 S. M. Sharada,  S. Sharma,  D. W. Small,  T. Stauch,  T. Stein,  
 Yu-Chuan Su,  A. J. W. Thom,  A. Tkatchenko,  T. Tsuchimochi,  N. M. Tubman,  
 L. Vogt,  M. L. Vidal,  O. Vydrov,  M. A. Watson,  J. Wenzel,  
 M. de Wergifosse,  T. A. Wesolowski,  A. White,  J. Witte,  A. Yamada,  
 Jun Yang,  K. Yao,  S. Yeganeh,  S. R. Yost,  Zhi-Qiang You,  A. Zech,  
 Igor Ying Zhang,  Xing Zhang,  Yan Zhao,  Ying Zhu,  B. R. Brooks,  
 G. K. L. Chan,  C. J. Cramer,  M. S. Gordon,  W. J. Hehre,  A. Klamt,  
 M. W. Schmidt,  C. D. Sherrill,  D. G. Truhlar,  A. Aspuru-Guzik,  R. Baer,  
 A. T. Bell,  N. A. Besley,  Jeng-Da Chai,  A. E. DePrince, III,  
 R. A. DiStasio Jr.,  A. Dreuw,  B. D. Dunietz,  T. R. Furlani,  
 Chao-Ping Hsu,  Yousung Jung,  Jing Kong,  D. S. Lambrecht,  WanZhen Liang,  
 C. Ochsenfeld,  V. A. Rassolov,  L. V. Slipchenko,  J. E. Subotnik,  
 T. Van Voorhis,  J. M. Herbert,  A. I. Krylov,  P. M. W. Gill,  M. Head-Gordon

 Contributors to earlier versions of Q-Chem not listed above: 
 R. D. Adamson,  B. Austin,  J. Baker,  G. J. O. Beran,  K. Brandhorst,  
 S. T. Brown,  E. F. C. Byrd,  A. K. Chakraborty,  C.-L. Cheng,  
 Siu Hung Chien,  D. M. Chipman,  D. L. Crittenden,  H. Dachsel,  
 R. J. Doerksen,  A. D. Dutoi,  L. Fusti-Molnar,  W. A. Goddard III,  
 A. Golubeva-Zadorozhnaya,  S. R. Gwaltney,  G. Hawkins,  A. Heyden,  
 S. Hirata,  G. Kedziora,  F. J. Keil,  C. Kelley,  Jihan Kim,  R. A. King,  
 R. Z. Khaliullin,  P. P. Korambath,  W. Kurlancheek,  A. M. Lee,  M. S. Lee,  
 S. V. Levchenko,  Ching Yeh Lin,  D. Liotard,  R. C. Lochan,  I. Lotan,  
 P. E. Maslen,  N. Nair,  D. P. O'Neill,  D. Neuhauser,  E. Neuscamman,  
 C. M. Oana,  R. Olson,  B. Peters,  R. Peverati,  P. A. Pieniazek,  
 Y. M. Rhee,  J. Ritchie,  M. A. Rohrdanz,  E. Rosta,  N. J. Russ,  
 H. F. Schaefer III,  N. E. Schultz,  N. Shenvi,  A. C. Simmonett,  A. Sodt,  
 D. Stuck,  K. S. Thanthiriwatte,  V. Vanovschi,  Tao Wang,  A. Warshel,  
 C. F. Williams,  Q. Wu,  X. Xu,  W. Zhang

 Please cite Q-Chem as follows:
 Y. Shao et al., Mol. Phys. 113, 184-215 (2015)
 DOI: 10.1080/00268976.2014.952696

 Q-Chem 5.1.1 for Intel X86 EM64T Linux

 Parts of Q-Chem use Armadillo 8.300.2 (Tropical Shenanigans).
 http://arma.sourceforge.net/

 Q-Chem begins on Sat Oct  3 02:10:11 2020  

Host: n0090.mhg0
0

     Scratch files written to /local/scratch/users/yhljason/CO_wB97X-2TQZ_aug-cc-pcVQZ.inp20201003015118//
The previous job contains 0 fragments, simply inherited here
Input Ideriv = 0
Curr. Ideriv = -1
Max.  Ideriv = 0
Analytic post-HF gradients are not available with non-HF exchange
Input Ideriv = 0
Curr. Ideriv = 0
Max.  Ideriv = 0

Checking the input file for inconsistencies... 	...done.

--------------------------------------------------------------
User input:
--------------------------------------------------------------
$molecule
read
$end

$rem

jobtype sp
method wB97X-2(TQZ)
xc_grid 000099000590
basis aug-cc-pcVQZ
max_scf_cycles 200
thresh 14
scf_convergence 8
mem_total 128000
cc_memory 96000
cc_backend xm
mem_static 1500
symmetry false
sym_ignore true
scf_guess read
unrestricted false
scf_algorithm gdm
n_frozen_core 0
$end

$multipole_field
YY 0.0001
$end


--------------------------------------------------------------
 ----------------------------------------------------------------
             Standard Nuclear Orientation (Angstroms)
    I     Atom           X                Y                Z
 ----------------------------------------------------------------
    1      C       0.0000000000     0.0000000000     0.0000000000
    2      O       0.0000000000     0.0000000000     1.1282000000
 ----------------------------------------------------------------
 Nuclear Repulsion Energy =    22.5141873058 hartrees
 There are        7 alpha and        7 beta electrons
 Requested basis set is aug-cc-pCVQZ
 There are 58 shells and 218 basis functions

 Total QAlloc Memory Limit 128000 MB
 Mega-Array Size      1467 MB
 MEM_STATIC part      1500 MB

                       Distance Matrix (Angstroms)
             C (  1)
   O (  2)  1.128200
 
 Applying Cartesian multipole field
    Component          Value
    ---------          -----
     (0,2,0)        1.00000E-04
 A cutoff of  1.0D-14 yielded   1663 shell pairs
 There are     23843 function pairs (     39083 Cartesian)
 
 -------------------------------------------------------
 OpenMP Integral Computing Module                       
 Release: version 1.0, May 2013, Q-Chem Inc. Pittsburgh 
 -------------------------------------------------------
 Integral Job Info:
 Integral job number is                      11
 Integral operator is                         1
 short-range coefficients              63615800
 long-range coefficients              100000000
 Omega coefficients                         300
 if combine SR and LR in K                    1
 Integral screening is                        0
 Integral computing path is                   2
 max size of driver memory is           3200000
 size of driver memory is               1704330
 size of scratch memory is             18852824
 max col of scratch BK array              50625
 max len of scratch array in speh3         2114
 max len of scratch index in speh4           50
 max int batch size is                      520
 min int batch size is                       52
 fixed nKL is                                52
 max L of basis functions is                  4
 order of int derivative is                   0
 number of shells is                         58
 number of basis is                         278
 number of cartesian basis is               278
 number of contracted shell pairs          1663
 number of primitive shell pairs           4042
 maxK2 (contraction) of shell pair           81
 max number of K2 of shell pair               1
 max number of CS2 of shell pair            189
 max number of PS2 of shell pair            486
 mem total for path MDJ                  675334
 -------------------------------------------------------
 Smallest overlap matrix eigenvalue = 8.78E-05
 Guess MOs from SCF MO coefficient file

 -----------------------------------------------------------------------
  General SCF calculation program by
  Eric Jon Sundstrom, Paul Horn, Yuezhi Mao, Dmitri Zuev, Alec White,
  David Stuck, Shaama M.S., Shane Yost, Joonho Lee, David Small,
  Daniel Levine, Susi Lehtola, Hugh Burton, Evgeny Epifanovsky
 -----------------------------------------------------------------------
 Exchange:     0.6362 Hartree-Fock + 1.0000 wB97X-2(TQZ) + LR-HF
 Correlation:  1.0000 wB97X-2(TQZ)
 Using Euler-Maclaurin-Lebedev (99,590) quadrature formula
 using 8 threads for integral computing
 -------------------------------------------------------
 OpenMP Integral computing Module                
 Release: version 1.0, May 2013, Q-Chem Inc. Pittsburgh 
 -------------------------------------------------------
 using 8 threads for integral computing
 -------------------------------------------------------
 OpenMP Integral computing Module                
 Release: version 1.0, May 2013, Q-Chem Inc. Pittsburgh 
 -------------------------------------------------------
 -------------------------------------------------------
 OpenMP BLAS3 based DFT computing Module                
 Release: version 1.0, May 2013, Q-Chem Inc. Pittsburgh 
 -------------------------------------------------------
 A restricted SCF calculation will be
 performed using GDM
 SCF converges when RMS gradient is below 1.0e-08
 ---------------------------------------
  Cycle       Energy        RMS Gradient
 ---------------------------------------
    1    -113.0796686082      2.27e-04   Normal BFGS step
    2    -113.0796690493      5.93e-05   Normal BFGS step
    3    -113.0796690850      6.77e-05   Normal BFGS step
    4    -113.0796690987      7.60e-06   Normal BFGS step
    5    -113.0796690995      1.23e-06   Normal BFGS step
    6    -113.0796690995      4.56e-07   Normal BFGS step
    7    -113.0796690995      8.86e-08   Normal BFGS step
    8    -113.0796690995      9.39e-09  Convergence criterion met
 ---------------------------------------
 SCF time:   CPU 717.56s  wall 91.00s 
 SCF   energy in the final basis set =     -113.0796690995
 Total energy in the final basis set =     -113.0796690995
 
 Components of the MP2 correlation energy:
        aaaa  correlation energy =        -0.0306167720 au
        abab  correlation energy =        -0.1857521420 au
        bbbb  correlation energy =        -0.0306167720 au
        non-Brillouin singles    =        -0.0000000000 au

 Total  MP2   correlation energy =                    -0.24698569 au
        MP2         total energy =                  -113.32665479 au
 
 --------------------------------------------------------------
 
                    Orbital Energies (a.u.)
 --------------------------------------------------------------
 
 Alpha MOs
 -- Occupied --
-20.083 -10.938  -1.419  -0.757  -0.618  -0.618  -0.529
 -- Virtual --
  0.061   0.063   0.063   0.079   0.118   0.119   0.159   0.165
  0.166   0.223   0.228   0.228   0.299   0.316   0.317   0.380
  0.380   0.385   0.495   0.521   0.521   0.602   0.603   0.621
  0.733   0.733   0.746   0.746   0.757   0.802   0.803   0.856
  0.861   0.861   0.875   0.875   0.884   1.042   1.043   1.141
  1.412   1.412   1.424   1.473   1.473   1.507   1.507   1.629
  1.726   1.726   1.728   1.753   1.753   1.917   1.917   2.071
  2.071   2.076   2.131   2.131   2.203   2.203   2.260   2.277
  2.277   2.320   2.320   2.322   2.322   2.421   2.506   2.507
  2.766   2.766   2.871   2.949   2.949   3.398   3.650   3.650
  3.653   3.654   3.833   3.981   3.981   4.082   4.082   4.122
  4.123   4.169   4.204   4.204   4.271   4.271   4.421   4.648
  4.648   4.899   5.009   5.009   5.046   5.046   5.693   5.693
  5.725   5.812   5.812   6.036   6.036   6.118   6.197   6.197
  6.211   6.211   6.338   6.338   6.477   6.477   6.926   7.231
  7.231   7.364   7.364   7.638   8.095   8.342   8.342   9.900
  9.900  10.338  10.431  10.431  10.710  10.710  10.951  10.959
 10.959  11.189  11.189  11.427  11.652  11.652  12.089  12.089
 12.437  12.437  12.652  12.652  13.092  13.961  13.961  15.365
 17.753  19.154  19.154  20.407  26.254  26.254  26.734  26.734
 27.944  33.391  33.392  34.605  36.427  46.686  46.686  47.288
 47.288  48.152  63.619  66.338  66.338  67.306  98.163  98.163
 98.185  98.185  98.253  98.253  98.264 102.726 102.726 102.776
102.776 102.803 102.803 102.866 114.553 114.553 114.787 114.787
115.403 116.307 116.307 117.343 122.091 197.696 197.696 198.023
198.023 198.456 215.540 224.292 224.292 225.089 394.157 394.157
395.013 507.683 893.108
 --------------------------------------------------------------
 
          Ground-State Mulliken Net Atomic Charges

     Atom                 Charge (a.u.)
  ----------------------------------------
      1 C                     0.244363
      2 O                    -0.244363
  ----------------------------------------
  Sum of atomic charges =     0.000000

 -----------------------------------------------------------------
                    Cartesian Multipole Moments
 -----------------------------------------------------------------
    Charge (ESU x 10^10)
                 0.0000
    Dipole Moment (Debye)
         X       0.0000      Y      -0.0000      Z      -0.1070
       Tot       0.1070
    Quadrupole Moments (Debye-Ang)
        XX     -10.2947     XY       0.0000     YY     -10.2995
        XZ       0.0000     YZ      -0.0000     ZZ     -12.4611
    Octopole Moments (Debye-Ang^2)
       XXX       0.0000    XXY      -0.0000    XYY      -0.0000
       YYY      -0.0000    XXZ      -5.5119    XYZ       0.0000
       YYZ      -5.5129    XZZ       0.0000    YZZ      -0.0000
       ZZZ     -17.6895
    Hexadecapole Moments (Debye-Ang^3)
      XXXX      -9.4312   XXXY       0.0000   XXYY      -3.1464
      XYYY       0.0000   YYYY      -9.4472   XXXZ       0.0000
      XXYZ       0.0000   XYYZ      -0.0000   YYYZ       0.0000
      XXZZ      -9.9953   XYZZ       0.0000   YYZZ      -9.9996
      XZZZ       0.0000   YZZZ      -0.0000   ZZZZ     -51.9931
 -----------------------------------------------------------------
Archival summary:
1\1\n0090.mhg0\SP\ProcedureUnspecified\BasisUnspecified\11\yhljason\SatOct302:13:252020SatOct302:13:252020\0\\#,ProcedureUnspecified,BasisUnspecified,\\0,1\C\O,1,1.1282\\\@

 Total job time:  193.57s(wall), 1540.24s(cpu) 
 Sat Oct  3 02:13:25 2020

        *************************************************************
        *                                                           *
        *  Thank you very much for using Q-Chem.  Have a nice day.  *
        *                                                           *
        *************************************************************


 
User input: 6 of 8 
 
Q-Chem Developer Version!
                  Welcome to Q-Chem
     A Quantum Leap Into The Future Of Chemistry


 Q-Chem 5.1, Q-Chem, Inc., Pleasanton, CA (2018)

 Yihan Shao,  Zhengting Gan,  E. Epifanovsky,  A. T. B. Gilbert,  M. Wormit,  
 J. Kussmann,  A. W. Lange,  A. Behn,  Jia Deng,  Xintian Feng,  D. Ghosh,  
 M. Goldey,  P. R. Horn,  L. D. Jacobson,  I. Kaliman,  T. Kus,  A. Landau,  
 Jie Liu,  E. I. Proynov,  R. M. Richard,  R. P. Steele,  E. J. Sundstrom,  
 H. L. Woodcock III,  P. M. Zimmerman,  D. Zuev,  B. Albrecht,  E. Alguire,  
 S. A. Baeppler,  D. Barton,  Z. Benda,  Y. A. Bernard,  E. J. Berquist,  
 K. B. Bravaya,  H. Burton,  D. Casanova,  Chun-Min Chang,  Yunqing Chen,  
 A. Chien,  K. D. Closser,  M. P. Coons,  S. Coriani,  S. Dasgupta,  
 A. L. Dempwolff,  M. Diedenhofen,  Hainam Do,  R. G. Edgar,  Po-Tung Fang,  
 S. Faraji,  S. Fatehi,  Qingguo Feng,  K. D. Fenk,  J. Fosso-Tande,  
 Qinghui Ge,  A. Ghysels,  G. Gidofalvi,  J. Gomes,  J. Gonthier,  A. Gunina,  
 D. Hait,  M. W. D. Hanson-Heine,  P. H. P. Harbach,  A. W. Hauser,  
 J. E. Herr,  E. G. Hohenstein,  Z. C. Holden,  Kerwin Hui,  B. C. Huynh,  
 T.-C. Jagau,  Hyunjun Ji,  B. Kaduk,  K. Khistyaev,  Jaehoon Kim,  
 P. Klunzinger,  K. Koh,  D. Kosenkov,  L. Koulias,  T. Kowalczyk,  
 C. M. Krauter,  A. Kunitsa,  Ka Un Lao,  A. Laurent,  K. V. Lawler,  
 Joonho Lee,  D. Lefrancois,  S. Lehtola,  D. S. Levine,  Yi-Pei Li,  
 You-Sheng Lin,  Fenglai Liu,  E. Livshits,  A. Luenser,  P. Manohar,  
 E. Mansoor,  S. F. Manzer,  Shan-Ping Mao,  Yuezhi Mao,  N. Mardirossian,  
 A. V. Marenich,  T. Markovich,  L. A. Martinez-Martinez,  S. A. Maurer,  
 N. J. Mayhall,  S. C. McKenzie,  J.-M. Mewes,  A. F. Morrison,  
 J. W. Mullinax,  K. Nanda,  T. S. Nguyen-Beck,  R. Olivares-Amaya,  
 J. A. Parkhill,  T. M. Perrine,  F. Plasser,  P. Pokhilko,  S. Prager,  
 A. Prociuk,  E. Ramos,  D. R. Rehn,  F. Rob,  M. Schneider,  N. Sergueev,  
 S. M. Sharada,  S. Sharma,  D. W. Small,  T. Stauch,  T. Stein,  
 Yu-Chuan Su,  A. J. W. Thom,  A. Tkatchenko,  T. Tsuchimochi,  N. M. Tubman,  
 L. Vogt,  M. L. Vidal,  O. Vydrov,  M. A. Watson,  J. Wenzel,  
 M. de Wergifosse,  T. A. Wesolowski,  A. White,  J. Witte,  A. Yamada,  
 Jun Yang,  K. Yao,  S. Yeganeh,  S. R. Yost,  Zhi-Qiang You,  A. Zech,  
 Igor Ying Zhang,  Xing Zhang,  Yan Zhao,  Ying Zhu,  B. R. Brooks,  
 G. K. L. Chan,  C. J. Cramer,  M. S. Gordon,  W. J. Hehre,  A. Klamt,  
 M. W. Schmidt,  C. D. Sherrill,  D. G. Truhlar,  A. Aspuru-Guzik,  R. Baer,  
 A. T. Bell,  N. A. Besley,  Jeng-Da Chai,  A. E. DePrince, III,  
 R. A. DiStasio Jr.,  A. Dreuw,  B. D. Dunietz,  T. R. Furlani,  
 Chao-Ping Hsu,  Yousung Jung,  Jing Kong,  D. S. Lambrecht,  WanZhen Liang,  
 C. Ochsenfeld,  V. A. Rassolov,  L. V. Slipchenko,  J. E. Subotnik,  
 T. Van Voorhis,  J. M. Herbert,  A. I. Krylov,  P. M. W. Gill,  M. Head-Gordon

 Contributors to earlier versions of Q-Chem not listed above: 
 R. D. Adamson,  B. Austin,  J. Baker,  G. J. O. Beran,  K. Brandhorst,  
 S. T. Brown,  E. F. C. Byrd,  A. K. Chakraborty,  C.-L. Cheng,  
 Siu Hung Chien,  D. M. Chipman,  D. L. Crittenden,  H. Dachsel,  
 R. J. Doerksen,  A. D. Dutoi,  L. Fusti-Molnar,  W. A. Goddard III,  
 A. Golubeva-Zadorozhnaya,  S. R. Gwaltney,  G. Hawkins,  A. Heyden,  
 S. Hirata,  G. Kedziora,  F. J. Keil,  C. Kelley,  Jihan Kim,  R. A. King,  
 R. Z. Khaliullin,  P. P. Korambath,  W. Kurlancheek,  A. M. Lee,  M. S. Lee,  
 S. V. Levchenko,  Ching Yeh Lin,  D. Liotard,  R. C. Lochan,  I. Lotan,  
 P. E. Maslen,  N. Nair,  D. P. O'Neill,  D. Neuhauser,  E. Neuscamman,  
 C. M. Oana,  R. Olson,  B. Peters,  R. Peverati,  P. A. Pieniazek,  
 Y. M. Rhee,  J. Ritchie,  M. A. Rohrdanz,  E. Rosta,  N. J. Russ,  
 H. F. Schaefer III,  N. E. Schultz,  N. Shenvi,  A. C. Simmonett,  A. Sodt,  
 D. Stuck,  K. S. Thanthiriwatte,  V. Vanovschi,  Tao Wang,  A. Warshel,  
 C. F. Williams,  Q. Wu,  X. Xu,  W. Zhang

 Please cite Q-Chem as follows:
 Y. Shao et al., Mol. Phys. 113, 184-215 (2015)
 DOI: 10.1080/00268976.2014.952696

 Q-Chem 5.1.1 for Intel X86 EM64T Linux

 Parts of Q-Chem use Armadillo 8.300.2 (Tropical Shenanigans).
 http://arma.sourceforge.net/

 Q-Chem begins on Sat Oct  3 02:13:25 2020  

Host: n0090.mhg0
0

     Scratch files written to /local/scratch/users/yhljason/CO_wB97X-2TQZ_aug-cc-pcVQZ.inp20201003015118//
The previous job contains 0 fragments, simply inherited here
Input Ideriv = 0
Curr. Ideriv = -1
Max.  Ideriv = 0
Analytic post-HF gradients are not available with non-HF exchange
Input Ideriv = 0
Curr. Ideriv = 0
Max.  Ideriv = 0

Checking the input file for inconsistencies... 	...done.

--------------------------------------------------------------
User input:
--------------------------------------------------------------
$molecule
read
$end

$rem

jobtype sp
method wB97X-2(TQZ)
xc_grid 000099000590
basis aug-cc-pcVQZ
max_scf_cycles 200
thresh 14
scf_convergence 8
mem_total 128000
cc_memory 96000
cc_backend xm
mem_static 1500
symmetry false
sym_ignore true
scf_guess read
unrestricted false
scf_algorithm gdm
n_frozen_core 0
$end

$multipole_field
YY -0.0001
$end


--------------------------------------------------------------
 ----------------------------------------------------------------
             Standard Nuclear Orientation (Angstroms)
    I     Atom           X                Y                Z
 ----------------------------------------------------------------
    1      C       0.0000000000     0.0000000000     0.0000000000
    2      O       0.0000000000     0.0000000000     1.1282000000
 ----------------------------------------------------------------
 Nuclear Repulsion Energy =    22.5141873058 hartrees
 There are        7 alpha and        7 beta electrons
 Requested basis set is aug-cc-pCVQZ
 There are 58 shells and 218 basis functions

 Total QAlloc Memory Limit 128000 MB
 Mega-Array Size      1467 MB
 MEM_STATIC part      1500 MB

                       Distance Matrix (Angstroms)
             C (  1)
   O (  2)  1.128200
 
 Applying Cartesian multipole field
    Component          Value
    ---------          -----
     (0,2,0)       -1.00000E-04
 A cutoff of  1.0D-14 yielded   1663 shell pairs
 There are     23843 function pairs (     39083 Cartesian)
 
 -------------------------------------------------------
 OpenMP Integral Computing Module                       
 Release: version 1.0, May 2013, Q-Chem Inc. Pittsburgh 
 -------------------------------------------------------
 Integral Job Info:
 Integral job number is                      11
 Integral operator is                         1
 short-range coefficients              63615800
 long-range coefficients              100000000
 Omega coefficients                         300
 if combine SR and LR in K                    1
 Integral screening is                        0
 Integral computing path is                   2
 max size of driver memory is           3200000
 size of driver memory is               1704330
 size of scratch memory is             18852824
 max col of scratch BK array              50625
 max len of scratch array in speh3         2114
 max len of scratch index in speh4           50
 max int batch size is                      520
 min int batch size is                       52
 fixed nKL is                                52
 max L of basis functions is                  4
 order of int derivative is                   0
 number of shells is                         58
 number of basis is                         278
 number of cartesian basis is               278
 number of contracted shell pairs          1663
 number of primitive shell pairs           4042
 maxK2 (contraction) of shell pair           81
 max number of K2 of shell pair               1
 max number of CS2 of shell pair            189
 max number of PS2 of shell pair            486
 mem total for path MDJ                  675334
 -------------------------------------------------------
 Smallest overlap matrix eigenvalue = 8.78E-05
 Guess MOs from SCF MO coefficient file

 -----------------------------------------------------------------------
  General SCF calculation program by
  Eric Jon Sundstrom, Paul Horn, Yuezhi Mao, Dmitri Zuev, Alec White,
  David Stuck, Shaama M.S., Shane Yost, Joonho Lee, David Small,
  Daniel Levine, Susi Lehtola, Hugh Burton, Evgeny Epifanovsky
 -----------------------------------------------------------------------
 Exchange:     0.6362 Hartree-Fock + 1.0000 wB97X-2(TQZ) + LR-HF
 Correlation:  1.0000 wB97X-2(TQZ)
 Using Euler-Maclaurin-Lebedev (99,590) quadrature formula
 using 8 threads for integral computing
 -------------------------------------------------------
 OpenMP Integral computing Module                
 Release: version 1.0, May 2013, Q-Chem Inc. Pittsburgh 
 -------------------------------------------------------
 using 8 threads for integral computing
 -------------------------------------------------------
 OpenMP Integral computing Module                
 Release: version 1.0, May 2013, Q-Chem Inc. Pittsburgh 
 -------------------------------------------------------
 -------------------------------------------------------
 OpenMP BLAS3 based DFT computing Module                
 Release: version 1.0, May 2013, Q-Chem Inc. Pittsburgh 
 -------------------------------------------------------
 A restricted SCF calculation will be
 performed using GDM
 SCF converges when RMS gradient is below 1.0e-08
 ---------------------------------------
  Cycle       Energy        RMS Gradient
 ---------------------------------------
    1    -113.0781376214      3.08e-04   Normal BFGS step
    2    -113.0781383883      9.19e-05   Normal BFGS step
    3    -113.0781384459      9.19e-05   Normal BFGS step
    4    -113.0781384677      2.10e-05   Normal BFGS step
    5    -113.0781384696      4.34e-06   Normal BFGS step
    6    -113.0781384697      3.04e-06   Normal BFGS step
    7    -113.0781384698      4.11e-07   Normal BFGS step
    8    -113.0781384698      1.06e-07   Normal BFGS step
    9    -113.0781384698      2.23e-08   Normal BFGS step
   10    -113.0781384698      5.26e-09  Convergence criterion met
 ---------------------------------------
 SCF time:   CPU 868.54s  wall 109.00s 
 SCF   energy in the final basis set =     -113.0781384698
 Total energy in the final basis set =     -113.0781384698
 
 Components of the MP2 correlation energy:
        aaaa  correlation energy =        -0.0306146849 au
        abab  correlation energy =        -0.1857496245 au
        bbbb  correlation energy =        -0.0306146849 au
        non-Brillouin singles    =        -0.0000000000 au

 Total  MP2   correlation energy =                    -0.24697899 au
        MP2         total energy =                  -113.32511746 au
 
 --------------------------------------------------------------
 
                    Orbital Energies (a.u.)
 --------------------------------------------------------------
 
 Alpha MOs
 -- Occupied --
-20.083 -10.937  -1.419  -0.756  -0.618  -0.618  -0.529
 -- Virtual --
  0.065   0.066   0.066   0.082   0.120   0.121   0.161   0.168
  0.170   0.225   0.230   0.230   0.301   0.318   0.319   0.381
  0.382   0.386   0.497   0.522   0.522   0.603   0.604   0.622
  0.734   0.734   0.747   0.747   0.758   0.803   0.804   0.857
  0.862   0.862   0.877   0.877   0.885   1.043   1.044   1.141
  1.413   1.413   1.425   1.474   1.474   1.507   1.508   1.630
  1.727   1.727   1.729   1.754   1.754   1.918   1.918   2.072
  2.072   2.076   2.131   2.131   2.204   2.204   2.260   2.278
  2.278   2.320   2.320   2.323   2.323   2.422   2.507   2.507
  2.766   2.767   2.871   2.949   2.949   3.398   3.650   3.650
  3.654   3.654   3.834   3.982   3.982   4.082   4.082   4.123
  4.123   4.170   4.205   4.205   4.271   4.271   4.421   4.648
  4.648   4.899   5.010   5.010   5.046   5.046   5.693   5.694
  5.725   5.812   5.812   6.037   6.037   6.118   6.197   6.197
  6.212   6.212   6.338   6.338   6.477   6.477   6.926   7.231
  7.231   7.364   7.364   7.638   8.096   8.342   8.342   9.901
  9.901  10.338  10.431  10.431  10.710  10.710  10.951  10.959
 10.959  11.189  11.189  11.428  11.653  11.653  12.089  12.089
 12.437  12.437  12.652  12.652  13.092  13.961  13.961  15.366
 17.753  19.154  19.154  20.408  26.254  26.254  26.735  26.735
 27.945  33.392  33.392  34.606  36.428  46.687  46.687  47.289
 47.289  48.152  63.620  66.338  66.338  67.307  98.163  98.163
 98.185  98.185  98.253  98.253  98.264 102.727 102.727 102.777
102.777 102.803 102.803 102.866 114.553 114.553 114.788 114.788
115.403 116.308 116.308 117.343 122.091 197.697 197.697 198.023
198.023 198.456 215.541 224.293 224.293 225.089 394.157 394.157
395.013 507.684 893.108
 --------------------------------------------------------------
 
          Ground-State Mulliken Net Atomic Charges

     Atom                 Charge (a.u.)
  ----------------------------------------
      1 C                     0.245326
      2 O                    -0.245326
  ----------------------------------------
  Sum of atomic charges =     0.000000

 -----------------------------------------------------------------
                    Cartesian Multipole Moments
 -----------------------------------------------------------------
    Charge (ESU x 10^10)
                 0.0000
    Dipole Moment (Debye)
         X       0.0000      Y       0.0000      Z      -0.1076
       Tot       0.1076
    Quadrupole Moments (Debye-Ang)
        XX     -10.2928     XY       0.0000     YY     -10.2881
        XZ      -0.0000     YZ      -0.0000     ZZ     -12.4611
    Octopole Moments (Debye-Ang^2)
       XXX       0.0000    XXY       0.0000    XYY       0.0000
       YYY       0.0000    XXZ      -5.5113    XYZ       0.0000
       YYZ      -5.5103    XZZ       0.0000    YZZ       0.0000
       ZZZ     -17.6905
    Hexadecapole Moments (Debye-Ang^3)
      XXXX      -9.4251   XXXY      -0.0000   XXYY      -3.1391
      XYYY      -0.0000   YYYY      -9.4092   XXXZ      -0.0000
      XXYZ       0.0000   XYYZ       0.0000   YYYZ       0.0000
      XXZZ      -9.9927   XYZZ       0.0000   YYZZ      -9.9884
      XZZZ       0.0000   YZZZ       0.0000   ZZZZ     -51.9883
 -----------------------------------------------------------------
Archival summary:
1\1\n0090.mhg0\SP\ProcedureUnspecified\BasisUnspecified\11\yhljason\SatOct302:16:572020SatOct302:16:572020\0\\#,ProcedureUnspecified,BasisUnspecified,\\0,1\C\O,1,1.1282\\\@

 Total job time:  212.14s(wall), 1689.21s(cpu) 
 Sat Oct  3 02:16:57 2020

        *************************************************************
        *                                                           *
        *  Thank you very much for using Q-Chem.  Have a nice day.  *
        *                                                           *
        *************************************************************


 
User input: 7 of 8 
 
Q-Chem Developer Version!
                  Welcome to Q-Chem
     A Quantum Leap Into The Future Of Chemistry


 Q-Chem 5.1, Q-Chem, Inc., Pleasanton, CA (2018)

 Yihan Shao,  Zhengting Gan,  E. Epifanovsky,  A. T. B. Gilbert,  M. Wormit,  
 J. Kussmann,  A. W. Lange,  A. Behn,  Jia Deng,  Xintian Feng,  D. Ghosh,  
 M. Goldey,  P. R. Horn,  L. D. Jacobson,  I. Kaliman,  T. Kus,  A. Landau,  
 Jie Liu,  E. I. Proynov,  R. M. Richard,  R. P. Steele,  E. J. Sundstrom,  
 H. L. Woodcock III,  P. M. Zimmerman,  D. Zuev,  B. Albrecht,  E. Alguire,  
 S. A. Baeppler,  D. Barton,  Z. Benda,  Y. A. Bernard,  E. J. Berquist,  
 K. B. Bravaya,  H. Burton,  D. Casanova,  Chun-Min Chang,  Yunqing Chen,  
 A. Chien,  K. D. Closser,  M. P. Coons,  S. Coriani,  S. Dasgupta,  
 A. L. Dempwolff,  M. Diedenhofen,  Hainam Do,  R. G. Edgar,  Po-Tung Fang,  
 S. Faraji,  S. Fatehi,  Qingguo Feng,  K. D. Fenk,  J. Fosso-Tande,  
 Qinghui Ge,  A. Ghysels,  G. Gidofalvi,  J. Gomes,  J. Gonthier,  A. Gunina,  
 D. Hait,  M. W. D. Hanson-Heine,  P. H. P. Harbach,  A. W. Hauser,  
 J. E. Herr,  E. G. Hohenstein,  Z. C. Holden,  Kerwin Hui,  B. C. Huynh,  
 T.-C. Jagau,  Hyunjun Ji,  B. Kaduk,  K. Khistyaev,  Jaehoon Kim,  
 P. Klunzinger,  K. Koh,  D. Kosenkov,  L. Koulias,  T. Kowalczyk,  
 C. M. Krauter,  A. Kunitsa,  Ka Un Lao,  A. Laurent,  K. V. Lawler,  
 Joonho Lee,  D. Lefrancois,  S. Lehtola,  D. S. Levine,  Yi-Pei Li,  
 You-Sheng Lin,  Fenglai Liu,  E. Livshits,  A. Luenser,  P. Manohar,  
 E. Mansoor,  S. F. Manzer,  Shan-Ping Mao,  Yuezhi Mao,  N. Mardirossian,  
 A. V. Marenich,  T. Markovich,  L. A. Martinez-Martinez,  S. A. Maurer,  
 N. J. Mayhall,  S. C. McKenzie,  J.-M. Mewes,  A. F. Morrison,  
 J. W. Mullinax,  K. Nanda,  T. S. Nguyen-Beck,  R. Olivares-Amaya,  
 J. A. Parkhill,  T. M. Perrine,  F. Plasser,  P. Pokhilko,  S. Prager,  
 A. Prociuk,  E. Ramos,  D. R. Rehn,  F. Rob,  M. Schneider,  N. Sergueev,  
 S. M. Sharada,  S. Sharma,  D. W. Small,  T. Stauch,  T. Stein,  
 Yu-Chuan Su,  A. J. W. Thom,  A. Tkatchenko,  T. Tsuchimochi,  N. M. Tubman,  
 L. Vogt,  M. L. Vidal,  O. Vydrov,  M. A. Watson,  J. Wenzel,  
 M. de Wergifosse,  T. A. Wesolowski,  A. White,  J. Witte,  A. Yamada,  
 Jun Yang,  K. Yao,  S. Yeganeh,  S. R. Yost,  Zhi-Qiang You,  A. Zech,  
 Igor Ying Zhang,  Xing Zhang,  Yan Zhao,  Ying Zhu,  B. R. Brooks,  
 G. K. L. Chan,  C. J. Cramer,  M. S. Gordon,  W. J. Hehre,  A. Klamt,  
 M. W. Schmidt,  C. D. Sherrill,  D. G. Truhlar,  A. Aspuru-Guzik,  R. Baer,  
 A. T. Bell,  N. A. Besley,  Jeng-Da Chai,  A. E. DePrince, III,  
 R. A. DiStasio Jr.,  A. Dreuw,  B. D. Dunietz,  T. R. Furlani,  
 Chao-Ping Hsu,  Yousung Jung,  Jing Kong,  D. S. Lambrecht,  WanZhen Liang,  
 C. Ochsenfeld,  V. A. Rassolov,  L. V. Slipchenko,  J. E. Subotnik,  
 T. Van Voorhis,  J. M. Herbert,  A. I. Krylov,  P. M. W. Gill,  M. Head-Gordon

 Contributors to earlier versions of Q-Chem not listed above: 
 R. D. Adamson,  B. Austin,  J. Baker,  G. J. O. Beran,  K. Brandhorst,  
 S. T. Brown,  E. F. C. Byrd,  A. K. Chakraborty,  C.-L. Cheng,  
 Siu Hung Chien,  D. M. Chipman,  D. L. Crittenden,  H. Dachsel,  
 R. J. Doerksen,  A. D. Dutoi,  L. Fusti-Molnar,  W. A. Goddard III,  
 A. Golubeva-Zadorozhnaya,  S. R. Gwaltney,  G. Hawkins,  A. Heyden,  
 S. Hirata,  G. Kedziora,  F. J. Keil,  C. Kelley,  Jihan Kim,  R. A. King,  
 R. Z. Khaliullin,  P. P. Korambath,  W. Kurlancheek,  A. M. Lee,  M. S. Lee,  
 S. V. Levchenko,  Ching Yeh Lin,  D. Liotard,  R. C. Lochan,  I. Lotan,  
 P. E. Maslen,  N. Nair,  D. P. O'Neill,  D. Neuhauser,  E. Neuscamman,  
 C. M. Oana,  R. Olson,  B. Peters,  R. Peverati,  P. A. Pieniazek,  
 Y. M. Rhee,  J. Ritchie,  M. A. Rohrdanz,  E. Rosta,  N. J. Russ,  
 H. F. Schaefer III,  N. E. Schultz,  N. Shenvi,  A. C. Simmonett,  A. Sodt,  
 D. Stuck,  K. S. Thanthiriwatte,  V. Vanovschi,  Tao Wang,  A. Warshel,  
[...]
    6    -113.0798307190      1.64e-06   Normal BFGS step
    7    -113.0798307191      3.96e-07   Normal BFGS step
    8    -113.0798307191      9.42e-08   Normal BFGS step
    9    -113.0798307191      1.52e-08   Normal BFGS step
   10    -113.0798307191      4.99e-09  Convergence criterion met
 ---------------------------------------
 SCF time:   CPU 877.43s  wall 110.00s 
 SCF   energy in the final basis set =     -113.0798307191
 Total energy in the final basis set =     -113.0798307191
 
 Components of the MP2 correlation energy:
        aaaa  correlation energy =        -0.0306111253 au
        abab  correlation energy =        -0.1857347820 au
        bbbb  correlation energy =        -0.0306111253 au
        non-Brillouin singles    =        -0.0000000000 au

 Total  MP2   correlation energy =                    -0.24695703 au
        MP2         total energy =                  -113.32678775 au
 
 --------------------------------------------------------------
 
                    Orbital Energies (a.u.)
 --------------------------------------------------------------
 
 Alpha MOs
 -- Occupied --
-20.083 -10.938  -1.419  -0.757  -0.619  -0.619  -0.529
 -- Virtual --
  0.062   0.063   0.063   0.078   0.119   0.119   0.157   0.165
  0.165   0.222   0.229   0.229   0.298   0.316   0.316   0.380
  0.380   0.384   0.494   0.521   0.521   0.602   0.602   0.621
  0.733   0.733   0.747   0.747   0.756   0.802   0.802   0.855
  0.861   0.861   0.875   0.875   0.883   1.042   1.042   1.140
  1.412   1.412   1.424   1.473   1.473   1.506   1.506   1.628
  1.726   1.726   1.727   1.753   1.753   1.917   1.917   2.071
  2.071   2.075   2.131   2.131   2.203   2.203   2.259   2.277
  2.277   2.320   2.320   2.322   2.322   2.421   2.506   2.506
  2.766   2.766   2.870   2.948   2.948   3.397   3.649   3.649
  3.653   3.653   3.833   3.981   3.981   4.081   4.081   4.122
  4.122   4.169   4.204   4.204   4.270   4.270   4.420   4.648
  4.648   4.898   5.009   5.009   5.045   5.045   5.693   5.693
  5.724   5.812   5.812   6.036   6.036   6.117   6.197   6.197
  6.211   6.211   6.337   6.337   6.477   6.477   6.926   7.230
  7.230   7.363   7.363   7.638   8.095   8.341   8.341   9.900
  9.900  10.337  10.431  10.431  10.710  10.710  10.950  10.958
 10.958  11.189  11.189  11.427  11.652  11.652  12.088  12.088
 12.437  12.437  12.652  12.652  13.091  13.961  13.961  15.365
 17.753  19.154  19.154  20.407  26.253  26.253  26.734  26.734
 27.944  33.391  33.391  34.605  36.427  46.686  46.686  47.288
 47.288  48.151  63.619  66.338  66.338  67.306  98.162  98.162
 98.184  98.184  98.253  98.253  98.263 102.726 102.726 102.776
102.776 102.803 102.803 102.866 114.553 114.553 114.787 114.787
115.403 116.307 116.307 117.343 122.091 197.696 197.696 198.023
198.023 198.456 215.540 224.292 224.292 225.089 394.156 394.156
395.012 507.683 893.107
 --------------------------------------------------------------
 
          Ground-State Mulliken Net Atomic Charges

     Atom                 Charge (a.u.)
  ----------------------------------------
      1 C                     0.246201
      2 O                    -0.246201
  ----------------------------------------
  Sum of atomic charges =     0.000000

 -----------------------------------------------------------------
                    Cartesian Multipole Moments
 -----------------------------------------------------------------
    Charge (ESU x 10^10)
                 0.0000
    Dipole Moment (Debye)
         X      -0.0000      Y       0.0000      Z      -0.1132
       Tot       0.1132
    Quadrupole Moments (Debye-Ang)
        XX     -10.2938     XY       0.0000     YY     -10.2938
        XZ      -0.0000     YZ       0.0000     ZZ     -12.4798
    Octopole Moments (Debye-Ang^2)
       XXX      -0.0000    XXY       0.0000    XYY      -0.0000
       YYY       0.0000    XXZ      -5.5143    XYZ       0.0000
       YYZ      -5.5143    XZZ      -0.0000    YZZ       0.0000
       ZZZ     -17.7198
    Hexadecapole Moments (Debye-Ang^3)
      XXXX      -9.4285   XXXY       0.0000   XXYY      -3.1428
      XYYY       0.0000   YYYY      -9.4285   XXXZ      -0.0000
      XXYZ       0.0000   XYYZ      -0.0000   YYYZ       0.0000
      XXZZ     -10.0035   XYZZ       0.0000   YYZZ     -10.0035
      XZZZ      -0.0000   YZZZ       0.0000   ZZZZ     -52.0823
 -----------------------------------------------------------------
Archival summary:
1\1\n0090.mhg0\SP\ProcedureUnspecified\BasisUnspecified\11\yhljason\SatOct302:20:272020SatOct302:20:272020\0\\#,ProcedureUnspecified,BasisUnspecified,\\0,1\C\O,1,1.1282\\\@

 Total job time:  209.21s(wall), 1664.97s(cpu) 
 Sat Oct  3 02:20:27 2020

        *************************************************************
        *                                                           *
        *  Thank you very much for using Q-Chem.  Have a nice day.  *
        *                                                           *
        *************************************************************


 
User input: 8 of 8 
 
Q-Chem Developer Version!
                  Welcome to Q-Chem
     A Quantum Leap Into The Future Of Chemistry


 Q-Chem 5.1, Q-Chem, Inc., Pleasanton, CA (2018)

 Yihan Shao,  Zhengting Gan,  E. Epifanovsky,  A. T. B. Gilbert,  M. Wormit,  
 J. Kussmann,  A. W. Lange,  A. Behn,  Jia Deng,  Xintian Feng,  D. Ghosh,  
 M. Goldey,  P. R. Horn,  L. D. Jacobson,  I. Kaliman,  T. Kus,  A. Landau,  
 Jie Liu,  E. I. Proynov,  R. M. Richard,  R. P. Steele,  E. J. Sundstrom,  
 H. L. Woodcock III,  P. M. Zimmerman,  D. Zuev,  B. Albrecht,  E. Alguire,  
 S. A. Baeppler,  D. Barton,  Z. Benda,  Y. A. Bernard,  E. J. Berquist,  
 K. B. Bravaya,  H. Burton,  D. Casanova,  Chun-Min Chang,  Yunqing Chen,  
 A. Chien,  K. D. Closser,  M. P. Coons,  S. Coriani,  S. Dasgupta,  
 A. L. Dempwolff,  M. Diedenhofen,  Hainam Do,  R. G. Edgar,  Po-Tung Fang,  
 S. Faraji,  S. Fatehi,  Qingguo Feng,  K. D. Fenk,  J. Fosso-Tande,  
 Qinghui Ge,  A. Ghysels,  G. Gidofalvi,  J. Gomes,  J. Gonthier,  A. Gunina,  
 D. Hait,  M. W. D. Hanson-Heine,  P. H. P. Harbach,  A. W. Hauser,  
 J. E. Herr,  E. G. Hohenstein,  Z. C. Holden,  Kerwin Hui,  B. C. Huynh,  
 T.-C. Jagau,  Hyunjun Ji,  B. Kaduk,  K. Khistyaev,  Jaehoon Kim,  
 P. Klunzinger,  K. Koh,  D. Kosenkov,  L. Koulias,  T. Kowalczyk,  
 C. M. Krauter,  A. Kunitsa,  Ka Un Lao,  A. Laurent,  K. V. Lawler,  
 Joonho Lee,  D. Lefrancois,  S. Lehtola,  D. S. Levine,  Yi-Pei Li,  
 You-Sheng Lin,  Fenglai Liu,  E. Livshits,  A. Luenser,  P. Manohar,  
 E. Mansoor,  S. F. Manzer,  Shan-Ping Mao,  Yuezhi Mao,  N. Mardirossian,  
 A. V. Marenich,  T. Markovich,  L. A. Martinez-Martinez,  S. A. Maurer,  
 N. J. Mayhall,  S. C. McKenzie,  J.-M. Mewes,  A. F. Morrison,  
 J. W. Mullinax,  K. Nanda,  T. S. Nguyen-Beck,  R. Olivares-Amaya,  
 J. A. Parkhill,  T. M. Perrine,  F. Plasser,  P. Pokhilko,  S. Prager,  
 A. Prociuk,  E. Ramos,  D. R. Rehn,  F. Rob,  M. Schneider,  N. Sergueev,  
 S. M. Sharada,  S. Sharma,  D. W. Small,  T. Stauch,  T. Stein,  
 Yu-Chuan Su,  A. J. W. Thom,  A. Tkatchenko,  T. Tsuchimochi,  N. M. Tubman,  
 L. Vogt,  M. L. Vidal,  O. Vydrov,  M. A. Watson,  J. Wenzel,  
 M. de Wergifosse,  T. A. Wesolowski,  A. White,  J. Witte,  A. Yamada,  
 Jun Yang,  K. Yao,  S. Yeganeh,  S. R. Yost,  Zhi-Qiang You,  A. Zech,  
 Igor Ying Zhang,  Xing Zhang,  Yan Zhao,  Ying Zhu,  B. R. Brooks,  
 G. K. L. Chan,  C. J. Cramer,  M. S. Gordon,  W. J. Hehre,  A. Klamt,  
 M. W. Schmidt,  C. D. Sherrill,  D. G. Truhlar,  A. Aspuru-Guzik,  R. Baer,  
 A. T. Bell,  N. A. Besley,  Jeng-Da Chai,  A. E. DePrince, III,  
 R. A. DiStasio Jr.,  A. Dreuw,  B. D. Dunietz,  T. R. Furlani,  
 Chao-Ping Hsu,  Yousung Jung,  Jing Kong,  D. S. Lambrecht,  WanZhen Liang,  
 C. Ochsenfeld,  V. A. Rassolov,  L. V. Slipchenko,  J. E. Subotnik,  
 T. Van Voorhis,  J. M. Herbert,  A. I. Krylov,  P. M. W. Gill,  M. Head-Gordon

 Contributors to earlier versions of Q-Chem not listed above: 
 R. D. Adamson,  B. Austin,  J. Baker,  G. J. O. Beran,  K. Brandhorst,  
 S. T. Brown,  E. F. C. Byrd,  A. K. Chakraborty,  C.-L. Cheng,  
 Siu Hung Chien,  D. M. Chipman,  D. L. Crittenden,  H. Dachsel,  
 R. J. Doerksen,  A. D. Dutoi,  L. Fusti-Molnar,  W. A. Goddard III,  
 A. Golubeva-Zadorozhnaya,  S. R. Gwaltney,  G. Hawkins,  A. Heyden,  
 S. Hirata,  G. Kedziora,  F. J. Keil,  C. Kelley,  Jihan Kim,  R. A. King,  
 R. Z. Khaliullin,  P. P. Korambath,  W. Kurlancheek,  A. M. Lee,  M. S. Lee,  
 S. V. Levchenko,  Ching Yeh Lin,  D. Liotard,  R. C. Lochan,  I. Lotan,  
 P. E. Maslen,  N. Nair,  D. P. O'Neill,  D. Neuhauser,  E. Neuscamman,  
 C. M. Oana,  R. Olson,  B. Peters,  R. Peverati,  P. A. Pieniazek,  
 Y. M. Rhee,  J. Ritchie,  M. A. Rohrdanz,  E. Rosta,  N. J. Russ,  
 H. F. Schaefer III,  N. E. Schultz,  N. Shenvi,  A. C. Simmonett,  A. Sodt,  
 D. Stuck,  K. S. Thanthiriwatte,  V. Vanovschi,  Tao Wang,  A. Warshel,  
 C. F. Williams,  Q. Wu,  X. Xu,  W. Zhang

 Please cite Q-Chem as follows:
 Y. Shao et al., Mol. Phys. 113, 184-215 (2015)
 DOI: 10.1080/00268976.2014.952696

 Q-Chem 5.1.1 for Intel X86 EM64T Linux

 Parts of Q-Chem use Armadillo 8.300.2 (Tropical Shenanigans).
 http://arma.sourceforge.net/

 Q-Chem begins on Sat Oct  3 02:20:27 2020  

Host: n0090.mhg0
0

     Scratch files written to /local/scratch/users/yhljason/CO_wB97X-2TQZ_aug-cc-pcVQZ.inp20201003015118//
The previous job contains 0 fragments, simply inherited here
Input Ideriv = 0
Curr. Ideriv = -1
Max.  Ideriv = 0
Analytic post-HF gradients are not available with non-HF exchange
Input Ideriv = 0
Curr. Ideriv = 0
Max.  Ideriv = 0

Checking the input file for inconsistencies... 	...done.

--------------------------------------------------------------
User input:
--------------------------------------------------------------
$molecule
read
$end

$rem

jobtype sp
method wB97X-2(TQZ)
xc_grid 000099000590
basis aug-cc-pcVQZ
max_scf_cycles 200
thresh 14
scf_convergence 8
mem_total 128000
cc_memory 96000
cc_backend xm
mem_static 1500
symmetry false
sym_ignore true
scf_guess read
unrestricted false
scf_algorithm gdm
n_frozen_core 0
$end

$multipole_field
ZZ -0.0001
$end

--------------------------------------------------------------
 ----------------------------------------------------------------
             Standard Nuclear Orientation (Angstroms)
    I     Atom           X                Y                Z
 ----------------------------------------------------------------
    1      C       0.0000000000     0.0000000000     0.0000000000
    2      O       0.0000000000     0.0000000000     1.1282000000
 ----------------------------------------------------------------
 Nuclear Repulsion Energy =    22.5141873058 hartrees
 There are        7 alpha and        7 beta electrons
 Requested basis set is aug-cc-pCVQZ
 There are 58 shells and 218 basis functions

 Total QAlloc Memory Limit 128000 MB
 Mega-Array Size      1467 MB
 MEM_STATIC part      1500 MB

                       Distance Matrix (Angstroms)
             C (  1)
   O (  2)  1.128200
 
 Applying Cartesian multipole field
    Component          Value
    ---------          -----
     (0,0,2)       -1.00000E-04
 Nucleus-field energy     =    -0.0036363017 hartrees
 A cutoff of  1.0D-14 yielded   1663 shell pairs
 There are     23843 function pairs (     39083 Cartesian)
 
 -------------------------------------------------------
 OpenMP Integral Computing Module                       
 Release: version 1.0, May 2013, Q-Chem Inc. Pittsburgh 
 -------------------------------------------------------
 Integral Job Info:
 Integral job number is                      11
 Integral operator is                         1
 short-range coefficients              63615800
 long-range coefficients              100000000
 Omega coefficients                         300
 if combine SR and LR in K                    1
 Integral screening is                        0
 Integral computing path is                   2
 max size of driver memory is           3200000
 size of driver memory is               1704330
 size of scratch memory is             18852824
 max col of scratch BK array              50625
 max len of scratch array in speh3         2114
 max len of scratch index in speh4           50
 max int batch size is                      520
 min int batch size is                       52
 fixed nKL is                                52
 max L of basis functions is                  4
 order of int derivative is                   0
 number of shells is                         58
 number of basis is                         278
 number of cartesian basis is               278
 number of contracted shell pairs          1663
 number of primitive shell pairs           4042
 maxK2 (contraction) of shell pair           81
 max number of K2 of shell pair               1
 max number of CS2 of shell pair            189
 max number of PS2 of shell pair            486
 mem total for path MDJ                  675334
 -------------------------------------------------------
 Smallest overlap matrix eigenvalue = 8.78E-05
 Guess MOs from SCF MO coefficient file

 -----------------------------------------------------------------------
  General SCF calculation program by
  Eric Jon Sundstrom, Paul Horn, Yuezhi Mao, Dmitri Zuev, Alec White,
  David Stuck, Shaama M.S., Shane Yost, Joonho Lee, David Small,
  Daniel Levine, Susi Lehtola, Hugh Burton, Evgeny Epifanovsky
 -----------------------------------------------------------------------
 Exchange:     0.6362 Hartree-Fock + 1.0000 wB97X-2(TQZ) + LR-HF
 Correlation:  1.0000 wB97X-2(TQZ)
 Using Euler-Maclaurin-Lebedev (99,590) quadrature formula
 using 8 threads for integral computing
 -------------------------------------------------------
 OpenMP Integral computing Module                
 Release: version 1.0, May 2013, Q-Chem Inc. Pittsburgh 
 -------------------------------------------------------
 using 8 threads for integral computing
 -------------------------------------------------------
 OpenMP Integral computing Module                
 Release: version 1.0, May 2013, Q-Chem Inc. Pittsburgh 
 -------------------------------------------------------
 -------------------------------------------------------
 OpenMP BLAS3 based DFT computing Module                
 Release: version 1.0, May 2013, Q-Chem Inc. Pittsburgh 
 -------------------------------------------------------
 A restricted SCF calculation will be
 performed using GDM
 SCF converges when RMS gradient is below 1.0e-08
 ---------------------------------------
  Cycle       Energy        RMS Gradient
 ---------------------------------------
    1    -113.0779750391      4.97e-04   Normal BFGS step
    2    -113.0779773448      2.41e-04   Normal BFGS step
    3    -113.0779777066      9.81e-05   Normal BFGS step
    4    -113.0779778069      1.51e-05   Normal BFGS step
    5    -113.0779778110      3.71e-06   Normal BFGS step
    6    -113.0779778111      7.14e-07   Normal BFGS step
    7    -113.0779778111      1.07e-07   Normal BFGS step
    8    -113.0779778111      2.97e-08   Normal BFGS step
    9    -113.0779778111      3.32e-09  Convergence criterion met
 ---------------------------------------
 SCF time:   CPU 800.22s  wall 100.00s 
 SCF   energy in the final basis set =     -113.0779778111
 Total energy in the final basis set =     -113.0779778111
 
 Components of the MP2 correlation energy:
        aaaa  correlation energy =        -0.0306203322 au
        abab  correlation energy =        -0.1857669934 au
        bbbb  correlation energy =        -0.0306203322 au
        non-Brillouin singles    =        -0.0000000000 au

 Total  MP2   correlation energy =                    -0.24700766 au
        MP2         total energy =                  -113.32498547 au
 
 --------------------------------------------------------------
 
                    Orbital Energies (a.u.)
 --------------------------------------------------------------
 
 Alpha MOs
 -- Occupied --
-20.083 -10.937  -1.418  -0.756  -0.618  -0.618  -0.529
 -- Virtual --
  0.064   0.064   0.066   0.083   0.120   0.120   0.163   0.169
  0.169   0.226   0.229   0.229   0.302   0.319   0.319   0.382
  0.382   0.387   0.498   0.523   0.523   0.604   0.604   0.623
  0.734   0.734   0.747   0.747   0.759   0.804   0.804   0.858
  0.863   0.863   0.877   0.877   0.886   1.044   1.044   1.142
  1.413   1.413   1.426   1.474   1.474   1.508   1.508   1.631
  1.727   1.727   1.730   1.754   1.754   1.918   1.918   2.072
  2.072   2.077   2.131   2.131   2.204   2.204   2.260   2.278
  2.278   2.321   2.321   2.323   2.323   2.422   2.507   2.507
  2.767   2.767   2.872   2.949   2.949   3.399   3.650   3.650
  3.654   3.654   3.834   3.982   3.982   4.082   4.082   4.124
  4.124   4.170   4.205   4.205   4.272   4.272   4.422   4.649
  4.649   4.900   5.010   5.010   5.046   5.046   5.694   5.694
  5.726   5.812   5.812   6.037   6.037   6.118   6.197   6.197
  6.212   6.212   6.338   6.338   6.478   6.478   6.927   7.231
  7.231   7.364   7.364   7.639   8.096   8.342   8.342   9.901
  9.901  10.338  10.432  10.432  10.711  10.711  10.951  10.959
 10.959  11.190  11.190  11.428  11.653  11.653  12.089  12.089
 12.438  12.438  12.652  12.652  13.092  13.962  13.962  15.366
 17.753  19.155  19.155  20.408  26.254  26.254  26.735  26.735
 27.945  33.392  33.392  34.606  36.428  46.687  46.687  47.289
 47.289  48.152  63.620  66.339  66.339  67.307  98.163  98.163
 98.185  98.185  98.254  98.254  98.264 102.727 102.727 102.777
102.777 102.804 102.804 102.866 114.554 114.554 114.788 114.788
115.404 116.308 116.308 117.343 122.092 197.697 197.697 198.024
198.024 198.456 215.541 224.293 224.293 225.090 394.157 394.157
395.013 507.684 893.108
 --------------------------------------------------------------
 
          Ground-State Mulliken Net Atomic Charges

     Atom                 Charge (a.u.)
  ----------------------------------------
      1 C                     0.243499
      2 O                    -0.243499
  ----------------------------------------
  Sum of atomic charges =     0.000000

 -----------------------------------------------------------------
                    Cartesian Multipole Moments
 -----------------------------------------------------------------
    Charge (ESU x 10^10)
                 0.0000
    Dipole Moment (Debye)
         X       0.0000      Y      -0.0000      Z      -0.1015
       Tot       0.1015
    Quadrupole Moments (Debye-Ang)
        XX     -10.2937     XY       0.0000     YY     -10.2937
        XZ       0.0000     YZ      -0.0000     ZZ     -12.4425
    Octopole Moments (Debye-Ang^2)
       XXX      -0.0000    XXY      -0.0000    XYY      -0.0000
       YYY      -0.0000    XXZ      -5.5089    XYZ       0.0000
       YYZ      -5.5089    XZZ      -0.0000    YZZ      -0.0000
       ZZZ     -17.6603
    Hexadecapole Moments (Debye-Ang^3)
      XXXX      -9.4278   XXXY       0.0000   XXYY      -3.1426
      XYYY       0.0000   YYYY      -9.4278   XXXZ      -0.0000
      XXYZ       0.0000   XYYZ      -0.0000   YYYZ       0.0000
      XXZZ      -9.9845   XYZZ       0.0000   YYZZ      -9.9845
      XZZZ      -0.0000   YZZZ      -0.0000   ZZZZ     -51.8997
 -----------------------------------------------------------------
Archival summary:
1\1\n0090.mhg0\SP\ProcedureUnspecified\BasisUnspecified\11\yhljason\SatOct302:23:522020SatOct302:23:522020\0\\#,ProcedureUnspecified,BasisUnspecified,\\0,1\C\O,1,1.1282\\\@

 Total job time:  205.28s(wall), 1635.24s(cpu) 
 Sat Oct  3 02:23:52 2020

        *************************************************************
        *                                                           *
        *  Thank you very much for using Q-Chem.  Have a nice day.  *
        *                                                           *
        *************************************************************


