Q-Chem Developer Version!
                  Welcome to Q-Chem
     A Quantum Leap Into The Future Of Chemistry


 Q-Chem 5.1, Q-Chem, Inc., Pleasanton, CA (2018)

 Yihan Shao,  Zhengting Gan,  E. Epifanovsky,  A. T. B. Gilbert,  M. Wormit,  
 J. Kussmann,  A. W. Lange,  A. Behn,  Jia Deng,  Xintian Feng,  D. Ghosh,  
 M. Goldey,  P. R. Horn,  L. D. Jacobson,  I. Kaliman,  T. Kus,  A. Landau,  
 Jie Liu,  E. I. Proynov,  R. M. Richard,  R. P. Steele,  E. J. Sundstrom,  
 H. L. Woodcock III,  P. M. Zimmerman,  D. Zuev,  B. Albrecht,  E. Alguire,  
 S. A. Baeppler,  D. Barton,  Z. Benda,  Y. A. Bernard,  E. J. Berquist,  
 K. B. Bravaya,  H. Burton,  D. Casanova,  Chun-Min Chang,  Yunqing Chen,  
 A. Chien,  K. D. Closser,  M. P. Coons,  S. Coriani,  S. Dasgupta,  
 A. L. Dempwolff,  M. Diedenhofen,  Hainam Do,  R. G. Edgar,  Po-Tung Fang,  
 S. Faraji,  S. Fatehi,  Qingguo Feng,  K. D. Fenk,  J. Fosso-Tande,  
 Qinghui Ge,  A. Ghysels,  G. Gidofalvi,  J. Gomes,  J. Gonthier,  A. Gunina,  
 D. Hait,  M. W. D. Hanson-Heine,  P. H. P. Harbach,  A. W. Hauser,  
 J. E. Herr,  E. G. Hohenstein,  Z. C. Holden,  Kerwin Hui,  B. C. Huynh,  
 T.-C. Jagau,  Hyunjun Ji,  B. Kaduk,  K. Khistyaev,  Jaehoon Kim,  
 P. Klunzinger,  K. Koh,  D. Kosenkov,  L. Koulias,  T. Kowalczyk,  
 C. M. Krauter,  A. Kunitsa,  Ka Un Lao,  A. Laurent,  K. V. Lawler,  
 Joonho Lee,  D. Lefrancois,  S. Lehtola,  D. S. Levine,  Yi-Pei Li,  
 You-Sheng Lin,  Fenglai Liu,  E. Livshits,  A. Luenser,  P. Manohar,  
 E. Mansoor,  S. F. Manzer,  Shan-Ping Mao,  Yuezhi Mao,  N. Mardirossian,  
 A. V. Marenich,  T. Markovich,  L. A. Martinez-Martinez,  S. A. Maurer,  
 N. J. Mayhall,  S. C. McKenzie,  J.-M. Mewes,  A. F. Morrison,  
 J. W. Mullinax,  K. Nanda,  T. S. Nguyen-Beck,  R. Olivares-Amaya,  
 J. A. Parkhill,  T. M. Perrine,  F. Plasser,  P. Pokhilko,  S. Prager,  
 A. Prociuk,  E. Ramos,  D. R. Rehn,  F. Rob,  M. Schneider,  N. Sergueev,  
 S. M. Sharada,  S. Sharma,  D. W. Small,  T. Stauch,  T. Stein,  
 Yu-Chuan Su,  A. J. W. Thom,  A. Tkatchenko,  T. Tsuchimochi,  N. M. Tubman,  
 L. Vogt,  M. L. Vidal,  O. Vydrov,  M. A. Watson,  J. Wenzel,  
 M. de Wergifosse,  T. A. Wesolowski,  A. White,  J. Witte,  A. Yamada,  
 Jun Yang,  K. Yao,  S. Yeganeh,  S. R. Yost,  Zhi-Qiang You,  A. Zech,  
 Igor Ying Zhang,  Xing Zhang,  Yan Zhao,  Ying Zhu,  B. R. Brooks,  
 G. K. L. Chan,  C. J. Cramer,  M. S. Gordon,  W. J. Hehre,  A. Klamt,  
 M. W. Schmidt,  C. D. Sherrill,  D. G. Truhlar,  A. Aspuru-Guzik,  R. Baer,  
 A. T. Bell,  N. A. Besley,  Jeng-Da Chai,  A. E. DePrince, III,  
 R. A. DiStasio Jr.,  A. Dreuw,  B. D. Dunietz,  T. R. Furlani,  
 Chao-Ping Hsu,  Yousung Jung,  Jing Kong,  D. S. Lambrecht,  WanZhen Liang,  
 C. Ochsenfeld,  V. A. Rassolov,  L. V. Slipchenko,  J. E. Subotnik,  
 T. Van Voorhis,  J. M. Herbert,  A. I. Krylov,  P. M. W. Gill,  M. Head-Gordon

 Contributors to earlier versions of Q-Chem not listed above: 
 R. D. Adamson,  B. Austin,  J. Baker,  G. J. O. Beran,  K. Brandhorst,  
 S. T. Brown,  E. F. C. Byrd,  A. K. Chakraborty,  C.-L. Cheng,  
 Siu Hung Chien,  D. M. Chipman,  D. L. Crittenden,  H. Dachsel,  
 R. J. Doerksen,  A. D. Dutoi,  L. Fusti-Molnar,  W. A. Goddard III,  
 A. Golubeva-Zadorozhnaya,  S. R. Gwaltney,  G. Hawkins,  A. Heyden,  
 S. Hirata,  G. Kedziora,  F. J. Keil,  C. Kelley,  Jihan Kim,  R. A. King,  
 R. Z. Khaliullin,  P. P. Korambath,  W. Kurlancheek,  A. M. Lee,  M. S. Lee,  
 S. V. Levchenko,  Ching Yeh Lin,  D. Liotard,  R. C. Lochan,  I. Lotan,  
 P. E. Maslen,  N. Nair,  D. P. O'Neill,  D. Neuhauser,  E. Neuscamman,  
 C. M. Oana,  R. Olson,  B. Peters,  R. Peverati,  P. A. Pieniazek,  
 Y. M. Rhee,  J. Ritchie,  M. A. Rohrdanz,  E. Rosta,  N. J. Russ,  
 H. F. Schaefer III,  N. E. Schultz,  N. Shenvi,  A. C. Simmonett,  A. Sodt,  
 D. Stuck,  K. S. Thanthiriwatte,  V. Vanovschi,  Tao Wang,  A. Warshel,  
 C. F. Williams,  Q. Wu,  X. Xu,  W. Zhang

 Please cite Q-Chem as follows:
 Y. Shao et al., Mol. Phys. 113, 184-215 (2015)
 DOI: 10.1080/00268976.2014.952696

 Q-Chem 5.1.1 for Intel X86 EM64T Linux

 Parts of Q-Chem use Armadillo 8.300.2 (Tropical Shenanigans).
 http://arma.sourceforge.net/

 Q-Chem begins on Sat Oct  3 01:51:42 2020  

Host: n0101.mhg0
0

     Scratch files written to /local/scratch/users/yhljason/HCN_wB97X-2TQZ_aug-cc-pcVQZ.inp20201003015128//
Input Ideriv = 0
Curr. Ideriv = -1
Max.  Ideriv = 0
Analytic post-HF gradients are not available with non-HF exchange
Input Ideriv = 0
Curr. Ideriv = 0
Max.  Ideriv = 0

Checking the input file for inconsistencies... 	...done.

--------------------------------------------------------------
User input:
--------------------------------------------------------------
$molecule
0 1
C1      0.0000  0.0000  0.0000
H2      0.0000  0.0000  1.0640
N3      0.0000  0.0000  -1.1560
$end

$rem
jobtype sp
method wB97X-2(TQZ)
xc_grid 000099000590
basis aug-cc-pcVQZ
max_scf_cycles 200
thresh 14
scf_convergence 8
scf_algorithm gdm
symmetry false
sym_ignore true
unrestricted false
gen_scfman true
internal_stability_iter 15
internal_stability_davidson_iter 200
mem_total 128000
cc_memory 96000
cc_backend xm
mem_static 1500
n_frozen_core 0
$end



--------------------------------------------------------------
 ----------------------------------------------------------------
             Standard Nuclear Orientation (Angstroms)
    I     Atom           X                Y                Z
 ----------------------------------------------------------------
    1      C       0.0000000000     0.0000000000     0.0000000000
    2      H       0.0000000000     0.0000000000     1.0640000000
    3      N       0.0000000000     0.0000000000    -1.1560000000
 ----------------------------------------------------------------
 Nuclear Repulsion Energy =    23.8788204447 hartrees
 There are        7 alpha and        7 beta electrons
 Requested basis set is aug-cc-pCVQZ
 There are 72 shells and 264 basis functions

 Total QAlloc Memory Limit 128000 MB
 Mega-Array Size      1467 MB
 MEM_STATIC part      1500 MB

                       Distance Matrix (Angstroms)
             C (  1)   H (  2)
   H (  2)  1.064000
   N (  3)  1.156000  2.220000
 
 A cutoff of  1.0D-14 yielded   2575 shell pairs
 There are     35073 function pairs (     56110 Cartesian)
 
 -------------------------------------------------------
 OpenMP Integral Computing Module                       
 Release: version 1.0, May 2013, Q-Chem Inc. Pittsburgh 
 -------------------------------------------------------
 Integral Job Info:
 Integral job number is                      11
 Integral operator is                         1
 short-range coefficients              63615800
 long-range coefficients              100000000
 Omega coefficients                         300
 if combine SR and LR in K                    1
 Integral screening is                        0
 Integral computing path is                   2
 max size of driver memory is           3200000
 size of driver memory is               1704330
 size of scratch memory is             18852824
 max col of scratch BK array              50625
 max len of scratch array in speh3         2114
 max len of scratch index in speh4           50
 max int batch size is                      520
 min int batch size is                       52
 fixed nKL is                                52
 max L of basis functions is                  4
 order of int derivative is                   0
 number of shells is                         72
 number of basis is                         333
 number of cartesian basis is               333
 number of contracted shell pairs          2575
 number of primitive shell pairs           5542
 maxK2 (contraction) of shell pair           81
 max number of K2 of shell pair               1
 max number of CS2 of shell pair            315
 max number of PS2 of shell pair            549
 mem total for path MDJ                  693712
 -------------------------------------------------------
 Smallest overlap matrix eigenvalue = 1.70E-05

 Scale SEOQF with 1.000000e-01/1.000000e-01/1.000000e-01

 Standard Electronic Orientation quadrupole field applied
 Nucleus-field energy     =    -0.0000000011 hartrees
 Guess from superposition of atomic densities
 Warning:  Energy on first SCF cycle will be non-variational
 SAD guess density has 14.000000 electrons

 -----------------------------------------------------------------------
  General SCF calculation program by
  Eric Jon Sundstrom, Paul Horn, Yuezhi Mao, Dmitri Zuev, Alec White,
  David Stuck, Shaama M.S., Shane Yost, Joonho Lee, David Small,
  Daniel Levine, Susi Lehtola, Hugh Burton, Evgeny Epifanovsky
 -----------------------------------------------------------------------
 Exchange:     0.6362 Hartree-Fock + 1.0000 wB97X-2(TQZ) + LR-HF
 Correlation:  1.0000 wB97X-2(TQZ)
 Using Euler-Maclaurin-Lebedev (99,590) quadrature formula
Running Object-Oriented RKS (RHF)
We will preform up to 15 macro iterations over saddle points until a stable solution is found
Energy prior to optimization (guess energy) = -93.146254085337
Begin Timing: Total SCF Calculation
Begin Timing: SCF Single Stationary Point Calculation
begin iterations for algorithm: GDM          
the SCF tolerance is set to 1.00e-08
    1     -93.1462540853      1.05e-01     00000  Normal BFGS step
    2     -93.1398556206      1.11e-01     00000 Line search: overstep
    3     -93.1894572587      2.30e-02     00000  Normal BFGS step
    4     -93.1947570157      4.42e-03     00000  Normal BFGS step
    5     -93.1950481717      9.58e-04     00000  Normal BFGS step
    6     -93.1950606862      2.87e-04     00000  Normal BFGS step
    7     -93.1950615379      3.99e-05     00000  Normal BFGS step
    8     -93.1950615796      6.72e-06     00000  Normal BFGS step
    9     -93.1950615808      1.91e-06     00000  Normal BFGS step
   10     -93.1950615808      1.71e-07     00000  Normal BFGS step
   11     -93.1950615808      2.49e-08     00000  Normal BFGS step
   12     -93.1950615808      2.21e-08     00000  Normal BFGS step
   13     -93.1950615808      7.10e-09     00000 Convergence criterion met
Timing for Single Stationary Point: 238.00s (wall), 1879.21s (cpu)
Begin Timing: Stability
===================================================
Beginning Test for Internal Stability
===================================================
generating davidson guess vectors based on koopmans excitations
    1      3.35e+00     00000 Davidson Iteration
    2      2.98e+00     00000 Davidson Iteration
    3      1.24e-01     00000 Davidson Iteration
    4      1.95e-01     00000 Davidson Iteration
    5      1.54e-01     00000 Davidson Iteration
    6      1.40e-01     00000 Davidson Iteration
    7      8.85e-02     00000 Davidson Iteration
    8      1.47e-01     00000 Davidson Iteration
    9      1.13e-01     00000 Davidson Iteration
   10      1.67e-01     00000 Davidson Iteration
   11      1.43e-01     00000 Davidson Iteration
   12      5.31e-02     00000 Davidson Iteration
   13      1.53e-02     00000 Davidson Iteration
   14      4.39e-03     00000 Davidson Iteration
   15      8.92e-04     00000 Davidson Iteration
   16      6.52e-04     00000 Davidson Iteration
   17      1.18e-03     00000 Davidson Iteration
   18      3.89e-04     00000 Davidson Iteration
   19      1.84e-04     00000 Davidson Iteration
   20      5.20e-05     00000 Davidson Converged
converged_eigenvalues
   0.9539
   0.9539
Threshold for negative eigenvalues: -1.0e-05
solution was a local minimum (stable)
===================================================
End Test for Internal Stability
===================================================
Our SCF solution is stable!
Timing for Total SCF: 1122.00s (wall), 8884.15s (cpu)
 Total energy in the final basis set =      -93.1950615808
    ==================================================
              The end of Object-Oriented SCFman       
    ==================================================
 
 Components of the MP2 correlation energy:
        aaaa  correlation energy =        -0.0284409398 au
        abab  correlation energy =        -0.1806693486 au
        bbbb  correlation energy =        -0.0284409398 au
        non-Brillouin singles    =        -0.0000000000 au

 Total  MP2   correlation energy =                    -0.23755123 au
        MP2         total energy =                   -93.43261281 au
 
 --------------------------------------------------------------
 
                    Orbital Energies (a.u.)
 --------------------------------------------------------------
 
 Alpha MOs
 -- Occupied --
-15.095 -10.872  -1.154  -0.778  -0.547  -0.487  -0.487
 -- Virtual --
  0.024   0.066   0.067   0.067   0.114   0.117   0.117   0.124
  0.155   0.155   0.185   0.225   0.225   0.230   0.252   0.252
  0.310   0.318   0.343   0.343   0.392   0.392   0.424   0.455
  0.455   0.461   0.461   0.471   0.583   0.628   0.628   0.645
  0.645   0.666   0.726   0.735   0.735   0.757   0.798   0.798
  0.800   0.800   0.920   0.920   0.924   0.924   1.003   1.047
  1.110   1.110   1.126   1.126   1.182   1.182   1.207   1.207
  1.270   1.342   1.401   1.401   1.448   1.565   1.579   1.579
  1.580   1.580   1.636   1.648   1.688   1.688   1.732   1.732
  1.854   1.854   2.022   2.022   2.076   2.076   2.081   2.081
  2.130   2.217   2.217   2.289   2.289   2.332   2.332   2.382
  2.459   2.459   2.512   2.512   2.656   2.740   2.761   2.761
  2.845   2.845   2.939   2.939   2.966   3.048   3.048   3.162
  3.167   3.167   3.234   3.234   3.282   3.306   3.306   3.502
  3.502   3.664   3.719   3.719   3.775   3.775   3.834   3.900
  3.900   4.104   4.104   4.342   4.491   4.491   4.630   4.630
  4.688   4.739   4.739   4.856   5.221   5.684   5.684   5.842
  5.842   5.881   5.881   5.919   5.919   6.311   6.311   6.358
  6.358   6.358   6.418   6.418   6.715   6.725   6.725   6.969
  6.969   7.093   7.093   7.606   7.752   7.752   7.920   8.097
  8.097   8.129   8.129   8.165   8.165   8.262   8.262   8.268
  8.529   8.529   8.816   8.897   8.897   8.943   8.943   9.110
  9.132   9.132   9.161   9.161   9.535   9.535   9.727   9.802
  9.802  10.108  10.119  10.119  10.207  10.207  10.642  11.311
 11.311  11.925  12.727  12.727  13.138  14.405  15.438  19.269
 19.269  21.200  26.472  26.472  26.644  26.644  27.127  27.127
 27.852  28.675  36.855  36.855  37.568  37.568  37.879  38.305
 49.614  66.461  66.461  67.897  91.617  91.617  92.760  98.240
 98.240  98.256  98.256  98.323  98.323  98.442 111.630 111.630
111.661 111.661 111.711 111.711 111.761 114.701 114.701 115.053
115.053 115.791 123.433 156.253 156.253 156.643 156.643 157.002
165.731 224.399 224.399 225.622 308.636 308.636 309.592 508.614
685.577
 --------------------------------------------------------------
 
          Ground-State Mulliken Net Atomic Charges

     Atom                 Charge (a.u.)
  ----------------------------------------
      1 C                    -0.074523
      2 H                     0.579261
      3 N                    -0.504739
  ----------------------------------------
  Sum of atomic charges =    -0.000000

 -----------------------------------------------------------------
                    Cartesian Multipole Moments
 -----------------------------------------------------------------
    Charge (ESU x 10^10)
                -0.0000
    Dipole Moment (Debye)
         X      -0.0000      Y       0.0000      Z       3.1922
       Tot       3.1922
    Quadrupole Moments (Debye-Ang)
        XX     -11.9618     XY       0.0000     YY     -11.9618
        XZ       0.0000     YZ       0.0000     ZZ     -12.8781
    Octopole Moments (Debye-Ang^2)
       XXX      -0.0000    XXY      -0.0000    XYY      -0.0000
       YYY      -0.0000    XXZ       6.4240    XYZ       0.0000
       YYZ       6.4240    XZZ      -0.0000    YZZ      -0.0000
       ZZZ      24.9349
    Hexadecapole Moments (Debye-Ang^3)
      XXXX     -12.5586   XXXY       0.0000   XXYY      -4.1862
      XYYY       0.0000   YYYY     -12.5586   XXXZ      -0.0000
      XXYZ       0.0000   XYYZ       0.0000   YYYZ       0.0000
      XXZZ     -12.7239   XYZZ      -0.0000   YYZZ     -12.7239
      XZZZ       0.0000   YZZZ       0.0000   ZZZZ     -67.9896
 -----------------------------------------------------------------
Archival summary:
1\1\n0101.mhg0\SP\ProcedureUnspecified\BasisUnspecified\111\yhljason\SatOct302:14:092020SatOct302:14:092020\0\\#,ProcedureUnspecified,BasisUnspecified,\\0,1\C\H,1,1.064\N,1,1.156,2,180\\\@

 Total job time:  1346.48s(wall), 10662.53s(cpu) 
 Sat Oct  3 02:14:09 2020

        *************************************************************
        *                                                           *
        *  Thank you very much for using Q-Chem.  Have a nice day.  *
        *                                                           *
        *************************************************************


 
User input: 2 of 83 of 8 
 
Q-Chem Developer Version!
                  Welcome to Q-Chem
     A Quantum Leap Into The Future Of Chemistry


 Q-Chem 5.1, Q-Chem, Inc., Pleasanton, CA (2018)

 Yihan Shao,  Zhengting Gan,  E. Epifanovsky,  A. T. B. Gilbert,  M. Wormit,  
 J. Kussmann,  A. W. Lange,  A. Behn,  Jia Deng,  Xintian Feng,  D. Ghosh,  
 M. Goldey,  P. R. Horn,  L. D. Jacobson,  I. Kaliman,  T. Kus,  A. Landau,  
 Jie Liu,  E. I. Proynov,  R. M. Richard,  R. P. Steele,  E. J. Sundstrom,  
 H. L. Woodcock III,  P. M. Zimmerman,  D. Zuev,  B. Albrecht,  E. Alguire,  
 S. A. Baeppler,  D. Barton,  Z. Benda,  Y. A. Bernard,  E. J. Berquist,  
 K. B. Bravaya,  H. Burton,  D. Casanova,  Chun-Min Chang,  Yunqing Chen,  
 A. Chien,  K. D. Closser,  M. P. Coons,  S. Coriani,  S. Dasgupta,  
 A. L. Dempwolff,  M. Diedenhofen,  Hainam Do,  R. G. Edgar,  Po-Tung Fang,  
 S. Faraji,  S. Fatehi,  Qingguo Feng,  K. D. Fenk,  J. Fosso-Tande,  
 Qinghui Ge,  A. Ghysels,  G. Gidofalvi,  J. Gomes,  J. Gonthier,  A. Gunina,  
 D. Hait,  M. W. D. Hanson-Heine,  P. H. P. Harbach,  A. W. Hauser,  
 J. E. Herr,  E. G. Hohenstein,  Z. C. Holden,  Kerwin Hui,  B. C. Huynh,  
 T.-C. Jagau,  Hyunjun Ji,  B. Kaduk,  K. Khistyaev,  Jaehoon Kim,  
 P. Klunzinger,  K. Koh,  D. Kosenkov,  L. Koulias,  T. Kowalczyk,  
 C. M. Krauter,  A. Kunitsa,  Ka Un Lao,  A. Laurent,  K. V. Lawler,  
 Joonho Lee,  D. Lefrancois,  S. Lehtola,  D. S. Levine,  Yi-Pei Li,  
 You-Sheng Lin,  Fenglai Liu,  E. Livshits,  A. Luenser,  P. Manohar,  
 E. Mansoor,  S. F. Manzer,  Shan-Ping Mao,  Yuezhi Mao,  N. Mardirossian,  
 A. V. Marenich,  T. Markovich,  L. A. Martinez-Martinez,  S. A. Maurer,  
 N. J. Mayhall,  S. C. McKenzie,  J.-M. Mewes,  A. F. Morrison,  
 J. W. Mullinax,  K. Nanda,  T. S. Nguyen-Beck,  R. Olivares-Amaya,  
 J. A. Parkhill,  T. M. Perrine,  F. Plasser,  P. Pokhilko,  S. Prager,  
 A. Prociuk,  E. Ramos,  D. R. Rehn,  F. Rob,  M. Schneider,  N. Sergueev,  
 S. M. Sharada,  S. Sharma,  D. W. Small,  T. Stauch,  T. Stein,  
 Yu-Chuan Su,  A. J. W. Thom,  A. Tkatchenko,  T. Tsuchimochi,  N. M. Tubman,  
 L. Vogt,  M. L. Vidal,  O. Vydrov,  M. A. Watson,  J. Wenzel,  
 M. de Wergifosse,  T. A. Wesolowski,  A. White,  J. Witte,  A. Yamada,  
 Jun Yang,  K. Yao,  S. Yeganeh,  S. R. Yost,  Zhi-Qiang You,  A. Zech,  
 Igor Ying Zhang,  Xing Zhang,  Yan Zhao,  Ying Zhu,  B. R. Brooks,  
 G. K. L. Chan,  C. J. Cramer,  M. S. Gordon,  W. J. Hehre,  A. Klamt,  
 M. W. Schmidt,  C. D. Sherrill,  D. G. Truhlar,  A. Aspuru-Guzik,  R. Baer,  
 A. T. Bell,  N. A. Besley,  Jeng-Da Chai,  A. E. DePrince, III,  
 R. A. DiStasio Jr.,  A. Dreuw,  B. D. Dunietz,  T. R. Furlani,  
 Chao-Ping Hsu,  Yousung Jung,  Jing Kong,  D. S. Lambrecht,  WanZhen Liang,  
 C. Ochsenfeld,  V. A. Rassolov,  L. V. Slipchenko,  J. E. Subotnik,  
 T. Van Voorhis,  J. M. Herbert,  A. I. Krylov,  P. M. W. Gill,  M. Head-Gordon

 Contributors to earlier versions of Q-Chem not listed above: 
 R. D. Adamson,  B. Austin,  J. Baker,  G. J. O. Beran,  K. Brandhorst,  
 S. T. Brown,  E. F. C. Byrd,  A. K. Chakraborty,  C.-L. Cheng,  
 Siu Hung Chien,  D. M. Chipman,  D. L. Crittenden,  H. Dachsel,  
 R. J. Doerksen,  A. D. Dutoi,  L. Fusti-Molnar,  W. A. Goddard III,  
 A. Golubeva-Zadorozhnaya,  S. R. Gwaltney,  G. Hawkins,  A. Heyden,  
 S. Hirata,  G. Kedziora,  F. J. Keil,  C. Kelley,  Jihan Kim,  R. A. King,  
 R. Z. Khaliullin,  P. P. Korambath,  W. Kurlancheek,  A. M. Lee,  M. S. Lee,  
 S. V. Levchenko,  Ching Yeh Lin,  D. Liotard,  R. C. Lochan,  I. Lotan,  
 P. E. Maslen,  N. Nair,  D. P. O'Neill,  D. Neuhauser,  E. Neuscamman,  
 C. M. Oana,  R. Olson,  B. Peters,  R. Peverati,  P. A. Pieniazek,  
 Y. M. Rhee,  J. Ritchie,  M. A. Rohrdanz,  E. Rosta,  N. J. Russ,  
 H. F. Schaefer III,  N. E. Schultz,  N. Shenvi,  A. C. Simmonett,  A. Sodt,  
 D. Stuck,  K. S. Thanthiriwatte,  V. Vanovschi,  Tao Wang,  A. Warshel,  
 C. F. Williams,  Q. Wu,  X. Xu,  W. Zhang

 Please cite Q-Chem as follows:
 Y. Shao et al., Mol. Phys. 113, 184-215 (2015)
 DOI: 10.1080/00268976.2014.952696

 Q-Chem 5.1.1 for Intel X86 EM64T Linux

 Parts of Q-Chem use Armadillo 8.300.2 (Tropical Shenanigans).
 http://arma.sourceforge.net/

 Q-Chem begins on Sat Oct  3 02:14:26 2020  

Host: n0101.mhg0
0

     Scratch files written to /local/scratch/users/yhljason/HCN_wB97X-2TQZ_aug-cc-pcVQZ.inp20201003015128//
The previous job contains 0 fragments, simply inherited here
Input Ideriv = 0
Curr. Ideriv = -1
Max.  Ideriv = 0
Analytic post-HF gradients are not available with non-HF exchange
Input Ideriv = 0
Curr. Ideriv = 0
Max.  Ideriv = 0

Checking the input file for inconsistencies... 	...done.

--------------------------------------------------------------
User input:
--------------------------------------------------------------
$molecule
read
$end

$rem

jobtype sp
method wB97X-2(TQZ)
xc_grid 000099000590
basis aug-cc-pcVQZ
max_scf_cycles 200
thresh 14
scf_convergence 8
mem_total 128000
cc_memory 96000
cc_backend xm
mem_static 1500
symmetry false
sym_ignore true
scf_guess read
unrestricted false
scf_algorithm gdm
n_frozen_core 0
$end

$multipole_field
XX 0.0001
$end


--------------------------------------------------------------
 ----------------------------------------------------------------
             Standard Nuclear Orientation (Angstroms)
    I     Atom           X                Y                Z
 ----------------------------------------------------------------
    1      C       0.0000000000     0.0000000000     0.0000000000
    2      H       0.0000000000     0.0000000000     1.0640000000
    3      N       0.0000000000     0.0000000000    -1.1560000000
 ----------------------------------------------------------------
 Nuclear Repulsion Energy =    23.8788204447 hartrees
 There are        7 alpha and        7 beta electrons
 Requested basis set is aug-cc-pCVQZ
 There are 72 shells and 264 basis functions

 Total QAlloc Memory Limit 128000 MB
 Mega-Array Size      1467 MB
 MEM_STATIC part      1500 MB

                       Distance Matrix (Angstroms)
             C (  1)   H (  2)
   H (  2)  1.064000
   N (  3)  1.156000  2.220000
 
 Applying Cartesian multipole field
    Component          Value
    ---------          -----
     (2,0,0)        1.00000E-04
 A cutoff of  1.0D-14 yielded   2575 shell pairs
 There are     35073 function pairs (     56110 Cartesian)
 
 -------------------------------------------------------
 OpenMP Integral Computing Module                       
 Release: version 1.0, May 2013, Q-Chem Inc. Pittsburgh 
 -------------------------------------------------------
 Integral Job Info:
 Integral job number is                      11
 Integral operator is                         1
 short-range coefficients              63615800
 long-range coefficients              100000000
 Omega coefficients                         300
 if combine SR and LR in K                    1
 Integral screening is                        0
 Integral computing path is                   2
 max size of driver memory is           3200000
 size of driver memory is               1704330
 size of scratch memory is             18852824
 max col of scratch BK array              50625
 max len of scratch array in speh3         2114
 max len of scratch index in speh4           50
 max int batch size is                      520
 min int batch size is                       52
 fixed nKL is                                52
 max L of basis functions is                  4
 order of int derivative is                   0
 number of shells is                         72
 number of basis is                         333
 number of cartesian basis is               333
 number of contracted shell pairs          2575
 number of primitive shell pairs           5542
 maxK2 (contraction) of shell pair           81
 max number of K2 of shell pair               1
 max number of CS2 of shell pair            315
 max number of PS2 of shell pair            549
 mem total for path MDJ                  693712
 -------------------------------------------------------
 Smallest overlap matrix eigenvalue = 1.70E-05
 Guess MOs from SCF MO coefficient file

 -----------------------------------------------------------------------
  General SCF calculation program by
  Eric Jon Sundstrom, Paul Horn, Yuezhi Mao, Dmitri Zuev, Alec White,
  David Stuck, Shaama M.S., Shane Yost, Joonho Lee, David Small,
  Daniel Levine, Susi Lehtola, Hugh Burton, Evgeny Epifanovsky
 -----------------------------------------------------------------------
 Exchange:     0.6362 Hartree-Fock + 1.0000 wB97X-2(TQZ) + LR-HF
 Correlation:  1.0000 wB97X-2(TQZ)
 Using Euler-Maclaurin-Lebedev (99,590) quadrature formula
 using 8 threads for integral computing
 -------------------------------------------------------
 OpenMP Integral computing Module                
 Release: version 1.0, May 2013, Q-Chem Inc. Pittsburgh 
 -------------------------------------------------------
 using 8 threads for integral computing
 -------------------------------------------------------
 OpenMP Integral computing Module                
 Release: version 1.0, May 2013, Q-Chem Inc. Pittsburgh 
 -------------------------------------------------------
 -------------------------------------------------------
 OpenMP BLAS3 based DFT computing Module                
 Release: version 1.0, May 2013, Q-Chem Inc. Pittsburgh 
 -------------------------------------------------------
 A restricted SCF calculation will be
 performed using GDM
 SCF converges when RMS gradient is below 1.0e-08
 ---------------------------------------
  Cycle       Energy        RMS Gradient
 ---------------------------------------
    1     -93.1959509090      2.25e-04   Normal BFGS step
    2     -93.1959511706      5.00e-05   Normal BFGS step
    3     -93.1959511941      4.18e-05   Normal BFGS step
    4     -93.1959511997      1.31e-05   Normal BFGS step
    5     -93.1959512008      2.92e-06   Normal BFGS step
    6     -93.1959512008      1.59e-06   Normal BFGS step
    7     -93.1959512009      6.40e-07   Normal BFGS step
    8     -93.1959512009      1.30e-07   Normal BFGS step
    9     -93.1959512009      2.90e-08   Normal BFGS step
   10     -93.1959512009      5.01e-09  Convergence criterion met
 ---------------------------------------
 SCF time:   CPU 1599.10s  wall 202.00s 
 SCF   energy in the final basis set =      -93.1959512009
 Total energy in the final basis set =      -93.1959512009
 
 Components of the MP2 correlation energy:
        aaaa  correlation energy =        -0.0284402166 au
        abab  correlation energy =        -0.1806616878 au
        bbbb  correlation energy =        -0.0284402166 au
        non-Brillouin singles    =        -0.0000000000 au

 Total  MP2   correlation energy =                    -0.23754212 au
        MP2         total energy =                   -93.43349332 au
 
 --------------------------------------------------------------
 
                    Orbital Energies (a.u.)
 --------------------------------------------------------------
 
 Alpha MOs
 -- Occupied --
-15.095 -10.872  -1.154  -0.778  -0.547  -0.488  -0.488
 -- Virtual --
  0.022   0.064   0.065   0.066   0.113   0.115   0.116   0.123
  0.153   0.154   0.183   0.224   0.224   0.229   0.251   0.252
  0.308   0.317   0.341   0.342   0.391   0.391   0.423   0.454
  0.454   0.460   0.460   0.470   0.583   0.627   0.628   0.644
  0.644   0.665   0.726   0.735   0.735   0.756   0.797   0.797
  0.799   0.800   0.919   0.919   0.923   0.923   1.003   1.046
  1.110   1.110   1.125   1.126   1.181   1.182   1.207   1.207
  1.270   1.341   1.400   1.401   1.447   1.565   1.579   1.579
  1.579   1.579   1.636   1.648   1.688   1.688   1.731   1.732
  1.853   1.853   2.021   2.021   2.076   2.076   2.080   2.080
  2.129   2.216   2.216   2.289   2.289   2.332   2.332   2.381
  2.459   2.459   2.511   2.511   2.656   2.740   2.760   2.760
  2.845   2.845   2.938   2.938   2.966   3.047   3.047   3.161
  3.167   3.167   3.234   3.234   3.282   3.306   3.306   3.501
  3.501   3.664   3.719   3.719   3.775   3.775   3.834   3.900
  3.900   4.104   4.104   4.342   4.490   4.490   4.629   4.629
  4.688   4.738   4.738   4.856   5.221   5.684   5.684   5.842
  5.842   5.881   5.881   5.919   5.919   6.311   6.311   6.357
  6.357   6.358   6.418   6.418   6.715   6.725   6.725   6.968
  6.968   7.093   7.093   7.606   7.752   7.752   7.920   8.097
  8.097   8.128   8.128   8.165   8.165   8.262   8.262   8.267
  8.529   8.529   8.816   8.897   8.897   8.942   8.942   9.110
  9.132   9.132   9.161   9.161   9.534   9.534   9.727   9.802
  9.802  10.108  10.119  10.119  10.207  10.207  10.642  11.310
 11.310  11.925  12.726  12.726  13.137  14.405  15.438  19.269
 19.269  21.199  26.472  26.472  26.644  26.644  27.127  27.127
 27.852  28.674  36.855  36.855  37.568  37.568  37.879  38.304
 49.614  66.461  66.461  67.896  91.616  91.616  92.760  98.239
 98.239  98.255  98.255  98.323  98.323  98.441 111.629 111.629
111.661 111.661 111.710 111.710 111.760 114.701 114.701 115.052
115.052 115.790 123.433 156.253 156.253 156.643 156.643 157.002
165.731 224.399 224.399 225.622 308.635 308.635 309.592 508.614
685.577
 --------------------------------------------------------------
 
          Ground-State Mulliken Net Atomic Charges

     Atom                 Charge (a.u.)
  ----------------------------------------
      1 C                    -0.075522
      2 H                     0.579454
      3 N                    -0.503932
  ----------------------------------------
  Sum of atomic charges =    -0.000000

 -----------------------------------------------------------------
                    Cartesian Multipole Moments
 -----------------------------------------------------------------
    Charge (ESU x 10^10)
                -0.0000
    Dipole Moment (Debye)
         X       0.0000      Y      -0.0000      Z       3.1923
       Tot       3.1923
    Quadrupole Moments (Debye-Ang)
        XX     -11.9696     XY      -0.0000     YY     -11.9634
        XZ      -0.0000     YZ       0.0000     ZZ     -12.8782
    Octopole Moments (Debye-Ang^2)
       XXX      -0.0000    XXY       0.0000    XYY      -0.0000
       YYY       0.0000    XXZ       6.4279    XYZ       0.0000
       YYZ       6.4250    XZZ      -0.0000    YZZ      -0.0000
       ZZZ      24.9363
    Hexadecapole Moments (Debye-Ang^3)
      XXXX     -12.5888   XXXY      -0.0000   XXYY      -4.1924
      XYYY      -0.0000   YYYY     -12.5655   XXXZ       0.0000
      XXYZ      -0.0000   XYYZ       0.0000   YYYZ       0.0000
      XXZZ     -12.7338   XYZZ      -0.0000   YYZZ     -12.7265
      XZZZ       0.0000   YZZZ       0.0000   ZZZZ     -67.9940
 -----------------------------------------------------------------
Archival summary:
1\1\n0101.mhg0\SP\ProcedureUnspecified\BasisUnspecified\111\yhljason\SatOct302:21:072020SatOct302:21:072020\0\\#,ProcedureUnspecified,BasisUnspecified,\\0,1\C\H,1,1.064\N,1,1.156,2,180\\\@

 Total job time:  400.87s(wall), 3165.84s(cpu) 
 Sat Oct  3 02:21:07 2020

        *************************************************************
        *                                                           *
        *  Thank you very much for using Q-Chem.  Have a nice day.  *
        *                                                           *
        *************************************************************


 
User input: 4 of 8 
 
Q-Chem Developer Version!
                  Welcome to Q-Chem
     A Quantum Leap Into The Future Of Chemistry


 Q-Chem 5.1, Q-Chem, Inc., Pleasanton, CA (2018)

 Yihan Shao,  Zhengting Gan,  E. Epifanovsky,  A. T. B. Gilbert,  M. Wormit,  
 J. Kussmann,  A. W. Lange,  A. Behn,  Jia Deng,  Xintian Feng,  D. Ghosh,  
 M. Goldey,  P. R. Horn,  L. D. Jacobson,  I. Kaliman,  T. Kus,  A. Landau,  
 Jie Liu,  E. I. Proynov,  R. M. Richard,  R. P. Steele,  E. J. Sundstrom,  
 H. L. Woodcock III,  P. M. Zimmerman,  D. Zuev,  B. Albrecht,  E. Alguire,  
 S. A. Baeppler,  D. Barton,  Z. Benda,  Y. A. Bernard,  E. J. Berquist,  
 K. B. Bravaya,  H. Burton,  D. Casanova,  Chun-Min Chang,  Yunqing Chen,  
 A. Chien,  K. D. Closser,  M. P. Coons,  S. Coriani,  S. Dasgupta,  
 A. L. Dempwolff,  M. Diedenhofen,  Hainam Do,  R. G. Edgar,  Po-Tung Fang,  
 S. Faraji,  S. Fatehi,  Qingguo Feng,  K. D. Fenk,  J. Fosso-Tande,  
 Qinghui Ge,  A. Ghysels,  G. Gidofalvi,  J. Gomes,  J. Gonthier,  A. Gunina,  
 D. Hait,  M. W. D. Hanson-Heine,  P. H. P. Harbach,  A. W. Hauser,  
 J. E. Herr,  E. G. Hohenstein,  Z. C. Holden,  Kerwin Hui,  B. C. Huynh,  
 T.-C. Jagau,  Hyunjun Ji,  B. Kaduk,  K. Khistyaev,  Jaehoon Kim,  
 P. Klunzinger,  K. Koh,  D. Kosenkov,  L. Koulias,  T. Kowalczyk,  
 C. M. Krauter,  A. Kunitsa,  Ka Un Lao,  A. Laurent,  K. V. Lawler,  
 Joonho Lee,  D. Lefrancois,  S. Lehtola,  D. S. Levine,  Yi-Pei Li,  
 You-Sheng Lin,  Fenglai Liu,  E. Livshits,  A. Luenser,  P. Manohar,  
 E. Mansoor,  S. F. Manzer,  Shan-Ping Mao,  Yuezhi Mao,  N. Mardirossian,  
 A. V. Marenich,  T. Markovich,  L. A. Martinez-Martinez,  S. A. Maurer,  
 N. J. Mayhall,  S. C. McKenzie,  J.-M. Mewes,  A. F. Morrison,  
 J. W. Mullinax,  K. Nanda,  T. S. Nguyen-Beck,  R. Olivares-Amaya,  
 J. A. Parkhill,  T. M. Perrine,  F. Plasser,  P. Pokhilko,  S. Prager,  
 A. Prociuk,  E. Ramos,  D. R. Rehn,  F. Rob,  M. Schneider,  N. Sergueev,  
 S. M. Sharada,  S. Sharma,  D. W. Small,  T. Stauch,  T. Stein,  
 Yu-Chuan Su,  A. J. W. Thom,  A. Tkatchenko,  T. Tsuchimochi,  N. M. Tubman,  
 L. Vogt,  M. L. Vidal,  O. Vydrov,  M. A. Watson,  J. Wenzel,  
 M. de Wergifosse,  T. A. Wesolowski,  A. White,  J. Witte,  A. Yamada,  
 Jun Yang,  K. Yao,  S. Yeganeh,  S. R. Yost,  Zhi-Qiang You,  A. Zech,  
 Igor Ying Zhang,  Xing Zhang,  Yan Zhao,  Ying Zhu,  B. R. Brooks,  
 G. K. L. Chan,  C. J. Cramer,  M. S. Gordon,  W. J. Hehre,  A. Klamt,  
 M. W. Schmidt,  C. D. Sherrill,  D. G. Truhlar,  A. Aspuru-Guzik,  R. Baer,  
 A. T. Bell,  N. A. Besley,  Jeng-Da Chai,  A. E. DePrince, III,  
 R. A. DiStasio Jr.,  A. Dreuw,  B. D. Dunietz,  T. R. Furlani,  
 Chao-Ping Hsu,  Yousung Jung,  Jing Kong,  D. S. Lambrecht,  WanZhen Liang,  
 C. Ochsenfeld,  V. A. Rassolov,  L. V. Slipchenko,  J. E. Subotnik,  
 T. Van Voorhis,  J. M. Herbert,  A. I. Krylov,  P. M. W. Gill,  M. Head-Gordon

 Contributors to earlier versions of Q-Chem not listed above: 
 R. D. Adamson,  B. Austin,  J. Baker,  G. J. O. Beran,  K. Brandhorst,  
 S. T. Brown,  E. F. C. Byrd,  A. K. Chakraborty,  C.-L. Cheng,  
 Siu Hung Chien,  D. M. Chipman,  D. L. Crittenden,  H. Dachsel,  
 R. J. Doerksen,  A. D. Dutoi,  L. Fusti-Molnar,  W. A. Goddard III,  
 A. Golubeva-Zadorozhnaya,  S. R. Gwaltney,  G. Hawkins,  A. Heyden,  
 S. Hirata,  G. Kedziora,  F. J. Keil,  C. Kelley,  Jihan Kim,  R. A. King,  
 R. Z. Khaliullin,  P. P. Korambath,  W. Kurlancheek,  A. M. Lee,  M. S. Lee,  
 S. V. Levchenko,  Ching Yeh Lin,  D. Liotard,  R. C. Lochan,  I. Lotan,  
 P. E. Maslen,  N. Nair,  D. P. O'Neill,  D. Neuhauser,  E. Neuscamman,  
 C. M. Oana,  R. Olson,  B. Peters,  R. Peverati,  P. A. Pieniazek,  
 Y. M. Rhee,  J. Ritchie,  M. A. Rohrdanz,  E. Rosta,  N. J. Russ,  
 H. F. Schaefer III,  N. E. Schultz,  N. Shenvi,  A. C. Simmonett,  A. Sodt,  
 D. Stuck,  K. S. Thanthiriwatte,  V. Vanovschi,  Tao Wang,  A. Warshel,  
 C. F. Williams,  Q. Wu,  X. Xu,  W. Zhang

 Please cite Q-Chem as follows:
 Y. Shao et al., Mol. Phys. 113, 184-215 (2015)
 DOI: 10.1080/00268976.2014.952696

 Q-Chem 5.1.1 for Intel X86 EM64T Linux

 Parts of Q-Chem use Armadillo 8.300.2 (Tropical Shenanigans).
 http://arma.sourceforge.net/

 Q-Chem begins on Sat Oct  3 02:21:07 2020  

Host: n0101.mhg0
0

     Scratch files written to /local/scratch/users/yhljason/HCN_wB97X-2TQZ_aug-cc-pcVQZ.inp20201003015128//
The previous job contains 0 fragments, simply inherited here
Input Ideriv = 0
Curr. Ideriv = -1
Max.  Ideriv = 0
Analytic post-HF gradients are not available with non-HF exchange
Input Ideriv = 0
Curr. Ideriv = 0
Max.  Ideriv = 0

Checking the input file for inconsistencies... 	...done.

--------------------------------------------------------------
User input:
--------------------------------------------------------------
$molecule
read
$end

$rem

jobtype sp
method wB97X-2(TQZ)
xc_grid 000099000590
basis aug-cc-pcVQZ
max_scf_cycles 200
thresh 14
scf_convergence 8
mem_total 128000
cc_memory 96000
cc_backend xm
mem_static 1500
symmetry false
sym_ignore true
scf_guess read
unrestricted false
scf_algorithm gdm
n_frozen_core 0
$end

$multipole_field
XX -0.0001
$end


--------------------------------------------------------------
 ----------------------------------------------------------------
             Standard Nuclear Orientation (Angstroms)
    I     Atom           X                Y                Z
 ----------------------------------------------------------------
    1      C       0.0000000000     0.0000000000     0.0000000000
    2      H       0.0000000000     0.0000000000     1.0640000000
    3      N       0.0000000000     0.0000000000    -1.1560000000
 ----------------------------------------------------------------
 Nuclear Repulsion Energy =    23.8788204447 hartrees
 There are        7 alpha and        7 beta electrons
 Requested basis set is aug-cc-pCVQZ
 There are 72 shells and 264 basis functions

 Total QAlloc Memory Limit 128000 MB
 Mega-Array Size      1467 MB
 MEM_STATIC part      1500 MB

                       Distance Matrix (Angstroms)
             C (  1)   H (  2)
   H (  2)  1.064000
   N (  3)  1.156000  2.220000
 
 Applying Cartesian multipole field
    Component          Value
    ---------          -----
     (2,0,0)       -1.00000E-04
 A cutoff of  1.0D-14 yielded   2575 shell pairs
 There are     35073 function pairs (     56110 Cartesian)
 
 -------------------------------------------------------
 OpenMP Integral Computing Module                       
 Release: version 1.0, May 2013, Q-Chem Inc. Pittsburgh 
 -------------------------------------------------------
 Integral Job Info:
 Integral job number is                      11
 Integral operator is                         1
 short-range coefficients              63615800
 long-range coefficients              100000000
 Omega coefficients                         300
 if combine SR and LR in K                    1
 Integral screening is                        0
 Integral computing path is                   2
 max size of driver memory is           3200000
 size of driver memory is               1704330
 size of scratch memory is             18852824
 max col of scratch BK array              50625
 max len of scratch array in speh3         2114
 max len of scratch index in speh4           50
 max int batch size is                      520
 min int batch size is                       52
 fixed nKL is                                52
 max L of basis functions is                  4
 order of int derivative is                   0
 number of shells is                         72
 number of basis is                         333
 number of cartesian basis is               333
 number of contracted shell pairs          2575
 number of primitive shell pairs           5542
 maxK2 (contraction) of shell pair           81
 max number of K2 of shell pair               1
 max number of CS2 of shell pair            315
 max number of PS2 of shell pair            549
 mem total for path MDJ                  693712
 -------------------------------------------------------
 Smallest overlap matrix eigenvalue = 1.70E-05
 Guess MOs from SCF MO coefficient file

 -----------------------------------------------------------------------
  General SCF calculation program by
  Eric Jon Sundstrom, Paul Horn, Yuezhi Mao, Dmitri Zuev, Alec White,
  David Stuck, Shaama M.S., Shane Yost, Joonho Lee, David Small,
  Daniel Levine, Susi Lehtola, Hugh Burton, Evgeny Epifanovsky
 -----------------------------------------------------------------------
 Exchange:     0.6362 Hartree-Fock + 1.0000 wB97X-2(TQZ) + LR-HF
 Correlation:  1.0000 wB97X-2(TQZ)
 Using Euler-Maclaurin-Lebedev (99,590) quadrature formula
 using 8 threads for integral computing
 -------------------------------------------------------
 OpenMP Integral computing Module                
 Release: version 1.0, May 2013, Q-Chem Inc. Pittsburgh 
 -------------------------------------------------------
 using 8 threads for integral computing
 -------------------------------------------------------
 OpenMP Integral computing Module                
 Release: version 1.0, May 2013, Q-Chem Inc. Pittsburgh 
 -------------------------------------------------------
 -------------------------------------------------------
 OpenMP BLAS3 based DFT computing Module                
 Release: version 1.0, May 2013, Q-Chem Inc. Pittsburgh 
 -------------------------------------------------------
 A restricted SCF calculation will be
 performed using GDM
 SCF converges when RMS gradient is below 1.0e-08
 ---------------------------------------
  Cycle       Energy        RMS Gradient
 ---------------------------------------
    1     -93.1941713760      4.47e-04   Normal BFGS step
    2     -93.1941724226      1.03e-04   Normal BFGS step
    3     -93.1941725163      8.11e-05   Normal BFGS step
    4     -93.1941725386      2.58e-05   Normal BFGS step
    5     -93.1941725429      5.78e-06   Normal BFGS step
    6     -93.1941725432      3.06e-06   Normal BFGS step
    7     -93.1941725433      1.31e-06   Normal BFGS step
    8     -93.1941725433      2.55e-07   Normal BFGS step
    9     -93.1941725433      5.69e-08   Normal BFGS step
   10     -93.1941725433      1.02e-08   Normal BFGS step
   11     -93.1941725433      2.06e-09  Convergence criterion met
 ---------------------------------------
 SCF time:   CPU 1741.34s  wall 220.00s 
 SCF   energy in the final basis set =      -93.1941725433
 Total energy in the final basis set =      -93.1941725433
 
 Components of the MP2 correlation energy:
        aaaa  correlation energy =        -0.0284416639 au
        abab  correlation energy =        -0.1806770001 au
        bbbb  correlation energy =        -0.0284416639 au
        non-Brillouin singles    =        -0.0000000000 au

 Total  MP2   correlation energy =                    -0.23756033 au
        MP2         total energy =                   -93.43173287 au
 
 --------------------------------------------------------------
 
                    Orbital Energies (a.u.)
 --------------------------------------------------------------
 
 Alpha MOs
 -- Occupied --
-15.095 -10.872  -1.153  -0.778  -0.547  -0.487  -0.487
 -- Virtual --
  0.026   0.068   0.068   0.069   0.116   0.117   0.118   0.125
  0.155   0.157   0.186   0.226   0.226   0.231   0.253   0.254
  0.311   0.319   0.344   0.345   0.392   0.392   0.424   0.455
  0.456   0.461   0.462   0.472   0.584   0.628   0.629   0.645
  0.645   0.667   0.727   0.736   0.736   0.757   0.798   0.798
  0.801   0.802   0.920   0.920   0.924   0.924   1.004   1.047
  1.111   1.111   1.126   1.127   1.182   1.182   1.208   1.208
  1.271   1.342   1.401   1.402   1.448   1.566   1.580   1.580
  1.580   1.580   1.637   1.648   1.688   1.688   1.732   1.733
  1.854   1.854   2.022   2.022   2.077   2.077   2.081   2.081
  2.130   2.217   2.217   2.290   2.290   2.333   2.333   2.382
  2.460   2.460   2.512   2.512   2.657   2.741   2.761   2.761
  2.846   2.846   2.939   2.939   2.966   3.048   3.048   3.162
  3.167   3.167   3.234   3.235   3.282   3.306   3.306   3.502
  3.502   3.665   3.719   3.719   3.775   3.775   3.834   3.901
  3.901   4.104   4.104   4.342   4.491   4.491   4.630   4.630
  4.689   4.739   4.739   4.856   5.221   5.684   5.684   5.842
  5.842   5.882   5.882   5.920   5.920   6.312   6.312   6.358
  6.358   6.358   6.418   6.419   6.716   6.725   6.725   6.969
  6.969   7.093   7.093   7.606   7.752   7.752   7.920   8.098
  8.098   8.129   8.129   8.165   8.165   8.262   8.262   8.268
  8.529   8.529   8.816   8.897   8.897   8.943   8.943   9.110
  9.132   9.132   9.161   9.161   9.535   9.535   9.727   9.802
  9.802  10.108  10.119  10.119  10.208  10.208  10.643  11.311
 11.311  11.925  12.727  12.727  13.138  14.405  15.439  19.270
 19.270  21.200  26.472  26.472  26.645  26.645  27.127  27.127
 27.853  28.675  36.856  36.856  37.568  37.568  37.879  38.305
 49.614  66.461  66.461  67.897  91.617  91.617  92.760  98.240
 98.240  98.256  98.256  98.323  98.323  98.442 111.630 111.630
111.662 111.662 111.711 111.711 111.761 114.701 114.701 115.053
115.053 115.791 123.433 156.253 156.253 156.644 156.644 157.002
165.731 224.399 224.399 225.622 308.636 308.636 309.592 508.614
685.578
 --------------------------------------------------------------
 
          Ground-State Mulliken Net Atomic Charges

     Atom                 Charge (a.u.)
  ----------------------------------------
      1 C                    -0.073531
      2 H                     0.579075
      3 N                    -0.505544
  ----------------------------------------
  Sum of atomic charges =    -0.000000

 -----------------------------------------------------------------
                    Cartesian Multipole Moments
 -----------------------------------------------------------------
    Charge (ESU x 10^10)
                -0.0000
    Dipole Moment (Debye)
         X       0.0000      Y       0.0000      Z       3.1921
       Tot       3.1921
    Quadrupole Moments (Debye-Ang)
        XX     -11.9540     XY       0.0000     YY     -11.9601
        XZ      -0.0000     YZ      -0.0000     ZZ     -12.8779
    Octopole Moments (Debye-Ang^2)
       XXX      -0.0000    XXY       0.0000    XYY      -0.0000
       YYY       0.0000    XXZ       6.4200    XYZ      -0.0000
       YYZ       6.4229    XZZ       0.0000    YZZ       0.0000
       ZZZ      24.9335
    Hexadecapole Moments (Debye-Ang^3)
      XXXX     -12.5288   XXXY      -0.0000   XXYY      -4.1801
      XYYY      -0.0000   YYYY     -12.5518   XXXZ      -0.0000
      XXYZ      -0.0000   XYYZ      -0.0000   YYYZ      -0.0000
      XXZZ     -12.7140   XYZZ       0.0000   YYZZ     -12.7212
      XZZZ      -0.0000   YZZZ      -0.0000   ZZZZ     -67.9852
 -----------------------------------------------------------------
Archival summary:
1\1\n0101.mhg0\SP\ProcedureUnspecified\BasisUnspecified\111\yhljason\SatOct302:28:042020SatOct302:28:042020\0\\#,ProcedureUnspecified,BasisUnspecified,\\0,1\C\H,1,1.064\N,1,1.156,2,180\\\@

 Total job time:  416.94s(wall), 3294.94s(cpu) 
 Sat Oct  3 02:28:04 2020

        *************************************************************
        *                                                           *
        *  Thank you very much for using Q-Chem.  Have a nice day.  *
        *                                                           *
        *************************************************************


 
User input: 5 of 8 
 
Q-Chem Developer Version!
                  Welcome to Q-Chem
     A Quantum Leap Into The Future Of Chemistry


 Q-Chem 5.1, Q-Chem, Inc., Pleasanton, CA (2018)

 Yihan Shao,  Zhengting Gan,  E. Epifanovsky,  A. T. B. Gilbert,  M. Wormit,  
 J. Kussmann,  A. W. Lange,  A. Behn,  Jia Deng,  Xintian Feng,  D. Ghosh,  
 M. Goldey,  P. R. Horn,  L. D. Jacobson,  I. Kaliman,  T. Kus,  A. Landau,  
 Jie Liu,  E. I. Proynov,  R. M. Richard,  R. P. Steele,  E. J. Sundstrom,  
 H. L. Woodcock III,  P. M. Zimmerman,  D. Zuev,  B. Albrecht,  E. Alguire,  
 S. A. Baeppler,  D. Barton,  Z. Benda,  Y. A. Bernard,  E. J. Berquist,  
 K. B. Bravaya,  H. Burton,  D. Casanova,  Chun-Min Chang,  Yunqing Chen,  
 A. Chien,  K. D. Closser,  M. P. Coons,  S. Coriani,  S. Dasgupta,  
 A. L. Dempwolff,  M. Diedenhofen,  Hainam Do,  R. G. Edgar,  Po-Tung Fang,  
 S. Faraji,  S. Fatehi,  Qingguo Feng,  K. D. Fenk,  J. Fosso-Tande,  
 Qinghui Ge,  A. Ghysels,  G. Gidofalvi,  J. Gomes,  J. Gonthier,  A. Gunina,  
 D. Hait,  M. W. D. Hanson-Heine,  P. H. P. Harbach,  A. W. Hauser,  
 J. E. Herr,  E. G. Hohenstein,  Z. C. Holden,  Kerwin Hui,  B. C. Huynh,  
 T.-C. Jagau,  Hyunjun Ji,  B. Kaduk,  K. Khistyaev,  Jaehoon Kim,  
 P. Klunzinger,  K. Koh,  D. Kosenkov,  L. Koulias,  T. Kowalczyk,  
 C. M. Krauter,  A. Kunitsa,  Ka Un Lao,  A. Laurent,  K. V. Lawler,  
 Joonho Lee,  D. Lefrancois,  S. Lehtola,  D. S. Levine,  Yi-Pei Li,  
 You-Sheng Lin,  Fenglai Liu,  E. Livshits,  A. Luenser,  P. Manohar,  
 E. Mansoor,  S. F. Manzer,  Shan-Ping Mao,  Yuezhi Mao,  N. Mardirossian,  
 A. V. Marenich,  T. Markovich,  L. A. Martinez-Martinez,  S. A. Maurer,  
 N. J. Mayhall,  S. C. McKenzie,  J.-M. Mewes,  A. F. Morrison,  
 J. W. Mullinax,  K. Nanda,  T. S. Nguyen-Beck,  R. Olivares-Amaya,  
 J. A. Parkhill,  T. M. Perrine,  F. Plasser,  P. Pokhilko,  S. Prager,  
 A. Prociuk,  E. Ramos,  D. R. Rehn,  F. Rob,  M. Schneider,  N. Sergueev,  
 S. M. Sharada,  S. Sharma,  D. W. Small,  T. Stauch,  T. Stein,  
 Yu-Chuan Su,  A. J. W. Thom,  A. Tkatchenko,  T. Tsuchimochi,  N. M. Tubman,  
 L. Vogt,  M. L. Vidal,  O. Vydrov,  M. A. Watson,  J. Wenzel,  
 M. de Wergifosse,  T. A. Wesolowski,  A. White,  J. Witte,  A. Yamada,  
 Jun Yang,  K. Yao,  S. Yeganeh,  S. R. Yost,  Zhi-Qiang You,  A. Zech,  
 Igor Ying Zhang,  Xing Zhang,  Yan Zhao,  Ying Zhu,  B. R. Brooks,  
 G. K. L. Chan,  C. J. Cramer,  M. S. Gordon,  W. J. Hehre,  A. Klamt,  
 M. W. Schmidt,  C. D. Sherrill,  D. G. Truhlar,  A. Aspuru-Guzik,  R. Baer,  
 A. T. Bell,  N. A. Besley,  Jeng-Da Chai,  A. E. DePrince, III,  
 R. A. DiStasio Jr.,  A. Dreuw,  B. D. Dunietz,  T. R. Furlani,  
 Chao-Ping Hsu,  Yousung Jung,  Jing Kong,  D. S. Lambrecht,  WanZhen Liang,  
 C. Ochsenfeld,  V. A. Rassolov,  L. V. Slipchenko,  J. E. Subotnik,  
 T. Van Voorhis,  J. M. Herbert,  A. I. Krylov,  P. M. W. Gill,  M. Head-Gordon

 Contributors to earlier versions of Q-Chem not listed above: 
 R. D. Adamson,  B. Austin,  J. Baker,  G. J. O. Beran,  K. Brandhorst,  
 S. T. Brown,  E. F. C. Byrd,  A. K. Chakraborty,  C.-L. Cheng,  
 Siu Hung Chien,  D. M. Chipman,  D. L. Crittenden,  H. Dachsel,  
 R. J. Doerksen,  A. D. Dutoi,  L. Fusti-Molnar,  W. A. Goddard III,  
 A. Golubeva-Zadorozhnaya,  S. R. Gwaltney,  G. Hawkins,  A. Heyden,  
 S. Hirata,  G. Kedziora,  F. J. Keil,  C. Kelley,  Jihan Kim,  R. A. King,  
 R. Z. Khaliullin,  P. P. Korambath,  W. Kurlancheek,  A. M. Lee,  M. S. Lee,  
 S. V. Levchenko,  Ching Yeh Lin,  D. Liotard,  R. C. Lochan,  I. Lotan,  
 P. E. Maslen,  N. Nair,  D. P. O'Neill,  D. Neuhauser,  E. Neuscamman,  
 C. M. Oana,  R. Olson,  B. Peters,  R. Peverati,  P. A. Pieniazek,  
 Y. M. Rhee,  J. Ritchie,  M. A. Rohrdanz,  E. Rosta,  N. J. Russ,  
 H. F. Schaefer III,  N. E. Schultz,  N. Shenvi,  A. C. Simmonett,  A. Sodt,  
 D. Stuck,  K. S. Thanthiriwatte,  V. Vanovschi,  Tao Wang,  A. Warshel,  
 C. F. Williams,  Q. Wu,  X. Xu,  W. Zhang

 Please cite Q-Chem as follows:
 Y. Shao et al., Mol. Phys. 113, 184-215 (2015)
 DOI: 10.1080/00268976.2014.952696

 Q-Chem 5.1.1 for Intel X86 EM64T Linux

 Parts of Q-Chem use Armadillo 8.300.2 (Tropical Shenanigans).
 http://arma.sourceforge.net/

 Q-Chem begins on Sat Oct  3 02:28:04 2020  

Host: n0101.mhg0
0

     Scratch files written to /local/scratch/users/yhljason/HCN_wB97X-2TQZ_aug-cc-pcVQZ.inp20201003015128//
The previous job contains 0 fragments, simply inherited here
Input Ideriv = 0
Curr. Ideriv = -1
Max.  Ideriv = 0
Analytic post-HF gradients are not available with non-HF exchange
Input Ideriv = 0
Curr. Ideriv = 0
Max.  Ideriv = 0

Checking the input file for inconsistencies... 	...done.

--------------------------------------------------------------
User input:
--------------------------------------------------------------
$molecule
read
$end

$rem

jobtype sp
method wB97X-2(TQZ)
xc_grid 000099000590
basis aug-cc-pcVQZ
max_scf_cycles 200
thresh 14
scf_convergence 8
mem_total 128000
cc_memory 96000
cc_backend xm
mem_static 1500
symmetry false
sym_ignore true
scf_guess read
unrestricted false
scf_algorithm gdm
n_frozen_core 0
$end

$multipole_field
YY 0.0001
$end


--------------------------------------------------------------
 ----------------------------------------------------------------
             Standard Nuclear Orientation (Angstroms)
    I     Atom           X                Y                Z
 ----------------------------------------------------------------
    1      C       0.0000000000     0.0000000000     0.0000000000
    2      H       0.0000000000     0.0000000000     1.0640000000
    3      N       0.0000000000     0.0000000000    -1.1560000000
 ----------------------------------------------------------------
 Nuclear Repulsion Energy =    23.8788204447 hartrees
 There are        7 alpha and        7 beta electrons
 Requested basis set is aug-cc-pCVQZ
 There are 72 shells and 264 basis functions

 Total QAlloc Memory Limit 128000 MB
 Mega-Array Size      1467 MB
 MEM_STATIC part      1500 MB

                       Distance Matrix (Angstroms)
             C (  1)   H (  2)
   H (  2)  1.064000
   N (  3)  1.156000  2.220000
 
 Applying Cartesian multipole field
    Component          Value
    ---------          -----
     (0,2,0)        1.00000E-04
 A cutoff of  1.0D-14 yielded   2575 shell pairs
 There are     35073 function pairs (     56110 Cartesian)
 
 -------------------------------------------------------
 OpenMP Integral Computing Module                       
 Release: version 1.0, May 2013, Q-Chem Inc. Pittsburgh 
 -------------------------------------------------------
 Integral Job Info:
 Integral job number is                      11
 Integral operator is                         1
 short-range coefficients              63615800
 long-range coefficients              100000000
 Omega coefficients                         300
 if combine SR and LR in K                    1
 Integral screening is                        0
 Integral computing path is                   2
 max size of driver memory is           3200000
 size of driver memory is               1704330
 size of scratch memory is             18852824
 max col of scratch BK array              50625
 max len of scratch array in speh3         2114
 max len of scratch index in speh4           50
 max int batch size is                      520
 min int batch size is                       52
 fixed nKL is                                52
 max L of basis functions is                  4
 order of int derivative is                   0
 number of shells is                         72
 number of basis is                         333
 number of cartesian basis is               333
 number of contracted shell pairs          2575
 number of primitive shell pairs           5542
 maxK2 (contraction) of shell pair           81
 max number of K2 of shell pair               1
 max number of CS2 of shell pair            315
 max number of PS2 of shell pair            549
 mem total for path MDJ                  693712
 -------------------------------------------------------
 Smallest overlap matrix eigenvalue = 1.70E-05
 Guess MOs from SCF MO coefficient file

 -----------------------------------------------------------------------
  General SCF calculation program by
  Eric Jon Sundstrom, Paul Horn, Yuezhi Mao, Dmitri Zuev, Alec White,
  David Stuck, Shaama M.S., Shane Yost, Joonho Lee, David Small,
  Daniel Levine, Susi Lehtola, Hugh Burton, Evgeny Epifanovsky
 -----------------------------------------------------------------------
 Exchange:     0.6362 Hartree-Fock + 1.0000 wB97X-2(TQZ) + LR-HF
 Correlation:  1.0000 wB97X-2(TQZ)
 Using Euler-Maclaurin-Lebedev (99,590) quadrature formula
 using 8 threads for integral computing
 -------------------------------------------------------
 OpenMP Integral computing Module                
 Release: version 1.0, May 2013, Q-Chem Inc. Pittsburgh 
 -------------------------------------------------------
 using 8 threads for integral computing
 -------------------------------------------------------
 OpenMP Integral computing Module                
 Release: version 1.0, May 2013, Q-Chem Inc. Pittsburgh 
 -------------------------------------------------------
 -------------------------------------------------------
 OpenMP BLAS3 based DFT computing Module                
 Release: version 1.0, May 2013, Q-Chem Inc. Pittsburgh 
 -------------------------------------------------------
 A restricted SCF calculation will be
 performed using GDM
 SCF converges when RMS gradient is below 1.0e-08
 ---------------------------------------
  Cycle       Energy        RMS Gradient
 ---------------------------------------
    1     -93.1959504961      2.99e-04   Normal BFGS step
    2     -93.1959511223      7.97e-05   Normal BFGS step
    3     -93.1959511846      5.76e-05   Normal BFGS step
    4     -93.1959511982      1.45e-05   Normal BFGS step
    5     -93.1959512008      2.49e-06   Normal BFGS step
    6     -93.1959512009      4.62e-07   Normal BFGS step
    7     -93.1959512009      1.04e-07   Normal BFGS step
    8     -93.1959512009      1.26e-08   Normal BFGS step
    9     -93.1959512009      4.74e-09  Convergence criterion met
 ---------------------------------------
 SCF time:   CPU 1421.95s  wall 180.00s 
 SCF   energy in the final basis set =      -93.1959512009
 Total energy in the final basis set =      -93.1959512009
 
 Components of the MP2 correlation energy:
        aaaa  correlation energy =        -0.0284402166 au
        abab  correlation energy =        -0.1806616878 au
        bbbb  correlation energy =        -0.0284402166 au
        non-Brillouin singles    =        -0.0000000000 au

 Total  MP2   correlation energy =                    -0.23754212 au
        MP2         total energy =                   -93.43349332 au
 
 --------------------------------------------------------------
 
                    Orbital Energies (a.u.)
 --------------------------------------------------------------
 
 Alpha MOs
 -- Occupied --
-15.095 -10.872  -1.154  -0.778  -0.547  -0.488  -0.488
 -- Virtual --
  0.022   0.064   0.065   0.066   0.113   0.115   0.116   0.123
  0.153   0.154   0.183   0.224   0.224   0.229   0.251   0.252
  0.308   0.317   0.341   0.342   0.391   0.391   0.423   0.454
  0.454   0.460   0.460   0.470   0.583   0.627   0.628   0.644
  0.644   0.665   0.726   0.735   0.735   0.756   0.797   0.797
  0.799   0.800   0.919   0.919   0.923   0.923   1.003   1.046
  1.110   1.110   1.125   1.126   1.181   1.182   1.207   1.207
  1.270   1.341   1.400   1.401   1.447   1.565   1.579   1.579
  1.579   1.579   1.636   1.648   1.688   1.688   1.731   1.732
  1.853   1.853   2.021   2.021   2.076   2.076   2.080   2.080
  2.129   2.216   2.216   2.289   2.289   2.332   2.332   2.381
  2.459   2.459   2.511   2.511   2.656   2.740   2.760   2.760
  2.845   2.845   2.938   2.938   2.966   3.047   3.047   3.161
  3.167   3.167   3.234   3.234   3.282   3.306   3.306   3.501
  3.501   3.664   3.719   3.719   3.775   3.775   3.834   3.900
  3.900   4.104   4.104   4.342   4.490   4.490   4.629   4.629
  4.688   4.738   4.738   4.856   5.221   5.684   5.684   5.842
  5.842   5.881   5.881   5.919   5.919   6.311   6.311   6.357
  6.357   6.358   6.418   6.418   6.715   6.725   6.725   6.968
  6.968   7.093   7.093   7.606   7.752   7.752   7.920   8.097
  8.097   8.128   8.128   8.165   8.165   8.262   8.262   8.267
  8.529   8.529   8.816   8.897   8.897   8.942   8.942   9.110
  9.132   9.132   9.161   9.161   9.534   9.534   9.727   9.802
  9.802  10.108  10.119  10.119  10.207  10.207  10.642  11.310
 11.310  11.925  12.726  12.726  13.137  14.405  15.438  19.269
 19.269  21.199  26.472  26.472  26.644  26.644  27.127  27.127
 27.852  28.674  36.855  36.855  37.568  37.568  37.879  38.304
 49.614  66.461  66.461  67.896  91.616  91.616  92.760  98.239
 98.239  98.255  98.255  98.323  98.323  98.441 111.629 111.629
111.661 111.661 111.710 111.710 111.760 114.701 114.701 115.052
115.052 115.790 123.433 156.253 156.253 156.643 156.643 157.002
165.731 224.399 224.399 225.622 308.635 308.635 309.592 508.614
685.577
 --------------------------------------------------------------
 
          Ground-State Mulliken Net Atomic Charges

     Atom                 Charge (a.u.)
  ----------------------------------------
      1 C                    -0.075522
      2 H                     0.579454
      3 N                    -0.503932
  ----------------------------------------
  Sum of atomic charges =    -0.000000

 -----------------------------------------------------------------
                    Cartesian Multipole Moments
 -----------------------------------------------------------------
    Charge (ESU x 10^10)
                -0.0000
    Dipole Moment (Debye)
         X       0.0000      Y       0.0000      Z       3.1923
       Tot       3.1923
    Quadrupole Moments (Debye-Ang)
        XX     -11.9634     XY      -0.0000     YY     -11.9696
        XZ      -0.0000     YZ       0.0000     ZZ     -12.8782
    Octopole Moments (Debye-Ang^2)
       XXX      -0.0000    XXY       0.0000    XYY      -0.0000
       YYY       0.0000    XXZ       6.4250    XYZ       0.0000
       YYZ       6.4279    XZZ      -0.0000    YZZ      -0.0000
       ZZZ      24.9363
    Hexadecapole Moments (Debye-Ang^3)
      XXXX     -12.5655   XXXY      -0.0000   XXYY      -4.1924
      XYYY      -0.0000   YYYY     -12.5888   XXXZ       0.0000
      XXYZ       0.0000   XYYZ      -0.0000   YYYZ       0.0000
      XXZZ     -12.7265   XYZZ      -0.0000   YYZZ     -12.7338
      XZZZ       0.0000   YZZZ       0.0000   ZZZZ     -67.9940
 -----------------------------------------------------------------
Archival summary:
1\1\n0101.mhg0\SP\ProcedureUnspecified\BasisUnspecified\111\yhljason\SatOct302:34:202020SatOct302:34:202020\0\\#,ProcedureUnspecified,BasisUnspecified,\\0,1\C\H,1,1.064\N,1,1.156,2,180\\\@

 Total job time:  376.53s(wall), 2973.85s(cpu) 
 Sat Oct  3 02:34:20 2020

        *************************************************************
        *                                                           *
        *  Thank you very much for using Q-Chem.  Have a nice day.  *
        *                                                           *
        *************************************************************


 
User input: 6 of 8 
 
Q-Chem Developer Version!
                  Welcome to Q-Chem
     A Quantum Leap Into The Future Of Chemistry


 Q-Chem 5.1, Q-Chem, Inc., Pleasanton, CA (2018)

 Yihan Shao,  Zhengting Gan,  E. Epifanovsky,  A. T. B. Gilbert,  M. Wormit,  
 J. Kussmann,  A. W. Lange,  A. Behn,  Jia Deng,  Xintian Feng,  D. Ghosh,  
 M. Goldey,  P. R. Horn,  L. D. Jacobson,  I. Kaliman,  T. Kus,  A. Landau,  
 Jie Liu,  E. I. Proynov,  R. M. Richard,  R. P. Steele,  E. J. Sundstrom,  
 H. L. Woodcock III,  P. M. Zimmerman,  D. Zuev,  B. Albrecht,  E. Alguire,  
 S. A. Baeppler,  D. Barton,  Z. Benda,  Y. A. Bernard,  E. J. Berquist,  
 K. B. Bravaya,  H. Burton,  D. Casanova,  Chun-Min Chang,  Yunqing Chen,  
 A. Chien,  K. D. Closser,  M. P. Coons,  S. Coriani,  S. Dasgupta,  
 A. L. Dempwolff,  M. Diedenhofen,  Hainam Do,  R. G. Edgar,  Po-Tung Fang,  
 S. Faraji,  S. Fatehi,  Qingguo Feng,  K. D. Fenk,  J. Fosso-Tande,  
 Qinghui Ge,  A. Ghysels,  G. Gidofalvi,  J. Gomes,  J. Gonthier,  A. Gunina,  
 D. Hait,  M. W. D. Hanson-Heine,  P. H. P. Harbach,  A. W. Hauser,  
 J. E. Herr,  E. G. Hohenstein,  Z. C. Holden,  Kerwin Hui,  B. C. Huynh,  
 T.-C. Jagau,  Hyunjun Ji,  B. Kaduk,  K. Khistyaev,  Jaehoon Kim,  
 P. Klunzinger,  K. Koh,  D. Kosenkov,  L. Koulias,  T. Kowalczyk,  
 C. M. Krauter,  A. Kunitsa,  Ka Un Lao,  A. Laurent,  K. V. Lawler,  
 Joonho Lee,  D. Lefrancois,  S. Lehtola,  D. S. Levine,  Yi-Pei Li,  
 You-Sheng Lin,  Fenglai Liu,  E. Livshits,  A. Luenser,  P. Manohar,  
 E. Mansoor,  S. F. Manzer,  Shan-Ping Mao,  Yuezhi Mao,  N. Mardirossian,  
 A. V. Marenich,  T. Markovich,  L. A. Martinez-Martinez,  S. A. Maurer,  
 N. J. Mayhall,  S. C. McKenzie,  J.-M. Mewes,  A. F. Morrison,  
 J. W. Mullinax,  K. Nanda,  T. S. Nguyen-Beck,  R. Olivares-Amaya,  
 J. A. Parkhill,  T. M. Perrine,  F. Plasser,  P. Pokhilko,  S. Prager,  
 A. Prociuk,  E. Ramos,  D. R. Rehn,  F. Rob,  M. Schneider,  N. Sergueev,  
 S. M. Sharada,  S. Sharma,  D. W. Small,  T. Stauch,  T. Stein,  
 Yu-Chuan Su,  A. J. W. Thom,  A. Tkatchenko,  T. Tsuchimochi,  N. M. Tubman,  
 L. Vogt,  M. L. Vidal,  O. Vydrov,  M. A. Watson,  J. Wenzel,  
 M. de Wergifosse,  T. A. Wesolowski,  A. White,  J. Witte,  A. Yamada,  
 Jun Yang,  K. Yao,  S. Yeganeh,  S. R. Yost,  Zhi-Qiang You,  A. Zech,  
 Igor Ying Zhang,  Xing Zhang,  Yan Zhao,  Ying Zhu,  B. R. Brooks,  
 G. K. L. Chan,  C. J. Cramer,  M. S. Gordon,  W. J. Hehre,  A. Klamt,  
 M. W. Schmidt,  C. D. Sherrill,  D. G. Truhlar,  A. Aspuru-Guzik,  R. Baer,  
 A. T. Bell,  N. A. Besley,  Jeng-Da Chai,  A. E. DePrince, III,  
 R. A. DiStasio Jr.,  A. Dreuw,  B. D. Dunietz,  T. R. Furlani,  
 Chao-Ping Hsu,  Yousung Jung,  Jing Kong,  D. S. Lambrecht,  WanZhen Liang,  
 C. Ochsenfeld,  V. A. Rassolov,  L. V. Slipchenko,  J. E. Subotnik,  
 T. Van Voorhis,  J. M. Herbert,  A. I. Krylov,  P. M. W. Gill,  M. Head-Gordon

 Contributors to earlier versions of Q-Chem not listed above: 
 R. D. Adamson,  B. Austin,  J. Baker,  G. J. O. Beran,  K. Brandhorst,  
 S. T. Brown,  E. F. C. Byrd,  A. K. Chakraborty,  C.-L. Cheng,  
 Siu Hung Chien,  D. M. Chipman,  D. L. Crittenden,  H. Dachsel,  
 R. J. Doerksen,  A. D. Dutoi,  L. Fusti-Molnar,  W. A. Goddard III,  
 A. Golubeva-Zadorozhnaya,  S. R. Gwaltney,  G. Hawkins,  A. Heyden,  
 S. Hirata,  G. Kedziora,  F. J. Keil,  C. Kelley,  Jihan Kim,  R. A. King,  
 R. Z. Khaliullin,  P. P. Korambath,  W. Kurlancheek,  A. M. Lee,  M. S. Lee,  
 S. V. Levchenko,  Ching Yeh Lin,  D. Liotard,  R. C. Lochan,  I. Lotan,  
 P. E. Maslen,  N. Nair,  D. P. O'Neill,  D. Neuhauser,  E. Neuscamman,  
 C. M. Oana,  R. Olson,  B. Peters,  R. Peverati,  P. A. Pieniazek,  
 Y. M. Rhee,  J. Ritchie,  M. A. Rohrdanz,  E. Rosta,  N. J. Russ,  
 H. F. Schaefer III,  N. E. Schultz,  N. Shenvi,  A. C. Simmonett,  A. Sodt,  
 D. Stuck,  K. S. Thanthiriwatte,  V. Vanovschi,  Tao Wang,  A. Warshel,  
 C. F. Williams,  Q. Wu,  X. Xu,  W. Zhang

 Please cite Q-Chem as follows:
 Y. Shao et al., Mol. Phys. 113, 184-215 (2015)
 DOI: 10.1080/00268976.2014.952696

 Q-Chem 5.1.1 for Intel X86 EM64T Linux

 Parts of Q-Chem use Armadillo 8.300.2 (Tropical Shenanigans).
 http://arma.sourceforge.net/

 Q-Chem begins on Sat Oct  3 02:34:21 2020  

Host: n0101.mhg0
0

     Scratch files written to /local/scratch/users/yhljason/HCN_wB97X-2TQZ_aug-cc-pcVQZ.inp20201003015128//
The previous job contains 0 fragments, simply inherited here
Input Ideriv = 0
Curr. Ideriv = -1
Max.  Ideriv = 0
Analytic post-HF gradients are not available with non-HF exchange
Input Ideriv = 0
Curr. Ideriv = 0
Max.  Ideriv = 0

Checking the input file for inconsistencies... 	...done.

--------------------------------------------------------------
User input:
--------------------------------------------------------------
$molecule
read
$end

$rem

jobtype sp
method wB97X-2(TQZ)
xc_grid 000099000590
basis aug-cc-pcVQZ
max_scf_cycles 200
thresh 14
scf_convergence 8
mem_total 128000
cc_memory 96000
cc_backend xm
mem_static 1500
symmetry false
sym_ignore true
scf_guess read
unrestricted false
scf_algorithm gdm
n_frozen_core 0
$end

$multipole_field
YY -0.0001
$end


--------------------------------------------------------------
 ----------------------------------------------------------------
             Standard Nuclear Orientation (Angstroms)
    I     Atom           X                Y                Z
 ----------------------------------------------------------------
    1      C       0.0000000000     0.0000000000     0.0000000000
    2      H       0.0000000000     0.0000000000     1.0640000000
    3      N       0.0000000000     0.0000000000    -1.1560000000
 ----------------------------------------------------------------
 Nuclear Repulsion Energy =    23.8788204447 hartrees
 There are        7 alpha and        7 beta electrons
 Requested basis set is aug-cc-pCVQZ
 There are 72 shells and 264 basis functions

 Total QAlloc Memory Limit 128000 MB
 Mega-Array Size      1467 MB
 MEM_STATIC part      1500 MB

                       Distance Matrix (Angstroms)
             C (  1)   H (  2)
   H (  2)  1.064000
   N (  3)  1.156000  2.220000
 
 Applying Cartesian multipole field
    Component          Value
    ---------          -----
     (0,2,0)       -1.00000E-04
 A cutoff of  1.0D-14 yielded   2575 shell pairs
 There are     35073 function pairs (     56110 Cartesian)
 
 -------------------------------------------------------
 OpenMP Integral Computing Module                       
 Release: version 1.0, May 2013, Q-Chem Inc. Pittsburgh 
 -------------------------------------------------------
 Integral Job Info:
 Integral job number is                      11
 Integral operator is                         1
 short-range coefficients              63615800
 long-range coefficients              100000000
 Omega coefficients                         300
 if combine SR and LR in K                    1
 Integral screening is                        0
 Integral computing path is                   2
 max size of driver memory is           3200000
 size of driver memory is               1704330
 size of scratch memory is             18852824
 max col of scratch BK array              50625
 max len of scratch array in speh3         2114
 max len of scratch index in speh4           50
 max int batch size is                      520
 min int batch size is                       52
 fixed nKL is                                52
 max L of basis functions is                  4
 order of int derivative is                   0
 number of shells is                         72
 number of basis is                         333
 number of cartesian basis is               333
 number of contracted shell pairs          2575
 number of primitive shell pairs           5542
 maxK2 (contraction) of shell pair           81
 max number of K2 of shell pair               1
 max number of CS2 of shell pair            315
 max number of PS2 of shell pair            549
 mem total for path MDJ                  693712
 -------------------------------------------------------
 Smallest overlap matrix eigenvalue = 1.70E-05
 Guess MOs from SCF MO coefficient file

 -----------------------------------------------------------------------
  General SCF calculation program by
  Eric Jon Sundstrom, Paul Horn, Yuezhi Mao, Dmitri Zuev, Alec White,
  David Stuck, Shaama M.S., Shane Yost, Joonho Lee, David Small,
  Daniel Levine, Susi Lehtola, Hugh Burton, Evgeny Epifanovsky
 -----------------------------------------------------------------------
 Exchange:     0.6362 Hartree-Fock + 1.0000 wB97X-2(TQZ) + LR-HF
 Correlation:  1.0000 wB97X-2(TQZ)
 Using Euler-Maclaurin-Lebedev (99,590) quadrature formula
 using 8 threads for integral computing
 -------------------------------------------------------
 OpenMP Integral computing Module                
 Release: version 1.0, May 2013, Q-Chem Inc. Pittsburgh 
 -------------------------------------------------------
 using 8 threads for integral computing
 -------------------------------------------------------
 OpenMP Integral computing Module                
 Release: version 1.0, May 2013, Q-Chem Inc. Pittsburgh 
 -------------------------------------------------------
 -------------------------------------------------------
 OpenMP BLAS3 based DFT computing Module                
 Release: version 1.0, May 2013, Q-Chem Inc. Pittsburgh 
 -------------------------------------------------------
 A restricted SCF calculation will be
 performed using GDM
 SCF converges when RMS gradient is below 1.0e-08
 ---------------------------------------
  Cycle       Energy        RMS Gradient
 ---------------------------------------
    1     -93.1941713760      4.47e-04   Normal BFGS step
    2     -93.1941724226      1.03e-04   Normal BFGS step
    3     -93.1941725163      8.11e-05   Normal BFGS step
    4     -93.1941725386      2.58e-05   Normal BFGS step
    5     -93.1941725429      5.78e-06   Normal BFGS step
    6     -93.1941725432      3.06e-06   Normal BFGS step
    7     -93.1941725433      1.31e-06   Normal BFGS step
    8     -93.1941725433      2.55e-07   Normal BFGS step
    9     -93.1941725433      5.69e-08   Normal BFGS step
   10     -93.1941725433      1.02e-08   Normal BFGS step
   11     -93.1941725433      2.06e-09  Convergence criterion met
 ---------------------------------------
 SCF time:   CPU 1726.46s  wall 219.00s 
 SCF   energy in the final basis set =      -93.1941725433
 Total energy in the final basis set =      -93.1941725433
 
 Components of the MP2 correlation energy:
        aaaa  correlation energy =        -0.0284416639 au
        abab  correlation energy =        -0.1806770001 au
        bbbb  correlation energy =        -0.0284416639 au
        non-Brillouin singles    =        -0.0000000000 au

 Total  MP2   correlation energy =                    -0.23756033 au
        MP2         total energy =                   -93.43173287 au
 
 --------------------------------------------------------------
 
                    Orbital Energies (a.u.)
 --------------------------------------------------------------
 
 Alpha MOs
 -- Occupied --
-15.095 -10.872  -1.153  -0.778  -0.547  -0.487  -0.487
 -- Virtual --
  0.026   0.068   0.068   0.069   0.116   0.117   0.118   0.125
  0.155   0.157   0.186   0.226   0.226   0.231   0.253   0.254
  0.311   0.319   0.344   0.345   0.392   0.392   0.424   0.455
  0.456   0.461   0.462   0.472   0.584   0.628   0.629   0.645
  0.645   0.667   0.727   0.736   0.736   0.757   0.798   0.798
  0.801   0.802   0.920   0.920   0.924   0.924   1.004   1.047
  1.111   1.111   1.126   1.127   1.182   1.182   1.208   1.208
  1.271   1.342   1.401   1.402   1.448   1.566   1.580   1.580
  1.580   1.580   1.637   1.648   1.688   1.688   1.732   1.733
  1.854   1.854   2.022   2.022   2.077   2.077   2.081   2.081
  2.130   2.217   2.217   2.290   2.290   2.333   2.333   2.382
  2.460   2.460   2.512   2.512   2.657   2.741   2.761   2.761
  2.846   2.846   2.939   2.939   2.966   3.048   3.048   3.162
  3.167   3.167   3.234   3.235   3.282   3.306   3.306   3.502
  3.502   3.665   3.719   3.719   3.775   3.775   3.834   3.901
  3.901   4.104   4.104   4.342   4.491   4.491   4.630   4.630
  4.689   4.739   4.739   4.856   5.221   5.684   5.684   5.842
  5.842   5.882   5.882   5.920   5.920   6.312   6.312   6.358
  6.358   6.358   6.418   6.419   6.716   6.725   6.725   6.969
  6.969   7.093   7.093   7.606   7.752   7.752   7.920   8.098
  8.098   8.129   8.129   8.165   8.165   8.262   8.262   8.268
  8.529   8.529   8.816   8.897   8.897   8.943   8.943   9.110
  9.132   9.132   9.161   9.161   9.535   9.535   9.727   9.802
  9.802  10.108  10.119  10.119  10.208  10.208  10.643  11.311
 11.311  11.925  12.727  12.727  13.138  14.405  15.439  19.270
 19.270  21.200  26.472  26.472  26.645  26.645  27.127  27.127
 27.853  28.675  36.856  36.856  37.568  37.568  37.879  38.305
 49.614  66.461  66.461  67.897  91.617  91.617  92.760  98.240
 98.240  98.256  98.256  98.323  98.323  98.442 111.630 111.630
111.662 111.662 111.711 111.711 111.761 114.701 114.701 115.053
115.053 115.791 123.433 156.253 156.253 156.644 156.644 157.002
165.731 224.399 224.399 225.622 308.636 308.636 309.592 508.614
685.578
 --------------------------------------------------------------
 
          Ground-State Mulliken Net Atomic Charges

     Atom                 Charge (a.u.)
  ----------------------------------------
      1 C                    -0.073531
      2 H                     0.579075
      3 N                    -0.505544
  ----------------------------------------
  Sum of atomic charges =    -0.000000

 -----------------------------------------------------------------
                    Cartesian Multipole Moments
 -----------------------------------------------------------------
    Charge (ESU x 10^10)
                -0.0000
    Dipole Moment (Debye)
         X       0.0000      Y      -0.0000      Z       3.1921
       Tot       3.1921
    Quadrupole Moments (Debye-Ang)
        XX     -11.9601     XY      -0.0000     YY     -11.9540
        XZ       0.0000     YZ       0.0000     ZZ     -12.8779
    Octopole Moments (Debye-Ang^2)
       XXX       0.0000    XXY      -0.0000    XYY       0.0000
       YYY      -0.0000    XXZ       6.4229    XYZ       0.0000
       YYZ       6.4200    XZZ      -0.0000    YZZ      -0.0000
       ZZZ      24.9335
    Hexadecapole Moments (Debye-Ang^3)
      XXXX     -12.5518   XXXY      -0.0000   XXYY      -4.1801
      XYYY      -0.0000   YYYY     -12.5288   XXXZ      -0.0000
      XXYZ       0.0000   XYYZ       0.0000   YYYZ       0.0000
      XXZZ     -12.7212   XYZZ      -0.0000   YYZZ     -12.7140
      XZZZ       0.0000   YZZZ       0.0000   ZZZZ     -67.9852
 -----------------------------------------------------------------
Archival summary:
1\1\n0101.mhg0\SP\ProcedureUnspecified\BasisUnspecified\111\yhljason\SatOct302:41:182020SatOct302:41:182020\0\\#,ProcedureUnspecified,BasisUnspecified,\\0,1\C\H,1,1.064\N,1,1.156,2,180\\\@

 Total job time:  417.69s(wall), 3293.43s(cpu) 
 Sat Oct  3 02:41:18 2020

        *************************************************************
        *                                                           *
        *  Thank you very much for using Q-Chem.  Have a nice day.  *
        *                                                           *
        *************************************************************


 
User input: 7 of 8 
 
Q-Chem Developer Version!
                  Welcome to Q-Chem
     A Quantum Leap Into The Future Of Chemistry


 Q-Chem 5.1, Q-Chem, Inc., Pleasanton, CA (2018)

 Yihan Shao,  Zhengting Gan,  E. Epifanovsky,  A. T. B. Gilbert,  M. Wormit,  
 J. Kussmann,  A. W. Lange,  A. Behn,  Jia Deng,  Xintian Feng,  D. Ghosh,  
 M. Goldey,  P. R. Horn,  L. D. Jacobson,  I. Kaliman,  T. Kus,  A. Landau,  
 Jie Liu,  E. I. Proynov,  R. M. Richard,  R. P. Steele,  E. J. Sundstrom,  
 H. L. Woodcock III,  P. M. Zimmerman,  D. Zuev,  B. Albrecht,  E. Alguire,  
 S. A. Baeppler,  D. Barton,  Z. Benda,  Y. A. Bernard,  E. J. Berquist,  
 K. B. Bravaya,  H. Burton,  D. Casanova,  Chun-Min Chang,  Yunqing Chen,  
 A. Chien,  K. D. Closser,  M. P. Coons,  S. Coriani,  S. Dasgupta,  
 A. L. Dempwolff,  M. Diedenhofen,  Hainam Do,  R. G. Edgar,  Po-Tung Fang,  
 S. Faraji,  S. Fatehi,  Qingguo Feng,  K. D. Fenk,  J. Fosso-Tande,  
 Qinghui Ge,  A. Ghysels,  G. Gidofalvi,  J. Gomes,  J. Gonthier,  A. Gunina,  
[...]
 --------------------------------------------------------------
 
 Alpha MOs
 -- Occupied --
-15.095 -10.873  -1.154  -0.778  -0.548  -0.488  -0.488
 -- Virtual --
  0.020   0.063   0.066   0.066   0.111   0.115   0.115   0.120
  0.153   0.153   0.183   0.225   0.225   0.227   0.251   0.251
  0.307   0.315   0.342   0.342   0.390   0.390   0.421   0.454
  0.454   0.459   0.459   0.470   0.582   0.627   0.627   0.644
  0.644   0.664   0.724   0.735   0.735   0.754   0.797   0.797
  0.799   0.799   0.918   0.918   0.923   0.923   1.002   1.046
  1.110   1.110   1.125   1.125   1.181   1.181   1.206   1.206
  1.269   1.340   1.400   1.400   1.446   1.564   1.578   1.578
  1.579   1.579   1.635   1.647   1.687   1.687   1.731   1.731
  1.853   1.853   2.021   2.021   2.076   2.076   2.080   2.080
  2.128   2.216   2.216   2.289   2.289   2.331   2.331   2.381
  2.459   2.459   2.511   2.511   2.655   2.739   2.760   2.760
  2.845   2.845   2.938   2.938   2.965   3.047   3.047   3.161
  3.166   3.166   3.233   3.233   3.281   3.305   3.305   3.501
  3.501   3.663   3.719   3.719   3.774   3.774   3.833   3.900
  3.900   4.103   4.103   4.341   4.490   4.490   4.629   4.629
  4.688   4.738   4.738   4.855   5.220   5.684   5.684   5.842
  5.842   5.881   5.881   5.919   5.919   6.311   6.311   6.357
  6.357   6.357   6.418   6.418   6.715   6.725   6.725   6.968
  6.968   7.093   7.093   7.606   7.752   7.752   7.919   8.097
  8.097   8.128   8.128   8.165   8.165   8.261   8.261   8.267
  8.529   8.529   8.816   8.896   8.896   8.942   8.942   9.109
  9.131   9.131   9.161   9.161   9.534   9.534   9.726   9.801
  9.801  10.108  10.118  10.118  10.207  10.207  10.642  11.310
 11.310  11.925  12.726  12.726  13.137  14.404  15.438  19.269
 19.269  21.199  26.471  26.471  26.644  26.644  27.126  27.126
 27.852  28.674  36.855  36.855  37.568  37.568  37.878  38.304
 49.613  66.461  66.461  67.896  91.616  91.616  92.760  98.239
 98.239  98.255  98.255  98.322  98.322  98.441 111.629 111.629
111.661 111.661 111.710 111.710 111.760 114.700 114.700 115.052
115.052 115.790 123.433 156.252 156.252 156.643 156.643 157.002
165.730 224.398 224.398 225.621 308.635 308.635 309.592 508.614
685.577
 --------------------------------------------------------------
 
          Ground-State Mulliken Net Atomic Charges

     Atom                 Charge (a.u.)
  ----------------------------------------
      1 C                    -0.072994
      2 H                     0.579282
      3 N                    -0.506288
  ----------------------------------------
  Sum of atomic charges =    -0.000000

 -----------------------------------------------------------------
                    Cartesian Multipole Moments
 -----------------------------------------------------------------
    Charge (ESU x 10^10)
                -0.0000
    Dipole Moment (Debye)
         X       0.0000      Y       0.0000      Z       3.2017
       Tot       3.2017
    Quadrupole Moments (Debye-Ang)
        XX     -11.9619     XY       0.0000     YY     -11.9619
        XZ      -0.0000     YZ      -0.0000     ZZ     -12.9077
    Octopole Moments (Debye-Ang^2)
       XXX       0.0000    XXY       0.0000    XYY       0.0000
       YYY       0.0000    XXZ       6.4306    XYZ      -0.0000
       YYZ       6.4306    XZZ       0.0000    YZZ       0.0000
       ZZZ      24.9926
    Hexadecapole Moments (Debye-Ang^3)
      XXXX     -12.5595   XXXY       0.0000   XXYY      -4.1865
      XYYY       0.0000   YYYY     -12.5595   XXXZ      -0.0000
      XXYZ      -0.0000   XYYZ      -0.0000   YYYZ      -0.0000
      XXZZ     -12.7415   XYZZ       0.0000   YYZZ     -12.7415
      XZZZ      -0.0000   YZZZ      -0.0000   ZZZZ     -68.1711
 -----------------------------------------------------------------
Archival summary:
1\1\n0101.mhg0\SP\ProcedureUnspecified\BasisUnspecified\111\yhljason\SatOct302:48:222020SatOct302:48:222020\0\\#,ProcedureUnspecified,BasisUnspecified,\\0,1\C\H,1,1.064\N,1,1.156,2,180\\\@

 Total job time:  423.57s(wall), 3345.05s(cpu) 
 Sat Oct  3 02:48:22 2020

        *************************************************************
        *                                                           *
        *  Thank you very much for using Q-Chem.  Have a nice day.  *
        *                                                           *
        *************************************************************


 
User input: 8 of 8 
 
Q-Chem Developer Version!
                  Welcome to Q-Chem
     A Quantum Leap Into The Future Of Chemistry


 Q-Chem 5.1, Q-Chem, Inc., Pleasanton, CA (2018)

 Yihan Shao,  Zhengting Gan,  E. Epifanovsky,  A. T. B. Gilbert,  M. Wormit,  
 J. Kussmann,  A. W. Lange,  A. Behn,  Jia Deng,  Xintian Feng,  D. Ghosh,  
 M. Goldey,  P. R. Horn,  L. D. Jacobson,  I. Kaliman,  T. Kus,  A. Landau,  
 Jie Liu,  E. I. Proynov,  R. M. Richard,  R. P. Steele,  E. J. Sundstrom,  
 H. L. Woodcock III,  P. M. Zimmerman,  D. Zuev,  B. Albrecht,  E. Alguire,  
 S. A. Baeppler,  D. Barton,  Z. Benda,  Y. A. Bernard,  E. J. Berquist,  
 K. B. Bravaya,  H. Burton,  D. Casanova,  Chun-Min Chang,  Yunqing Chen,  
 A. Chien,  K. D. Closser,  M. P. Coons,  S. Coriani,  S. Dasgupta,  
 A. L. Dempwolff,  M. Diedenhofen,  Hainam Do,  R. G. Edgar,  Po-Tung Fang,  
 S. Faraji,  S. Fatehi,  Qingguo Feng,  K. D. Fenk,  J. Fosso-Tande,  
 Qinghui Ge,  A. Ghysels,  G. Gidofalvi,  J. Gomes,  J. Gonthier,  A. Gunina,  
 D. Hait,  M. W. D. Hanson-Heine,  P. H. P. Harbach,  A. W. Hauser,  
 J. E. Herr,  E. G. Hohenstein,  Z. C. Holden,  Kerwin Hui,  B. C. Huynh,  
 T.-C. Jagau,  Hyunjun Ji,  B. Kaduk,  K. Khistyaev,  Jaehoon Kim,  
 P. Klunzinger,  K. Koh,  D. Kosenkov,  L. Koulias,  T. Kowalczyk,  
 C. M. Krauter,  A. Kunitsa,  Ka Un Lao,  A. Laurent,  K. V. Lawler,  
 Joonho Lee,  D. Lefrancois,  S. Lehtola,  D. S. Levine,  Yi-Pei Li,  
 You-Sheng Lin,  Fenglai Liu,  E. Livshits,  A. Luenser,  P. Manohar,  
 E. Mansoor,  S. F. Manzer,  Shan-Ping Mao,  Yuezhi Mao,  N. Mardirossian,  
 A. V. Marenich,  T. Markovich,  L. A. Martinez-Martinez,  S. A. Maurer,  
 N. J. Mayhall,  S. C. McKenzie,  J.-M. Mewes,  A. F. Morrison,  
 J. W. Mullinax,  K. Nanda,  T. S. Nguyen-Beck,  R. Olivares-Amaya,  
 J. A. Parkhill,  T. M. Perrine,  F. Plasser,  P. Pokhilko,  S. Prager,  
 A. Prociuk,  E. Ramos,  D. R. Rehn,  F. Rob,  M. Schneider,  N. Sergueev,  
 S. M. Sharada,  S. Sharma,  D. W. Small,  T. Stauch,  T. Stein,  
 Yu-Chuan Su,  A. J. W. Thom,  A. Tkatchenko,  T. Tsuchimochi,  N. M. Tubman,  
 L. Vogt,  M. L. Vidal,  O. Vydrov,  M. A. Watson,  J. Wenzel,  
 M. de Wergifosse,  T. A. Wesolowski,  A. White,  J. Witte,  A. Yamada,  
 Jun Yang,  K. Yao,  S. Yeganeh,  S. R. Yost,  Zhi-Qiang You,  A. Zech,  
 Igor Ying Zhang,  Xing Zhang,  Yan Zhao,  Ying Zhu,  B. R. Brooks,  
 G. K. L. Chan,  C. J. Cramer,  M. S. Gordon,  W. J. Hehre,  A. Klamt,  
 M. W. Schmidt,  C. D. Sherrill,  D. G. Truhlar,  A. Aspuru-Guzik,  R. Baer,  
 A. T. Bell,  N. A. Besley,  Jeng-Da Chai,  A. E. DePrince, III,  
 R. A. DiStasio Jr.,  A. Dreuw,  B. D. Dunietz,  T. R. Furlani,  
 Chao-Ping Hsu,  Yousung Jung,  Jing Kong,  D. S. Lambrecht,  WanZhen Liang,  
 C. Ochsenfeld,  V. A. Rassolov,  L. V. Slipchenko,  J. E. Subotnik,  
 T. Van Voorhis,  J. M. Herbert,  A. I. Krylov,  P. M. W. Gill,  M. Head-Gordon

 Contributors to earlier versions of Q-Chem not listed above: 
 R. D. Adamson,  B. Austin,  J. Baker,  G. J. O. Beran,  K. Brandhorst,  
 S. T. Brown,  E. F. C. Byrd,  A. K. Chakraborty,  C.-L. Cheng,  
 Siu Hung Chien,  D. M. Chipman,  D. L. Crittenden,  H. Dachsel,  
 R. J. Doerksen,  A. D. Dutoi,  L. Fusti-Molnar,  W. A. Goddard III,  
 A. Golubeva-Zadorozhnaya,  S. R. Gwaltney,  G. Hawkins,  A. Heyden,  
 S. Hirata,  G. Kedziora,  F. J. Keil,  C. Kelley,  Jihan Kim,  R. A. King,  
 R. Z. Khaliullin,  P. P. Korambath,  W. Kurlancheek,  A. M. Lee,  M. S. Lee,  
 S. V. Levchenko,  Ching Yeh Lin,  D. Liotard,  R. C. Lochan,  I. Lotan,  
 P. E. Maslen,  N. Nair,  D. P. O'Neill,  D. Neuhauser,  E. Neuscamman,  
 C. M. Oana,  R. Olson,  B. Peters,  R. Peverati,  P. A. Pieniazek,  
 Y. M. Rhee,  J. Ritchie,  M. A. Rohrdanz,  E. Rosta,  N. J. Russ,  
 H. F. Schaefer III,  N. E. Schultz,  N. Shenvi,  A. C. Simmonett,  A. Sodt,  
 D. Stuck,  K. S. Thanthiriwatte,  V. Vanovschi,  Tao Wang,  A. Warshel,  
 C. F. Williams,  Q. Wu,  X. Xu,  W. Zhang

 Please cite Q-Chem as follows:
 Y. Shao et al., Mol. Phys. 113, 184-215 (2015)
 DOI: 10.1080/00268976.2014.952696

 Q-Chem 5.1.1 for Intel X86 EM64T Linux

 Parts of Q-Chem use Armadillo 8.300.2 (Tropical Shenanigans).
 http://arma.sourceforge.net/

 Q-Chem begins on Sat Oct  3 02:48:22 2020  

Host: n0101.mhg0
0

     Scratch files written to /local/scratch/users/yhljason/HCN_wB97X-2TQZ_aug-cc-pcVQZ.inp20201003015128//
The previous job contains 0 fragments, simply inherited here
Input Ideriv = 0
Curr. Ideriv = -1
Max.  Ideriv = 0
Analytic post-HF gradients are not available with non-HF exchange
Input Ideriv = 0
Curr. Ideriv = 0
Max.  Ideriv = 0

Checking the input file for inconsistencies... 	...done.

--------------------------------------------------------------
User input:
--------------------------------------------------------------
$molecule
read
$end

$rem

jobtype sp
method wB97X-2(TQZ)
xc_grid 000099000590
basis aug-cc-pcVQZ
max_scf_cycles 200
thresh 14
scf_convergence 8
mem_total 128000
cc_memory 96000
cc_backend xm
mem_static 1500
symmetry false
sym_ignore true
scf_guess read
unrestricted false
scf_algorithm gdm
n_frozen_core 0
$end

$multipole_field
ZZ -0.0001
$end

--------------------------------------------------------------
 ----------------------------------------------------------------
             Standard Nuclear Orientation (Angstroms)
    I     Atom           X                Y                Z
 ----------------------------------------------------------------
    1      C       0.0000000000     0.0000000000     0.0000000000
    2      H       0.0000000000     0.0000000000     1.0640000000
    3      N       0.0000000000     0.0000000000    -1.1560000000
 ----------------------------------------------------------------
 Nuclear Repulsion Energy =    23.8788204447 hartrees
 There are        7 alpha and        7 beta electrons
 Requested basis set is aug-cc-pCVQZ
 There are 72 shells and 264 basis functions

 Total QAlloc Memory Limit 128000 MB
 Mega-Array Size      1467 MB
 MEM_STATIC part      1500 MB

                       Distance Matrix (Angstroms)
             C (  1)   H (  2)
   H (  2)  1.064000
   N (  3)  1.156000  2.220000
 
 Applying Cartesian multipole field
    Component          Value
    ---------          -----
     (0,0,2)       -1.00000E-04
 Nucleus-field energy     =    -0.0037447786 hartrees
 A cutoff of  1.0D-14 yielded   2575 shell pairs
 There are     35073 function pairs (     56110 Cartesian)
 
 -------------------------------------------------------
 OpenMP Integral Computing Module                       
 Release: version 1.0, May 2013, Q-Chem Inc. Pittsburgh 
 -------------------------------------------------------
 Integral Job Info:
 Integral job number is                      11
 Integral operator is                         1
 short-range coefficients              63615800
 long-range coefficients              100000000
 Omega coefficients                         300
 if combine SR and LR in K                    1
 Integral screening is                        0
 Integral computing path is                   2
 max size of driver memory is           3200000
 size of driver memory is               1704330
 size of scratch memory is             18852824
 max col of scratch BK array              50625
 max len of scratch array in speh3         2114
 max len of scratch index in speh4           50
 max int batch size is                      520
 min int batch size is                       52
 fixed nKL is                                52
 max L of basis functions is                  4
 order of int derivative is                   0
 number of shells is                         72
 number of basis is                         333
 number of cartesian basis is               333
 number of contracted shell pairs          2575
 number of primitive shell pairs           5542
 maxK2 (contraction) of shell pair           81
 max number of K2 of shell pair               1
 max number of CS2 of shell pair            315
 max number of PS2 of shell pair            549
 mem total for path MDJ                  693712
 -------------------------------------------------------
 Smallest overlap matrix eigenvalue = 1.70E-05
 Guess MOs from SCF MO coefficient file

 -----------------------------------------------------------------------
  General SCF calculation program by
  Eric Jon Sundstrom, Paul Horn, Yuezhi Mao, Dmitri Zuev, Alec White,
  David Stuck, Shaama M.S., Shane Yost, Joonho Lee, David Small,
  Daniel Levine, Susi Lehtola, Hugh Burton, Evgeny Epifanovsky
 -----------------------------------------------------------------------
 Exchange:     0.6362 Hartree-Fock + 1.0000 wB97X-2(TQZ) + LR-HF
 Correlation:  1.0000 wB97X-2(TQZ)
 Using Euler-Maclaurin-Lebedev (99,590) quadrature formula
 using 8 threads for integral computing
 -------------------------------------------------------
 OpenMP Integral computing Module                
 Release: version 1.0, May 2013, Q-Chem Inc. Pittsburgh 
 -------------------------------------------------------
 using 8 threads for integral computing
 -------------------------------------------------------
 OpenMP Integral computing Module                
 Release: version 1.0, May 2013, Q-Chem Inc. Pittsburgh 
 -------------------------------------------------------
 -------------------------------------------------------
 OpenMP BLAS3 based DFT computing Module                
 Release: version 1.0, May 2013, Q-Chem Inc. Pittsburgh 
 -------------------------------------------------------
 A restricted SCF calculation will be
 performed using GDM
 SCF converges when RMS gradient is below 1.0e-08
 ---------------------------------------
  Cycle       Energy        RMS Gradient
 ---------------------------------------
    1     -93.1941008229      6.55e-04   Normal BFGS step
    2     -93.1941043254      3.17e-04   Normal BFGS step
    3     -93.1941050505      1.64e-04   Normal BFGS step
    4     -93.1941052131      2.76e-05   Normal BFGS step
    5     -93.1941052227      4.60e-06   Normal BFGS step
    6     -93.1941052231      1.10e-06   Normal BFGS step
    7     -93.1941052231      2.36e-07   Normal BFGS step
    8     -93.1941052231      6.25e-08   Normal BFGS step
    9     -93.1941052231      1.04e-08   Normal BFGS step
   10     -93.1941052231      1.33e-09  Convergence criterion met
 ---------------------------------------
 SCF time:   CPU 1599.74s  wall 203.00s 
 SCF   energy in the final basis set =      -93.1941052231
 Total energy in the final basis set =      -93.1941052231
 
 Components of the MP2 correlation energy:
        aaaa  correlation energy =        -0.0284404187 au
        abab  correlation energy =        -0.1806660564 au
        bbbb  correlation energy =        -0.0284404187 au
        non-Brillouin singles    =        -0.0000000000 au

 Total  MP2   correlation energy =                    -0.23754689 au
        MP2         total energy =                   -93.43165212 au
 
 --------------------------------------------------------------
 
                    Orbital Energies (a.u.)
 --------------------------------------------------------------
 
 Alpha MOs
 -- Occupied --
-15.094 -10.871  -1.153  -0.777  -0.547  -0.487  -0.487
 -- Virtual --
  0.028   0.068   0.068   0.069   0.118   0.118   0.118   0.128
  0.157   0.157   0.186   0.226   0.226   0.233   0.254   0.254
  0.312   0.321   0.344   0.344   0.393   0.393   0.426   0.456
  0.456   0.463   0.463   0.473   0.585   0.629   0.629   0.645
  0.645   0.668   0.728   0.736   0.736   0.759   0.799   0.799
  0.801   0.801   0.921   0.921   0.925   0.925   1.004   1.048
  1.111   1.111   1.127   1.127   1.183   1.183   1.208   1.208
  1.272   1.343   1.402   1.402   1.449   1.566   1.580   1.580
  1.581   1.581   1.637   1.649   1.689   1.689   1.733   1.733
  1.855   1.855   2.023   2.023   2.076   2.076   2.081   2.081
  2.131   2.217   2.217   2.290   2.290   2.333   2.333   2.383
  2.460   2.460   2.512   2.512   2.657   2.741   2.761   2.761
  2.846   2.846   2.939   2.939   2.967   3.048   3.048   3.162
  3.168   3.168   3.235   3.235   3.283   3.307   3.307   3.502
  3.502   3.665   3.720   3.720   3.776   3.776   3.835   3.901
  3.901   4.105   4.105   4.343   4.491   4.491   4.630   4.630
  4.689   4.739   4.739   4.857   5.222   5.685   5.685   5.842
  5.842   5.882   5.882   5.920   5.920   6.312   6.312   6.358
  6.358   6.358   6.419   6.419   6.716   6.726   6.726   6.969
  6.969   7.094   7.094   7.607   7.753   7.753   7.921   8.098
  8.098   8.129   8.129   8.166   8.166   8.263   8.263   8.268
  8.530   8.530   8.817   8.897   8.897   8.943   8.943   9.111
  9.132   9.132   9.162   9.162   9.535   9.535   9.727   9.802
  9.802  10.109  10.119  10.119  10.208  10.208  10.643  11.311
 11.311  11.926  12.727  12.727  13.138  14.406  15.439  19.270
 19.270  21.200  26.473  26.473  26.645  26.645  27.128  27.128
 27.853  28.675  36.856  36.856  37.569  37.569  37.880  38.305
 49.614  66.462  66.462  67.897  91.617  91.617  92.761  98.240
 98.240  98.256  98.256  98.324  98.324  98.442 111.630 111.630
111.662 111.662 111.711 111.711 111.761 114.702 114.702 115.053
115.053 115.791 123.434 156.253 156.253 156.644 156.644 157.003
165.732 224.399 224.399 225.623 308.636 308.636 309.593 508.615
685.578
 --------------------------------------------------------------
 
          Ground-State Mulliken Net Atomic Charges

     Atom                 Charge (a.u.)
  ----------------------------------------
      1 C                    -0.076075
      2 H                     0.579248
      3 N                    -0.503173
  ----------------------------------------
  Sum of atomic charges =    -0.000000

 -----------------------------------------------------------------
                    Cartesian Multipole Moments
 -----------------------------------------------------------------
    Charge (ESU x 10^10)
                -0.0000
    Dipole Moment (Debye)
         X      -0.0000      Y      -0.0000      Z       3.1827
       Tot       3.1827
    Quadrupole Moments (Debye-Ang)
        XX     -11.9616     XY      -0.0000     YY     -11.9616
        XZ      -0.0000     YZ       0.0000     ZZ     -12.8486
    Octopole Moments (Debye-Ang^2)
       XXX      -0.0000    XXY      -0.0000    XYY      -0.0000
       YYY      -0.0000    XXZ       6.4174    XYZ      -0.0000
       YYZ       6.4174    XZZ       0.0000    YZZ      -0.0000
       ZZZ      24.8777
    Hexadecapole Moments (Debye-Ang^3)
      XXXX     -12.5579   XXXY      -0.0000   XXYY      -4.1860
      XYYY      -0.0000   YYYY     -12.5579   XXXZ       0.0000
      XXYZ       0.0000   XYYZ       0.0000   YYYZ       0.0000
      XXZZ     -12.7064   XYZZ       0.0000   YYZZ     -12.7064
      XZZZ      -0.0000   YZZZ       0.0000   ZZZZ     -67.8098
 -----------------------------------------------------------------
Archival summary:
1\1\n0101.mhg0\SP\ProcedureUnspecified\BasisUnspecified\111\yhljason\SatOct302:55:022020SatOct302:55:022020\0\\#,ProcedureUnspecified,BasisUnspecified,\\0,1\C\H,1,1.064\N,1,1.156,2,180\\\@

 Total job time:  400.08s(wall), 3159.40s(cpu) 
 Sat Oct  3 02:55:02 2020

        *************************************************************
        *                                                           *
        *  Thank you very much for using Q-Chem.  Have a nice day.  *
        *                                                           *
        *************************************************************


