Q-Chem Developer Version!
                  Welcome to Q-Chem
     A Quantum Leap Into The Future Of Chemistry


 Q-Chem 5.1, Q-Chem, Inc., Pleasanton, CA (2018)

 Yihan Shao,  Zhengting Gan,  E. Epifanovsky,  A. T. B. Gilbert,  M. Wormit,  
 J. Kussmann,  A. W. Lange,  A. Behn,  Jia Deng,  Xintian Feng,  D. Ghosh,  
 M. Goldey,  P. R. Horn,  L. D. Jacobson,  I. Kaliman,  T. Kus,  A. Landau,  
 Jie Liu,  E. I. Proynov,  R. M. Richard,  R. P. Steele,  E. J. Sundstrom,  
 H. L. Woodcock III,  P. M. Zimmerman,  D. Zuev,  B. Albrecht,  E. Alguire,  
 S. A. Baeppler,  D. Barton,  Z. Benda,  Y. A. Bernard,  E. J. Berquist,  
 K. B. Bravaya,  H. Burton,  D. Casanova,  Chun-Min Chang,  Yunqing Chen,  
 A. Chien,  K. D. Closser,  M. P. Coons,  S. Coriani,  S. Dasgupta,  
 A. L. Dempwolff,  M. Diedenhofen,  Hainam Do,  R. G. Edgar,  Po-Tung Fang,  
 S. Faraji,  S. Fatehi,  Qingguo Feng,  K. D. Fenk,  J. Fosso-Tande,  
 Qinghui Ge,  A. Ghysels,  G. Gidofalvi,  J. Gomes,  J. Gonthier,  A. Gunina,  
 D. Hait,  M. W. D. Hanson-Heine,  P. H. P. Harbach,  A. W. Hauser,  
 J. E. Herr,  E. G. Hohenstein,  Z. C. Holden,  Kerwin Hui,  B. C. Huynh,  
 T.-C. Jagau,  Hyunjun Ji,  B. Kaduk,  K. Khistyaev,  Jaehoon Kim,  
 P. Klunzinger,  K. Koh,  D. Kosenkov,  L. Koulias,  T. Kowalczyk,  
 C. M. Krauter,  A. Kunitsa,  Ka Un Lao,  A. Laurent,  K. V. Lawler,  
 Joonho Lee,  D. Lefrancois,  S. Lehtola,  D. S. Levine,  Yi-Pei Li,  
 You-Sheng Lin,  Fenglai Liu,  E. Livshits,  A. Luenser,  P. Manohar,  
 E. Mansoor,  S. F. Manzer,  Shan-Ping Mao,  Yuezhi Mao,  N. Mardirossian,  
 A. V. Marenich,  T. Markovich,  L. A. Martinez-Martinez,  S. A. Maurer,  
 N. J. Mayhall,  S. C. McKenzie,  J.-M. Mewes,  A. F. Morrison,  
 J. W. Mullinax,  K. Nanda,  T. S. Nguyen-Beck,  R. Olivares-Amaya,  
 J. A. Parkhill,  T. M. Perrine,  F. Plasser,  P. Pokhilko,  S. Prager,  
 A. Prociuk,  E. Ramos,  D. R. Rehn,  F. Rob,  M. Schneider,  N. Sergueev,  
 S. M. Sharada,  S. Sharma,  D. W. Small,  T. Stauch,  T. Stein,  
 Yu-Chuan Su,  A. J. W. Thom,  A. Tkatchenko,  T. Tsuchimochi,  N. M. Tubman,  
 L. Vogt,  M. L. Vidal,  O. Vydrov,  M. A. Watson,  J. Wenzel,  
 M. de Wergifosse,  T. A. Wesolowski,  A. White,  J. Witte,  A. Yamada,  
 Jun Yang,  K. Yao,  S. Yeganeh,  S. R. Yost,  Zhi-Qiang You,  A. Zech,  
 Igor Ying Zhang,  Xing Zhang,  Yan Zhao,  Ying Zhu,  B. R. Brooks,  
 G. K. L. Chan,  C. J. Cramer,  M. S. Gordon,  W. J. Hehre,  A. Klamt,  
 M. W. Schmidt,  C. D. Sherrill,  D. G. Truhlar,  A. Aspuru-Guzik,  R. Baer,  
 A. T. Bell,  N. A. Besley,  Jeng-Da Chai,  A. E. DePrince, III,  
 R. A. DiStasio Jr.,  A. Dreuw,  B. D. Dunietz,  T. R. Furlani,  
 Chao-Ping Hsu,  Yousung Jung,  Jing Kong,  D. S. Lambrecht,  WanZhen Liang,  
 C. Ochsenfeld,  V. A. Rassolov,  L. V. Slipchenko,  J. E. Subotnik,  
 T. Van Voorhis,  J. M. Herbert,  A. I. Krylov,  P. M. W. Gill,  M. Head-Gordon

 Contributors to earlier versions of Q-Chem not listed above: 
 R. D. Adamson,  B. Austin,  J. Baker,  G. J. O. Beran,  K. Brandhorst,  
 S. T. Brown,  E. F. C. Byrd,  A. K. Chakraborty,  C.-L. Cheng,  
 Siu Hung Chien,  D. M. Chipman,  D. L. Crittenden,  H. Dachsel,  
 R. J. Doerksen,  A. D. Dutoi,  L. Fusti-Molnar,  W. A. Goddard III,  
 A. Golubeva-Zadorozhnaya,  S. R. Gwaltney,  G. Hawkins,  A. Heyden,  
 S. Hirata,  G. Kedziora,  F. J. Keil,  C. Kelley,  Jihan Kim,  R. A. King,  
 R. Z. Khaliullin,  P. P. Korambath,  W. Kurlancheek,  A. M. Lee,  M. S. Lee,  
 S. V. Levchenko,  Ching Yeh Lin,  D. Liotard,  R. C. Lochan,  I. Lotan,  
 P. E. Maslen,  N. Nair,  D. P. O'Neill,  D. Neuhauser,  E. Neuscamman,  
 C. M. Oana,  R. Olson,  B. Peters,  R. Peverati,  P. A. Pieniazek,  
 Y. M. Rhee,  J. Ritchie,  M. A. Rohrdanz,  E. Rosta,  N. J. Russ,  
 H. F. Schaefer III,  N. E. Schultz,  N. Shenvi,  A. C. Simmonett,  A. Sodt,  
 D. Stuck,  K. S. Thanthiriwatte,  V. Vanovschi,  Tao Wang,  A. Warshel,  
 C. F. Williams,  Q. Wu,  X. Xu,  W. Zhang

 Please cite Q-Chem as follows:
 Y. Shao et al., Mol. Phys. 113, 184-215 (2015)
 DOI: 10.1080/00268976.2014.952696

 Q-Chem 5.1.1 for Intel X86 EM64T Linux

 Parts of Q-Chem use Armadillo 8.300.2 (Tropical Shenanigans).
 http://arma.sourceforge.net/

 Q-Chem begins on Sat Oct  3 01:55:43 2020  

Host: n0088.mhg0
0

     Scratch files written to /local/scratch/users/yhljason/Li_wB97X-2TQZ_aug-cc-pcVQZ.inp20201003015134//
Input Ideriv = 0
Curr. Ideriv = -1
Max.  Ideriv = 0
Input Ideriv = 1
Curr. Ideriv = 0
Max.  Ideriv = 0

Checking the input file for inconsistencies... 	...done.

--------------------------------------------------------------
User input:
--------------------------------------------------------------
$molecule
0 2
Li
$end

$rem
jobtype sp
method wB97X-2(TQZ)
xc_grid 000099000590
basis aug-cc-pcVQZ
max_scf_cycles 200
thresh 14
scf_convergence 8
scf_algorithm gdm
symmetry false
sym_ignore true
unrestricted false
gen_scfman true
internal_stability_iter 15
internal_stability_davidson_iter 200
mem_total 128000
cc_memory 96000
cc_backend xm
mem_static 1500
n_frozen_core 0
$end



--------------------------------------------------------------
 ----------------------------------------------------------------
             Standard Nuclear Orientation (Angstroms)
    I     Atom           X                Y                Z
 ----------------------------------------------------------------
    1      Li      0.0000000000     0.0000000000     0.0000000000
 ----------------------------------------------------------------
 Nuclear Repulsion Energy =     0.0000000000 hartrees
 There are        2 alpha and        1 beta electrons
 Requested basis set is aug-cc-pCVQZ
 There are 29 shells and 109 basis functions

 Total QAlloc Memory Limit 128000 MB
 Mega-Array Size      1467 MB
 MEM_STATIC part      1500 MB
 A cutoff of  1.0D-14 yielded    435 shell pairs
 There are      6235 function pairs (     10234 Cartesian)
 
 -------------------------------------------------------
 OpenMP Integral Computing Module                       
 Release: version 1.0, May 2013, Q-Chem Inc. Pittsburgh 
 -------------------------------------------------------
 Integral Job Info:
 Integral job number is                      11
 Integral operator is                         1
 short-range coefficients              63615800
 long-range coefficients              100000000
 Omega coefficients                         300
 if combine SR and LR in K                    1
 Integral screening is                        0
 Integral computing path is                   2
 max size of driver memory is           3200000
 size of driver memory is               1704330
 size of scratch memory is             18852824
 max col of scratch BK array              50625
 max len of scratch array in speh3         2114
 max len of scratch index in speh4           50
 max int batch size is                      520
 min int batch size is                       52
 fixed nKL is                                52
 max L of basis functions is                  4
 order of int derivative is                   0
 number of shells is                         29
 number of basis is                         139
 number of cartesian basis is               139
 number of contracted shell pairs           435
 number of primitive shell pairs           1203
 maxK2 (contraction) of shell pair           81
 max number of K2 of shell pair               1
 max number of CS2 of shell pair             49
 max number of PS2 of shell pair            243
 mem total for path MDJ                  609409
 -------------------------------------------------------
 Smallest overlap matrix eigenvalue = 6.27E-05

 Scale SEOQF with 1.000000e-01/1.000000e-01/1.000000e-01

 Standard Electronic Orientation quadrupole field applied
 Guess from superposition of atomic densities
 Warning:  Energy on first SCF cycle will be non-variational
 SAD guess density has 3.000000 electrons

 -----------------------------------------------------------------------
  General SCF calculation program by
  Eric Jon Sundstrom, Paul Horn, Yuezhi Mao, Dmitri Zuev, Alec White,
  David Stuck, Shaama M.S., Shane Yost, Joonho Lee, David Small,
  Daniel Levine, Susi Lehtola, Hugh Burton, Evgeny Epifanovsky
 -----------------------------------------------------------------------
 Exchange:     0.6362 Hartree-Fock + 1.0000 wB97X-2(TQZ) + LR-HF
 Correlation:  1.0000 wB97X-2(TQZ)
 Using Euler-Maclaurin-Lebedev (99,590) quadrature formula
Running Object-Oriented ROKS (ROHF)
ROHF occupied orbitals are orthonormal
ROHF occupied orbitals are orthogonal to virtual orbitals
ROHF virtual orbitals are orthonormal
We will preform up to 15 macro iterations over saddle points until a stable solution is found
Energy prior to optimization (guess energy) = -7.393677113141
Begin Timing: Total SCF Calculation
Begin Timing: SCF Single Stationary Point Calculation
begin iterations for algorithm: GDM          
the SCF tolerance is set to 1.00e-08
    1      -7.3936771131      1.49e-02     00000  Normal BFGS step
    2      -7.3939552578      3.09e-03     00000  Normal BFGS step
    3      -7.3939700791      1.86e-03     00000  Normal BFGS step
    4      -7.3939782015      7.14e-04     00000  Normal BFGS step
    5      -7.3939803828      3.87e-04     00000  Normal BFGS step
    6      -7.3939807683      1.77e-04     00000  Normal BFGS step
    7      -7.3939808267      8.39e-05     00000  Normal BFGS step
    8      -7.3939808410      2.62e-05     00000  Normal BFGS step
    9      -7.3939808432      1.10e-05     00000  Normal BFGS step
   10      -7.3939808434      2.60e-06     00000  Normal BFGS step
   11      -7.3939808434      7.40e-07     00000  Normal BFGS step
   12      -7.3939808434      2.83e-07     00000  Normal BFGS step
   13      -7.3939808434      2.85e-07     00000  Normal BFGS step
   14      -7.3939808434      2.88e-07     00000  Normal BFGS step
   15      -7.3939808434      3.65e-07     00000  Normal BFGS step
   16      -7.3939808434      7.21e-07     00000  Normal BFGS step
   17      -7.3939808434      1.28e-06     00000  Normal BFGS step
   18      -7.3939808434      2.23e-06     00000  Normal BFGS step
   19      -7.3939808434      3.70e-06     00000  Normal BFGS step
   20      -7.3939808435      5.86e-06     00000  Normal BFGS step
   21      -7.3939808437      8.49e-06     00000  Normal BFGS step
   22      -7.3939808439      9.83e-06     00000  Normal BFGS step
   23      -7.3939808441      7.14e-06     00000  Normal BFGS step
   24      -7.3939808443      1.72e-06     00000  Normal BFGS step
   25      -7.3939808443      1.18e-07     00000  Normal BFGS step
   26      -7.3939808443      1.47e-07     00000  Normal BFGS step
   27      -7.3939808443      1.89e-07     00000  Normal BFGS step
   28      -7.3939808443      2.08e-06     00000  Normal BFGS step
   29      -7.3939808443      1.97e-06     00000  Normal BFGS step
   30      -7.3939808445      7.65e-06     00000  Normal BFGS step
   31      -7.3939808451      1.59e-05     00000  Normal BFGS step
   32      -7.3939808480      3.26e-05     00000  Normal BFGS step
   33      -7.3939808593      6.55e-05     00000 Line search: understep
   34      -7.3939813016      3.62e-04     00000 Line search: understep
   35      -7.3940129157      3.02e-03     00000 Line search: understep
   36      -7.3963747555      2.64e-02     00000  Dog-leg BFGS step
   37      -7.4018747924      4.86e-02     00000  Dog-leg BFGS step
   38      -7.4073687427      6.34e-02     00000  Dog-leg BFGS step
   39      -7.4249852942      8.29e-02     00000  Dog-leg BFGS step
   40      -7.4453908048      4.67e-02     00000  Dog-leg BFGS step
   41      -7.4587285142      1.54e-02     00000  Normal BFGS step
   42      -7.4591421026      1.98e-02     00000  Normal BFGS step
   43      -7.4610489917      6.41e-03     00000  Normal BFGS step
   44      -7.4610812489      6.63e-03     00000  Normal BFGS step
   45      -7.4612738644      2.33e-03     00000  Normal BFGS step
   46      -7.4612913975      1.04e-03     00000  Normal BFGS step
   47      -7.4612968358      1.69e-04     00000  Normal BFGS step
   48      -7.4612970516      7.54e-05     00000  Normal BFGS step
   49      -7.4612970948      2.91e-05     00000  Normal BFGS step
   50      -7.4612970977      1.39e-05     00000  Normal BFGS step
   51      -7.4612970983      4.36e-06     00000  Normal BFGS step
   52      -7.4612970984      1.49e-06     00000  Normal BFGS step
   53      -7.4612970984      7.59e-07     00000  Normal BFGS step
   54      -7.4612970984      3.76e-07     00000  Normal BFGS step
   55      -7.4612970984      2.78e-07     00000  Normal BFGS step
   56      -7.4612970984      1.95e-07     00000  Normal BFGS step
   57      -7.4612970984      8.98e-08     00000  Normal BFGS step
   58      -7.4612970984      4.93e-08     00000  Normal BFGS step
   59      -7.4612970984      1.45e-08     00000  Normal BFGS step
   60      -7.4612970984      6.12e-09     00000 Convergence criterion met
The disked orbital energies are calculated using alpha and beta Focks
Timing for Single Stationary Point: 74.00s (wall), 587.20s (cpu)
Begin Timing: Stability
===================================================
Beginning Test for Internal Stability
===================================================
generating davidson guess vectors based on koopmans-like excitations
    1      2.53e-01     00000 Davidson Iteration
    2      6.94e-01     00000 Davidson Iteration
    3      4.01e-01     00000 Davidson Iteration
    4      7.41e-02     00000 Davidson Iteration
    5      9.76e-03     00000 Davidson Iteration
    6      1.39e-03     00000 Davidson Iteration
    7      1.41e-04     00000 Davidson Iteration
    8      8.42e-06     00000 Davidson Converged
converged_eigenvalues
   0.1339
   0.1339
Threshold for negative eigenvalues: -1.0e-05
solution was a local minimum (stable)
===================================================
End Test for Internal Stability
===================================================
Our SCF solution is stable!
The disked orbital energies are calculated using alpha and beta Focks
Timing for Total SCF: 95.00s (wall), 757.55s (cpu)
 Total energy in the final basis set =       -7.4612970984
<S^2> =          0.750000000
    ==================================================
              The end of Object-Oriented SCFman       
    ==================================================
 
 Components of the MP2 correlation energy:
        aaaa  correlation energy =        -0.0003062742 au
        abab  correlation energy =        -0.0182352397 au
        bbbb  correlation energy =         0.0000000000 au
        non-Brillouin singles    =        -0.0000229412 au

 Total  MP2   correlation energy =                    -0.01856445 au
        MP2         total energy =                    -7.47986155 au
 
 --------------------------------------------------------------
 
                    Orbital Energies (a.u.)
 --------------------------------------------------------------
 
 Alpha MOs
 -- Occupied --
 -2.335  -0.197
 -- Virtual --
  0.019   0.019   0.019   0.018   0.061   0.061   0.061   0.087
  0.087   0.087   0.087   0.087   0.094   0.087   0.087   0.087
  0.221   0.221   0.221   0.221   0.221   0.221   0.221   0.238
  0.238   0.238   0.238   0.238   0.320   0.320   0.320   0.326
  0.523   0.523   0.523   0.523   0.523   0.523   0.523   0.523
  0.523   0.622   0.622   0.622   0.622   0.622   0.599   0.599
  0.599   0.599   0.599   0.599   0.599   0.843   0.843   0.843
  1.095   1.422   1.422   1.422   1.422   1.422   1.422   1.422
  1.526   1.526   1.526   1.526   1.526   1.443   1.443   1.443
  1.443   1.443   1.443   1.443   1.443   1.443   2.211   2.211
  2.211   3.283   6.795   6.795   6.795   9.123   9.123   9.123
  9.123   9.123  10.839  26.462  26.462  26.462  27.545  27.545
 27.545  27.545  27.545  27.545  27.545  38.723  38.723  38.723
 38.723  38.723  48.241
 
 Beta MOs
 -- Occupied --
 -2.325
 -- Virtual --
  0.198   0.028   0.028   0.028   0.031   0.129   0.129   0.129
  0.157   0.157   0.157   0.157   0.157   0.185   0.273   0.273
  0.273   0.342   0.342   0.342   0.342   0.342   0.342   0.342
  0.418   0.418   0.418   0.418   0.418   0.434   0.434   0.434
  0.464   0.702   0.702   0.702   0.702   0.702   0.702   0.702
  0.702   0.702   0.808   0.808   0.808   0.808   0.808   0.814
  0.814   0.814   0.814   0.814   0.814   0.814   0.972   0.972
  0.972   1.208   1.576   1.576   1.576   1.576   1.576   1.576
  1.576   1.605   1.605   1.605   1.605   1.605   1.654   1.654
  1.654   1.654   1.654   1.654   1.654   1.654   1.654   2.289
  2.289   2.289   3.341   6.806   6.806   6.806   9.126   9.126
  9.126   9.126   9.126  10.849  26.467  26.467  26.467  27.547
 27.547  27.547  27.547  27.547  27.547  27.547  38.727  38.727
 38.727  38.727  38.727  48.249
 --------------------------------------------------------------
 
          Ground-State Mulliken Net Atomic Charges

     Atom                 Charge (a.u.)
  ----------------------------------------
      1 Li                   -0.000000
  ----------------------------------------
  Sum of atomic charges =    -0.000000

 -----------------------------------------------------------------
                    Cartesian Multipole Moments
 -----------------------------------------------------------------
    Charge (ESU x 10^10)
                -0.0000
    Dipole Moment (Debye)
         X       0.0000      Y       0.0000      Z      -0.0000
       Tot       0.0000
    Quadrupole Moments (Debye-Ang)
        XX      -8.2210     XY      -0.0000     YY      -8.2210
        XZ      -0.0000     YZ       0.0000     ZZ      -8.2210
    Octopole Moments (Debye-Ang^2)
       XXX       0.0000    XXY       0.0000    XYY       0.0000
       YYY       0.0000    XXZ      -0.0000    XYZ      -0.0000
       YYZ      -0.0000    XZZ       0.0000    YZZ       0.0000
       ZZZ      -0.0000
    Hexadecapole Moments (Debye-Ang^3)
      XXXX     -40.9004   XXXY      -0.0000   XXYY     -13.6335
      XYYY      -0.0000   YYYY     -40.9004   XXXZ      -0.0000
      XXYZ       0.0000   XYYZ      -0.0000   YYYZ       0.0000
      XXZZ     -13.6335   XYZZ       0.0000   YYZZ     -13.6335
      XZZZ      -0.0000   YZZZ       0.0000   ZZZZ     -40.9004
 -----------------------------------------------------------------

 STANDARD THERMODYNAMIC QUANTITIES AT   298.15 K  AND     1.00 ATM

   Translational Enthalpy:        0.889 kcal/mol
   Rotational Enthalpy:           0.000 kcal/mol
   Vibrational Enthalpy:          0.000 kcal/mol
   gas constant (RT):             0.592 kcal/mol
   Translational Entropy:        31.798  cal/mol.K
   Rotational Entropy:            0.000  cal/mol.K
   Vibrational Entropy:           0.000  cal/mol.K

   Total Enthalpy:                1.481 kcal/mol
   Total Entropy:                31.798  cal/mol.K

 -----------------------------------------------------------------

Archival summary:
1\1\n0088.mhg0\SP\ROProcedureUnspecified\BasisUnspecified\i1(2)\yhljason\SatOct301:57:352020SatOct301:57:352020\0\\#,ROProcedureUnspecified,BasisUnspecified,\\0,2\Li\\\@

 Total job time:  112.87s(wall), 897.88s(cpu) 
 Sat Oct  3 01:57:35 2020

        *************************************************************
        *                                                           *
        *  Thank you very much for using Q-Chem.  Have a nice day.  *
        *                                                           *
        *************************************************************


 
User input: 2 of 83 of 8 
 
Q-Chem Developer Version!
                  Welcome to Q-Chem
     A Quantum Leap Into The Future Of Chemistry


 Q-Chem 5.1, Q-Chem, Inc., Pleasanton, CA (2018)

 Yihan Shao,  Zhengting Gan,  E. Epifanovsky,  A. T. B. Gilbert,  M. Wormit,  
 J. Kussmann,  A. W. Lange,  A. Behn,  Jia Deng,  Xintian Feng,  D. Ghosh,  
 M. Goldey,  P. R. Horn,  L. D. Jacobson,  I. Kaliman,  T. Kus,  A. Landau,  
 Jie Liu,  E. I. Proynov,  R. M. Richard,  R. P. Steele,  E. J. Sundstrom,  
 H. L. Woodcock III,  P. M. Zimmerman,  D. Zuev,  B. Albrecht,  E. Alguire,  
 S. A. Baeppler,  D. Barton,  Z. Benda,  Y. A. Bernard,  E. J. Berquist,  
 K. B. Bravaya,  H. Burton,  D. Casanova,  Chun-Min Chang,  Yunqing Chen,  
 A. Chien,  K. D. Closser,  M. P. Coons,  S. Coriani,  S. Dasgupta,  
 A. L. Dempwolff,  M. Diedenhofen,  Hainam Do,  R. G. Edgar,  Po-Tung Fang,  
 S. Faraji,  S. Fatehi,  Qingguo Feng,  K. D. Fenk,  J. Fosso-Tande,  
 Qinghui Ge,  A. Ghysels,  G. Gidofalvi,  J. Gomes,  J. Gonthier,  A. Gunina,  
 D. Hait,  M. W. D. Hanson-Heine,  P. H. P. Harbach,  A. W. Hauser,  
 J. E. Herr,  E. G. Hohenstein,  Z. C. Holden,  Kerwin Hui,  B. C. Huynh,  
 T.-C. Jagau,  Hyunjun Ji,  B. Kaduk,  K. Khistyaev,  Jaehoon Kim,  
 P. Klunzinger,  K. Koh,  D. Kosenkov,  L. Koulias,  T. Kowalczyk,  
 C. M. Krauter,  A. Kunitsa,  Ka Un Lao,  A. Laurent,  K. V. Lawler,  
 Joonho Lee,  D. Lefrancois,  S. Lehtola,  D. S. Levine,  Yi-Pei Li,  
 You-Sheng Lin,  Fenglai Liu,  E. Livshits,  A. Luenser,  P. Manohar,  
 E. Mansoor,  S. F. Manzer,  Shan-Ping Mao,  Yuezhi Mao,  N. Mardirossian,  
 A. V. Marenich,  T. Markovich,  L. A. Martinez-Martinez,  S. A. Maurer,  
 N. J. Mayhall,  S. C. McKenzie,  J.-M. Mewes,  A. F. Morrison,  
 J. W. Mullinax,  K. Nanda,  T. S. Nguyen-Beck,  R. Olivares-Amaya,  
 J. A. Parkhill,  T. M. Perrine,  F. Plasser,  P. Pokhilko,  S. Prager,  
 A. Prociuk,  E. Ramos,  D. R. Rehn,  F. Rob,  M. Schneider,  N. Sergueev,  
 S. M. Sharada,  S. Sharma,  D. W. Small,  T. Stauch,  T. Stein,  
 Yu-Chuan Su,  A. J. W. Thom,  A. Tkatchenko,  T. Tsuchimochi,  N. M. Tubman,  
 L. Vogt,  M. L. Vidal,  O. Vydrov,  M. A. Watson,  J. Wenzel,  
 M. de Wergifosse,  T. A. Wesolowski,  A. White,  J. Witte,  A. Yamada,  
 Jun Yang,  K. Yao,  S. Yeganeh,  S. R. Yost,  Zhi-Qiang You,  A. Zech,  
 Igor Ying Zhang,  Xing Zhang,  Yan Zhao,  Ying Zhu,  B. R. Brooks,  
 G. K. L. Chan,  C. J. Cramer,  M. S. Gordon,  W. J. Hehre,  A. Klamt,  
 M. W. Schmidt,  C. D. Sherrill,  D. G. Truhlar,  A. Aspuru-Guzik,  R. Baer,  
 A. T. Bell,  N. A. Besley,  Jeng-Da Chai,  A. E. DePrince, III,  
 R. A. DiStasio Jr.,  A. Dreuw,  B. D. Dunietz,  T. R. Furlani,  
 Chao-Ping Hsu,  Yousung Jung,  Jing Kong,  D. S. Lambrecht,  WanZhen Liang,  
 C. Ochsenfeld,  V. A. Rassolov,  L. V. Slipchenko,  J. E. Subotnik,  
 T. Van Voorhis,  J. M. Herbert,  A. I. Krylov,  P. M. W. Gill,  M. Head-Gordon

 Contributors to earlier versions of Q-Chem not listed above: 
 R. D. Adamson,  B. Austin,  J. Baker,  G. J. O. Beran,  K. Brandhorst,  
 S. T. Brown,  E. F. C. Byrd,  A. K. Chakraborty,  C.-L. Cheng,  
 Siu Hung Chien,  D. M. Chipman,  D. L. Crittenden,  H. Dachsel,  
 R. J. Doerksen,  A. D. Dutoi,  L. Fusti-Molnar,  W. A. Goddard III,  
 A. Golubeva-Zadorozhnaya,  S. R. Gwaltney,  G. Hawkins,  A. Heyden,  
 S. Hirata,  G. Kedziora,  F. J. Keil,  C. Kelley,  Jihan Kim,  R. A. King,  
 R. Z. Khaliullin,  P. P. Korambath,  W. Kurlancheek,  A. M. Lee,  M. S. Lee,  
 S. V. Levchenko,  Ching Yeh Lin,  D. Liotard,  R. C. Lochan,  I. Lotan,  
 P. E. Maslen,  N. Nair,  D. P. O'Neill,  D. Neuhauser,  E. Neuscamman,  
 C. M. Oana,  R. Olson,  B. Peters,  R. Peverati,  P. A. Pieniazek,  
 Y. M. Rhee,  J. Ritchie,  M. A. Rohrdanz,  E. Rosta,  N. J. Russ,  
 H. F. Schaefer III,  N. E. Schultz,  N. Shenvi,  A. C. Simmonett,  A. Sodt,  
 D. Stuck,  K. S. Thanthiriwatte,  V. Vanovschi,  Tao Wang,  A. Warshel,  
 C. F. Williams,  Q. Wu,  X. Xu,  W. Zhang

 Please cite Q-Chem as follows:
 Y. Shao et al., Mol. Phys. 113, 184-215 (2015)
 DOI: 10.1080/00268976.2014.952696

 Q-Chem 5.1.1 for Intel X86 EM64T Linux

 Parts of Q-Chem use Armadillo 8.300.2 (Tropical Shenanigans).
 http://arma.sourceforge.net/

 Q-Chem begins on Sat Oct  3 01:57:37 2020  

Host: n0088.mhg0
0

     Scratch files written to /local/scratch/users/yhljason/Li_wB97X-2TQZ_aug-cc-pcVQZ.inp20201003015134//
The previous job contains 0 fragments, simply inherited here
Input Ideriv = 0
Curr. Ideriv = -1
Max.  Ideriv = 0
Input Ideriv = 1
Curr. Ideriv = 0
Max.  Ideriv = 0

Checking the input file for inconsistencies... 	...done.

--------------------------------------------------------------
User input:
--------------------------------------------------------------
$molecule
read
$end

$rem

jobtype sp
method wB97X-2(TQZ)
xc_grid 000099000590
basis aug-cc-pcVQZ
max_scf_cycles 200
thresh 14
scf_convergence 8
mem_total 128000
cc_memory 96000
cc_backend xm
mem_static 1500
symmetry false
sym_ignore true
scf_guess read
unrestricted false
scf_algorithm gdm
n_frozen_core 0
$end

$multipole_field
XX 0.0001
$end


--------------------------------------------------------------
 ----------------------------------------------------------------
             Standard Nuclear Orientation (Angstroms)
    I     Atom           X                Y                Z
 ----------------------------------------------------------------
    1      Li      0.0000000000     0.0000000000     0.0000000000
 ----------------------------------------------------------------
 Nuclear Repulsion Energy =     0.0000000000 hartrees
 There are        2 alpha and        1 beta electrons
 Requested basis set is aug-cc-pCVQZ
 There are 29 shells and 109 basis functions

 Total QAlloc Memory Limit 128000 MB
 Mega-Array Size      1467 MB
 MEM_STATIC part      1500 MB
 Applying Cartesian multipole field
    Component          Value
    ---------          -----
     (2,0,0)        1.00000E-04
 A cutoff of  1.0D-14 yielded    435 shell pairs
 There are      6235 function pairs (     10234 Cartesian)
 
 -------------------------------------------------------
 OpenMP Integral Computing Module                       
 Release: version 1.0, May 2013, Q-Chem Inc. Pittsburgh 
 -------------------------------------------------------
 Integral Job Info:
 Integral job number is                      11
 Integral operator is                         1
 short-range coefficients              63615800
 long-range coefficients              100000000
 Omega coefficients                         300
 if combine SR and LR in K                    1
 Integral screening is                        0
 Integral computing path is                   2
 max size of driver memory is           3200000
 size of driver memory is               1704330
 size of scratch memory is             18852824
 max col of scratch BK array              50625
 max len of scratch array in speh3         2114
 max len of scratch index in speh4           50
 max int batch size is                      520
 min int batch size is                       52
 fixed nKL is                                52
 max L of basis functions is                  4
 order of int derivative is                   0
 number of shells is                         29
 number of basis is                         139
 number of cartesian basis is               139
 number of contracted shell pairs           435
 number of primitive shell pairs           1203
 maxK2 (contraction) of shell pair           81
 max number of K2 of shell pair               1
 max number of CS2 of shell pair             49
 max number of PS2 of shell pair            243
 mem total for path MDJ                  609409
 -------------------------------------------------------
 Smallest overlap matrix eigenvalue = 6.27E-05
 Guess MOs from SCF MO coefficient file
 Reading MOs from coefficient file
 Reading MOs from coefficient file
 Long-range K will be added via erf
 Coulomb attenuation parameter = 0.3 bohr**(-1)
 A restricted hybrid HF-DFT SCF calculation will be
 performed using Geometric Direct Minimization
 Exchange:     0.6362 Hartree-Fock + 1.0000 wB97X-2(TQZ) + LR-HF
 Correlation:  1.0000 wB97X-2(TQZ)
 Using Euler-Maclaurin-Lebedev (99,590) quadrature formula
 SCF converges when RMS gradient is below 1.0E-08
Using Q-Chem read-in guess as SCF_GUESS READ specified.

 using 8 threads for integral computing
 -------------------------------------------------------
 OpenMP Integral computing Module                
 Release: version 1.0, May 2013, Q-Chem Inc. Pittsburgh 
 -------------------------------------------------------
 using 8 threads for integral computing
 -------------------------------------------------------
 OpenMP Integral computing Module                
 Release: version 1.0, May 2013, Q-Chem Inc. Pittsburgh 
 -------------------------------------------------------
TIMEINFO->: J/JK contribution 5.87 sec.
 -------------------------------------------------------
 OpenMP BLAS3 based DFT computing Module                
 Release: version 1.0, May 2013, Q-Chem Inc. Pittsburgh 
 -------------------------------------------------------
 ---------------------------------------
  Cycle       Energy        RMS Gradient
 ---------------------------------------
    1      -7.4619083129      2.73E-03 Normal BFGS step
TIMEINFO->: J/JK contribution 7.56 sec.
    2      -7.4619124951      1.18E-03 Normal BFGS step
TIMEINFO->: J/JK contribution 7.36 sec.
    3      -7.4619134549      4.25E-04 Normal BFGS step
TIMEINFO->: J/JK contribution 6.95 sec.
    4      -7.4619134834      2.61E-04 Normal BFGS step
TIMEINFO->: J/JK contribution 6.96 sec.
    5      -7.4619135264      1.74E-05 Normal BFGS step
TIMEINFO->: J/JK contribution 6.81 sec.
    6      -7.4619135266      8.85E-06 Normal BFGS step
TIMEINFO->: J/JK contribution 6.53 sec.
    7      -7.4619135266      1.96E-07 Normal BFGS step
TIMEINFO->: J/JK contribution 6.55 sec.
    8      -7.4619135266      2.80E-08 Normal BFGS step
TIMEINFO->: J/JK contribution 5.96 sec.
   GDM::WARNING energy changes are now smaller than effective accuracy.
   GDM::        calculation will continue, but THRESH should be increased
   GDM::        or SCF_CONVERGENCE decreased.
   GDM::        effective_thresh =   2.190739256668905E-011
    9      -7.4619135266      1.47E-09 Convergence criterion met
 ---------------------------------------
 SCF time:  CPU 75.93 s  wall 9.63 s
 SCF   energy in the final basis set = -7.46191353
 Total energy in the final basis set = -7.46191353
 
 Components of the MP2 correlation energy:
        aaaa  correlation energy =        -0.0003048100 au
        abab  correlation energy =        -0.0182330787 au
        bbbb  correlation energy =         0.0000000000 au
        non-Brillouin singles    =        -0.0000227451 au

 Total  MP2   correlation energy =                    -0.01856063 au
        MP2         total energy =                    -7.48047416 au
 
 --------------------------------------------------------------
 
                    Orbital Energies (a.u.)
 --------------------------------------------------------------
 
 Alpha MOs
 -- Occupied --
 -2.336  -0.198
 -- Virtual --
  0.003   0.009   0.012   0.012   0.033   0.036   0.036   0.078
  0.078   0.078   0.081   0.081   0.090   0.096   0.099   0.099
  0.216   0.216   0.216   0.217   0.217   0.218   0.218   0.237
  0.237   0.237   0.238   0.238   0.311   0.313   0.313   0.325
  0.521   0.521   0.521   0.521   0.521   0.522   0.522   0.522
  0.522   0.599   0.600   0.600   0.600   0.600   0.600   0.600
  0.621   0.621   0.621   0.621   0.621   0.856   0.856   0.856
  1.097   1.422   1.422   1.422   1.422   1.422   1.422   1.422
  1.442   1.442   1.442   1.442   1.442   1.443   1.443   1.443
  1.443   1.530   1.530   1.530   1.530   1.530   2.213   2.213
  2.213   3.284   6.794   6.795   6.795   9.122   9.122   9.122
  9.122   9.122  10.839  26.461  26.461  26.461  27.545  27.545
 27.545  27.545  27.545  27.545  27.545  38.722  38.722  38.722
 38.722  38.722  48.240
 
 Beta MOs
 -- Occupied --
 -2.326
 -- Virtual --
  0.196   0.015   0.026   0.026   0.026   0.139   0.144   0.144
  0.157   0.157   0.157   0.159   0.159   0.183   0.259   0.259
  0.259   0.342   0.342   0.342   0.342   0.342   0.343   0.343
  0.416   0.416   0.416   0.416   0.416   0.435   0.435   0.435
  0.463   0.701   0.701   0.701   0.701   0.701   0.701   0.701
  0.702   0.702   0.812   0.812   0.812   0.812   0.812   0.813
  0.813   0.807   0.807   0.807   0.807   0.807   0.963   0.964
  0.964   1.206   1.575   1.575   1.575   1.575   1.575   1.575
  1.575   1.652   1.652   1.652   1.652   1.652   1.652   1.652
  1.652   1.652   1.602   1.602   1.602   1.602   1.602   2.287
  2.287   2.287   3.339   6.805   6.805   6.805   9.126   9.126
  9.126   9.126   9.126  10.848  26.467  26.467  26.467  27.546
 27.546  27.546  27.546  27.546  27.546  27.546  38.726  38.726
 38.726  38.726  38.726  48.248
 --------------------------------------------------------------
 
          Ground-State Mulliken Net Atomic Charges

     Atom                 Charge (a.u.)
  ----------------------------------------
      1 Li                   -0.000000
  ----------------------------------------
  Sum of atomic charges =    -0.000000

 -----------------------------------------------------------------
                    Cartesian Multipole Moments
 -----------------------------------------------------------------
    Charge (ESU x 10^10)
                -0.0000
    Dipole Moment (Debye)
         X      -0.0000      Y      -0.0000      Z       0.0000
       Tot       0.0000
    Quadrupole Moments (Debye-Ang)
        XX      -8.3632     XY      -0.0000     YY      -8.2322
        XZ       0.0000     YZ       0.0000     ZZ      -8.2322
    Octopole Moments (Debye-Ang^2)
       XXX       0.0000    XXY       0.0000    XYY       0.0000
       YYY       0.0000    XXZ      -0.0000    XYZ       0.0000
       YYZ      -0.0000    XZZ       0.0000    YZZ       0.0000
       ZZZ      -0.0000
    Hexadecapole Moments (Debye-Ang^3)
      XXXX     -42.7711   XXXY      -0.0000   XXYY     -13.9766
      XYYY      -0.0000   YYYY     -41.0994   XXXZ       0.0000
      XXYZ       0.0000   XYYZ       0.0000   YYYZ       0.0000
      XXZZ     -13.9766   XYZZ      -0.0000   YYZZ     -13.6998
      XZZZ       0.0000   YZZZ       0.0000   ZZZZ     -41.0994
 -----------------------------------------------------------------

 STANDARD THERMODYNAMIC QUANTITIES AT   298.15 K  AND     1.00 ATM

   Translational Enthalpy:        0.889 kcal/mol
   Rotational Enthalpy:           0.000 kcal/mol
   Vibrational Enthalpy:          0.000 kcal/mol
   gas constant (RT):             0.592 kcal/mol
   Translational Entropy:        31.798  cal/mol.K
   Rotational Entropy:            0.000  cal/mol.K
   Vibrational Entropy:           0.000  cal/mol.K

   Total Enthalpy:                1.481 kcal/mol
   Total Entropy:                31.798  cal/mol.K

 -----------------------------------------------------------------

Archival summary:
1\1\n0088.mhg0\SP\ROProcedureUnspecified\BasisUnspecified\i1(2)\yhljason\SatOct301:58:042020SatOct301:58:042020\0\\#,ROProcedureUnspecified,BasisUnspecified,\\0,2\Li\\\@

 Total job time:  26.78s(wall), 212.68s(cpu) 
 Sat Oct  3 01:58:04 2020

        *************************************************************
        *                                                           *
        *  Thank you very much for using Q-Chem.  Have a nice day.  *
        *                                                           *
        *************************************************************


 
User input: 4 of 8 
 
Q-Chem Developer Version!
                  Welcome to Q-Chem
     A Quantum Leap Into The Future Of Chemistry


 Q-Chem 5.1, Q-Chem, Inc., Pleasanton, CA (2018)

 Yihan Shao,  Zhengting Gan,  E. Epifanovsky,  A. T. B. Gilbert,  M. Wormit,  
 J. Kussmann,  A. W. Lange,  A. Behn,  Jia Deng,  Xintian Feng,  D. Ghosh,  
 M. Goldey,  P. R. Horn,  L. D. Jacobson,  I. Kaliman,  T. Kus,  A. Landau,  
 Jie Liu,  E. I. Proynov,  R. M. Richard,  R. P. Steele,  E. J. Sundstrom,  
 H. L. Woodcock III,  P. M. Zimmerman,  D. Zuev,  B. Albrecht,  E. Alguire,  
 S. A. Baeppler,  D. Barton,  Z. Benda,  Y. A. Bernard,  E. J. Berquist,  
 K. B. Bravaya,  H. Burton,  D. Casanova,  Chun-Min Chang,  Yunqing Chen,  
 A. Chien,  K. D. Closser,  M. P. Coons,  S. Coriani,  S. Dasgupta,  
 A. L. Dempwolff,  M. Diedenhofen,  Hainam Do,  R. G. Edgar,  Po-Tung Fang,  
 S. Faraji,  S. Fatehi,  Qingguo Feng,  K. D. Fenk,  J. Fosso-Tande,  
 Qinghui Ge,  A. Ghysels,  G. Gidofalvi,  J. Gomes,  J. Gonthier,  A. Gunina,  
 D. Hait,  M. W. D. Hanson-Heine,  P. H. P. Harbach,  A. W. Hauser,  
 J. E. Herr,  E. G. Hohenstein,  Z. C. Holden,  Kerwin Hui,  B. C. Huynh,  
 T.-C. Jagau,  Hyunjun Ji,  B. Kaduk,  K. Khistyaev,  Jaehoon Kim,  
 P. Klunzinger,  K. Koh,  D. Kosenkov,  L. Koulias,  T. Kowalczyk,  
 C. M. Krauter,  A. Kunitsa,  Ka Un Lao,  A. Laurent,  K. V. Lawler,  
 Joonho Lee,  D. Lefrancois,  S. Lehtola,  D. S. Levine,  Yi-Pei Li,  
 You-Sheng Lin,  Fenglai Liu,  E. Livshits,  A. Luenser,  P. Manohar,  
 E. Mansoor,  S. F. Manzer,  Shan-Ping Mao,  Yuezhi Mao,  N. Mardirossian,  
 A. V. Marenich,  T. Markovich,  L. A. Martinez-Martinez,  S. A. Maurer,  
 N. J. Mayhall,  S. C. McKenzie,  J.-M. Mewes,  A. F. Morrison,  
 J. W. Mullinax,  K. Nanda,  T. S. Nguyen-Beck,  R. Olivares-Amaya,  
 J. A. Parkhill,  T. M. Perrine,  F. Plasser,  P. Pokhilko,  S. Prager,  
 A. Prociuk,  E. Ramos,  D. R. Rehn,  F. Rob,  M. Schneider,  N. Sergueev,  
 S. M. Sharada,  S. Sharma,  D. W. Small,  T. Stauch,  T. Stein,  
 Yu-Chuan Su,  A. J. W. Thom,  A. Tkatchenko,  T. Tsuchimochi,  N. M. Tubman,  
 L. Vogt,  M. L. Vidal,  O. Vydrov,  M. A. Watson,  J. Wenzel,  
 M. de Wergifosse,  T. A. Wesolowski,  A. White,  J. Witte,  A. Yamada,  
 Jun Yang,  K. Yao,  S. Yeganeh,  S. R. Yost,  Zhi-Qiang You,  A. Zech,  
 Igor Ying Zhang,  Xing Zhang,  Yan Zhao,  Ying Zhu,  B. R. Brooks,  
 G. K. L. Chan,  C. J. Cramer,  M. S. Gordon,  W. J. Hehre,  A. Klamt,  
 M. W. Schmidt,  C. D. Sherrill,  D. G. Truhlar,  A. Aspuru-Guzik,  R. Baer,  
 A. T. Bell,  N. A. Besley,  Jeng-Da Chai,  A. E. DePrince, III,  
 R. A. DiStasio Jr.,  A. Dreuw,  B. D. Dunietz,  T. R. Furlani,  
 Chao-Ping Hsu,  Yousung Jung,  Jing Kong,  D. S. Lambrecht,  WanZhen Liang,  
 C. Ochsenfeld,  V. A. Rassolov,  L. V. Slipchenko,  J. E. Subotnik,  
 T. Van Voorhis,  J. M. Herbert,  A. I. Krylov,  P. M. W. Gill,  M. Head-Gordon

 Contributors to earlier versions of Q-Chem not listed above: 
 R. D. Adamson,  B. Austin,  J. Baker,  G. J. O. Beran,  K. Brandhorst,  
 S. T. Brown,  E. F. C. Byrd,  A. K. Chakraborty,  C.-L. Cheng,  
 Siu Hung Chien,  D. M. Chipman,  D. L. Crittenden,  H. Dachsel,  
 R. J. Doerksen,  A. D. Dutoi,  L. Fusti-Molnar,  W. A. Goddard III,  
 A. Golubeva-Zadorozhnaya,  S. R. Gwaltney,  G. Hawkins,  A. Heyden,  
 S. Hirata,  G. Kedziora,  F. J. Keil,  C. Kelley,  Jihan Kim,  R. A. King,  
 R. Z. Khaliullin,  P. P. Korambath,  W. Kurlancheek,  A. M. Lee,  M. S. Lee,  
 S. V. Levchenko,  Ching Yeh Lin,  D. Liotard,  R. C. Lochan,  I. Lotan,  
 P. E. Maslen,  N. Nair,  D. P. O'Neill,  D. Neuhauser,  E. Neuscamman,  
 C. M. Oana,  R. Olson,  B. Peters,  R. Peverati,  P. A. Pieniazek,  
 Y. M. Rhee,  J. Ritchie,  M. A. Rohrdanz,  E. Rosta,  N. J. Russ,  
 H. F. Schaefer III,  N. E. Schultz,  N. Shenvi,  A. C. Simmonett,  A. Sodt,  
 D. Stuck,  K. S. Thanthiriwatte,  V. Vanovschi,  Tao Wang,  A. Warshel,  
 C. F. Williams,  Q. Wu,  X. Xu,  W. Zhang

 Please cite Q-Chem as follows:
 Y. Shao et al., Mol. Phys. 113, 184-215 (2015)
 DOI: 10.1080/00268976.2014.952696

 Q-Chem 5.1.1 for Intel X86 EM64T Linux

 Parts of Q-Chem use Armadillo 8.300.2 (Tropical Shenanigans).
 http://arma.sourceforge.net/

 Q-Chem begins on Sat Oct  3 01:58:04 2020  

Host: n0088.mhg0
0

     Scratch files written to /local/scratch/users/yhljason/Li_wB97X-2TQZ_aug-cc-pcVQZ.inp20201003015134//
The previous job contains 0 fragments, simply inherited here
Input Ideriv = 0
Curr. Ideriv = -1
Max.  Ideriv = 0
Input Ideriv = 1
Curr. Ideriv = 0
Max.  Ideriv = 0

Checking the input file for inconsistencies... 	...done.

--------------------------------------------------------------
User input:
--------------------------------------------------------------
$molecule
read
$end

$rem

jobtype sp
method wB97X-2(TQZ)
xc_grid 000099000590
basis aug-cc-pcVQZ
max_scf_cycles 200
thresh 14
scf_convergence 8
mem_total 128000
cc_memory 96000
cc_backend xm
mem_static 1500
symmetry false
sym_ignore true
scf_guess read
unrestricted false
scf_algorithm gdm
n_frozen_core 0
$end

$multipole_field
XX -0.0001
$end


--------------------------------------------------------------
 ----------------------------------------------------------------
             Standard Nuclear Orientation (Angstroms)
    I     Atom           X                Y                Z
 ----------------------------------------------------------------
    1      Li      0.0000000000     0.0000000000     0.0000000000
 ----------------------------------------------------------------
 Nuclear Repulsion Energy =     0.0000000000 hartrees
 There are        2 alpha and        1 beta electrons
 Requested basis set is aug-cc-pCVQZ
 There are 29 shells and 109 basis functions

 Total QAlloc Memory Limit 128000 MB
 Mega-Array Size      1467 MB
 MEM_STATIC part      1500 MB
 Applying Cartesian multipole field
    Component          Value
    ---------          -----
     (2,0,0)       -1.00000E-04
 A cutoff of  1.0D-14 yielded    435 shell pairs
 There are      6235 function pairs (     10234 Cartesian)
 
 -------------------------------------------------------
 OpenMP Integral Computing Module                       
 Release: version 1.0, May 2013, Q-Chem Inc. Pittsburgh 
 -------------------------------------------------------
 Integral Job Info:
 Integral job number is                      11
 Integral operator is                         1
 short-range coefficients              63615800
 long-range coefficients              100000000
 Omega coefficients                         300
 if combine SR and LR in K                    1
 Integral screening is                        0
 Integral computing path is                   2
 max size of driver memory is           3200000
 size of driver memory is               1704330
 size of scratch memory is             18852824
 max col of scratch BK array              50625
 max len of scratch array in speh3         2114
 max len of scratch index in speh4           50
 max int batch size is                      520
 min int batch size is                       52
 fixed nKL is                                52
 max L of basis functions is                  4
 order of int derivative is                   0
 number of shells is                         29
 number of basis is                         139
 number of cartesian basis is               139
 number of contracted shell pairs           435
 number of primitive shell pairs           1203
 maxK2 (contraction) of shell pair           81
 max number of K2 of shell pair               1
 max number of CS2 of shell pair             49
 max number of PS2 of shell pair            243
 mem total for path MDJ                  609409
 -------------------------------------------------------
 Smallest overlap matrix eigenvalue = 6.27E-05
 Guess MOs from SCF MO coefficient file
 Reading MOs from coefficient file
 Reading MOs from coefficient file
 Long-range K will be added via erf
 Coulomb attenuation parameter = 0.3 bohr**(-1)
 A restricted hybrid HF-DFT SCF calculation will be
 performed using Geometric Direct Minimization
 Exchange:     0.6362 Hartree-Fock + 1.0000 wB97X-2(TQZ) + LR-HF
 Correlation:  1.0000 wB97X-2(TQZ)
 Using Euler-Maclaurin-Lebedev (99,590) quadrature formula
 SCF converges when RMS gradient is below 1.0E-08
Using Q-Chem read-in guess as SCF_GUESS READ specified.

 using 8 threads for integral computing
 -------------------------------------------------------
 OpenMP Integral computing Module                
 Release: version 1.0, May 2013, Q-Chem Inc. Pittsburgh 
 -------------------------------------------------------
 using 8 threads for integral computing
 -------------------------------------------------------
 OpenMP Integral computing Module                
 Release: version 1.0, May 2013, Q-Chem Inc. Pittsburgh 
 -------------------------------------------------------
TIMEINFO->: J/JK contribution 7.46 sec.
 -------------------------------------------------------
 OpenMP BLAS3 based DFT computing Module                
 Release: version 1.0, May 2013, Q-Chem Inc. Pittsburgh 
 -------------------------------------------------------
 ---------------------------------------
  Cycle       Energy        RMS Gradient
 ---------------------------------------
    1      -7.4606699577      4.89E-03 Normal BFGS step
TIMEINFO->: J/JK contribution 7.53 sec.
    2      -7.4606863303      3.11E-03 Normal BFGS step
TIMEINFO->: J/JK contribution 7.34 sec.
    3      -7.4606900586      1.53E-03 Normal BFGS step
TIMEINFO->: J/JK contribution 7.00 sec.
    4      -7.4606905729      6.09E-04 Normal BFGS step
TIMEINFO->: J/JK contribution 7.05 sec.
    5      -7.4606908310      6.11E-05 Normal BFGS step
TIMEINFO->: J/JK contribution 6.88 sec.
    6      -7.4606908327      1.79E-05 Normal BFGS step
TIMEINFO->: J/JK contribution 6.75 sec.
    7      -7.4606908329      1.31E-06 Normal BFGS step
TIMEINFO->: J/JK contribution 6.33 sec.
    8      -7.4606908329      1.82E-07 Normal BFGS step
TIMEINFO->: J/JK contribution 5.99 sec.
    9      -7.4606908329      1.04E-08 Normal BFGS step
TIMEINFO->: J/JK contribution 5.81 sec.
   GDM::WARNING energy changes are now smaller than effective accuracy.
   GDM::        calculation will continue, but THRESH should be increased
   GDM::        or SCF_CONVERGENCE decreased.
   GDM::        effective_thresh =   2.880172905728173E-010
   10      -7.4606908329      1.06E-09 Convergence criterion met
 ---------------------------------------
 SCF time:  CPU 85.14 s  wall 10.73 s
 SCF   energy in the final basis set = -7.46069083
 Total energy in the final basis set = -7.46069083
 
 Components of the MP2 correlation energy:
        aaaa  correlation energy =        -0.0003076693 au
        abab  correlation energy =        -0.0182373025 au
        bbbb  correlation energy =         0.0000000000 au
        non-Brillouin singles    =        -0.0000231300 au

 Total  MP2   correlation energy =                    -0.01856810 au
        MP2         total energy =                    -7.47925893 au
 
 --------------------------------------------------------------
 
                    Orbital Energies (a.u.)
 --------------------------------------------------------------
 
 Alpha MOs
 -- Occupied --
 -2.334  -0.197
 -- Virtual --
  0.021   0.021   0.023   0.028   0.040   0.040   0.045   0.083
  0.083   0.085   0.085   0.086   0.096   0.103   0.103   0.107
  0.219   0.219   0.220   0.220   0.221   0.221   0.221   0.240
  0.240   0.241   0.241   0.241   0.315   0.315   0.317   0.328
  0.523   0.523   0.524   0.524   0.524   0.524   0.524   0.524
  0.524   0.601   0.601   0.602   0.602   0.602   0.602   0.602
  0.622   0.622   0.623   0.623   0.623   0.858   0.858   0.858
  1.099   1.423   1.423   1.423   1.423   1.424   1.424   1.424
  1.444   1.444   1.444   1.444   1.444   1.444   1.444   1.444
  1.444   1.531   1.531   1.531   1.531   1.531   2.214   2.214
  2.215   3.285   6.796   6.796   6.796   9.124   9.124   9.124
  9.124   9.124  10.840  26.463  26.463  26.463  27.546  27.546
 27.546  27.546  27.546  27.546  27.546  38.724  38.724  38.724
 38.724  38.724  48.242
 
 Beta MOs
 -- Occupied --
 -2.325
 -- Virtual --
  0.199   0.036   0.036   0.040   0.047   0.148   0.148   0.152
  0.161   0.161   0.163   0.163   0.164   0.187   0.260   0.260
  0.260   0.344   0.344   0.345   0.345   0.345   0.345   0.345
  0.418   0.418   0.418   0.418   0.418   0.437   0.437   0.438
  0.465   0.703   0.703   0.703   0.703   0.703   0.703   0.703
  0.703   0.703   0.814   0.814   0.814   0.814   0.814   0.814
  0.814   0.809   0.809   0.809   0.809   0.809   0.966   0.966
  0.966   1.207   1.577   1.577   1.577   1.577   1.577   1.577
  1.577   1.654   1.654   1.654   1.654   1.654   1.654   1.654
  1.654   1.654   1.604   1.604   1.604   1.604   1.604   2.289
  2.289   2.289   3.341   6.806   6.806   6.806   9.127   9.127
  9.127   9.127   9.127  10.849  26.468  26.468  26.468  27.547
 27.547  27.547  27.547  27.547  27.547  27.547  38.727  38.727
 38.727  38.727  38.727  48.250
 --------------------------------------------------------------
 
          Ground-State Mulliken Net Atomic Charges

     Atom                 Charge (a.u.)
  ----------------------------------------
      1 Li                   -0.000000
  ----------------------------------------
  Sum of atomic charges =    -0.000000

 -----------------------------------------------------------------
                    Cartesian Multipole Moments
 -----------------------------------------------------------------
    Charge (ESU x 10^10)
                -0.0000
    Dipole Moment (Debye)
         X       0.0000      Y      -0.0000      Z       0.0000
       Tot       0.0000
    Quadrupole Moments (Debye-Ang)
        XX      -8.0896     XY      -0.0000     YY      -8.2112
        XZ      -0.0000     YZ       0.0000     ZZ      -8.2112
    Octopole Moments (Debye-Ang^2)
       XXX       0.0000    XXY       0.0000    XYY       0.0000
       YYY       0.0000    XXZ      -0.0000    XYZ      -0.0000
       YYZ      -0.0000    XZZ       0.0000    YZZ       0.0000
       ZZZ      -0.0000
    Hexadecapole Moments (Debye-Ang^3)
      XXXX     -39.2285   XXXY      -0.0000   XXYY     -13.3247
      XYYY      -0.0000   YYYY     -40.7290   XXXZ      -0.0000
      XXYZ       0.0000   XYYZ      -0.0000   YYYZ       0.0000
      XXZZ     -13.3247   XYZZ      -0.0000   YYZZ     -13.5763
      XZZZ      -0.0000   YZZZ       0.0000   ZZZZ     -40.7290
 -----------------------------------------------------------------

 STANDARD THERMODYNAMIC QUANTITIES AT   298.15 K  AND     1.00 ATM

   Translational Enthalpy:        0.889 kcal/mol
   Rotational Enthalpy:           0.000 kcal/mol
   Vibrational Enthalpy:          0.000 kcal/mol
   gas constant (RT):             0.592 kcal/mol
   Translational Entropy:        31.798  cal/mol.K
   Rotational Entropy:            0.000  cal/mol.K
   Vibrational Entropy:           0.000  cal/mol.K

   Total Enthalpy:                1.481 kcal/mol
   Total Entropy:                31.798  cal/mol.K

 -----------------------------------------------------------------

Archival summary:
1\1\n0088.mhg0\SP\ROProcedureUnspecified\BasisUnspecified\i1(2)\yhljason\SatOct301:58:312020SatOct301:58:312020\0\\#,ROProcedureUnspecified,BasisUnspecified,\\0,2\Li\\\@

 Total job time:  27.46s(wall), 218.65s(cpu) 
 Sat Oct  3 01:58:31 2020

        *************************************************************
        *                                                           *
        *  Thank you very much for using Q-Chem.  Have a nice day.  *
        *                                                           *
        *************************************************************


 
User input: 5 of 8 
 
Q-Chem Developer Version!
                  Welcome to Q-Chem
     A Quantum Leap Into The Future Of Chemistry


 Q-Chem 5.1, Q-Chem, Inc., Pleasanton, CA (2018)

 Yihan Shao,  Zhengting Gan,  E. Epifanovsky,  A. T. B. Gilbert,  M. Wormit,  
 J. Kussmann,  A. W. Lange,  A. Behn,  Jia Deng,  Xintian Feng,  D. Ghosh,  
 M. Goldey,  P. R. Horn,  L. D. Jacobson,  I. Kaliman,  T. Kus,  A. Landau,  
 Jie Liu,  E. I. Proynov,  R. M. Richard,  R. P. Steele,  E. J. Sundstrom,  
 H. L. Woodcock III,  P. M. Zimmerman,  D. Zuev,  B. Albrecht,  E. Alguire,  
 S. A. Baeppler,  D. Barton,  Z. Benda,  Y. A. Bernard,  E. J. Berquist,  
 K. B. Bravaya,  H. Burton,  D. Casanova,  Chun-Min Chang,  Yunqing Chen,  
 A. Chien,  K. D. Closser,  M. P. Coons,  S. Coriani,  S. Dasgupta,  
 A. L. Dempwolff,  M. Diedenhofen,  Hainam Do,  R. G. Edgar,  Po-Tung Fang,  
 S. Faraji,  S. Fatehi,  Qingguo Feng,  K. D. Fenk,  J. Fosso-Tande,  
 Qinghui Ge,  A. Ghysels,  G. Gidofalvi,  J. Gomes,  J. Gonthier,  A. Gunina,  
 D. Hait,  M. W. D. Hanson-Heine,  P. H. P. Harbach,  A. W. Hauser,  
 J. E. Herr,  E. G. Hohenstein,  Z. C. Holden,  Kerwin Hui,  B. C. Huynh,  
 T.-C. Jagau,  Hyunjun Ji,  B. Kaduk,  K. Khistyaev,  Jaehoon Kim,  
 P. Klunzinger,  K. Koh,  D. Kosenkov,  L. Koulias,  T. Kowalczyk,  
 C. M. Krauter,  A. Kunitsa,  Ka Un Lao,  A. Laurent,  K. V. Lawler,  
 Joonho Lee,  D. Lefrancois,  S. Lehtola,  D. S. Levine,  Yi-Pei Li,  
 You-Sheng Lin,  Fenglai Liu,  E. Livshits,  A. Luenser,  P. Manohar,  
 E. Mansoor,  S. F. Manzer,  Shan-Ping Mao,  Yuezhi Mao,  N. Mardirossian,  
 A. V. Marenich,  T. Markovich,  L. A. Martinez-Martinez,  S. A. Maurer,  
 N. J. Mayhall,  S. C. McKenzie,  J.-M. Mewes,  A. F. Morrison,  
 J. W. Mullinax,  K. Nanda,  T. S. Nguyen-Beck,  R. Olivares-Amaya,  
 J. A. Parkhill,  T. M. Perrine,  F. Plasser,  P. Pokhilko,  S. Prager,  
 A. Prociuk,  E. Ramos,  D. R. Rehn,  F. Rob,  M. Schneider,  N. Sergueev,  
 S. M. Sharada,  S. Sharma,  D. W. Small,  T. Stauch,  T. Stein,  
 Yu-Chuan Su,  A. J. W. Thom,  A. Tkatchenko,  T. Tsuchimochi,  N. M. Tubman,  
 L. Vogt,  M. L. Vidal,  O. Vydrov,  M. A. Watson,  J. Wenzel,  
 M. de Wergifosse,  T. A. Wesolowski,  A. White,  J. Witte,  A. Yamada,  
 Jun Yang,  K. Yao,  S. Yeganeh,  S. R. Yost,  Zhi-Qiang You,  A. Zech,  
 Igor Ying Zhang,  Xing Zhang,  Yan Zhao,  Ying Zhu,  B. R. Brooks,  
 G. K. L. Chan,  C. J. Cramer,  M. S. Gordon,  W. J. Hehre,  A. Klamt,  
 M. W. Schmidt,  C. D. Sherrill,  D. G. Truhlar,  A. Aspuru-Guzik,  R. Baer,  
 A. T. Bell,  N. A. Besley,  Jeng-Da Chai,  A. E. DePrince, III,  
 R. A. DiStasio Jr.,  A. Dreuw,  B. D. Dunietz,  T. R. Furlani,  
 Chao-Ping Hsu,  Yousung Jung,  Jing Kong,  D. S. Lambrecht,  WanZhen Liang,  
 C. Ochsenfeld,  V. A. Rassolov,  L. V. Slipchenko,  J. E. Subotnik,  
 T. Van Voorhis,  J. M. Herbert,  A. I. Krylov,  P. M. W. Gill,  M. Head-Gordon

 Contributors to earlier versions of Q-Chem not listed above: 
 R. D. Adamson,  B. Austin,  J. Baker,  G. J. O. Beran,  K. Brandhorst,  
 S. T. Brown,  E. F. C. Byrd,  A. K. Chakraborty,  C.-L. Cheng,  
 Siu Hung Chien,  D. M. Chipman,  D. L. Crittenden,  H. Dachsel,  
 R. J. Doerksen,  A. D. Dutoi,  L. Fusti-Molnar,  W. A. Goddard III,  
 A. Golubeva-Zadorozhnaya,  S. R. Gwaltney,  G. Hawkins,  A. Heyden,  
 S. Hirata,  G. Kedziora,  F. J. Keil,  C. Kelley,  Jihan Kim,  R. A. King,  
 R. Z. Khaliullin,  P. P. Korambath,  W. Kurlancheek,  A. M. Lee,  M. S. Lee,  
 S. V. Levchenko,  Ching Yeh Lin,  D. Liotard,  R. C. Lochan,  I. Lotan,  
 P. E. Maslen,  N. Nair,  D. P. O'Neill,  D. Neuhauser,  E. Neuscamman,  
 C. M. Oana,  R. Olson,  B. Peters,  R. Peverati,  P. A. Pieniazek,  
 Y. M. Rhee,  J. Ritchie,  M. A. Rohrdanz,  E. Rosta,  N. J. Russ,  
 H. F. Schaefer III,  N. E. Schultz,  N. Shenvi,  A. C. Simmonett,  A. Sodt,  
 D. Stuck,  K. S. Thanthiriwatte,  V. Vanovschi,  Tao Wang,  A. Warshel,  
 C. F. Williams,  Q. Wu,  X. Xu,  W. Zhang

 Please cite Q-Chem as follows:
 Y. Shao et al., Mol. Phys. 113, 184-215 (2015)
 DOI: 10.1080/00268976.2014.952696

 Q-Chem 5.1.1 for Intel X86 EM64T Linux

 Parts of Q-Chem use Armadillo 8.300.2 (Tropical Shenanigans).
 http://arma.sourceforge.net/

 Q-Chem begins on Sat Oct  3 01:58:31 2020  

Host: n0088.mhg0
0

     Scratch files written to /local/scratch/users/yhljason/Li_wB97X-2TQZ_aug-cc-pcVQZ.inp20201003015134//
The previous job contains 0 fragments, simply inherited here
Input Ideriv = 0
Curr. Ideriv = -1
Max.  Ideriv = 0
Input Ideriv = 1
Curr. Ideriv = 0
Max.  Ideriv = 0

Checking the input file for inconsistencies... 	...done.

--------------------------------------------------------------
User input:
--------------------------------------------------------------
$molecule
read
$end

$rem

jobtype sp
method wB97X-2(TQZ)
xc_grid 000099000590
basis aug-cc-pcVQZ
max_scf_cycles 200
thresh 14
scf_convergence 8
mem_total 128000
cc_memory 96000
cc_backend xm
mem_static 1500
symmetry false
sym_ignore true
scf_guess read
unrestricted false
scf_algorithm gdm
n_frozen_core 0
$end

$multipole_field
YY 0.0001
$end


--------------------------------------------------------------
 ----------------------------------------------------------------
             Standard Nuclear Orientation (Angstroms)
    I     Atom           X                Y                Z
 ----------------------------------------------------------------
    1      Li      0.0000000000     0.0000000000     0.0000000000
 ----------------------------------------------------------------
 Nuclear Repulsion Energy =     0.0000000000 hartrees
 There are        2 alpha and        1 beta electrons
 Requested basis set is aug-cc-pCVQZ
 There are 29 shells and 109 basis functions

 Total QAlloc Memory Limit 128000 MB
 Mega-Array Size      1467 MB
 MEM_STATIC part      1500 MB
 Applying Cartesian multipole field
    Component          Value
    ---------          -----
     (0,2,0)        1.00000E-04
 A cutoff of  1.0D-14 yielded    435 shell pairs
 There are      6235 function pairs (     10234 Cartesian)
 
 -------------------------------------------------------
 OpenMP Integral Computing Module                       
 Release: version 1.0, May 2013, Q-Chem Inc. Pittsburgh 
 -------------------------------------------------------
 Integral Job Info:
 Integral job number is                      11
 Integral operator is                         1
 short-range coefficients              63615800
 long-range coefficients              100000000
 Omega coefficients                         300
 if combine SR and LR in K                    1
 Integral screening is                        0
 Integral computing path is                   2
 max size of driver memory is           3200000
 size of driver memory is               1704330
 size of scratch memory is             18852824
 max col of scratch BK array              50625
 max len of scratch array in speh3         2114
 max len of scratch index in speh4           50
 max int batch size is                      520
 min int batch size is                       52
 fixed nKL is                                52
 max L of basis functions is                  4
 order of int derivative is                   0
 number of shells is                         29
 number of basis is                         139
 number of cartesian basis is               139
 number of contracted shell pairs           435
 number of primitive shell pairs           1203
 maxK2 (contraction) of shell pair           81
 max number of K2 of shell pair               1
 max number of CS2 of shell pair             49
 max number of PS2 of shell pair            243
 mem total for path MDJ                  609409
 -------------------------------------------------------
 Smallest overlap matrix eigenvalue = 6.27E-05
 Guess MOs from SCF MO coefficient file
 Reading MOs from coefficient file
 Reading MOs from coefficient file
 Long-range K will be added via erf
 Coulomb attenuation parameter = 0.3 bohr**(-1)
 A restricted hybrid HF-DFT SCF calculation will be
 performed using Geometric Direct Minimization
 Exchange:     0.6362 Hartree-Fock + 1.0000 wB97X-2(TQZ) + LR-HF
 Correlation:  1.0000 wB97X-2(TQZ)
 Using Euler-Maclaurin-Lebedev (99,590) quadrature formula
 SCF converges when RMS gradient is below 1.0E-08
Using Q-Chem read-in guess as SCF_GUESS READ specified.

 using 8 threads for integral computing
 -------------------------------------------------------
 OpenMP Integral computing Module                
 Release: version 1.0, May 2013, Q-Chem Inc. Pittsburgh 
 -------------------------------------------------------
 using 8 threads for integral computing
 -------------------------------------------------------
 OpenMP Integral computing Module                
 Release: version 1.0, May 2013, Q-Chem Inc. Pittsburgh 
 -------------------------------------------------------
TIMEINFO->: J/JK contribution 7.15 sec.
 -------------------------------------------------------
 OpenMP BLAS3 based DFT computing Module                
 Release: version 1.0, May 2013, Q-Chem Inc. Pittsburgh 
 -------------------------------------------------------
 ---------------------------------------
  Cycle       Energy        RMS Gradient
 ---------------------------------------
    1      -7.4619027569      3.23E-03 Normal BFGS step
TIMEINFO->: J/JK contribution 7.33 sec.
    2      -7.4619114149      2.19E-03 Normal BFGS step
TIMEINFO->: J/JK contribution 7.22 sec.
    3      -7.4619132745      7.78E-04 Normal BFGS step
TIMEINFO->: J/JK contribution 6.84 sec.
    4      -7.4619134418      3.61E-04 Normal BFGS step
TIMEINFO->: J/JK contribution 6.78 sec.
    5      -7.4619135259      3.30E-05 Normal BFGS step
TIMEINFO->: J/JK contribution 6.72 sec.
    6      -7.4619135265      1.24E-05 Normal BFGS step
TIMEINFO->: J/JK contribution 6.62 sec.
    7      -7.4619135266      4.39E-07 Normal BFGS step
TIMEINFO->: J/JK contribution 6.37 sec.
    8      -7.4619135266      5.92E-08 Normal BFGS step
TIMEINFO->: J/JK contribution 6.03 sec.
   GDM::WARNING energy changes are now smaller than effective accuracy.
   GDM::        calculation will continue, but THRESH should be increased
   GDM::        or SCF_CONVERGENCE decreased.
   GDM::        effective_thresh =   2.000000000000000E-011
    9      -7.4619135266      2.64E-08 Normal BFGS step
TIMEINFO->: J/JK contribution 5.84 sec.
   GDM::WARNING energy changes are now smaller than effective accuracy.
   GDM::        calculation will continue, but THRESH should be increased
   GDM::        or SCF_CONVERGENCE decreased.
   GDM::        effective_thresh =   2.000000000000000E-011
   10      -7.4619135266      3.62E-09 Convergence criterion met
 ---------------------------------------
 SCF time:  CPU 83.89 s  wall 10.57 s
 SCF   energy in the final basis set = -7.46191353
 Total energy in the final basis set = -7.46191353
 
 Components of the MP2 correlation energy:
        aaaa  correlation energy =        -0.0003048100 au
        abab  correlation energy =        -0.0182330787 au
        bbbb  correlation energy =         0.0000000000 au
        non-Brillouin singles    =        -0.0000227451 au

 Total  MP2   correlation energy =                    -0.01856063 au
        MP2         total energy =                    -7.48047416 au
 
 --------------------------------------------------------------
 
                    Orbital Energies (a.u.)
 --------------------------------------------------------------
 
 Alpha MOs
 -- Occupied --
 -2.336  -0.198
 -- Virtual --
  0.003   0.009   0.012   0.012   0.033   0.036   0.036   0.078
  0.078   0.078   0.081   0.081   0.090   0.096   0.099   0.099
  0.216   0.216   0.216   0.217   0.217   0.218   0.218   0.237
  0.237   0.237   0.238   0.238   0.311   0.313   0.313   0.325
  0.521   0.521   0.521   0.521   0.521   0.522   0.522   0.522
  0.522   0.599   0.600   0.600   0.600   0.600   0.600   0.600
  0.621   0.621   0.621   0.621   0.621   0.856   0.856   0.856
  1.097   1.422   1.422   1.422   1.422   1.422   1.422   1.422
  1.442   1.442   1.442   1.442   1.442   1.443   1.443   1.443
  1.443   1.530   1.530   1.530   1.530   1.530   2.213   2.213
  2.213   3.284   6.794   6.795   6.795   9.122   9.122   9.122
  9.122   9.122  10.839  26.461  26.461  26.461  27.545  27.545
 27.545  27.545  27.545  27.545  27.545  38.722  38.722  38.722
 38.722  38.722  48.240
 
 Beta MOs
 -- Occupied --
 -2.326
 -- Virtual --
  0.196   0.015   0.026   0.026   0.026   0.139   0.144   0.144
  0.157   0.157   0.157   0.159   0.159   0.183   0.259   0.259
  0.259   0.342   0.342   0.342   0.342   0.342   0.343   0.343
  0.416   0.416   0.416   0.416   0.416   0.435   0.435   0.435
  0.463   0.701   0.701   0.701   0.701   0.701   0.701   0.701
  0.702   0.702   0.812   0.812   0.812   0.812   0.812   0.813
  0.813   0.807   0.807   0.807   0.807   0.807   0.963   0.964
  0.964   1.206   1.575   1.575   1.575   1.575   1.575   1.575
  1.575   1.652   1.652   1.652   1.652   1.652   1.652   1.652
  1.652   1.652   1.602   1.602   1.602   1.602   1.602   2.287
  2.287   2.287   3.339   6.805   6.805   6.805   9.126   9.126
  9.126   9.126   9.126  10.848  26.467  26.467  26.467  27.546
 27.546  27.546  27.546  27.546  27.546  27.546  38.726  38.726
 38.726  38.726  38.726  48.248
 --------------------------------------------------------------
 
          Ground-State Mulliken Net Atomic Charges

     Atom                 Charge (a.u.)
  ----------------------------------------
      1 Li                   -0.000000
  ----------------------------------------
  Sum of atomic charges =    -0.000000

 -----------------------------------------------------------------
                    Cartesian Multipole Moments
 -----------------------------------------------------------------
    Charge (ESU x 10^10)
                -0.0000
    Dipole Moment (Debye)
         X      -0.0000      Y      -0.0000      Z       0.0000
       Tot       0.0000
    Quadrupole Moments (Debye-Ang)
        XX      -8.2322     XY      -0.0000     YY      -8.3632
        XZ      -0.0000     YZ       0.0000     ZZ      -8.2322
    Octopole Moments (Debye-Ang^2)
       XXX       0.0000    XXY       0.0000    XYY       0.0000
       YYY       0.0000    XXZ      -0.0000    XYZ       0.0000
       YYZ      -0.0000    XZZ       0.0000    YZZ       0.0000
       ZZZ      -0.0000
    Hexadecapole Moments (Debye-Ang^3)
      XXXX     -41.0994   XXXY      -0.0000   XXYY     -13.9766
      XYYY      -0.0000   YYYY     -42.7711   XXXZ      -0.0000
      XXYZ       0.0000   XYYZ      -0.0000   YYYZ       0.0000
      XXZZ     -13.6998   XYZZ      -0.0000   YYZZ     -13.9766
      XZZZ      -0.0000   YZZZ       0.0000   ZZZZ     -41.0994
 -----------------------------------------------------------------

 STANDARD THERMODYNAMIC QUANTITIES AT   298.15 K  AND     1.00 ATM

   Translational Enthalpy:        0.889 kcal/mol
   Rotational Enthalpy:           0.000 kcal/mol
   Vibrational Enthalpy:          0.000 kcal/mol
   gas constant (RT):             0.592 kcal/mol
   Translational Entropy:        31.798  cal/mol.K
   Rotational Entropy:            0.000  cal/mol.K
   Vibrational Entropy:           0.000  cal/mol.K

   Total Enthalpy:                1.481 kcal/mol
   Total Entropy:                31.798  cal/mol.K

 -----------------------------------------------------------------

Archival summary:
1\1\n0088.mhg0\SP\ROProcedureUnspecified\BasisUnspecified\i1(2)\yhljason\SatOct301:58:592020SatOct301:58:592020\0\\#,ROProcedureUnspecified,BasisUnspecified,\\0,2\Li\\\@

 Total job time:  27.41s(wall), 218.27s(cpu) 
 Sat Oct  3 01:58:59 2020

        *************************************************************
        *                                                           *
        *  Thank you very much for using Q-Chem.  Have a nice day.  *
        *                                                           *
        *************************************************************


 
User input: 6 of 8 
 
Q-Chem Developer Version!
                  Welcome to Q-Chem
     A Quantum Leap Into The Future Of Chemistry


 Q-Chem 5.1, Q-Chem, Inc., Pleasanton, CA (2018)

 Yihan Shao,  Zhengting Gan,  E. Epifanovsky,  A. T. B. Gilbert,  M. Wormit,  
 J. Kussmann,  A. W. Lange,  A. Behn,  Jia Deng,  Xintian Feng,  D. Ghosh,  
 M. Goldey,  P. R. Horn,  L. D. Jacobson,  I. Kaliman,  T. Kus,  A. Landau,  
 Jie Liu,  E. I. Proynov,  R. M. Richard,  R. P. Steele,  E. J. Sundstrom,  
 H. L. Woodcock III,  P. M. Zimmerman,  D. Zuev,  B. Albrecht,  E. Alguire,  
 S. A. Baeppler,  D. Barton,  Z. Benda,  Y. A. Bernard,  E. J. Berquist,  
 K. B. Bravaya,  H. Burton,  D. Casanova,  Chun-Min Chang,  Yunqing Chen,  
 A. Chien,  K. D. Closser,  M. P. Coons,  S. Coriani,  S. Dasgupta,  
 A. L. Dempwolff,  M. Diedenhofen,  Hainam Do,  R. G. Edgar,  Po-Tung Fang,  
 S. Faraji,  S. Fatehi,  Qingguo Feng,  K. D. Fenk,  J. Fosso-Tande,  
 Qinghui Ge,  A. Ghysels,  G. Gidofalvi,  J. Gomes,  J. Gonthier,  A. Gunina,  
 D. Hait,  M. W. D. Hanson-Heine,  P. H. P. Harbach,  A. W. Hauser,  
 J. E. Herr,  E. G. Hohenstein,  Z. C. Holden,  Kerwin Hui,  B. C. Huynh,  
 T.-C. Jagau,  Hyunjun Ji,  B. Kaduk,  K. Khistyaev,  Jaehoon Kim,  
 P. Klunzinger,  K. Koh,  D. Kosenkov,  L. Koulias,  T. Kowalczyk,  
 C. M. Krauter,  A. Kunitsa,  Ka Un Lao,  A. Laurent,  K. V. Lawler,  
 Joonho Lee,  D. Lefrancois,  S. Lehtola,  D. S. Levine,  Yi-Pei Li,  
 You-Sheng Lin,  Fenglai Liu,  E. Livshits,  A. Luenser,  P. Manohar,  
 E. Mansoor,  S. F. Manzer,  Shan-Ping Mao,  Yuezhi Mao,  N. Mardirossian,  
 A. V. Marenich,  T. Markovich,  L. A. Martinez-Martinez,  S. A. Maurer,  
 N. J. Mayhall,  S. C. McKenzie,  J.-M. Mewes,  A. F. Morrison,  
 J. W. Mullinax,  K. Nanda,  T. S. Nguyen-Beck,  R. Olivares-Amaya,  
 J. A. Parkhill,  T. M. Perrine,  F. Plasser,  P. Pokhilko,  S. Prager,  
 A. Prociuk,  E. Ramos,  D. R. Rehn,  F. Rob,  M. Schneider,  N. Sergueev,  
 S. M. Sharada,  S. Sharma,  D. W. Small,  T. Stauch,  T. Stein,  
 Yu-Chuan Su,  A. J. W. Thom,  A. Tkatchenko,  T. Tsuchimochi,  N. M. Tubman,  
 L. Vogt,  M. L. Vidal,  O. Vydrov,  M. A. Watson,  J. Wenzel,  
 M. de Wergifosse,  T. A. Wesolowski,  A. White,  J. Witte,  A. Yamada,  
 Jun Yang,  K. Yao,  S. Yeganeh,  S. R. Yost,  Zhi-Qiang You,  A. Zech,  
 Igor Ying Zhang,  Xing Zhang,  Yan Zhao,  Ying Zhu,  B. R. Brooks,  
 G. K. L. Chan,  C. J. Cramer,  M. S. Gordon,  W. J. Hehre,  A. Klamt,  
 M. W. Schmidt,  C. D. Sherrill,  D. G. Truhlar,  A. Aspuru-Guzik,  R. Baer,  
 A. T. Bell,  N. A. Besley,  Jeng-Da Chai,  A. E. DePrince, III,  
 R. A. DiStasio Jr.,  A. Dreuw,  B. D. Dunietz,  T. R. Furlani,  
 Chao-Ping Hsu,  Yousung Jung,  Jing Kong,  D. S. Lambrecht,  WanZhen Liang,  
 C. Ochsenfeld,  V. A. Rassolov,  L. V. Slipchenko,  J. E. Subotnik,  
 T. Van Voorhis,  J. M. Herbert,  A. I. Krylov,  P. M. W. Gill,  M. Head-Gordon

 Contributors to earlier versions of Q-Chem not listed above: 
 R. D. Adamson,  B. Austin,  J. Baker,  G. J. O. Beran,  K. Brandhorst,  
 S. T. Brown,  E. F. C. Byrd,  A. K. Chakraborty,  C.-L. Cheng,  
 Siu Hung Chien,  D. M. Chipman,  D. L. Crittenden,  H. Dachsel,  
 R. J. Doerksen,  A. D. Dutoi,  L. Fusti-Molnar,  W. A. Goddard III,  
 A. Golubeva-Zadorozhnaya,  S. R. Gwaltney,  G. Hawkins,  A. Heyden,  
 S. Hirata,  G. Kedziora,  F. J. Keil,  C. Kelley,  Jihan Kim,  R. A. King,  
 R. Z. Khaliullin,  P. P. Korambath,  W. Kurlancheek,  A. M. Lee,  M. S. Lee,  
 S. V. Levchenko,  Ching Yeh Lin,  D. Liotard,  R. C. Lochan,  I. Lotan,  
 P. E. Maslen,  N. Nair,  D. P. O'Neill,  D. Neuhauser,  E. Neuscamman,  
 C. M. Oana,  R. Olson,  B. Peters,  R. Peverati,  P. A. Pieniazek,  
 Y. M. Rhee,  J. Ritchie,  M. A. Rohrdanz,  E. Rosta,  N. J. Russ,  
 H. F. Schaefer III,  N. E. Schultz,  N. Shenvi,  A. C. Simmonett,  A. Sodt,  
 D. Stuck,  K. S. Thanthiriwatte,  V. Vanovschi,  Tao Wang,  A. Warshel,  
 C. F. Williams,  Q. Wu,  X. Xu,  W. Zhang

 Please cite Q-Chem as follows:
 Y. Shao et al., Mol. Phys. 113, 184-215 (2015)
 DOI: 10.1080/00268976.2014.952696

 Q-Chem 5.1.1 for Intel X86 EM64T Linux

 Parts of Q-Chem use Armadillo 8.300.2 (Tropical Shenanigans).
 http://arma.sourceforge.net/

 Q-Chem begins on Sat Oct  3 01:58:59 2020  

Host: n0088.mhg0
0

     Scratch files written to /local/scratch/users/yhljason/Li_wB97X-2TQZ_aug-cc-pcVQZ.inp20201003015134//
The previous job contains 0 fragments, simply inherited here
Input Ideriv = 0
Curr. Ideriv = -1
Max.  Ideriv = 0
Input Ideriv = 1
Curr. Ideriv = 0
Max.  Ideriv = 0

Checking the input file for inconsistencies... 	...done.

--------------------------------------------------------------
User input:
--------------------------------------------------------------
$molecule
read
$end

$rem

jobtype sp
method wB97X-2(TQZ)
xc_grid 000099000590
basis aug-cc-pcVQZ
max_scf_cycles 200
thresh 14
scf_convergence 8
mem_total 128000
cc_memory 96000
cc_backend xm
mem_static 1500
symmetry false
sym_ignore true
scf_guess read
unrestricted false
scf_algorithm gdm
n_frozen_core 0
$end

$multipole_field
YY -0.0001
$end


--------------------------------------------------------------
 ----------------------------------------------------------------
             Standard Nuclear Orientation (Angstroms)
    I     Atom           X                Y                Z
 ----------------------------------------------------------------
    1      Li      0.0000000000     0.0000000000     0.0000000000
 ----------------------------------------------------------------
 Nuclear Repulsion Energy =     0.0000000000 hartrees
 There are        2 alpha and        1 beta electrons
 Requested basis set is aug-cc-pCVQZ
 There are 29 shells and 109 basis functions

 Total QAlloc Memory Limit 128000 MB
 Mega-Array Size      1467 MB
 MEM_STATIC part      1500 MB
 Applying Cartesian multipole field
    Component          Value
    ---------          -----
     (0,2,0)       -1.00000E-04
 A cutoff of  1.0D-14 yielded    435 shell pairs
 There are      6235 function pairs (     10234 Cartesian)
 
 -------------------------------------------------------
 OpenMP Integral Computing Module                       
 Release: version 1.0, May 2013, Q-Chem Inc. Pittsburgh 
 -------------------------------------------------------
 Integral Job Info:
 Integral job number is                      11
 Integral operator is                         1
 short-range coefficients              63615800
 long-range coefficients              100000000
 Omega coefficients                         300
 if combine SR and LR in K                    1
 Integral screening is                        0
 Integral computing path is                   2
 max size of driver memory is           3200000
 size of driver memory is               1704330
 size of scratch memory is             18852824
 max col of scratch BK array              50625
 max len of scratch array in speh3         2114
 max len of scratch index in speh4           50
 max int batch size is                      520
 min int batch size is                       52
 fixed nKL is                                52
 max L of basis functions is                  4
 order of int derivative is                   0
 number of shells is                         29
 number of basis is                         139
 number of cartesian basis is               139
 number of contracted shell pairs           435
 number of primitive shell pairs           1203
 maxK2 (contraction) of shell pair           81
 max number of K2 of shell pair               1
 max number of CS2 of shell pair             49
 max number of PS2 of shell pair            243
 mem total for path MDJ                  609409
 -------------------------------------------------------
 Smallest overlap matrix eigenvalue = 6.27E-05
 Guess MOs from SCF MO coefficient file
 Reading MOs from coefficient file
 Reading MOs from coefficient file
 Long-range K will be added via erf
 Coulomb attenuation parameter = 0.3 bohr**(-1)
 A restricted hybrid HF-DFT SCF calculation will be
 performed using Geometric Direct Minimization
 Exchange:     0.6362 Hartree-Fock + 1.0000 wB97X-2(TQZ) + LR-HF
 Correlation:  1.0000 wB97X-2(TQZ)
 Using Euler-Maclaurin-Lebedev (99,590) quadrature formula
 SCF converges when RMS gradient is below 1.0E-08
Using Q-Chem read-in guess as SCF_GUESS READ specified.

 using 8 threads for integral computing
 -------------------------------------------------------
 OpenMP Integral computing Module                
 Release: version 1.0, May 2013, Q-Chem Inc. Pittsburgh 
 -------------------------------------------------------
 using 8 threads for integral computing
 -------------------------------------------------------
 OpenMP Integral computing Module                
 Release: version 1.0, May 2013, Q-Chem Inc. Pittsburgh 
 -------------------------------------------------------
TIMEINFO->: J/JK contribution 7.34 sec.
 -------------------------------------------------------
 OpenMP BLAS3 based DFT computing Module                
 Release: version 1.0, May 2013, Q-Chem Inc. Pittsburgh 
 -------------------------------------------------------
 ---------------------------------------
  Cycle       Energy        RMS Gradient
 ---------------------------------------
    1      -7.4606699577      4.89E-03 Normal BFGS step
TIMEINFO->: J/JK contribution 7.23 sec.
    2      -7.4606863303      3.11E-03 Normal BFGS step
TIMEINFO->: J/JK contribution 6.98 sec.
    3      -7.4606900586      1.53E-03 Normal BFGS step
TIMEINFO->: J/JK contribution 6.86 sec.
    4      -7.4606905729      6.09E-04 Normal BFGS step
TIMEINFO->: J/JK contribution 6.92 sec.
    5      -7.4606908310      6.11E-05 Normal BFGS step
TIMEINFO->: J/JK contribution 6.58 sec.
    6      -7.4606908327      1.79E-05 Normal BFGS step
TIMEINFO->: J/JK contribution 6.22 sec.
    7      -7.4606908329      1.31E-06 Normal BFGS step
TIMEINFO->: J/JK contribution 6.00 sec.
    8      -7.4606908329      1.82E-07 Normal BFGS step
TIMEINFO->: J/JK contribution 5.73 sec.
    9      -7.4606908329      1.04E-08 Normal BFGS step
TIMEINFO->: J/JK contribution 5.32 sec.
   10      -7.4606908329      1.06E-09 Convergence criterion met
 ---------------------------------------
 SCF time:  CPU 81.72 s  wall 10.29 s
 SCF   energy in the final basis set = -7.46069083
 Total energy in the final basis set = -7.46069083
 
 Components of the MP2 correlation energy:
        aaaa  correlation energy =        -0.0003076693 au
        abab  correlation energy =        -0.0182373025 au
        bbbb  correlation energy =         0.0000000000 au
        non-Brillouin singles    =        -0.0000231300 au

 Total  MP2   correlation energy =                    -0.01856810 au
        MP2         total energy =                    -7.47925893 au
 
 --------------------------------------------------------------
 
                    Orbital Energies (a.u.)
 --------------------------------------------------------------
 
 Alpha MOs
 -- Occupied --
 -2.334  -0.197
 -- Virtual --
  0.021   0.021   0.023   0.028   0.040   0.040   0.045   0.083
  0.083   0.085   0.085   0.086   0.096   0.103   0.103   0.107
  0.219   0.219   0.220   0.220   0.221   0.221   0.221   0.240
  0.240   0.241   0.241   0.241   0.315   0.315   0.317   0.328
  0.523   0.523   0.524   0.524   0.524   0.524   0.524   0.524
  0.524   0.601   0.601   0.602   0.602   0.602   0.602   0.602
  0.622   0.622   0.623   0.623   0.623   0.858   0.858   0.858
  1.099   1.423   1.423   1.423   1.423   1.424   1.424   1.424
  1.444   1.444   1.444   1.444   1.444   1.444   1.444   1.444
  1.444   1.531   1.531   1.531   1.531   1.531   2.214   2.214
  2.215   3.285   6.796   6.796   6.796   9.124   9.124   9.124
  9.124   9.124  10.840  26.463  26.463  26.463  27.546  27.546
 27.546  27.546  27.546  27.546  27.546  38.724  38.724  38.724
 38.724  38.724  48.242
 
 Beta MOs
 -- Occupied --
 -2.325
 -- Virtual --
  0.199   0.036   0.036   0.040   0.047   0.148   0.148   0.152
  0.161   0.161   0.163   0.163   0.164   0.187   0.260   0.260
  0.260   0.344   0.344   0.345   0.345   0.345   0.345   0.345
  0.418   0.418   0.418   0.418   0.418   0.437   0.437   0.438
  0.465   0.703   0.703   0.703   0.703   0.703   0.703   0.703
  0.703   0.703   0.814   0.814   0.814   0.814   0.814   0.814
  0.814   0.809   0.809   0.809   0.809   0.809   0.966   0.966
  0.966   1.207   1.577   1.577   1.577   1.577   1.577   1.577
  1.577   1.654   1.654   1.654   1.654   1.654   1.654   1.654
  1.654   1.654   1.604   1.604   1.604   1.604   1.604   2.289
  2.289   2.289   3.341   6.806   6.806   6.806   9.127   9.127
  9.127   9.127   9.127  10.849  26.468  26.468  26.468  27.547
 27.547  27.547  27.547  27.547  27.547  27.547  38.727  38.727
 38.727  38.727  38.727  48.250
 --------------------------------------------------------------
 
          Ground-State Mulliken Net Atomic Charges

[...]
  0.078   0.078   0.081   0.081   0.090   0.096   0.099   0.099
  0.216   0.216   0.216   0.217   0.217   0.218   0.218   0.237
  0.237   0.237   0.238   0.238   0.311   0.313   0.313   0.325
  0.521   0.521   0.521   0.521   0.521   0.522   0.522   0.522
  0.522   0.599   0.600   0.600   0.600   0.600   0.600   0.600
  0.621   0.621   0.621   0.621   0.621   0.856   0.856   0.856
  1.097   1.422   1.422   1.422   1.422   1.422   1.422   1.422
  1.442   1.442   1.442   1.442   1.442   1.443   1.443   1.443
  1.443   1.530   1.530   1.530   1.530   1.530   2.213   2.213
  2.213   3.284   6.794   6.795   6.795   9.122   9.122   9.122
  9.122   9.122  10.839  26.461  26.461  26.461  27.545  27.545
 27.545  27.545  27.545  27.545  27.545  38.722  38.722  38.722
 38.722  38.722  48.240
 
 Beta MOs
 -- Occupied --
 -2.326
 -- Virtual --
  0.196   0.015   0.026   0.026   0.026   0.139   0.144   0.144
  0.157   0.157   0.157   0.159   0.159   0.183   0.259   0.259
  0.259   0.342   0.342   0.342   0.342   0.342   0.343   0.343
  0.416   0.416   0.416   0.416   0.416   0.435   0.435   0.435
  0.463   0.701   0.701   0.701   0.701   0.701   0.701   0.701
  0.702   0.702   0.812   0.812   0.812   0.812   0.812   0.813
  0.813   0.807   0.807   0.807   0.807   0.807   0.963   0.964
  0.964   1.206   1.575   1.575   1.575   1.575   1.575   1.575
  1.575   1.652   1.652   1.652   1.652   1.652   1.652   1.652
  1.652   1.652   1.602   1.602   1.602   1.602   1.602   2.287
  2.287   2.287   3.339   6.805   6.805   6.805   9.126   9.126
  9.126   9.126   9.126  10.848  26.467  26.467  26.467  27.546
 27.546  27.546  27.546  27.546  27.546  27.546  38.726  38.726
 38.726  38.726  38.726  48.248
 --------------------------------------------------------------
 
          Ground-State Mulliken Net Atomic Charges

     Atom                 Charge (a.u.)
  ----------------------------------------
      1 Li                   -0.000000
  ----------------------------------------
  Sum of atomic charges =    -0.000000

 -----------------------------------------------------------------
                    Cartesian Multipole Moments
 -----------------------------------------------------------------
    Charge (ESU x 10^10)
                -0.0000
    Dipole Moment (Debye)
         X      -0.0000      Y      -0.0000      Z       0.0000
       Tot       0.0000
    Quadrupole Moments (Debye-Ang)
        XX      -8.2322     XY       0.0000     YY      -8.2322
        XZ       0.0000     YZ      -0.0000     ZZ      -8.3632
    Octopole Moments (Debye-Ang^2)
       XXX       0.0000    XXY       0.0000    XYY       0.0000
       YYY       0.0000    XXZ      -0.0000    XYZ      -0.0000
       YYZ      -0.0000    XZZ       0.0000    YZZ       0.0000
       ZZZ      -0.0000
    Hexadecapole Moments (Debye-Ang^3)
      XXXX     -41.0994   XXXY       0.0000   XXYY     -13.6998
      XYYY       0.0000   YYYY     -41.0994   XXXZ       0.0000
      XXYZ      -0.0000   XYYZ       0.0000   YYYZ      -0.0000
      XXZZ     -13.9766   XYZZ       0.0000   YYZZ     -13.9766
      XZZZ       0.0000   YZZZ      -0.0000   ZZZZ     -42.7711
 -----------------------------------------------------------------

 STANDARD THERMODYNAMIC QUANTITIES AT   298.15 K  AND     1.00 ATM

   Translational Enthalpy:        0.889 kcal/mol
   Rotational Enthalpy:           0.000 kcal/mol
   Vibrational Enthalpy:          0.000 kcal/mol
   gas constant (RT):             0.592 kcal/mol
   Translational Entropy:        31.798  cal/mol.K
   Rotational Entropy:            0.000  cal/mol.K
   Vibrational Entropy:           0.000  cal/mol.K

   Total Enthalpy:                1.481 kcal/mol
   Total Entropy:                31.798  cal/mol.K

 -----------------------------------------------------------------

Archival summary:
1\1\n0088.mhg0\SP\ROProcedureUnspecified\BasisUnspecified\i1(2)\yhljason\SatOct301:59:532020SatOct301:59:532020\0\\#,ROProcedureUnspecified,BasisUnspecified,\\0,2\Li\\\@

 Total job time:  27.45s(wall), 218.54s(cpu) 
 Sat Oct  3 01:59:53 2020

        *************************************************************
        *                                                           *
        *  Thank you very much for using Q-Chem.  Have a nice day.  *
        *                                                           *
        *************************************************************


 
User input: 8 of 8 
 
Q-Chem Developer Version!
                  Welcome to Q-Chem
     A Quantum Leap Into The Future Of Chemistry


 Q-Chem 5.1, Q-Chem, Inc., Pleasanton, CA (2018)

 Yihan Shao,  Zhengting Gan,  E. Epifanovsky,  A. T. B. Gilbert,  M. Wormit,  
 J. Kussmann,  A. W. Lange,  A. Behn,  Jia Deng,  Xintian Feng,  D. Ghosh,  
 M. Goldey,  P. R. Horn,  L. D. Jacobson,  I. Kaliman,  T. Kus,  A. Landau,  
 Jie Liu,  E. I. Proynov,  R. M. Richard,  R. P. Steele,  E. J. Sundstrom,  
 H. L. Woodcock III,  P. M. Zimmerman,  D. Zuev,  B. Albrecht,  E. Alguire,  
 S. A. Baeppler,  D. Barton,  Z. Benda,  Y. A. Bernard,  E. J. Berquist,  
 K. B. Bravaya,  H. Burton,  D. Casanova,  Chun-Min Chang,  Yunqing Chen,  
 A. Chien,  K. D. Closser,  M. P. Coons,  S. Coriani,  S. Dasgupta,  
 A. L. Dempwolff,  M. Diedenhofen,  Hainam Do,  R. G. Edgar,  Po-Tung Fang,  
 S. Faraji,  S. Fatehi,  Qingguo Feng,  K. D. Fenk,  J. Fosso-Tande,  
 Qinghui Ge,  A. Ghysels,  G. Gidofalvi,  J. Gomes,  J. Gonthier,  A. Gunina,  
 D. Hait,  M. W. D. Hanson-Heine,  P. H. P. Harbach,  A. W. Hauser,  
 J. E. Herr,  E. G. Hohenstein,  Z. C. Holden,  Kerwin Hui,  B. C. Huynh,  
 T.-C. Jagau,  Hyunjun Ji,  B. Kaduk,  K. Khistyaev,  Jaehoon Kim,  
 P. Klunzinger,  K. Koh,  D. Kosenkov,  L. Koulias,  T. Kowalczyk,  
 C. M. Krauter,  A. Kunitsa,  Ka Un Lao,  A. Laurent,  K. V. Lawler,  
 Joonho Lee,  D. Lefrancois,  S. Lehtola,  D. S. Levine,  Yi-Pei Li,  
 You-Sheng Lin,  Fenglai Liu,  E. Livshits,  A. Luenser,  P. Manohar,  
 E. Mansoor,  S. F. Manzer,  Shan-Ping Mao,  Yuezhi Mao,  N. Mardirossian,  
 A. V. Marenich,  T. Markovich,  L. A. Martinez-Martinez,  S. A. Maurer,  
 N. J. Mayhall,  S. C. McKenzie,  J.-M. Mewes,  A. F. Morrison,  
 J. W. Mullinax,  K. Nanda,  T. S. Nguyen-Beck,  R. Olivares-Amaya,  
 J. A. Parkhill,  T. M. Perrine,  F. Plasser,  P. Pokhilko,  S. Prager,  
 A. Prociuk,  E. Ramos,  D. R. Rehn,  F. Rob,  M. Schneider,  N. Sergueev,  
 S. M. Sharada,  S. Sharma,  D. W. Small,  T. Stauch,  T. Stein,  
 Yu-Chuan Su,  A. J. W. Thom,  A. Tkatchenko,  T. Tsuchimochi,  N. M. Tubman,  
 L. Vogt,  M. L. Vidal,  O. Vydrov,  M. A. Watson,  J. Wenzel,  
 M. de Wergifosse,  T. A. Wesolowski,  A. White,  J. Witte,  A. Yamada,  
 Jun Yang,  K. Yao,  S. Yeganeh,  S. R. Yost,  Zhi-Qiang You,  A. Zech,  
 Igor Ying Zhang,  Xing Zhang,  Yan Zhao,  Ying Zhu,  B. R. Brooks,  
 G. K. L. Chan,  C. J. Cramer,  M. S. Gordon,  W. J. Hehre,  A. Klamt,  
 M. W. Schmidt,  C. D. Sherrill,  D. G. Truhlar,  A. Aspuru-Guzik,  R. Baer,  
 A. T. Bell,  N. A. Besley,  Jeng-Da Chai,  A. E. DePrince, III,  
 R. A. DiStasio Jr.,  A. Dreuw,  B. D. Dunietz,  T. R. Furlani,  
 Chao-Ping Hsu,  Yousung Jung,  Jing Kong,  D. S. Lambrecht,  WanZhen Liang,  
 C. Ochsenfeld,  V. A. Rassolov,  L. V. Slipchenko,  J. E. Subotnik,  
 T. Van Voorhis,  J. M. Herbert,  A. I. Krylov,  P. M. W. Gill,  M. Head-Gordon

 Contributors to earlier versions of Q-Chem not listed above: 
 R. D. Adamson,  B. Austin,  J. Baker,  G. J. O. Beran,  K. Brandhorst,  
 S. T. Brown,  E. F. C. Byrd,  A. K. Chakraborty,  C.-L. Cheng,  
 Siu Hung Chien,  D. M. Chipman,  D. L. Crittenden,  H. Dachsel,  
 R. J. Doerksen,  A. D. Dutoi,  L. Fusti-Molnar,  W. A. Goddard III,  
 A. Golubeva-Zadorozhnaya,  S. R. Gwaltney,  G. Hawkins,  A. Heyden,  
 S. Hirata,  G. Kedziora,  F. J. Keil,  C. Kelley,  Jihan Kim,  R. A. King,  
 R. Z. Khaliullin,  P. P. Korambath,  W. Kurlancheek,  A. M. Lee,  M. S. Lee,  
 S. V. Levchenko,  Ching Yeh Lin,  D. Liotard,  R. C. Lochan,  I. Lotan,  
 P. E. Maslen,  N. Nair,  D. P. O'Neill,  D. Neuhauser,  E. Neuscamman,  
 C. M. Oana,  R. Olson,  B. Peters,  R. Peverati,  P. A. Pieniazek,  
 Y. M. Rhee,  J. Ritchie,  M. A. Rohrdanz,  E. Rosta,  N. J. Russ,  
 H. F. Schaefer III,  N. E. Schultz,  N. Shenvi,  A. C. Simmonett,  A. Sodt,  
 D. Stuck,  K. S. Thanthiriwatte,  V. Vanovschi,  Tao Wang,  A. Warshel,  
 C. F. Williams,  Q. Wu,  X. Xu,  W. Zhang

 Please cite Q-Chem as follows:
 Y. Shao et al., Mol. Phys. 113, 184-215 (2015)
 DOI: 10.1080/00268976.2014.952696

 Q-Chem 5.1.1 for Intel X86 EM64T Linux

 Parts of Q-Chem use Armadillo 8.300.2 (Tropical Shenanigans).
 http://arma.sourceforge.net/

 Q-Chem begins on Sat Oct  3 01:59:53 2020  

Host: n0088.mhg0
0

     Scratch files written to /local/scratch/users/yhljason/Li_wB97X-2TQZ_aug-cc-pcVQZ.inp20201003015134//
The previous job contains 0 fragments, simply inherited here
Input Ideriv = 0
Curr. Ideriv = -1
Max.  Ideriv = 0
Input Ideriv = 1
Curr. Ideriv = 0
Max.  Ideriv = 0

Checking the input file for inconsistencies... 	...done.

--------------------------------------------------------------
User input:
--------------------------------------------------------------
$molecule
read
$end

$rem

jobtype sp
method wB97X-2(TQZ)
xc_grid 000099000590
basis aug-cc-pcVQZ
max_scf_cycles 200
thresh 14
scf_convergence 8
mem_total 128000
cc_memory 96000
cc_backend xm
mem_static 1500
symmetry false
sym_ignore true
scf_guess read
unrestricted false
scf_algorithm gdm
n_frozen_core 0
$end

$multipole_field
ZZ -0.0001
$end

--------------------------------------------------------------
 ----------------------------------------------------------------
             Standard Nuclear Orientation (Angstroms)
    I     Atom           X                Y                Z
 ----------------------------------------------------------------
    1      Li      0.0000000000     0.0000000000     0.0000000000
 ----------------------------------------------------------------
 Nuclear Repulsion Energy =     0.0000000000 hartrees
 There are        2 alpha and        1 beta electrons
 Requested basis set is aug-cc-pCVQZ
 There are 29 shells and 109 basis functions

 Total QAlloc Memory Limit 128000 MB
 Mega-Array Size      1467 MB
 MEM_STATIC part      1500 MB
 Applying Cartesian multipole field
    Component          Value
    ---------          -----
     (0,0,2)       -1.00000E-04
 A cutoff of  1.0D-14 yielded    435 shell pairs
 There are      6235 function pairs (     10234 Cartesian)
 
 -------------------------------------------------------
 OpenMP Integral Computing Module                       
 Release: version 1.0, May 2013, Q-Chem Inc. Pittsburgh 
 -------------------------------------------------------
 Integral Job Info:
 Integral job number is                      11
 Integral operator is                         1
 short-range coefficients              63615800
 long-range coefficients              100000000
 Omega coefficients                         300
 if combine SR and LR in K                    1
 Integral screening is                        0
 Integral computing path is                   2
 max size of driver memory is           3200000
 size of driver memory is               1704330
 size of scratch memory is             18852824
 max col of scratch BK array              50625
 max len of scratch array in speh3         2114
 max len of scratch index in speh4           50
 max int batch size is                      520
 min int batch size is                       52
 fixed nKL is                                52
 max L of basis functions is                  4
 order of int derivative is                   0
 number of shells is                         29
 number of basis is                         139
 number of cartesian basis is               139
 number of contracted shell pairs           435
 number of primitive shell pairs           1203
 maxK2 (contraction) of shell pair           81
 max number of K2 of shell pair               1
 max number of CS2 of shell pair             49
 max number of PS2 of shell pair            243
 mem total for path MDJ                  609409
 -------------------------------------------------------
 Smallest overlap matrix eigenvalue = 6.27E-05
 Guess MOs from SCF MO coefficient file
 Reading MOs from coefficient file
 Reading MOs from coefficient file
 Long-range K will be added via erf
 Coulomb attenuation parameter = 0.3 bohr**(-1)
 A restricted hybrid HF-DFT SCF calculation will be
 performed using Geometric Direct Minimization
 Exchange:     0.6362 Hartree-Fock + 1.0000 wB97X-2(TQZ) + LR-HF
 Correlation:  1.0000 wB97X-2(TQZ)
 Using Euler-Maclaurin-Lebedev (99,590) quadrature formula
 SCF converges when RMS gradient is below 1.0E-08
Using Q-Chem read-in guess as SCF_GUESS READ specified.

 using 8 threads for integral computing
 -------------------------------------------------------
 OpenMP Integral computing Module                
 Release: version 1.0, May 2013, Q-Chem Inc. Pittsburgh 
 -------------------------------------------------------
 using 8 threads for integral computing
 -------------------------------------------------------
 OpenMP Integral computing Module                
 Release: version 1.0, May 2013, Q-Chem Inc. Pittsburgh 
 -------------------------------------------------------
TIMEINFO->: J/JK contribution 7.37 sec.
 -------------------------------------------------------
 OpenMP BLAS3 based DFT computing Module                
 Release: version 1.0, May 2013, Q-Chem Inc. Pittsburgh 
 -------------------------------------------------------
 ---------------------------------------
  Cycle       Energy        RMS Gradient
 ---------------------------------------
    1      -7.4606699577      4.89E-03 Normal BFGS step
TIMEINFO->: J/JK contribution 7.19 sec.
    2      -7.4606863303      3.11E-03 Normal BFGS step
TIMEINFO->: J/JK contribution 6.84 sec.
    3      -7.4606900586      1.53E-03 Normal BFGS step
TIMEINFO->: J/JK contribution 6.75 sec.
    4      -7.4606905729      6.09E-04 Normal BFGS step
TIMEINFO->: J/JK contribution 6.79 sec.
    5      -7.4606908310      6.11E-05 Normal BFGS step
TIMEINFO->: J/JK contribution 6.58 sec.
    6      -7.4606908327      1.79E-05 Normal BFGS step
TIMEINFO->: J/JK contribution 6.31 sec.
    7      -7.4606908329      1.31E-06 Normal BFGS step
TIMEINFO->: J/JK contribution 6.17 sec.
    8      -7.4606908329      1.82E-07 Normal BFGS step
TIMEINFO->: J/JK contribution 5.56 sec.
    9      -7.4606908329      1.04E-08 Normal BFGS step
TIMEINFO->: J/JK contribution 5.52 sec.
   10      -7.4606908329      1.06E-09 Convergence criterion met
 ---------------------------------------
 SCF time:  CPU 81.56 s  wall 10.27 s
 SCF   energy in the final basis set = -7.46069083
 Total energy in the final basis set = -7.46069083
 
 Components of the MP2 correlation energy:
        aaaa  correlation energy =        -0.0003076693 au
        abab  correlation energy =        -0.0182373025 au
        bbbb  correlation energy =         0.0000000000 au
        non-Brillouin singles    =        -0.0000231300 au

 Total  MP2   correlation energy =                    -0.01856810 au
        MP2         total energy =                    -7.47925893 au
 
 --------------------------------------------------------------
 
                    Orbital Energies (a.u.)
 --------------------------------------------------------------
 
 Alpha MOs
 -- Occupied --
 -2.334  -0.197
 -- Virtual --
  0.021   0.021   0.023   0.028   0.040   0.040   0.045   0.083
  0.083   0.085   0.085   0.086   0.096   0.103   0.103   0.107
  0.219   0.219   0.220   0.220   0.221   0.221   0.221   0.240
  0.240   0.241   0.241   0.241   0.315   0.315   0.317   0.328
  0.523   0.523   0.524   0.524   0.524   0.524   0.524   0.524
  0.524   0.601   0.601   0.602   0.602   0.602   0.602   0.602
  0.622   0.622   0.623   0.623   0.623   0.858   0.858   0.858
  1.099   1.423   1.423   1.423   1.423   1.424   1.424   1.424
  1.444   1.444   1.444   1.444   1.444   1.444   1.444   1.444
  1.444   1.531   1.531   1.531   1.531   1.531   2.214   2.214
  2.215   3.285   6.796   6.796   6.796   9.124   9.124   9.124
  9.124   9.124  10.840  26.463  26.463  26.463  27.546  27.546
 27.546  27.546  27.546  27.546  27.546  38.724  38.724  38.724
 38.724  38.724  48.242
 
 Beta MOs
 -- Occupied --
 -2.325
 -- Virtual --
  0.199   0.036   0.036   0.040   0.047   0.148   0.148   0.152
  0.161   0.161   0.163   0.163   0.164   0.187   0.260   0.260
  0.260   0.344   0.344   0.345   0.345   0.345   0.345   0.345
  0.418   0.418   0.418   0.418   0.418   0.437   0.437   0.438
  0.465   0.703   0.703   0.703   0.703   0.703   0.703   0.703
  0.703   0.703   0.814   0.814   0.814   0.814   0.814   0.814
  0.814   0.809   0.809   0.809   0.809   0.809   0.966   0.966
  0.966   1.207   1.577   1.577   1.577   1.577   1.577   1.577
  1.577   1.654   1.654   1.654   1.654   1.654   1.654   1.654
  1.654   1.654   1.604   1.604   1.604   1.604   1.604   2.289
  2.289   2.289   3.341   6.806   6.806   6.806   9.127   9.127
  9.127   9.127   9.127  10.849  26.468  26.468  26.468  27.547
 27.547  27.547  27.547  27.547  27.547  27.547  38.727  38.727
 38.727  38.727  38.727  48.250
 --------------------------------------------------------------
 
          Ground-State Mulliken Net Atomic Charges

     Atom                 Charge (a.u.)
  ----------------------------------------
      1 Li                   -0.000000
  ----------------------------------------
  Sum of atomic charges =    -0.000000

 -----------------------------------------------------------------
                    Cartesian Multipole Moments
 -----------------------------------------------------------------
    Charge (ESU x 10^10)
                -0.0000
    Dipole Moment (Debye)
         X      -0.0000      Y       0.0000      Z      -0.0000
       Tot       0.0000
    Quadrupole Moments (Debye-Ang)
        XX      -8.2112     XY       0.0000     YY      -8.2112
        XZ       0.0000     YZ      -0.0000     ZZ      -8.0896
    Octopole Moments (Debye-Ang^2)
       XXX       0.0000    XXY       0.0000    XYY       0.0000
       YYY       0.0000    XXZ      -0.0000    XYZ      -0.0000
       YYZ      -0.0000    XZZ       0.0000    YZZ       0.0000
       ZZZ      -0.0000
    Hexadecapole Moments (Debye-Ang^3)
      XXXX     -40.7290   XXXY       0.0000   XXYY     -13.5763
      XYYY       0.0000   YYYY     -40.7290   XXXZ       0.0000
      XXYZ      -0.0000   XYYZ       0.0000   YYYZ      -0.0000
      XXZZ     -13.3247   XYZZ       0.0000   YYZZ     -13.3247
      XZZZ       0.0000   YZZZ      -0.0000   ZZZZ     -39.2285
 -----------------------------------------------------------------

 STANDARD THERMODYNAMIC QUANTITIES AT   298.15 K  AND     1.00 ATM

   Translational Enthalpy:        0.889 kcal/mol
   Rotational Enthalpy:           0.000 kcal/mol
   Vibrational Enthalpy:          0.000 kcal/mol
   gas constant (RT):             0.592 kcal/mol
   Translational Entropy:        31.798  cal/mol.K
   Rotational Entropy:            0.000  cal/mol.K
   Vibrational Entropy:           0.000  cal/mol.K

   Total Enthalpy:                1.481 kcal/mol
   Total Entropy:                31.798  cal/mol.K

 -----------------------------------------------------------------

Archival summary:
1\1\n0088.mhg0\SP\ROProcedureUnspecified\BasisUnspecified\i1(2)\yhljason\SatOct302:00:202020SatOct302:00:202020\0\\#,ROProcedureUnspecified,BasisUnspecified,\\0,2\Li\\\@

 Total job time:  26.75s(wall), 213.12s(cpu) 
 Sat Oct  3 02:00:20 2020

        *************************************************************
        *                                                           *
        *  Thank you very much for using Q-Chem.  Have a nice day.  *
        *                                                           *
        *************************************************************


