Q-Chem Developer Version!
                  Welcome to Q-Chem
     A Quantum Leap Into The Future Of Chemistry


 Q-Chem 5.1, Q-Chem, Inc., Pleasanton, CA (2018)

 Yihan Shao,  Zhengting Gan,  E. Epifanovsky,  A. T. B. Gilbert,  M. Wormit,  
 J. Kussmann,  A. W. Lange,  A. Behn,  Jia Deng,  Xintian Feng,  D. Ghosh,  
 M. Goldey,  P. R. Horn,  L. D. Jacobson,  I. Kaliman,  T. Kus,  A. Landau,  
 Jie Liu,  E. I. Proynov,  R. M. Richard,  R. P. Steele,  E. J. Sundstrom,  
 H. L. Woodcock III,  P. M. Zimmerman,  D. Zuev,  B. Albrecht,  E. Alguire,  
 S. A. Baeppler,  D. Barton,  Z. Benda,  Y. A. Bernard,  E. J. Berquist,  
 K. B. Bravaya,  H. Burton,  D. Casanova,  Chun-Min Chang,  Yunqing Chen,  
 A. Chien,  K. D. Closser,  M. P. Coons,  S. Coriani,  S. Dasgupta,  
 A. L. Dempwolff,  M. Diedenhofen,  Hainam Do,  R. G. Edgar,  Po-Tung Fang,  
 S. Faraji,  S. Fatehi,  Qingguo Feng,  K. D. Fenk,  J. Fosso-Tande,  
 Qinghui Ge,  A. Ghysels,  G. Gidofalvi,  J. Gomes,  J. Gonthier,  A. Gunina,  
 D. Hait,  M. W. D. Hanson-Heine,  P. H. P. Harbach,  A. W. Hauser,  
 J. E. Herr,  E. G. Hohenstein,  Z. C. Holden,  Kerwin Hui,  B. C. Huynh,  
 T.-C. Jagau,  Hyunjun Ji,  B. Kaduk,  K. Khistyaev,  Jaehoon Kim,  
 P. Klunzinger,  K. Koh,  D. Kosenkov,  L. Koulias,  T. Kowalczyk,  
 C. M. Krauter,  A. Kunitsa,  Ka Un Lao,  A. Laurent,  K. V. Lawler,  
 Joonho Lee,  D. Lefrancois,  S. Lehtola,  D. S. Levine,  Yi-Pei Li,  
 You-Sheng Lin,  Fenglai Liu,  E. Livshits,  A. Luenser,  P. Manohar,  
 E. Mansoor,  S. F. Manzer,  Shan-Ping Mao,  Yuezhi Mao,  N. Mardirossian,  
 A. V. Marenich,  T. Markovich,  L. A. Martinez-Martinez,  S. A. Maurer,  
 N. J. Mayhall,  S. C. McKenzie,  J.-M. Mewes,  A. F. Morrison,  
 J. W. Mullinax,  K. Nanda,  T. S. Nguyen-Beck,  R. Olivares-Amaya,  
 J. A. Parkhill,  T. M. Perrine,  F. Plasser,  P. Pokhilko,  S. Prager,  
 A. Prociuk,  E. Ramos,  D. R. Rehn,  F. Rob,  M. Schneider,  N. Sergueev,  
 S. M. Sharada,  S. Sharma,  D. W. Small,  T. Stauch,  T. Stein,  
 Yu-Chuan Su,  A. J. W. Thom,  A. Tkatchenko,  T. Tsuchimochi,  N. M. Tubman,  
 L. Vogt,  M. L. Vidal,  O. Vydrov,  M. A. Watson,  J. Wenzel,  
 M. de Wergifosse,  T. A. Wesolowski,  A. White,  J. Witte,  A. Yamada,  
 Jun Yang,  K. Yao,  S. Yeganeh,  S. R. Yost,  Zhi-Qiang You,  A. Zech,  
 Igor Ying Zhang,  Xing Zhang,  Yan Zhao,  Ying Zhu,  B. R. Brooks,  
 G. K. L. Chan,  C. J. Cramer,  M. S. Gordon,  W. J. Hehre,  A. Klamt,  
 M. W. Schmidt,  C. D. Sherrill,  D. G. Truhlar,  A. Aspuru-Guzik,  R. Baer,  
 A. T. Bell,  N. A. Besley,  Jeng-Da Chai,  A. E. DePrince, III,  
 R. A. DiStasio Jr.,  A. Dreuw,  B. D. Dunietz,  T. R. Furlani,  
 Chao-Ping Hsu,  Yousung Jung,  Jing Kong,  D. S. Lambrecht,  WanZhen Liang,  
 C. Ochsenfeld,  V. A. Rassolov,  L. V. Slipchenko,  J. E. Subotnik,  
 T. Van Voorhis,  J. M. Herbert,  A. I. Krylov,  P. M. W. Gill,  M. Head-Gordon

 Contributors to earlier versions of Q-Chem not listed above: 
 R. D. Adamson,  B. Austin,  J. Baker,  G. J. O. Beran,  K. Brandhorst,  
 S. T. Brown,  E. F. C. Byrd,  A. K. Chakraborty,  C.-L. Cheng,  
 Siu Hung Chien,  D. M. Chipman,  D. L. Crittenden,  H. Dachsel,  
 R. J. Doerksen,  A. D. Dutoi,  L. Fusti-Molnar,  W. A. Goddard III,  
 A. Golubeva-Zadorozhnaya,  S. R. Gwaltney,  G. Hawkins,  A. Heyden,  
 S. Hirata,  G. Kedziora,  F. J. Keil,  C. Kelley,  Jihan Kim,  R. A. King,  
 R. Z. Khaliullin,  P. P. Korambath,  W. Kurlancheek,  A. M. Lee,  M. S. Lee,  
 S. V. Levchenko,  Ching Yeh Lin,  D. Liotard,  R. C. Lochan,  I. Lotan,  
 P. E. Maslen,  N. Nair,  D. P. O'Neill,  D. Neuhauser,  E. Neuscamman,  
 C. M. Oana,  R. Olson,  B. Peters,  R. Peverati,  P. A. Pieniazek,  
 Y. M. Rhee,  J. Ritchie,  M. A. Rohrdanz,  E. Rosta,  N. J. Russ,  
 H. F. Schaefer III,  N. E. Schultz,  N. Shenvi,  A. C. Simmonett,  A. Sodt,  
 D. Stuck,  K. S. Thanthiriwatte,  V. Vanovschi,  Tao Wang,  A. Warshel,  
 C. F. Williams,  Q. Wu,  X. Xu,  W. Zhang

 Please cite Q-Chem as follows:
 Y. Shao et al., Mol. Phys. 113, 184-215 (2015)
 DOI: 10.1080/00268976.2014.952696

 Q-Chem 5.1.1 for Intel X86 EM64T Linux

 Parts of Q-Chem use Armadillo 8.300.2 (Tropical Shenanigans).
 http://arma.sourceforge.net/

 Q-Chem begins on Sat Oct  3 01:55:15 2020  

Host: n0090.mhg0
0

     Scratch files written to /local/scratch/users/yhljason/LiBH4_wB97X-2TQZ_aug-cc-pcVTZ.inp20201003015133//
Input Ideriv = 0
Curr. Ideriv = -1
Max.  Ideriv = 0
Analytic post-HF gradients are not available with non-HF exchange
Input Ideriv = 0
Curr. Ideriv = 0
Max.  Ideriv = 0

Checking the input file for inconsistencies... 	...done.

--------------------------------------------------------------
User input:
--------------------------------------------------------------
$molecule
0 1
     Li        0.0000000000    0.0000000000   -1.4298000000
        B         0.0000000000    0.0000000000    0.5063000000
        H         0.0000000000    0.0000000000    1.6973000000
        H         0.0000000000    1.1405000000    0.0202000000
        H         0.9877000000   -0.5702000000    0.0202000000
       H        -0.9877000000   -0.5702000000    0.0202000000
$end

$rem
jobtype sp
method wB97X-2(TQZ)
xc_grid 000099000590
basis aug-cc-pcVTZ
max_scf_cycles 200
thresh 14
scf_convergence 8
scf_algorithm gdm
symmetry false
sym_ignore true
unrestricted false
gen_scfman true
internal_stability_iter 15
internal_stability_davidson_iter 200
mem_total 128000
cc_memory 96000
cc_backend xm
mem_static 1500
n_frozen_core 0
$end



--------------------------------------------------------------
 ----------------------------------------------------------------
             Standard Nuclear Orientation (Angstroms)
    I     Atom           X                Y                Z
 ----------------------------------------------------------------
    1      Li      0.0000000000     0.0000000000    -1.4298000000
    2      B       0.0000000000     0.0000000000     0.5063000000
    3      H       0.0000000000     0.0000000000     1.6973000000
    4      H       0.0000000000     1.1405000000     0.0202000000
    5      H       0.9877000000    -0.5702000000     0.0202000000
    6      H      -0.9877000000    -0.5702000000     0.0202000000
 ----------------------------------------------------------------
 Nuclear Repulsion Energy =    17.3997337348 hartrees
 There are        6 alpha and        6 beta electrons
 Requested basis set is aug-cc-pCVTZ
 There are 74 shells and 210 basis functions

 Total QAlloc Memory Limit 128000 MB
 Mega-Array Size      1467 MB
 MEM_STATIC part      1500 MB

                       Distance Matrix (Angstroms)
             Li(  1)   B (  2)   H (  3)   H (  4)   H (  5)
   B (  2)  1.936100
   H (  3)  3.127100  1.191000
   H (  4)  1.844787  1.239772  2.028153
   H (  5)  1.844771  1.239747  2.028138  1.975360
   H (  6)  1.844771  1.239747  2.028138  1.975360  1.975400
 
 A cutoff of  1.0D-14 yielded   2765 shell pairs
 There are     22363 function pairs (     28804 Cartesian)
 
 -------------------------------------------------------
 OpenMP Integral Computing Module                       
 Release: version 1.0, May 2013, Q-Chem Inc. Pittsburgh 
 -------------------------------------------------------
 Integral Job Info:
 Integral job number is                      11
 Integral operator is                         1
 short-range coefficients              63615800
 long-range coefficients              100000000
 Omega coefficients                         300
 if combine SR and LR in K                    1
 Integral screening is                        0
 Integral computing path is                   2
 max size of driver memory is            800000
 size of driver memory is                776718
 size of scratch memory is              9790524
 max col of scratch BK array              10000
 max len of scratch array in speh3          662
 max len of scratch index in speh4           32
 max int batch size is                      520
 min int batch size is                       52
 fixed nKL is                                52
 max L of basis functions is                  3
 order of int derivative is                   0
 number of shells is                         74
 number of basis is                         238
 number of cartesian basis is               238
 number of contracted shell pairs          2765
 number of primitive shell pairs           6381
 maxK2 (contraction) of shell pair           81
 max number of K2 of shell pair               1
 max number of CS2 of shell pair            487
 max number of PS2 of shell pair            487
 mem total for path MDJ                  579280
 -------------------------------------------------------
 Smallest overlap matrix eigenvalue = 3.26E-06

 Scale SEOQF with 1.000000e-01/1.000000e-01/1.000000e-01

 Standard Electronic Orientation quadrupole field applied
 Nucleus-field energy     =    -0.0000000009 hartrees
 Guess from superposition of atomic densities
 Warning:  Energy on first SCF cycle will be non-variational
 SAD guess density has 12.000000 electrons

 -----------------------------------------------------------------------
  General SCF calculation program by
  Eric Jon Sundstrom, Paul Horn, Yuezhi Mao, Dmitri Zuev, Alec White,
  David Stuck, Shaama M.S., Shane Yost, Joonho Lee, David Small,
  Daniel Levine, Susi Lehtola, Hugh Burton, Evgeny Epifanovsky
 -----------------------------------------------------------------------
 Exchange:     0.6362 Hartree-Fock + 1.0000 wB97X-2(TQZ) + LR-HF
 Correlation:  1.0000 wB97X-2(TQZ)
 Using Euler-Maclaurin-Lebedev (99,590) quadrature formula
Running Object-Oriented RKS (RHF)
We will preform up to 15 macro iterations over saddle points until a stable solution is found
Energy prior to optimization (guess energy) = -34.620302398071
Begin Timing: Total SCF Calculation
Begin Timing: SCF Single Stationary Point Calculation
begin iterations for algorithm: GDM          
the SCF tolerance is set to 1.00e-08
    1     -34.6203023981      4.70e-02     00000  Normal BFGS step
    2     -34.6432864265      1.68e-02     00000  Normal BFGS step
    3     -34.6461588007      3.12e-03     00000  Normal BFGS step
    4     -34.6462349491      7.74e-04     00000  Normal BFGS step
    5     -34.6462394903      8.80e-05     00000  Normal BFGS step
    6     -34.6462396361      1.62e-05     00000  Normal BFGS step
    7     -34.6462396403      2.07e-06     00000  Normal BFGS step
    8     -34.6462396404      4.01e-07     00000  Normal BFGS step
    9     -34.6462396404      9.85e-08     00000  Normal BFGS step
   10     -34.6462396404      2.29e-08     00000  Normal BFGS step
   11     -34.6462396404      3.98e-09     00000 Convergence criterion met
Timing for Single Stationary Point: 78.00s (wall), 619.02s (cpu)
Begin Timing: Stability
===================================================
Beginning Test for Internal Stability
===================================================
generating davidson guess vectors based on koopmans excitations
    1      4.50e-01     00000 Davidson Iteration
    2      4.72e-01     00000 Davidson Iteration
    3      1.28e-01     00000 Davidson Iteration
    4      3.36e-02     00000 Davidson Iteration
    5      2.25e-02     00000 Davidson Iteration
    6      9.63e-03     00000 Davidson Iteration
    7      4.53e-03     00000 Davidson Iteration
    8      1.98e-03     00000 Davidson Iteration
    9      5.72e-04     00000 Davidson Iteration
   10      1.48e-04     00000 Davidson Iteration
   11      3.93e-05     00000 Davidson Converged
converged_eigenvalues
   1.0140
   1.0140
Threshold for negative eigenvalues: -1.0e-05
solution was a local minimum (stable)
===================================================
End Test for Internal Stability
===================================================
Our SCF solution is stable!
Timing for Total SCF: 248.00s (wall), 1972.20s (cpu)
 Total energy in the final basis set =      -34.6462396404
    ==================================================
              The end of Object-Oriented SCFman       
    ==================================================
 
 Components of the MP2 correlation energy:
        aaaa  correlation energy =        -0.0082995050 au
        abab  correlation energy =        -0.1052610291 au
        bbbb  correlation energy =        -0.0082995050 au
        non-Brillouin singles    =        -0.0000000000 au

 Total  MP2   correlation energy =                    -0.12186004 au
        MP2         total energy =                   -34.76809968 au
 
 --------------------------------------------------------------
 
                    Orbital Energies (a.u.)
 --------------------------------------------------------------
 
 Alpha MOs
 -- Occupied --
 -7.182  -2.325  -0.666  -0.422  -0.413  -0.413
 -- Virtual --
 -0.007   0.017   0.017   0.019   0.023   0.055   0.055   0.059
  0.070   0.072   0.072   0.082   0.086   0.086   0.113   0.129
  0.129   0.134   0.134   0.142   0.154   0.154   0.169   0.200
  0.203   0.203   0.231   0.231   0.250   0.270   0.297   0.297
  0.297   0.311   0.328   0.328   0.338   0.338   0.351   0.351
  0.355   0.358   0.358   0.378   0.389   0.411   0.421   0.421
  0.427   0.457   0.467   0.467   0.477   0.477   0.483   0.483
  0.483   0.542   0.583   0.609   0.609   0.632   0.632   0.650
  0.744   0.744   0.777   0.791   0.791   0.804   0.806   0.806
  0.830   0.830   0.837   0.879   0.879   0.889   0.937   0.954
  0.960   1.002   1.002   1.017   1.038   1.038   1.063   1.126
  1.126   1.148   1.197   1.197   1.197   1.243   1.243   1.250
  1.250   1.255   1.304   1.304   1.321   1.325   1.325   1.377
  1.377   1.398   1.446   1.464   1.554   1.554   1.573   1.573
  1.610   1.610   1.632   1.652   1.736   1.736   1.743   1.888
  1.905   1.905   1.961   2.004   2.004   2.230   2.348   2.358
  2.358   2.497   2.497   2.574   2.600   2.600   2.730   2.740
  2.847   2.847   3.085   3.085   3.196   3.652   3.695   3.695
  3.831   3.946   3.980   3.980   4.006   4.038   4.038   4.273
  4.283   4.283   4.334   4.334   4.359   4.509   4.536   4.582
  4.582   4.744   4.753   4.753   4.756   4.816   4.816   4.855
  4.855   4.949   4.984   4.984   5.112   5.112   5.158   5.462
  5.462   5.502   5.586   5.586   5.725   6.428  11.686  11.687
 11.968  12.778  14.647  14.647  14.684  14.684  14.750  16.168
 18.660  18.660  18.823  37.059  37.059  37.205  37.210  37.210
 56.500  56.500  56.679  62.221
 --------------------------------------------------------------
 
          Ground-State Mulliken Net Atomic Charges

     Atom                 Charge (a.u.)
  ----------------------------------------
      1 Li                    0.410688
      2 B                     1.283002
      3 H                    -0.283723
      4 H                    -0.469987
      5 H                    -0.469990
      6 H                    -0.469990
  ----------------------------------------
  Sum of atomic charges =    -0.000000

 -----------------------------------------------------------------
                    Cartesian Multipole Moments
 -----------------------------------------------------------------
    Charge (ESU x 10^10)
                -0.0000
    Dipole Moment (Debye)
         X      -0.0000      Y      -0.0001      Z      -6.1583
       Tot       6.1583
    Quadrupole Moments (Debye-Ang)
        XX     -14.1908     XY       0.0000     YY     -14.1910
        XZ       0.0000     YZ       0.0000     ZZ      -4.5573
    Octopole Moments (Debye-Ang^2)
       XXX      -0.0000    XXY       0.8777    XYY      -0.0000
       YYY      -0.8786    XXZ      -3.1593    XYZ      -0.0000
       YYZ      -3.1593    XZZ      -0.0000    YZZ      -0.0002
       ZZZ     -27.4099
    Hexadecapole Moments (Debye-Ang^3)
      XXXX     -34.5801   XXXY       0.0000   XXYY     -11.5268
      XYYY       0.0000   YYYY     -34.5805   XXXZ       0.0000
      XXYZ      -0.0282   XYYZ       0.0000   YYYZ       0.0283
      XXZZ     -14.7749   XYZZ      -0.0000   YYZZ     -14.7749
      XZZZ       0.0000   YZZZ       0.0001   ZZZZ     -35.4215
 -----------------------------------------------------------------
Archival summary:
1\1\n0090.mhg0\SP\ProcedureUnspecified\BasisUnspecified\1i14\yhljason\SatOct302:00:242020SatOct302:00:242020\0\\#,ProcedureUnspecified,BasisUnspecified,\\0,1\B\H,1,1.191\H,1,1.23975,2,113.085\H,1,1.23975,2,113.085,3,-120.004,0\H,1,1.23977,2,113.085,3,119.998,0\Li,3,1.84477,1,74.8988,2,-180,0\\\@

 Total job time:  309.70s(wall), 2462.00s(cpu) 
 Sat Oct  3 02:00:24 2020

        *************************************************************
        *                                                           *
        *  Thank you very much for using Q-Chem.  Have a nice day.  *
        *                                                           *
        *************************************************************


 
User input: 2 of 83 of 8 
 
Q-Chem Developer Version!
                  Welcome to Q-Chem
     A Quantum Leap Into The Future Of Chemistry


 Q-Chem 5.1, Q-Chem, Inc., Pleasanton, CA (2018)

 Yihan Shao,  Zhengting Gan,  E. Epifanovsky,  A. T. B. Gilbert,  M. Wormit,  
 J. Kussmann,  A. W. Lange,  A. Behn,  Jia Deng,  Xintian Feng,  D. Ghosh,  
 M. Goldey,  P. R. Horn,  L. D. Jacobson,  I. Kaliman,  T. Kus,  A. Landau,  
 Jie Liu,  E. I. Proynov,  R. M. Richard,  R. P. Steele,  E. J. Sundstrom,  
 H. L. Woodcock III,  P. M. Zimmerman,  D. Zuev,  B. Albrecht,  E. Alguire,  
 S. A. Baeppler,  D. Barton,  Z. Benda,  Y. A. Bernard,  E. J. Berquist,  
 K. B. Bravaya,  H. Burton,  D. Casanova,  Chun-Min Chang,  Yunqing Chen,  
 A. Chien,  K. D. Closser,  M. P. Coons,  S. Coriani,  S. Dasgupta,  
 A. L. Dempwolff,  M. Diedenhofen,  Hainam Do,  R. G. Edgar,  Po-Tung Fang,  
 S. Faraji,  S. Fatehi,  Qingguo Feng,  K. D. Fenk,  J. Fosso-Tande,  
 Qinghui Ge,  A. Ghysels,  G. Gidofalvi,  J. Gomes,  J. Gonthier,  A. Gunina,  
 D. Hait,  M. W. D. Hanson-Heine,  P. H. P. Harbach,  A. W. Hauser,  
 J. E. Herr,  E. G. Hohenstein,  Z. C. Holden,  Kerwin Hui,  B. C. Huynh,  
 T.-C. Jagau,  Hyunjun Ji,  B. Kaduk,  K. Khistyaev,  Jaehoon Kim,  
 P. Klunzinger,  K. Koh,  D. Kosenkov,  L. Koulias,  T. Kowalczyk,  
 C. M. Krauter,  A. Kunitsa,  Ka Un Lao,  A. Laurent,  K. V. Lawler,  
 Joonho Lee,  D. Lefrancois,  S. Lehtola,  D. S. Levine,  Yi-Pei Li,  
 You-Sheng Lin,  Fenglai Liu,  E. Livshits,  A. Luenser,  P. Manohar,  
 E. Mansoor,  S. F. Manzer,  Shan-Ping Mao,  Yuezhi Mao,  N. Mardirossian,  
 A. V. Marenich,  T. Markovich,  L. A. Martinez-Martinez,  S. A. Maurer,  
 N. J. Mayhall,  S. C. McKenzie,  J.-M. Mewes,  A. F. Morrison,  
 J. W. Mullinax,  K. Nanda,  T. S. Nguyen-Beck,  R. Olivares-Amaya,  
 J. A. Parkhill,  T. M. Perrine,  F. Plasser,  P. Pokhilko,  S. Prager,  
 A. Prociuk,  E. Ramos,  D. R. Rehn,  F. Rob,  M. Schneider,  N. Sergueev,  
 S. M. Sharada,  S. Sharma,  D. W. Small,  T. Stauch,  T. Stein,  
 Yu-Chuan Su,  A. J. W. Thom,  A. Tkatchenko,  T. Tsuchimochi,  N. M. Tubman,  
 L. Vogt,  M. L. Vidal,  O. Vydrov,  M. A. Watson,  J. Wenzel,  
 M. de Wergifosse,  T. A. Wesolowski,  A. White,  J. Witte,  A. Yamada,  
 Jun Yang,  K. Yao,  S. Yeganeh,  S. R. Yost,  Zhi-Qiang You,  A. Zech,  
 Igor Ying Zhang,  Xing Zhang,  Yan Zhao,  Ying Zhu,  B. R. Brooks,  
 G. K. L. Chan,  C. J. Cramer,  M. S. Gordon,  W. J. Hehre,  A. Klamt,  
 M. W. Schmidt,  C. D. Sherrill,  D. G. Truhlar,  A. Aspuru-Guzik,  R. Baer,  
 A. T. Bell,  N. A. Besley,  Jeng-Da Chai,  A. E. DePrince, III,  
 R. A. DiStasio Jr.,  A. Dreuw,  B. D. Dunietz,  T. R. Furlani,  
 Chao-Ping Hsu,  Yousung Jung,  Jing Kong,  D. S. Lambrecht,  WanZhen Liang,  
 C. Ochsenfeld,  V. A. Rassolov,  L. V. Slipchenko,  J. E. Subotnik,  
 T. Van Voorhis,  J. M. Herbert,  A. I. Krylov,  P. M. W. Gill,  M. Head-Gordon

 Contributors to earlier versions of Q-Chem not listed above: 
 R. D. Adamson,  B. Austin,  J. Baker,  G. J. O. Beran,  K. Brandhorst,  
 S. T. Brown,  E. F. C. Byrd,  A. K. Chakraborty,  C.-L. Cheng,  
 Siu Hung Chien,  D. M. Chipman,  D. L. Crittenden,  H. Dachsel,  
 R. J. Doerksen,  A. D. Dutoi,  L. Fusti-Molnar,  W. A. Goddard III,  
 A. Golubeva-Zadorozhnaya,  S. R. Gwaltney,  G. Hawkins,  A. Heyden,  
 S. Hirata,  G. Kedziora,  F. J. Keil,  C. Kelley,  Jihan Kim,  R. A. King,  
 R. Z. Khaliullin,  P. P. Korambath,  W. Kurlancheek,  A. M. Lee,  M. S. Lee,  
 S. V. Levchenko,  Ching Yeh Lin,  D. Liotard,  R. C. Lochan,  I. Lotan,  
 P. E. Maslen,  N. Nair,  D. P. O'Neill,  D. Neuhauser,  E. Neuscamman,  
 C. M. Oana,  R. Olson,  B. Peters,  R. Peverati,  P. A. Pieniazek,  
 Y. M. Rhee,  J. Ritchie,  M. A. Rohrdanz,  E. Rosta,  N. J. Russ,  
 H. F. Schaefer III,  N. E. Schultz,  N. Shenvi,  A. C. Simmonett,  A. Sodt,  
 D. Stuck,  K. S. Thanthiriwatte,  V. Vanovschi,  Tao Wang,  A. Warshel,  
 C. F. Williams,  Q. Wu,  X. Xu,  W. Zhang

 Please cite Q-Chem as follows:
 Y. Shao et al., Mol. Phys. 113, 184-215 (2015)
 DOI: 10.1080/00268976.2014.952696

 Q-Chem 5.1.1 for Intel X86 EM64T Linux

 Parts of Q-Chem use Armadillo 8.300.2 (Tropical Shenanigans).
 http://arma.sourceforge.net/

 Q-Chem begins on Sat Oct  3 02:00:29 2020  

Host: n0090.mhg0
0

     Scratch files written to /local/scratch/users/yhljason/LiBH4_wB97X-2TQZ_aug-cc-pcVTZ.inp20201003015133//
The previous job contains 0 fragments, simply inherited here
Input Ideriv = 0
Curr. Ideriv = -1
Max.  Ideriv = 0
Analytic post-HF gradients are not available with non-HF exchange
Input Ideriv = 0
Curr. Ideriv = 0
Max.  Ideriv = 0

Checking the input file for inconsistencies... 	...done.

--------------------------------------------------------------
User input:
--------------------------------------------------------------
$molecule
read
$end

$rem

jobtype sp
method wB97X-2(TQZ)
xc_grid 000099000590
basis aug-cc-pcVTZ
max_scf_cycles 200
thresh 14
scf_convergence 8
mem_total 128000
cc_memory 96000
cc_backend xm
mem_static 1500
symmetry false
sym_ignore true
scf_guess read
unrestricted false
scf_algorithm gdm
n_frozen_core 0
$end

$multipole_field
XX 0.0001
$end


--------------------------------------------------------------
 ----------------------------------------------------------------
             Standard Nuclear Orientation (Angstroms)
    I     Atom           X                Y                Z
 ----------------------------------------------------------------
    1      Li      0.0000000000     0.0000000000    -1.4298000000
    2      B       0.0000000000     0.0000000000     0.5063000000
    3      H       0.0000000000     0.0000000000     1.6973000000
    4      H       0.0000000000     1.1405000000     0.0202000000
    5      H       0.9877000000    -0.5702000000     0.0202000000
    6      H      -0.9877000000    -0.5702000000     0.0202000000
 ----------------------------------------------------------------
 Nuclear Repulsion Energy =    17.3997337348 hartrees
 There are        6 alpha and        6 beta electrons
 Requested basis set is aug-cc-pCVTZ
 There are 74 shells and 210 basis functions

 Total QAlloc Memory Limit 128000 MB
 Mega-Array Size      1467 MB
 MEM_STATIC part      1500 MB

                       Distance Matrix (Angstroms)
             Li(  1)   B (  2)   H (  3)   H (  4)   H (  5)
   B (  2)  1.936100
   H (  3)  3.127100  1.191000
   H (  4)  1.844787  1.239772  2.028153
   H (  5)  1.844771  1.239747  2.028138  1.975360
   H (  6)  1.844771  1.239747  2.028138  1.975360  1.975400
 
 Applying Cartesian multipole field
    Component          Value
    ---------          -----
     (2,0,0)        1.00000E-04
 Nucleus-field energy     =     0.0006967514 hartrees
 A cutoff of  1.0D-14 yielded   2765 shell pairs
 There are     22363 function pairs (     28804 Cartesian)
 
 -------------------------------------------------------
 OpenMP Integral Computing Module                       
 Release: version 1.0, May 2013, Q-Chem Inc. Pittsburgh 
 -------------------------------------------------------
 Integral Job Info:
 Integral job number is                      11
 Integral operator is                         1
 short-range coefficients              63615800
 long-range coefficients              100000000
 Omega coefficients                         300
 if combine SR and LR in K                    1
 Integral screening is                        0
 Integral computing path is                   2
 max size of driver memory is            800000
 size of driver memory is                776718
 size of scratch memory is              9790524
 max col of scratch BK array              10000
 max len of scratch array in speh3          662
 max len of scratch index in speh4           32
 max int batch size is                      520
 min int batch size is                       52
 fixed nKL is                                52
 max L of basis functions is                  3
 order of int derivative is                   0
 number of shells is                         74
 number of basis is                         238
 number of cartesian basis is               238
 number of contracted shell pairs          2765
 number of primitive shell pairs           6381
 maxK2 (contraction) of shell pair           81
 max number of K2 of shell pair               1
 max number of CS2 of shell pair            487
 max number of PS2 of shell pair            487
 mem total for path MDJ                  579280
 -------------------------------------------------------
 Smallest overlap matrix eigenvalue = 3.26E-06
 Guess MOs from SCF MO coefficient file

 -----------------------------------------------------------------------
  General SCF calculation program by
  Eric Jon Sundstrom, Paul Horn, Yuezhi Mao, Dmitri Zuev, Alec White,
  David Stuck, Shaama M.S., Shane Yost, Joonho Lee, David Small,
  Daniel Levine, Susi Lehtola, Hugh Burton, Evgeny Epifanovsky
 -----------------------------------------------------------------------
 Exchange:     0.6362 Hartree-Fock + 1.0000 wB97X-2(TQZ) + LR-HF
 Correlation:  1.0000 wB97X-2(TQZ)
 Using Euler-Maclaurin-Lebedev (99,590) quadrature formula
 using 8 threads for integral computing
 -------------------------------------------------------
 OpenMP Integral computing Module                
 Release: version 1.0, May 2013, Q-Chem Inc. Pittsburgh 
 -------------------------------------------------------
 using 8 threads for integral computing
 -------------------------------------------------------
 OpenMP Integral computing Module                
 Release: version 1.0, May 2013, Q-Chem Inc. Pittsburgh 
 -------------------------------------------------------
 -------------------------------------------------------
 OpenMP BLAS3 based DFT computing Module                
 Release: version 1.0, May 2013, Q-Chem Inc. Pittsburgh 
 -------------------------------------------------------
 A restricted SCF calculation will be
 performed using GDM
 SCF converges when RMS gradient is below 1.0e-08
 ---------------------------------------
  Cycle       Energy        RMS Gradient
 ---------------------------------------
    1     -34.6472946927      2.72e-04   Normal BFGS step
    2     -34.6472956561      6.56e-05   Normal BFGS step
    3     -34.6472957567      1.13e-05   Normal BFGS step
    4     -34.6472957604      3.44e-06   Normal BFGS step
    5     -34.6472957606      7.84e-07   Normal BFGS step
    6     -34.6472957607      1.49e-07   Normal BFGS step
    7     -34.6472957607      3.32e-08   Normal BFGS step
    8     -34.6472957607      9.44e-09  Convergence criterion met
 ---------------------------------------
 SCF time:   CPU 500.78s  wall 64.00s 
 SCF   energy in the final basis set =      -34.6472957607
 Total energy in the final basis set =      -34.6472957607
 
 Components of the MP2 correlation energy:
        aaaa  correlation energy =        -0.0082996811 au
        abab  correlation energy =        -0.1052595525 au
        bbbb  correlation energy =        -0.0082996811 au
        non-Brillouin singles    =        -0.0000000000 au

 Total  MP2   correlation energy =                    -0.12185891 au
        MP2         total energy =                   -34.76915468 au
 
 --------------------------------------------------------------
 
                    Orbital Energies (a.u.)
 --------------------------------------------------------------
 
 Alpha MOs
 -- Occupied --
 -7.183  -2.325  -0.667  -0.422  -0.414  -0.414
 -- Virtual --
 -0.009   0.005   0.013   0.015   0.016   0.048   0.052   0.056
  0.066   0.067   0.069   0.078   0.082   0.084   0.110   0.124
  0.127   0.130   0.132   0.140   0.152   0.153   0.166   0.197
  0.201   0.202   0.229   0.230   0.249   0.269   0.295   0.296
  0.296   0.310   0.326   0.326   0.336   0.337   0.350   0.350
  0.353   0.357   0.357   0.376   0.388   0.410   0.420   0.420
  0.426   0.456   0.465   0.466   0.476   0.476   0.481   0.482
  0.482   0.540   0.582   0.607   0.608   0.631   0.631   0.649
  0.742   0.743   0.777   0.790   0.791   0.803   0.805   0.805
  0.829   0.830   0.836   0.878   0.878   0.888   0.936   0.953
  0.959   1.001   1.001   1.016   1.037   1.037   1.063   1.125
  1.125   1.147   1.196   1.196   1.197   1.242   1.242   1.250
  1.250   1.254   1.303   1.303   1.320   1.324   1.324   1.376
  1.376   1.397   1.446   1.464   1.553   1.553   1.573   1.573
  1.609   1.609   1.631   1.652   1.735   1.735   1.743   1.888
  1.904   1.904   1.960   2.004   2.004   2.230   2.348   2.357
  2.358   2.496   2.497   2.574   2.599   2.599   2.730   2.740
  2.846   2.846   3.084   3.084   3.196   3.651   3.695   3.695
  3.830   3.946   3.980   3.980   4.005   4.038   4.038   4.273
  4.283   4.283   4.334   4.334   4.358   4.509   4.536   4.581
  4.581   4.744   4.752   4.752   4.756   4.816   4.816   4.855
  4.855   4.949   4.984   4.984   5.112   5.112   5.158   5.461
  5.462   5.502   5.585   5.585   5.725   6.428  11.686  11.686
 11.968  12.778  14.646  14.646  14.684  14.684  14.749  16.168
 18.660  18.660  18.823  37.059  37.059  37.205  37.209  37.209
 56.500  56.500  56.678  62.221
 --------------------------------------------------------------
 
          Ground-State Mulliken Net Atomic Charges

     Atom                 Charge (a.u.)
  ----------------------------------------
      1 Li                    0.410624
      2 B                     1.279392
      3 H                    -0.282624
      4 H                    -0.468293
      5 H                    -0.469549
      6 H                    -0.469549
  ----------------------------------------
  Sum of atomic charges =    -0.000000

 -----------------------------------------------------------------
                    Cartesian Multipole Moments
 -----------------------------------------------------------------
    Charge (ESU x 10^10)
                -0.0000
    Dipole Moment (Debye)
         X       0.0000      Y       0.0021      Z      -6.1563
       Tot       6.1563
    Quadrupole Moments (Debye-Ang)
        XX     -14.2196     XY      -0.0000     YY     -14.1926
        XZ      -0.0000     YZ      -0.0001     ZZ      -4.5569
    Octopole Moments (Debye-Ang^2)
       XXX       0.0000    XXY       0.8895    XYY       0.0000
       YYY      -0.8713    XXZ      -3.1586    XYZ       0.0000
       YYZ      -3.1591    XZZ       0.0000    YZZ       0.0017
       ZZZ     -27.4030
    Hexadecapole Moments (Debye-Ang^3)
      XXXX     -34.7486   XXXY       0.0000   XXYY     -11.5572
      XYYY       0.0000   YYYY     -34.5910   XXXZ       0.0000
      XXYZ      -0.0289   XYYZ       0.0000   YYYZ       0.0279
      XXZZ     -14.8013   XYZZ      -0.0000   YYZZ     -14.7785
      XZZZ      -0.0000   YZZZ      -0.0004   ZZZZ     -35.4183
 -----------------------------------------------------------------
Archival summary:
1\1\n0090.mhg0\SP\ProcedureUnspecified\BasisUnspecified\1i14\yhljason\SatOct302:02:212020SatOct302:02:212020\0\\#,ProcedureUnspecified,BasisUnspecified,\\0,1\B\H,1,1.191\H,1,1.23975,2,113.085\H,1,1.23975,2,113.085,3,-120.004,0\H,1,1.23977,2,113.085,3,119.998,0\Li,3,1.84477,1,74.8988,2,-180,0\\\@

 Total job time:  111.92s(wall), 885.96s(cpu) 
 Sat Oct  3 02:02:21 2020

        *************************************************************
        *                                                           *
        *  Thank you very much for using Q-Chem.  Have a nice day.  *
        *                                                           *
        *************************************************************


 
User input: 4 of 8 
 
Q-Chem Developer Version!
                  Welcome to Q-Chem
     A Quantum Leap Into The Future Of Chemistry


 Q-Chem 5.1, Q-Chem, Inc., Pleasanton, CA (2018)

 Yihan Shao,  Zhengting Gan,  E. Epifanovsky,  A. T. B. Gilbert,  M. Wormit,  
 J. Kussmann,  A. W. Lange,  A. Behn,  Jia Deng,  Xintian Feng,  D. Ghosh,  
 M. Goldey,  P. R. Horn,  L. D. Jacobson,  I. Kaliman,  T. Kus,  A. Landau,  
 Jie Liu,  E. I. Proynov,  R. M. Richard,  R. P. Steele,  E. J. Sundstrom,  
 H. L. Woodcock III,  P. M. Zimmerman,  D. Zuev,  B. Albrecht,  E. Alguire,  
 S. A. Baeppler,  D. Barton,  Z. Benda,  Y. A. Bernard,  E. J. Berquist,  
 K. B. Bravaya,  H. Burton,  D. Casanova,  Chun-Min Chang,  Yunqing Chen,  
 A. Chien,  K. D. Closser,  M. P. Coons,  S. Coriani,  S. Dasgupta,  
 A. L. Dempwolff,  M. Diedenhofen,  Hainam Do,  R. G. Edgar,  Po-Tung Fang,  
 S. Faraji,  S. Fatehi,  Qingguo Feng,  K. D. Fenk,  J. Fosso-Tande,  
 Qinghui Ge,  A. Ghysels,  G. Gidofalvi,  J. Gomes,  J. Gonthier,  A. Gunina,  
 D. Hait,  M. W. D. Hanson-Heine,  P. H. P. Harbach,  A. W. Hauser,  
 J. E. Herr,  E. G. Hohenstein,  Z. C. Holden,  Kerwin Hui,  B. C. Huynh,  
 T.-C. Jagau,  Hyunjun Ji,  B. Kaduk,  K. Khistyaev,  Jaehoon Kim,  
 P. Klunzinger,  K. Koh,  D. Kosenkov,  L. Koulias,  T. Kowalczyk,  
 C. M. Krauter,  A. Kunitsa,  Ka Un Lao,  A. Laurent,  K. V. Lawler,  
 Joonho Lee,  D. Lefrancois,  S. Lehtola,  D. S. Levine,  Yi-Pei Li,  
 You-Sheng Lin,  Fenglai Liu,  E. Livshits,  A. Luenser,  P. Manohar,  
 E. Mansoor,  S. F. Manzer,  Shan-Ping Mao,  Yuezhi Mao,  N. Mardirossian,  
 A. V. Marenich,  T. Markovich,  L. A. Martinez-Martinez,  S. A. Maurer,  
 N. J. Mayhall,  S. C. McKenzie,  J.-M. Mewes,  A. F. Morrison,  
 J. W. Mullinax,  K. Nanda,  T. S. Nguyen-Beck,  R. Olivares-Amaya,  
 J. A. Parkhill,  T. M. Perrine,  F. Plasser,  P. Pokhilko,  S. Prager,  
 A. Prociuk,  E. Ramos,  D. R. Rehn,  F. Rob,  M. Schneider,  N. Sergueev,  
 S. M. Sharada,  S. Sharma,  D. W. Small,  T. Stauch,  T. Stein,  
 Yu-Chuan Su,  A. J. W. Thom,  A. Tkatchenko,  T. Tsuchimochi,  N. M. Tubman,  
 L. Vogt,  M. L. Vidal,  O. Vydrov,  M. A. Watson,  J. Wenzel,  
 M. de Wergifosse,  T. A. Wesolowski,  A. White,  J. Witte,  A. Yamada,  
 Jun Yang,  K. Yao,  S. Yeganeh,  S. R. Yost,  Zhi-Qiang You,  A. Zech,  
 Igor Ying Zhang,  Xing Zhang,  Yan Zhao,  Ying Zhu,  B. R. Brooks,  
 G. K. L. Chan,  C. J. Cramer,  M. S. Gordon,  W. J. Hehre,  A. Klamt,  
 M. W. Schmidt,  C. D. Sherrill,  D. G. Truhlar,  A. Aspuru-Guzik,  R. Baer,  
 A. T. Bell,  N. A. Besley,  Jeng-Da Chai,  A. E. DePrince, III,  
 R. A. DiStasio Jr.,  A. Dreuw,  B. D. Dunietz,  T. R. Furlani,  
 Chao-Ping Hsu,  Yousung Jung,  Jing Kong,  D. S. Lambrecht,  WanZhen Liang,  
 C. Ochsenfeld,  V. A. Rassolov,  L. V. Slipchenko,  J. E. Subotnik,  
 T. Van Voorhis,  J. M. Herbert,  A. I. Krylov,  P. M. W. Gill,  M. Head-Gordon

 Contributors to earlier versions of Q-Chem not listed above: 
 R. D. Adamson,  B. Austin,  J. Baker,  G. J. O. Beran,  K. Brandhorst,  
 S. T. Brown,  E. F. C. Byrd,  A. K. Chakraborty,  C.-L. Cheng,  
 Siu Hung Chien,  D. M. Chipman,  D. L. Crittenden,  H. Dachsel,  
 R. J. Doerksen,  A. D. Dutoi,  L. Fusti-Molnar,  W. A. Goddard III,  
 A. Golubeva-Zadorozhnaya,  S. R. Gwaltney,  G. Hawkins,  A. Heyden,  
 S. Hirata,  G. Kedziora,  F. J. Keil,  C. Kelley,  Jihan Kim,  R. A. King,  
 R. Z. Khaliullin,  P. P. Korambath,  W. Kurlancheek,  A. M. Lee,  M. S. Lee,  
 S. V. Levchenko,  Ching Yeh Lin,  D. Liotard,  R. C. Lochan,  I. Lotan,  
 P. E. Maslen,  N. Nair,  D. P. O'Neill,  D. Neuhauser,  E. Neuscamman,  
 C. M. Oana,  R. Olson,  B. Peters,  R. Peverati,  P. A. Pieniazek,  
 Y. M. Rhee,  J. Ritchie,  M. A. Rohrdanz,  E. Rosta,  N. J. Russ,  
 H. F. Schaefer III,  N. E. Schultz,  N. Shenvi,  A. C. Simmonett,  A. Sodt,  
 D. Stuck,  K. S. Thanthiriwatte,  V. Vanovschi,  Tao Wang,  A. Warshel,  
 C. F. Williams,  Q. Wu,  X. Xu,  W. Zhang

 Please cite Q-Chem as follows:
 Y. Shao et al., Mol. Phys. 113, 184-215 (2015)
 DOI: 10.1080/00268976.2014.952696

 Q-Chem 5.1.1 for Intel X86 EM64T Linux

 Parts of Q-Chem use Armadillo 8.300.2 (Tropical Shenanigans).
 http://arma.sourceforge.net/

 Q-Chem begins on Sat Oct  3 02:02:22 2020  

Host: n0090.mhg0
0

     Scratch files written to /local/scratch/users/yhljason/LiBH4_wB97X-2TQZ_aug-cc-pcVTZ.inp20201003015133//
The previous job contains 0 fragments, simply inherited here
Input Ideriv = 0
Curr. Ideriv = -1
Max.  Ideriv = 0
Analytic post-HF gradients are not available with non-HF exchange
Input Ideriv = 0
Curr. Ideriv = 0
Max.  Ideriv = 0

Checking the input file for inconsistencies... 	...done.

--------------------------------------------------------------
User input:
--------------------------------------------------------------
$molecule
read
$end

$rem

jobtype sp
method wB97X-2(TQZ)
xc_grid 000099000590
basis aug-cc-pcVTZ
max_scf_cycles 200
thresh 14
scf_convergence 8
mem_total 128000
cc_memory 96000
cc_backend xm
mem_static 1500
symmetry false
sym_ignore true
scf_guess read
unrestricted false
scf_algorithm gdm
n_frozen_core 0
$end

$multipole_field
XX -0.0001
$end


--------------------------------------------------------------
 ----------------------------------------------------------------
             Standard Nuclear Orientation (Angstroms)
    I     Atom           X                Y                Z
 ----------------------------------------------------------------
    1      Li      0.0000000000     0.0000000000    -1.4298000000
    2      B       0.0000000000     0.0000000000     0.5063000000
    3      H       0.0000000000     0.0000000000     1.6973000000
    4      H       0.0000000000     1.1405000000     0.0202000000
    5      H       0.9877000000    -0.5702000000     0.0202000000
    6      H      -0.9877000000    -0.5702000000     0.0202000000
 ----------------------------------------------------------------
 Nuclear Repulsion Energy =    17.3997337348 hartrees
 There are        6 alpha and        6 beta electrons
 Requested basis set is aug-cc-pCVTZ
 There are 74 shells and 210 basis functions

 Total QAlloc Memory Limit 128000 MB
 Mega-Array Size      1467 MB
 MEM_STATIC part      1500 MB

                       Distance Matrix (Angstroms)
             Li(  1)   B (  2)   H (  3)   H (  4)   H (  5)
   B (  2)  1.936100
   H (  3)  3.127100  1.191000
   H (  4)  1.844787  1.239772  2.028153
   H (  5)  1.844771  1.239747  2.028138  1.975360
   H (  6)  1.844771  1.239747  2.028138  1.975360  1.975400
 
 Applying Cartesian multipole field
    Component          Value
    ---------          -----
     (2,0,0)       -1.00000E-04
 Nucleus-field energy     =    -0.0006967514 hartrees
 A cutoff of  1.0D-14 yielded   2765 shell pairs
 There are     22363 function pairs (     28804 Cartesian)
 
 -------------------------------------------------------
 OpenMP Integral Computing Module                       
 Release: version 1.0, May 2013, Q-Chem Inc. Pittsburgh 
 -------------------------------------------------------
 Integral Job Info:
 Integral job number is                      11
 Integral operator is                         1
 short-range coefficients              63615800
 long-range coefficients              100000000
 Omega coefficients                         300
 if combine SR and LR in K                    1
 Integral screening is                        0
 Integral computing path is                   2
 max size of driver memory is            800000
 size of driver memory is                776718
 size of scratch memory is              9790524
 max col of scratch BK array              10000
 max len of scratch array in speh3          662
 max len of scratch index in speh4           32
 max int batch size is                      520
 min int batch size is                       52
 fixed nKL is                                52
 max L of basis functions is                  3
 order of int derivative is                   0
 number of shells is                         74
 number of basis is                         238
 number of cartesian basis is               238
 number of contracted shell pairs          2765
 number of primitive shell pairs           6381
 maxK2 (contraction) of shell pair           81
 max number of K2 of shell pair               1
 max number of CS2 of shell pair            487
 max number of PS2 of shell pair            487
 mem total for path MDJ                  579280
 -------------------------------------------------------
 Smallest overlap matrix eigenvalue = 3.26E-06
 Guess MOs from SCF MO coefficient file

 -----------------------------------------------------------------------
  General SCF calculation program by
  Eric Jon Sundstrom, Paul Horn, Yuezhi Mao, Dmitri Zuev, Alec White,
  David Stuck, Shaama M.S., Shane Yost, Joonho Lee, David Small,
  Daniel Levine, Susi Lehtola, Hugh Burton, Evgeny Epifanovsky
 -----------------------------------------------------------------------
 Exchange:     0.6362 Hartree-Fock + 1.0000 wB97X-2(TQZ) + LR-HF
 Correlation:  1.0000 wB97X-2(TQZ)
 Using Euler-Maclaurin-Lebedev (99,590) quadrature formula
 using 8 threads for integral computing
 -------------------------------------------------------
 OpenMP Integral computing Module                
 Release: version 1.0, May 2013, Q-Chem Inc. Pittsburgh 
 -------------------------------------------------------
 using 8 threads for integral computing
 -------------------------------------------------------
 OpenMP Integral computing Module                
 Release: version 1.0, May 2013, Q-Chem Inc. Pittsburgh 
 -------------------------------------------------------
 -------------------------------------------------------
 OpenMP BLAS3 based DFT computing Module                
 Release: version 1.0, May 2013, Q-Chem Inc. Pittsburgh 
 -------------------------------------------------------
 A restricted SCF calculation will be
 performed using GDM
 SCF converges when RMS gradient is below 1.0e-08
 ---------------------------------------
  Cycle       Energy        RMS Gradient
 ---------------------------------------
    1     -34.6451813769      5.35e-04   Normal BFGS step
    2     -34.6451852340      1.31e-04   Normal BFGS step
    3     -34.6451856334      2.22e-05   Normal BFGS step
    4     -34.6451856479      6.38e-06   Normal BFGS step
    5     -34.6451856489      1.49e-06   Normal BFGS step
    6     -34.6451856489      3.31e-07   Normal BFGS step
    7     -34.6451856489      6.58e-08   Normal BFGS step
    8     -34.6451856489      1.85e-08   Normal BFGS step
    9     -34.6451856489      2.72e-09  Convergence criterion met
 ---------------------------------------
 SCF time:   CPU 539.67s  wall 68.00s 
 SCF   energy in the final basis set =      -34.6451856489
 Total energy in the final basis set =      -34.6451856489
 
 Components of the MP2 correlation energy:
        aaaa  correlation energy =        -0.0082993433 au
        abab  correlation energy =        -0.1052625347 au
        bbbb  correlation energy =        -0.0082993433 au
        non-Brillouin singles    =        -0.0000000000 au

 Total  MP2   correlation energy =                    -0.12186122 au
        MP2         total energy =                   -34.76704687 au
 
 --------------------------------------------------------------
 
                    Orbital Energies (a.u.)
 --------------------------------------------------------------
 
 Alpha MOs
 -- Occupied --
 -7.182  -2.325  -0.666  -0.422  -0.413  -0.413
 -- Virtual --
 -0.005   0.021   0.023   0.028   0.030   0.057   0.062   0.062
  0.074   0.074   0.077   0.086   0.090   0.091   0.115   0.130
  0.133   0.136   0.137   0.144   0.155   0.156   0.172   0.202
  0.204   0.205   0.232   0.234   0.251   0.271   0.298   0.299
  0.300   0.313   0.329   0.330   0.339   0.340   0.352   0.353
  0.356   0.359   0.359   0.379   0.390   0.413   0.422   0.423
  0.429   0.458   0.468   0.468   0.479   0.479   0.483   0.484
  0.484   0.543   0.584   0.609   0.610   0.633   0.633   0.651
  0.745   0.745   0.778   0.792   0.792   0.805   0.807   0.807
  0.831   0.831   0.838   0.879   0.880   0.890   0.938   0.954
  0.960   1.002   1.002   1.017   1.038   1.038   1.064   1.127
  1.127   1.148   1.197   1.197   1.198   1.244   1.244   1.251
  1.251   1.256   1.304   1.304   1.321   1.326   1.326   1.377
  1.377   1.399   1.447   1.465   1.555   1.555   1.574   1.574
  1.610   1.611   1.632   1.653   1.736   1.736   1.744   1.889
  1.905   1.905   1.961   2.005   2.005   2.231   2.348   2.359
  2.359   2.497   2.497   2.575   2.601   2.601   2.731   2.741
  2.847   2.847   3.085   3.085   3.197   3.652   3.696   3.696
  3.831   3.947   3.981   3.981   4.006   4.039   4.039   4.274
  4.284   4.284   4.334   4.334   4.359   4.510   4.537   4.582
  4.582   4.744   4.753   4.753   4.757   4.817   4.817   4.855
  4.855   4.950   4.984   4.985   5.113   5.113   5.159   5.462
  5.463   5.503   5.586   5.586   5.726   6.429  11.687  11.687
 11.968  12.779  14.647  14.647  14.684  14.684  14.750  16.168
 18.660  18.660  18.823  37.060  37.060  37.206  37.210  37.210
 56.500  56.501  56.679  62.222
 --------------------------------------------------------------
 
          Ground-State Mulliken Net Atomic Charges

     Atom                 Charge (a.u.)
  ----------------------------------------
      1 Li                    0.410775
      2 B                     1.286547
      3 H                    -0.284825
      4 H                    -0.471688
      5 H                    -0.470404
      6 H                    -0.470404
  ----------------------------------------
  Sum of atomic charges =    -0.000000

 -----------------------------------------------------------------
                    Cartesian Multipole Moments
 -----------------------------------------------------------------
    Charge (ESU x 10^10)
                -0.0000
    Dipole Moment (Debye)
         X      -0.0000      Y      -0.0023      Z      -6.1603
       Tot       6.1603
    Quadrupole Moments (Debye-Ang)
        XX     -14.1623     XY       0.0000     YY     -14.1894
        XZ       0.0000     YZ       0.0002     ZZ      -4.5577
    Octopole Moments (Debye-Ang^2)
       XXX      -0.0000    XXY       0.8660    XYY      -0.0000
       YYY      -0.8858    XXZ      -3.1599    XYZ       0.0000
       YYZ      -3.1595    XZZ      -0.0000    YZZ      -0.0021
       ZZZ     -27.4167
    Hexadecapole Moments (Debye-Ang^3)
      XXXX     -34.4144   XXXY      -0.0000   XXYY     -11.4968
      XYYY      -0.0000   YYYY     -34.5703   XXXZ       0.0000
      XXYZ      -0.0276   XYYZ       0.0000   YYYZ       0.0287
      XXZZ     -14.7488   XYZZ       0.0000   YYZZ     -14.7714
      XZZZ       0.0000   YZZZ       0.0005   ZZZZ     -35.4247
 -----------------------------------------------------------------
Archival summary:
1\1\n0090.mhg0\SP\ProcedureUnspecified\BasisUnspecified\1i14\yhljason\SatOct302:04:182020SatOct302:04:182020\0\\#,ProcedureUnspecified,BasisUnspecified,\\0,1\B\H,1,1.191\H,1,1.23975,2,113.085\H,1,1.23975,2,113.085,3,-120.004,0\H,1,1.23977,2,113.085,3,119.998,0\Li,3,1.84477,1,74.8988,2,-180,0\\\@

 Total job time:  116.85s(wall), 926.93s(cpu) 
 Sat Oct  3 02:04:18 2020

        *************************************************************
        *                                                           *
        *  Thank you very much for using Q-Chem.  Have a nice day.  *
        *                                                           *
        *************************************************************


 
User input: 5 of 8 
 
Q-Chem Developer Version!
                  Welcome to Q-Chem
     A Quantum Leap Into The Future Of Chemistry


 Q-Chem 5.1, Q-Chem, Inc., Pleasanton, CA (2018)

 Yihan Shao,  Zhengting Gan,  E. Epifanovsky,  A. T. B. Gilbert,  M. Wormit,  
 J. Kussmann,  A. W. Lange,  A. Behn,  Jia Deng,  Xintian Feng,  D. Ghosh,  
 M. Goldey,  P. R. Horn,  L. D. Jacobson,  I. Kaliman,  T. Kus,  A. Landau,  
 Jie Liu,  E. I. Proynov,  R. M. Richard,  R. P. Steele,  E. J. Sundstrom,  
 H. L. Woodcock III,  P. M. Zimmerman,  D. Zuev,  B. Albrecht,  E. Alguire,  
 S. A. Baeppler,  D. Barton,  Z. Benda,  Y. A. Bernard,  E. J. Berquist,  
 K. B. Bravaya,  H. Burton,  D. Casanova,  Chun-Min Chang,  Yunqing Chen,  
 A. Chien,  K. D. Closser,  M. P. Coons,  S. Coriani,  S. Dasgupta,  
 A. L. Dempwolff,  M. Diedenhofen,  Hainam Do,  R. G. Edgar,  Po-Tung Fang,  
 S. Faraji,  S. Fatehi,  Qingguo Feng,  K. D. Fenk,  J. Fosso-Tande,  
 Qinghui Ge,  A. Ghysels,  G. Gidofalvi,  J. Gomes,  J. Gonthier,  A. Gunina,  
 D. Hait,  M. W. D. Hanson-Heine,  P. H. P. Harbach,  A. W. Hauser,  
 J. E. Herr,  E. G. Hohenstein,  Z. C. Holden,  Kerwin Hui,  B. C. Huynh,  
 T.-C. Jagau,  Hyunjun Ji,  B. Kaduk,  K. Khistyaev,  Jaehoon Kim,  
 P. Klunzinger,  K. Koh,  D. Kosenkov,  L. Koulias,  T. Kowalczyk,  
 C. M. Krauter,  A. Kunitsa,  Ka Un Lao,  A. Laurent,  K. V. Lawler,  
 Joonho Lee,  D. Lefrancois,  S. Lehtola,  D. S. Levine,  Yi-Pei Li,  
 You-Sheng Lin,  Fenglai Liu,  E. Livshits,  A. Luenser,  P. Manohar,  
 E. Mansoor,  S. F. Manzer,  Shan-Ping Mao,  Yuezhi Mao,  N. Mardirossian,  
 A. V. Marenich,  T. Markovich,  L. A. Martinez-Martinez,  S. A. Maurer,  
 N. J. Mayhall,  S. C. McKenzie,  J.-M. Mewes,  A. F. Morrison,  
 J. W. Mullinax,  K. Nanda,  T. S. Nguyen-Beck,  R. Olivares-Amaya,  
 J. A. Parkhill,  T. M. Perrine,  F. Plasser,  P. Pokhilko,  S. Prager,  
 A. Prociuk,  E. Ramos,  D. R. Rehn,  F. Rob,  M. Schneider,  N. Sergueev,  
 S. M. Sharada,  S. Sharma,  D. W. Small,  T. Stauch,  T. Stein,  
 Yu-Chuan Su,  A. J. W. Thom,  A. Tkatchenko,  T. Tsuchimochi,  N. M. Tubman,  
 L. Vogt,  M. L. Vidal,  O. Vydrov,  M. A. Watson,  J. Wenzel,  
 M. de Wergifosse,  T. A. Wesolowski,  A. White,  J. Witte,  A. Yamada,  
 Jun Yang,  K. Yao,  S. Yeganeh,  S. R. Yost,  Zhi-Qiang You,  A. Zech,  
 Igor Ying Zhang,  Xing Zhang,  Yan Zhao,  Ying Zhu,  B. R. Brooks,  
 G. K. L. Chan,  C. J. Cramer,  M. S. Gordon,  W. J. Hehre,  A. Klamt,  
 M. W. Schmidt,  C. D. Sherrill,  D. G. Truhlar,  A. Aspuru-Guzik,  R. Baer,  
 A. T. Bell,  N. A. Besley,  Jeng-Da Chai,  A. E. DePrince, III,  
 R. A. DiStasio Jr.,  A. Dreuw,  B. D. Dunietz,  T. R. Furlani,  
 Chao-Ping Hsu,  Yousung Jung,  Jing Kong,  D. S. Lambrecht,  WanZhen Liang,  
 C. Ochsenfeld,  V. A. Rassolov,  L. V. Slipchenko,  J. E. Subotnik,  
 T. Van Voorhis,  J. M. Herbert,  A. I. Krylov,  P. M. W. Gill,  M. Head-Gordon

 Contributors to earlier versions of Q-Chem not listed above: 
 R. D. Adamson,  B. Austin,  J. Baker,  G. J. O. Beran,  K. Brandhorst,  
 S. T. Brown,  E. F. C. Byrd,  A. K. Chakraborty,  C.-L. Cheng,  
 Siu Hung Chien,  D. M. Chipman,  D. L. Crittenden,  H. Dachsel,  
 R. J. Doerksen,  A. D. Dutoi,  L. Fusti-Molnar,  W. A. Goddard III,  
 A. Golubeva-Zadorozhnaya,  S. R. Gwaltney,  G. Hawkins,  A. Heyden,  
 S. Hirata,  G. Kedziora,  F. J. Keil,  C. Kelley,  Jihan Kim,  R. A. King,  
 R. Z. Khaliullin,  P. P. Korambath,  W. Kurlancheek,  A. M. Lee,  M. S. Lee,  
 S. V. Levchenko,  Ching Yeh Lin,  D. Liotard,  R. C. Lochan,  I. Lotan,  
 P. E. Maslen,  N. Nair,  D. P. O'Neill,  D. Neuhauser,  E. Neuscamman,  
 C. M. Oana,  R. Olson,  B. Peters,  R. Peverati,  P. A. Pieniazek,  
 Y. M. Rhee,  J. Ritchie,  M. A. Rohrdanz,  E. Rosta,  N. J. Russ,  
 H. F. Schaefer III,  N. E. Schultz,  N. Shenvi,  A. C. Simmonett,  A. Sodt,  
 D. Stuck,  K. S. Thanthiriwatte,  V. Vanovschi,  Tao Wang,  A. Warshel,  
 C. F. Williams,  Q. Wu,  X. Xu,  W. Zhang

 Please cite Q-Chem as follows:
 Y. Shao et al., Mol. Phys. 113, 184-215 (2015)
 DOI: 10.1080/00268976.2014.952696

 Q-Chem 5.1.1 for Intel X86 EM64T Linux

 Parts of Q-Chem use Armadillo 8.300.2 (Tropical Shenanigans).
 http://arma.sourceforge.net/

 Q-Chem begins on Sat Oct  3 02:04:18 2020  

Host: n0090.mhg0
0

     Scratch files written to /local/scratch/users/yhljason/LiBH4_wB97X-2TQZ_aug-cc-pcVTZ.inp20201003015133//
The previous job contains 0 fragments, simply inherited here
Input Ideriv = 0
Curr. Ideriv = -1
Max.  Ideriv = 0
Analytic post-HF gradients are not available with non-HF exchange
Input Ideriv = 0
Curr. Ideriv = 0
Max.  Ideriv = 0

Checking the input file for inconsistencies... 	...done.

--------------------------------------------------------------
User input:
--------------------------------------------------------------
$molecule
read
$end

$rem

jobtype sp
method wB97X-2(TQZ)
xc_grid 000099000590
basis aug-cc-pcVTZ
max_scf_cycles 200
thresh 14
scf_convergence 8
mem_total 128000
cc_memory 96000
cc_backend xm
mem_static 1500
symmetry false
sym_ignore true
scf_guess read
unrestricted false
scf_algorithm gdm
n_frozen_core 0
$end

$multipole_field
YY 0.0001
$end


--------------------------------------------------------------
 ----------------------------------------------------------------
             Standard Nuclear Orientation (Angstroms)
    I     Atom           X                Y                Z
 ----------------------------------------------------------------
    1      Li      0.0000000000     0.0000000000    -1.4298000000
    2      B       0.0000000000     0.0000000000     0.5063000000
    3      H       0.0000000000     0.0000000000     1.6973000000
    4      H       0.0000000000     1.1405000000     0.0202000000
    5      H       0.9877000000    -0.5702000000     0.0202000000
    6      H      -0.9877000000    -0.5702000000     0.0202000000
 ----------------------------------------------------------------
 Nuclear Repulsion Energy =    17.3997337348 hartrees
 There are        6 alpha and        6 beta electrons
 Requested basis set is aug-cc-pCVTZ
 There are 74 shells and 210 basis functions

 Total QAlloc Memory Limit 128000 MB
 Mega-Array Size      1467 MB
 MEM_STATIC part      1500 MB

                       Distance Matrix (Angstroms)
             Li(  1)   B (  2)   H (  3)   H (  4)   H (  5)
   B (  2)  1.936100
   H (  3)  3.127100  1.191000
   H (  4)  1.844787  1.239772  2.028153
   H (  5)  1.844771  1.239747  2.028138  1.975360
   H (  6)  1.844771  1.239747  2.028138  1.975360  1.975400
 
 Applying Cartesian multipole field
    Component          Value
    ---------          -----
     (0,2,0)        1.00000E-04
 Nucleus-field energy     =     0.0006967134 hartrees
 A cutoff of  1.0D-14 yielded   2765 shell pairs
 There are     22363 function pairs (     28804 Cartesian)
 
 -------------------------------------------------------
 OpenMP Integral Computing Module                       
 Release: version 1.0, May 2013, Q-Chem Inc. Pittsburgh 
 -------------------------------------------------------
 Integral Job Info:
 Integral job number is                      11
 Integral operator is                         1
 short-range coefficients              63615800
 long-range coefficients              100000000
 Omega coefficients                         300
 if combine SR and LR in K                    1
 Integral screening is                        0
 Integral computing path is                   2
 max size of driver memory is            800000
 size of driver memory is                776718
 size of scratch memory is              9790524
 max col of scratch BK array              10000
 max len of scratch array in speh3          662
 max len of scratch index in speh4           32
 max int batch size is                      520
 min int batch size is                       52
 fixed nKL is                                52
 max L of basis functions is                  3
 order of int derivative is                   0
 number of shells is                         74
 number of basis is                         238
 number of cartesian basis is               238
 number of contracted shell pairs          2765
 number of primitive shell pairs           6381
 maxK2 (contraction) of shell pair           81
 max number of K2 of shell pair               1
 max number of CS2 of shell pair            487
 max number of PS2 of shell pair            487
 mem total for path MDJ                  579280
 -------------------------------------------------------
 Smallest overlap matrix eigenvalue = 3.26E-06
 Guess MOs from SCF MO coefficient file

 -----------------------------------------------------------------------
  General SCF calculation program by
  Eric Jon Sundstrom, Paul Horn, Yuezhi Mao, Dmitri Zuev, Alec White,
  David Stuck, Shaama M.S., Shane Yost, Joonho Lee, David Small,
  Daniel Levine, Susi Lehtola, Hugh Burton, Evgeny Epifanovsky
 -----------------------------------------------------------------------
 Exchange:     0.6362 Hartree-Fock + 1.0000 wB97X-2(TQZ) + LR-HF
 Correlation:  1.0000 wB97X-2(TQZ)
 Using Euler-Maclaurin-Lebedev (99,590) quadrature formula
 using 8 threads for integral computing
 -------------------------------------------------------
 OpenMP Integral computing Module                
 Release: version 1.0, May 2013, Q-Chem Inc. Pittsburgh 
 -------------------------------------------------------
 using 8 threads for integral computing
 -------------------------------------------------------
 OpenMP Integral computing Module                
 Release: version 1.0, May 2013, Q-Chem Inc. Pittsburgh 
 -------------------------------------------------------
 -------------------------------------------------------
 OpenMP BLAS3 based DFT computing Module                
 Release: version 1.0, May 2013, Q-Chem Inc. Pittsburgh 
 -------------------------------------------------------
 A restricted SCF calculation will be
 performed using GDM
 SCF converges when RMS gradient is below 1.0e-08
 ---------------------------------------
  Cycle       Energy        RMS Gradient
 ---------------------------------------
    1     -34.6472935323      3.68e-04   Normal BFGS step
    2     -34.6472955557      1.31e-04   Normal BFGS step
    3     -34.6472957687      1.25e-05   Normal BFGS step
    4     -34.6472957739      5.11e-06   Normal BFGS step
    5     -34.6472957742      8.69e-07   Normal BFGS step
    6     -34.6472957742      1.33e-07   Normal BFGS step
    7     -34.6472957742      1.63e-08   Normal BFGS step
    8     -34.6472957742      2.73e-09  Convergence criterion met
 ---------------------------------------
 SCF time:   CPU 489.57s  wall 62.00s 
 SCF   energy in the final basis set =      -34.6472957742
 Total energy in the final basis set =      -34.6472957742
 
 Components of the MP2 correlation energy:
        aaaa  correlation energy =        -0.0082996811 au
        abab  correlation energy =        -0.1052595521 au
        bbbb  correlation energy =        -0.0082996811 au
        non-Brillouin singles    =        -0.0000000000 au

 Total  MP2   correlation energy =                    -0.12185891 au
        MP2         total energy =                   -34.76915469 au
 
 --------------------------------------------------------------
 
                    Orbital Energies (a.u.)
 --------------------------------------------------------------
 
 Alpha MOs
 -- Occupied --
 -7.183  -2.325  -0.667  -0.422  -0.414  -0.414
 -- Virtual --
 -0.009   0.005   0.013   0.015   0.016   0.048   0.052   0.056
  0.066   0.067   0.069   0.078   0.083   0.083   0.110   0.124
  0.127   0.130   0.132   0.140   0.152   0.153   0.166   0.197
  0.201   0.202   0.229   0.230   0.249   0.269   0.295   0.296
  0.296   0.310   0.326   0.326   0.336   0.337   0.350   0.350
  0.353   0.357   0.357   0.376   0.388   0.410   0.420   0.420
  0.426   0.456   0.465   0.466   0.476   0.476   0.481   0.482
  0.482   0.540   0.582   0.607   0.608   0.631   0.631   0.649
  0.742   0.743   0.777   0.790   0.791   0.803   0.805   0.805
  0.829   0.830   0.836   0.878   0.878   0.888   0.936   0.953
  0.959   1.001   1.001   1.016   1.037   1.037   1.063   1.125
  1.125   1.147   1.196   1.196   1.197   1.242   1.242   1.250
  1.250   1.254   1.303   1.303   1.320   1.324   1.324   1.376
  1.376   1.397   1.446   1.464   1.553   1.553   1.573   1.573
  1.609   1.609   1.631   1.652   1.735   1.735   1.743   1.888
  1.904   1.904   1.960   2.004   2.004   2.230   2.348   2.357
  2.358   2.496   2.497   2.574   2.599   2.600   2.730   2.740
  2.846   2.846   3.084   3.084   3.196   3.651   3.695   3.695
  3.830   3.946   3.980   3.980   4.005   4.038   4.038   4.273
  4.283   4.283   4.334   4.334   4.358   4.509   4.536   4.581
  4.581   4.744   4.752   4.752   4.756   4.816   4.816   4.855
  4.855   4.949   4.984   4.984   5.112   5.112   5.158   5.461
  5.462   5.502   5.585   5.585   5.725   6.428  11.686  11.686
 11.968  12.778  14.646  14.646  14.684  14.684  14.749  16.168
 18.660  18.660  18.823  37.059  37.059  37.205  37.209  37.209
 56.500  56.500  56.678  62.221
 --------------------------------------------------------------
 
          Ground-State Mulliken Net Atomic Charges

     Atom                 Charge (a.u.)
  ----------------------------------------
      1 Li                    0.410623
      2 B                     1.279392
      3 H                    -0.282624
      4 H                    -0.469957
      5 H                    -0.468717
      6 H                    -0.468717
  ----------------------------------------
  Sum of atomic charges =    -0.000000

 -----------------------------------------------------------------
                    Cartesian Multipole Moments
 -----------------------------------------------------------------
    Charge (ESU x 10^10)
                -0.0000
    Dipole Moment (Debye)
         X       0.0000      Y      -0.0024      Z      -6.1563
       Tot       6.1563
    Quadrupole Moments (Debye-Ang)
        XX     -14.1924     XY       0.0000     YY     -14.2198
        XZ       0.0000     YZ       0.0002     ZZ      -4.5569
    Octopole Moments (Debye-Ang^2)
       XXX      -0.0000    XXY       0.8799    XYY      -0.0000
       YYY      -0.9000    XXZ      -3.1591    XYZ      -0.0000
       YYZ      -3.1586    XZZ       0.0000    YZZ      -0.0021
       ZZZ     -27.4030
    Hexadecapole Moments (Debye-Ang^3)
      XXXX     -34.5915   XXXY       0.0000   XXYY     -11.5562
      XYYY       0.0000   YYYY     -34.7500   XXXZ       0.0000
      XXYZ      -0.0284   XYYZ       0.0000   YYYZ       0.0295
      XXZZ     -14.7785   XYZZ       0.0000   YYZZ     -14.8014
      XZZZ       0.0000   YZZZ       0.0005   ZZZZ     -35.4183
 -----------------------------------------------------------------
Archival summary:
1\1\n0090.mhg0\SP\ProcedureUnspecified\BasisUnspecified\1i14\yhljason\SatOct302:06:092020SatOct302:06:092020\0\\#,ProcedureUnspecified,BasisUnspecified,\\0,1\B\H,1,1.191\H,1,1.23975,2,113.085\H,1,1.23975,2,113.085,3,-120.004,0\H,1,1.23977,2,113.085,3,119.998,0\Li,3,1.84477,1,74.8988,2,-180,0\\\@

 Total job time:  110.55s(wall), 875.52s(cpu) 
 Sat Oct  3 02:06:09 2020

        *************************************************************
        *                                                           *
        *  Thank you very much for using Q-Chem.  Have a nice day.  *
        *                                                           *
        *************************************************************


 
User input: 6 of 8 
 
Q-Chem Developer Version!
                  Welcome to Q-Chem
     A Quantum Leap Into The Future Of Chemistry


 Q-Chem 5.1, Q-Chem, Inc., Pleasanton, CA (2018)

 Yihan Shao,  Zhengting Gan,  E. Epifanovsky,  A. T. B. Gilbert,  M. Wormit,  
 J. Kussmann,  A. W. Lange,  A. Behn,  Jia Deng,  Xintian Feng,  D. Ghosh,  
 M. Goldey,  P. R. Horn,  L. D. Jacobson,  I. Kaliman,  T. Kus,  A. Landau,  
 Jie Liu,  E. I. Proynov,  R. M. Richard,  R. P. Steele,  E. J. Sundstrom,  
 H. L. Woodcock III,  P. M. Zimmerman,  D. Zuev,  B. Albrecht,  E. Alguire,  
 S. A. Baeppler,  D. Barton,  Z. Benda,  Y. A. Bernard,  E. J. Berquist,  
 K. B. Bravaya,  H. Burton,  D. Casanova,  Chun-Min Chang,  Yunqing Chen,  
 A. Chien,  K. D. Closser,  M. P. Coons,  S. Coriani,  S. Dasgupta,  
 A. L. Dempwolff,  M. Diedenhofen,  Hainam Do,  R. G. Edgar,  Po-Tung Fang,  
 S. Faraji,  S. Fatehi,  Qingguo Feng,  K. D. Fenk,  J. Fosso-Tande,  
 Qinghui Ge,  A. Ghysels,  G. Gidofalvi,  J. Gomes,  J. Gonthier,  A. Gunina,  
 D. Hait,  M. W. D. Hanson-Heine,  P. H. P. Harbach,  A. W. Hauser,  
 J. E. Herr,  E. G. Hohenstein,  Z. C. Holden,  Kerwin Hui,  B. C. Huynh,  
 T.-C. Jagau,  Hyunjun Ji,  B. Kaduk,  K. Khistyaev,  Jaehoon Kim,  
 P. Klunzinger,  K. Koh,  D. Kosenkov,  L. Koulias,  T. Kowalczyk,  
 C. M. Krauter,  A. Kunitsa,  Ka Un Lao,  A. Laurent,  K. V. Lawler,  
 Joonho Lee,  D. Lefrancois,  S. Lehtola,  D. S. Levine,  Yi-Pei Li,  
 You-Sheng Lin,  Fenglai Liu,  E. Livshits,  A. Luenser,  P. Manohar,  
 E. Mansoor,  S. F. Manzer,  Shan-Ping Mao,  Yuezhi Mao,  N. Mardirossian,  
 A. V. Marenich,  T. Markovich,  L. A. Martinez-Martinez,  S. A. Maurer,  
 N. J. Mayhall,  S. C. McKenzie,  J.-M. Mewes,  A. F. Morrison,  
 J. W. Mullinax,  K. Nanda,  T. S. Nguyen-Beck,  R. Olivares-Amaya,  
 J. A. Parkhill,  T. M. Perrine,  F. Plasser,  P. Pokhilko,  S. Prager,  
 A. Prociuk,  E. Ramos,  D. R. Rehn,  F. Rob,  M. Schneider,  N. Sergueev,  
 S. M. Sharada,  S. Sharma,  D. W. Small,  T. Stauch,  T. Stein,  
 Yu-Chuan Su,  A. J. W. Thom,  A. Tkatchenko,  T. Tsuchimochi,  N. M. Tubman,  
 L. Vogt,  M. L. Vidal,  O. Vydrov,  M. A. Watson,  J. Wenzel,  
 M. de Wergifosse,  T. A. Wesolowski,  A. White,  J. Witte,  A. Yamada,  
 Jun Yang,  K. Yao,  S. Yeganeh,  S. R. Yost,  Zhi-Qiang You,  A. Zech,  
 Igor Ying Zhang,  Xing Zhang,  Yan Zhao,  Ying Zhu,  B. R. Brooks,  
 G. K. L. Chan,  C. J. Cramer,  M. S. Gordon,  W. J. Hehre,  A. Klamt,  
 M. W. Schmidt,  C. D. Sherrill,  D. G. Truhlar,  A. Aspuru-Guzik,  R. Baer,  
 A. T. Bell,  N. A. Besley,  Jeng-Da Chai,  A. E. DePrince, III,  
 R. A. DiStasio Jr.,  A. Dreuw,  B. D. Dunietz,  T. R. Furlani,  
 Chao-Ping Hsu,  Yousung Jung,  Jing Kong,  D. S. Lambrecht,  WanZhen Liang,  
 C. Ochsenfeld,  V. A. Rassolov,  L. V. Slipchenko,  J. E. Subotnik,  
 T. Van Voorhis,  J. M. Herbert,  A. I. Krylov,  P. M. W. Gill,  M. Head-Gordon

 Contributors to earlier versions of Q-Chem not listed above: 
 R. D. Adamson,  B. Austin,  J. Baker,  G. J. O. Beran,  K. Brandhorst,  
 S. T. Brown,  E. F. C. Byrd,  A. K. Chakraborty,  C.-L. Cheng,  
 Siu Hung Chien,  D. M. Chipman,  D. L. Crittenden,  H. Dachsel,  
 R. J. Doerksen,  A. D. Dutoi,  L. Fusti-Molnar,  W. A. Goddard III,  
 A. Golubeva-Zadorozhnaya,  S. R. Gwaltney,  G. Hawkins,  A. Heyden,  
 S. Hirata,  G. Kedziora,  F. J. Keil,  C. Kelley,  Jihan Kim,  R. A. King,  
 R. Z. Khaliullin,  P. P. Korambath,  W. Kurlancheek,  A. M. Lee,  M. S. Lee,  
 S. V. Levchenko,  Ching Yeh Lin,  D. Liotard,  R. C. Lochan,  I. Lotan,  
 P. E. Maslen,  N. Nair,  D. P. O'Neill,  D. Neuhauser,  E. Neuscamman,  
 C. M. Oana,  R. Olson,  B. Peters,  R. Peverati,  P. A. Pieniazek,  
 Y. M. Rhee,  J. Ritchie,  M. A. Rohrdanz,  E. Rosta,  N. J. Russ,  
 H. F. Schaefer III,  N. E. Schultz,  N. Shenvi,  A. C. Simmonett,  A. Sodt,  
 D. Stuck,  K. S. Thanthiriwatte,  V. Vanovschi,  Tao Wang,  A. Warshel,  
 C. F. Williams,  Q. Wu,  X. Xu,  W. Zhang

 Please cite Q-Chem as follows:
 Y. Shao et al., Mol. Phys. 113, 184-215 (2015)
 DOI: 10.1080/00268976.2014.952696

 Q-Chem 5.1.1 for Intel X86 EM64T Linux

 Parts of Q-Chem use Armadillo 8.300.2 (Tropical Shenanigans).
 http://arma.sourceforge.net/

 Q-Chem begins on Sat Oct  3 02:06:09 2020  

Host: n0090.mhg0
0

     Scratch files written to /local/scratch/users/yhljason/LiBH4_wB97X-2TQZ_aug-cc-pcVTZ.inp20201003015133//
The previous job contains 0 fragments, simply inherited here
Input Ideriv = 0
Curr. Ideriv = -1
Max.  Ideriv = 0
Analytic post-HF gradients are not available with non-HF exchange
Input Ideriv = 0
Curr. Ideriv = 0
Max.  Ideriv = 0

Checking the input file for inconsistencies... 	...done.

--------------------------------------------------------------
User input:
--------------------------------------------------------------
$molecule
read
$end

$rem

jobtype sp
method wB97X-2(TQZ)
xc_grid 000099000590
basis aug-cc-pcVTZ
max_scf_cycles 200
thresh 14
scf_convergence 8
mem_total 128000
cc_memory 96000
cc_backend xm
mem_static 1500
symmetry false
sym_ignore true
scf_guess read
unrestricted false
scf_algorithm gdm
n_frozen_core 0
$end

$multipole_field
YY -0.0001
$end


--------------------------------------------------------------
 ----------------------------------------------------------------
             Standard Nuclear Orientation (Angstroms)
    I     Atom           X                Y                Z
 ----------------------------------------------------------------
    1      Li      0.0000000000     0.0000000000    -1.4298000000
    2      B       0.0000000000     0.0000000000     0.5063000000
    3      H       0.0000000000     0.0000000000     1.6973000000
    4      H       0.0000000000     1.1405000000     0.0202000000
    5      H       0.9877000000    -0.5702000000     0.0202000000
    6      H      -0.9877000000    -0.5702000000     0.0202000000
 ----------------------------------------------------------------
 Nuclear Repulsion Energy =    17.3997337348 hartrees
 There are        6 alpha and        6 beta electrons
 Requested basis set is aug-cc-pCVTZ
 There are 74 shells and 210 basis functions

 Total QAlloc Memory Limit 128000 MB
 Mega-Array Size      1467 MB
 MEM_STATIC part      1500 MB

                       Distance Matrix (Angstroms)
             Li(  1)   B (  2)   H (  3)   H (  4)   H (  5)
   B (  2)  1.936100
   H (  3)  3.127100  1.191000
   H (  4)  1.844787  1.239772  2.028153
   H (  5)  1.844771  1.239747  2.028138  1.975360
   H (  6)  1.844771  1.239747  2.028138  1.975360  1.975400
 
 Applying Cartesian multipole field
    Component          Value
    ---------          -----
     (0,2,0)       -1.00000E-04
 Nucleus-field energy     =    -0.0006967134 hartrees
 A cutoff of  1.0D-14 yielded   2765 shell pairs
 There are     22363 function pairs (     28804 Cartesian)
 
 -------------------------------------------------------
 OpenMP Integral Computing Module                       
 Release: version 1.0, May 2013, Q-Chem Inc. Pittsburgh 
 -------------------------------------------------------
 Integral Job Info:
 Integral job number is                      11
 Integral operator is                         1
 short-range coefficients              63615800
 long-range coefficients              100000000
 Omega coefficients                         300
 if combine SR and LR in K                    1
 Integral screening is                        0
 Integral computing path is                   2
 max size of driver memory is            800000
 size of driver memory is                776718
 size of scratch memory is              9790524
 max col of scratch BK array              10000
 max len of scratch array in speh3          662
 max len of scratch index in speh4           32
 max int batch size is                      520
 min int batch size is                       52
 fixed nKL is                                52
 max L of basis functions is                  3
 order of int derivative is                   0
 number of shells is                         74
 number of basis is                         238
 number of cartesian basis is               238
 number of contracted shell pairs          2765
 number of primitive shell pairs           6381
 maxK2 (contraction) of shell pair           81
 max number of K2 of shell pair               1
 max number of CS2 of shell pair            487
 max number of PS2 of shell pair            487
 mem total for path MDJ                  579280
 -------------------------------------------------------
 Smallest overlap matrix eigenvalue = 3.26E-06
 Guess MOs from SCF MO coefficient file

 -----------------------------------------------------------------------
  General SCF calculation program by
  Eric Jon Sundstrom, Paul Horn, Yuezhi Mao, Dmitri Zuev, Alec White,
  David Stuck, Shaama M.S., Shane Yost, Joonho Lee, David Small,
  Daniel Levine, Susi Lehtola, Hugh Burton, Evgeny Epifanovsky
 -----------------------------------------------------------------------
 Exchange:     0.6362 Hartree-Fock + 1.0000 wB97X-2(TQZ) + LR-HF
 Correlation:  1.0000 wB97X-2(TQZ)
 Using Euler-Maclaurin-Lebedev (99,590) quadrature formula
 using 8 threads for integral computing
 -------------------------------------------------------
 OpenMP Integral computing Module                
 Release: version 1.0, May 2013, Q-Chem Inc. Pittsburgh 
 -------------------------------------------------------
 using 8 threads for integral computing
 -------------------------------------------------------
 OpenMP Integral computing Module                
 Release: version 1.0, May 2013, Q-Chem Inc. Pittsburgh 
 -------------------------------------------------------
 -------------------------------------------------------
 OpenMP BLAS3 based DFT computing Module                
 Release: version 1.0, May 2013, Q-Chem Inc. Pittsburgh 
 -------------------------------------------------------
 A restricted SCF calculation will be
 performed using GDM
 SCF converges when RMS gradient is below 1.0e-08
 ---------------------------------------
  Cycle       Energy        RMS Gradient
 ---------------------------------------
    1     -34.6451813633      5.36e-04   Normal BFGS step
    2     -34.6451852204      1.31e-04   Normal BFGS step
    3     -34.6451856198      2.22e-05   Normal BFGS step
    4     -34.6451856344      6.46e-06   Normal BFGS step
    5     -34.6451856354      1.51e-06   Normal BFGS step
    6     -34.6451856354      3.32e-07   Normal BFGS step
    7     -34.6451856354      6.59e-08   Normal BFGS step
    8     -34.6451856354      1.86e-08   Normal BFGS step
    9     -34.6451856354      2.72e-09  Convergence criterion met
 ---------------------------------------
 SCF time:   CPU 543.86s  wall 68.00s 
 SCF   energy in the final basis set =      -34.6451856354
 Total energy in the final basis set =      -34.6451856354
 
 Components of the MP2 correlation energy:
        aaaa  correlation energy =        -0.0082993433 au
        abab  correlation energy =        -0.1052625350 au
        bbbb  correlation energy =        -0.0082993433 au
        non-Brillouin singles    =        -0.0000000000 au

 Total  MP2   correlation energy =                    -0.12186122 au
        MP2         total energy =                   -34.76704686 au
 
 --------------------------------------------------------------
 
                    Orbital Energies (a.u.)
 --------------------------------------------------------------
 
 Alpha MOs
 -- Occupied --
 -7.182  -2.325  -0.666  -0.422  -0.413  -0.413
 -- Virtual --
 -0.005   0.021   0.023   0.028   0.030   0.057   0.061   0.062
  0.074   0.074   0.077   0.086   0.090   0.091   0.115   0.130
  0.133   0.136   0.137   0.144   0.155   0.156   0.172   0.202
  0.204   0.205   0.232   0.234   0.251   0.271   0.298   0.298
  0.300   0.313   0.329   0.330   0.339   0.340   0.352   0.353
  0.356   0.359   0.359   0.379   0.390   0.413   0.422   0.423
  0.429   0.458   0.468   0.468   0.479   0.479   0.483   0.484
  0.484   0.543   0.584   0.609   0.610   0.633   0.633   0.651
  0.745   0.745   0.778   0.792   0.792   0.805   0.807   0.807
  0.831   0.831   0.838   0.879   0.880   0.890   0.938   0.954
  0.960   1.002   1.002   1.017   1.038   1.038   1.064   1.127
  1.127   1.148   1.197   1.197   1.198   1.244   1.244   1.251
  1.251   1.256   1.304   1.304   1.321   1.326   1.326   1.377
  1.377   1.399   1.447   1.465   1.555   1.555   1.574   1.574
  1.610   1.611   1.632   1.653   1.736   1.736   1.744   1.889
  1.905   1.905   1.961   2.005   2.005   2.231   2.348   2.359
  2.359   2.497   2.497   2.575   2.601   2.601   2.731   2.741
  2.847   2.847   3.085   3.085   3.197   3.652   3.696   3.696
  3.831   3.947   3.981   3.981   4.006   4.039   4.039   4.274
  4.284   4.284   4.334   4.334   4.359   4.510   4.537   4.582
  4.582   4.744   4.753   4.753   4.757   4.817   4.817   4.855
  4.855   4.950   4.984   4.984   5.113   5.113   5.159   5.462
  5.463   5.503   5.586   5.586   5.726   6.429  11.687  11.687
 11.968  12.779  14.647  14.647  14.684  14.684  14.750  16.168
 18.660  18.660  18.823  37.060  37.060  37.206  37.210  37.210
 56.500  56.501  56.679  62.222
 --------------------------------------------------------------
 
          Ground-State Mulliken Net Atomic Charges

     Atom                 Charge (a.u.)
  ----------------------------------------
      1 Li                    0.410776
      2 B                     1.286547
      3 H                    -0.284826
      4 H                    -0.469966
      5 H                    -0.471266
      6 H                    -0.471266
  ----------------------------------------
  Sum of atomic charges =     0.000000

 -----------------------------------------------------------------
                    Cartesian Multipole Moments
 -----------------------------------------------------------------
    Charge (ESU x 10^10)
                 0.0000
    Dipole Moment (Debye)
         X       0.0000      Y       0.0021      Z      -6.1603
       Tot       6.1603
    Quadrupole Moments (Debye-Ang)
        XX     -14.1893     XY      -0.0000     YY     -14.1625
        XZ      -0.0000     YZ      -0.0001     ZZ      -4.5577
    Octopole Moments (Debye-Ang^2)
       XXX       0.0000    XXY       0.8755    XYY       0.0000
       YYY      -0.8576    XXZ      -3.1595    XYZ      -0.0000
       YYZ      -3.1599    XZZ       0.0000    YZZ       0.0017
       ZZZ     -27.4168
    Hexadecapole Moments (Debye-Ang^3)
      XXXX     -34.5689   XXXY      -0.0000   XXYY     -11.4977
      XYYY      -0.0000   YYYY     -34.4138   XXXZ       0.0000
      XXYZ      -0.0281   XYYZ      -0.0000   YYYZ       0.0272
      XXZZ     -14.7713   XYZZ      -0.0000   YYZZ     -14.7488
      XZZZ      -0.0000   YZZZ      -0.0004   ZZZZ     -35.4247
 -----------------------------------------------------------------
Archival summary:
1\1\n0090.mhg0\SP\ProcedureUnspecified\BasisUnspecified\1i14\yhljason\SatOct302:08:072020SatOct302:08:072020\0\\#,ProcedureUnspecified,BasisUnspecified,\\0,1\B\H,1,1.191\H,1,1.23975,2,113.085\H,1,1.23975,2,113.085,3,-120.004,0\H,1,1.23977,2,113.085,3,119.998,0\Li,3,1.84477,1,74.8988,2,-180,0\\\@

 Total job time:  118.13s(wall), 936.55s(cpu) 
 Sat Oct  3 02:08:07 2020

        *************************************************************
        *                                                           *
        *  Thank you very much for using Q-Chem.  Have a nice day.  *
        *                                                           *
        *************************************************************


 
User input: 7 of 8 
 
Q-Chem Developer Version!
                  Welcome to Q-Chem
     A Quantum Leap Into The Future Of Chemistry


 Q-Chem 5.1, Q-Chem, Inc., Pleasanton, CA (2018)

 Yihan Shao,  Zhengting Gan,  E. Epifanovsky,  A. T. B. Gilbert,  M. Wormit,  
 J. Kussmann,  A. W. Lange,  A. Behn,  Jia Deng,  Xintian Feng,  D. Ghosh,  
 M. Goldey,  P. R. Horn,  L. D. Jacobson,  I. Kaliman,  T. Kus,  A. Landau,  
 Jie Liu,  E. I. Proynov,  R. M. Richard,  R. P. Steele,  E. J. Sundstrom,  
 H. L. Woodcock III,  P. M. Zimmerman,  D. Zuev,  B. Albrecht,  E. Alguire,  
 S. A. Baeppler,  D. Barton,  Z. Benda,  Y. A. Bernard,  E. J. Berquist,  
[...]
        MP2         total energy =                   -34.76844245 au
 
 --------------------------------------------------------------
 
                    Orbital Energies (a.u.)
 --------------------------------------------------------------
 
 Alpha MOs
 -- Occupied --
 -7.183  -2.326  -0.667  -0.423  -0.414  -0.414
 -- Virtual --
 -0.015   0.005   0.012   0.012   0.018   0.051   0.051   0.052
  0.062   0.068   0.068   0.078   0.085   0.085   0.107   0.126
  0.126   0.131   0.131   0.136   0.151   0.151   0.165   0.195
  0.201   0.201   0.229   0.229   0.247   0.268   0.295   0.295
  0.295   0.310   0.326   0.326   0.336   0.336   0.349   0.349
  0.352   0.356   0.356   0.376   0.386   0.410   0.420   0.420
  0.424   0.455   0.465   0.465   0.476   0.476   0.481   0.481
  0.481   0.541   0.581   0.607   0.607   0.631   0.631   0.648
  0.743   0.743   0.776   0.790   0.790   0.803   0.805   0.805
  0.829   0.829   0.836   0.877   0.877   0.888   0.936   0.953
  0.958   1.000   1.000   1.015   1.036   1.036   1.062   1.126
  1.126   1.147   1.196   1.196   1.196   1.242   1.242   1.249
  1.249   1.254   1.303   1.303   1.319   1.324   1.324   1.376
  1.376   1.397   1.445   1.464   1.553   1.553   1.572   1.572
  1.609   1.609   1.631   1.651   1.735   1.735   1.742   1.887
  1.904   1.904   1.960   2.003   2.003   2.229   2.347   2.358
  2.358   2.496   2.496   2.573   2.599   2.599   2.730   2.740
  2.846   2.846   3.084   3.084   3.196   3.651   3.695   3.695
  3.830   3.945   3.979   3.979   4.006   4.038   4.038   4.273
  4.283   4.283   4.333   4.333   4.358   4.509   4.536   4.581
  4.581   4.743   4.752   4.752   4.756   4.816   4.816   4.854
  4.854   4.949   4.983   4.983   5.112   5.112   5.158   5.462
  5.462   5.501   5.585   5.585   5.724   6.428  11.686  11.686
 11.967  12.778  14.646  14.646  14.683  14.683  14.749  16.167
 18.659  18.659  18.822  37.059  37.059  37.205  37.209  37.209
 56.499  56.499  56.678  62.221
 --------------------------------------------------------------
 
          Ground-State Mulliken Net Atomic Charges

     Atom                 Charge (a.u.)
  ----------------------------------------
      1 Li                    0.409370
      2 B                     1.286906
      3 H                    -0.285563
      4 H                    -0.470236
      5 H                    -0.470239
      6 H                    -0.470239
  ----------------------------------------
  Sum of atomic charges =     0.000000

 -----------------------------------------------------------------
                    Cartesian Multipole Moments
 -----------------------------------------------------------------
    Charge (ESU x 10^10)
                 0.0000
    Dipole Moment (Debye)
         X      -0.0000      Y      -0.0001      Z      -6.1688
       Tot       6.1688
    Quadrupole Moments (Debye-Ang)
        XX     -14.1904     XY      -0.0000     YY     -14.1906
        XZ       0.0000     YZ       0.0000     ZZ      -4.6010
    Octopole Moments (Debye-Ang^2)
       XXX       0.0000    XXY       0.8756    XYY       0.0000
       YYY      -0.8765    XXZ      -3.1650    XYZ       0.0000
       YYZ      -3.1650    XZZ       0.0000    YZZ      -0.0002
       ZZZ     -27.5046
    Hexadecapole Moments (Debye-Ang^3)
      XXXX     -34.5814   XXXY      -0.0000   XXYY     -11.5272
      XYYY      -0.0000   YYYY     -34.5818   XXXZ       0.0000
      XXYZ      -0.0286   XYYZ      -0.0000   YYYZ       0.0287
      XXZZ     -14.8082   XYZZ      -0.0000   YYZZ     -14.8083
      XZZZ       0.0000   YZZZ       0.0001   ZZZZ     -35.7593
 -----------------------------------------------------------------
Archival summary:
1\1\n0090.mhg0\SP\ProcedureUnspecified\BasisUnspecified\1i14\yhljason\SatOct302:10:062020SatOct302:10:062020\0\\#,ProcedureUnspecified,BasisUnspecified,\\0,1\B\H,1,1.191\H,1,1.23975,2,113.085\H,1,1.23975,2,113.085,3,-120.004,0\H,1,1.23977,2,113.085,3,119.998,0\Li,3,1.84477,1,74.8988,2,-180,0\\\@

 Total job time:  118.66s(wall), 941.66s(cpu) 
 Sat Oct  3 02:10:06 2020

        *************************************************************
        *                                                           *
        *  Thank you very much for using Q-Chem.  Have a nice day.  *
        *                                                           *
        *************************************************************


 
User input: 8 of 8 
 
Q-Chem Developer Version!
                  Welcome to Q-Chem
     A Quantum Leap Into The Future Of Chemistry


 Q-Chem 5.1, Q-Chem, Inc., Pleasanton, CA (2018)

 Yihan Shao,  Zhengting Gan,  E. Epifanovsky,  A. T. B. Gilbert,  M. Wormit,  
 J. Kussmann,  A. W. Lange,  A. Behn,  Jia Deng,  Xintian Feng,  D. Ghosh,  
 M. Goldey,  P. R. Horn,  L. D. Jacobson,  I. Kaliman,  T. Kus,  A. Landau,  
 Jie Liu,  E. I. Proynov,  R. M. Richard,  R. P. Steele,  E. J. Sundstrom,  
 H. L. Woodcock III,  P. M. Zimmerman,  D. Zuev,  B. Albrecht,  E. Alguire,  
 S. A. Baeppler,  D. Barton,  Z. Benda,  Y. A. Bernard,  E. J. Berquist,  
 K. B. Bravaya,  H. Burton,  D. Casanova,  Chun-Min Chang,  Yunqing Chen,  
 A. Chien,  K. D. Closser,  M. P. Coons,  S. Coriani,  S. Dasgupta,  
 A. L. Dempwolff,  M. Diedenhofen,  Hainam Do,  R. G. Edgar,  Po-Tung Fang,  
 S. Faraji,  S. Fatehi,  Qingguo Feng,  K. D. Fenk,  J. Fosso-Tande,  
 Qinghui Ge,  A. Ghysels,  G. Gidofalvi,  J. Gomes,  J. Gonthier,  A. Gunina,  
 D. Hait,  M. W. D. Hanson-Heine,  P. H. P. Harbach,  A. W. Hauser,  
 J. E. Herr,  E. G. Hohenstein,  Z. C. Holden,  Kerwin Hui,  B. C. Huynh,  
 T.-C. Jagau,  Hyunjun Ji,  B. Kaduk,  K. Khistyaev,  Jaehoon Kim,  
 P. Klunzinger,  K. Koh,  D. Kosenkov,  L. Koulias,  T. Kowalczyk,  
 C. M. Krauter,  A. Kunitsa,  Ka Un Lao,  A. Laurent,  K. V. Lawler,  
 Joonho Lee,  D. Lefrancois,  S. Lehtola,  D. S. Levine,  Yi-Pei Li,  
 You-Sheng Lin,  Fenglai Liu,  E. Livshits,  A. Luenser,  P. Manohar,  
 E. Mansoor,  S. F. Manzer,  Shan-Ping Mao,  Yuezhi Mao,  N. Mardirossian,  
 A. V. Marenich,  T. Markovich,  L. A. Martinez-Martinez,  S. A. Maurer,  
 N. J. Mayhall,  S. C. McKenzie,  J.-M. Mewes,  A. F. Morrison,  
 J. W. Mullinax,  K. Nanda,  T. S. Nguyen-Beck,  R. Olivares-Amaya,  
 J. A. Parkhill,  T. M. Perrine,  F. Plasser,  P. Pokhilko,  S. Prager,  
 A. Prociuk,  E. Ramos,  D. R. Rehn,  F. Rob,  M. Schneider,  N. Sergueev,  
 S. M. Sharada,  S. Sharma,  D. W. Small,  T. Stauch,  T. Stein,  
 Yu-Chuan Su,  A. J. W. Thom,  A. Tkatchenko,  T. Tsuchimochi,  N. M. Tubman,  
 L. Vogt,  M. L. Vidal,  O. Vydrov,  M. A. Watson,  J. Wenzel,  
 M. de Wergifosse,  T. A. Wesolowski,  A. White,  J. Witte,  A. Yamada,  
 Jun Yang,  K. Yao,  S. Yeganeh,  S. R. Yost,  Zhi-Qiang You,  A. Zech,  
 Igor Ying Zhang,  Xing Zhang,  Yan Zhao,  Ying Zhu,  B. R. Brooks,  
 G. K. L. Chan,  C. J. Cramer,  M. S. Gordon,  W. J. Hehre,  A. Klamt,  
 M. W. Schmidt,  C. D. Sherrill,  D. G. Truhlar,  A. Aspuru-Guzik,  R. Baer,  
 A. T. Bell,  N. A. Besley,  Jeng-Da Chai,  A. E. DePrince, III,  
 R. A. DiStasio Jr.,  A. Dreuw,  B. D. Dunietz,  T. R. Furlani,  
 Chao-Ping Hsu,  Yousung Jung,  Jing Kong,  D. S. Lambrecht,  WanZhen Liang,  
 C. Ochsenfeld,  V. A. Rassolov,  L. V. Slipchenko,  J. E. Subotnik,  
 T. Van Voorhis,  J. M. Herbert,  A. I. Krylov,  P. M. W. Gill,  M. Head-Gordon

 Contributors to earlier versions of Q-Chem not listed above: 
 R. D. Adamson,  B. Austin,  J. Baker,  G. J. O. Beran,  K. Brandhorst,  
 S. T. Brown,  E. F. C. Byrd,  A. K. Chakraborty,  C.-L. Cheng,  
 Siu Hung Chien,  D. M. Chipman,  D. L. Crittenden,  H. Dachsel,  
 R. J. Doerksen,  A. D. Dutoi,  L. Fusti-Molnar,  W. A. Goddard III,  
 A. Golubeva-Zadorozhnaya,  S. R. Gwaltney,  G. Hawkins,  A. Heyden,  
 S. Hirata,  G. Kedziora,  F. J. Keil,  C. Kelley,  Jihan Kim,  R. A. King,  
 R. Z. Khaliullin,  P. P. Korambath,  W. Kurlancheek,  A. M. Lee,  M. S. Lee,  
 S. V. Levchenko,  Ching Yeh Lin,  D. Liotard,  R. C. Lochan,  I. Lotan,  
 P. E. Maslen,  N. Nair,  D. P. O'Neill,  D. Neuhauser,  E. Neuscamman,  
 C. M. Oana,  R. Olson,  B. Peters,  R. Peverati,  P. A. Pieniazek,  
 Y. M. Rhee,  J. Ritchie,  M. A. Rohrdanz,  E. Rosta,  N. J. Russ,  
 H. F. Schaefer III,  N. E. Schultz,  N. Shenvi,  A. C. Simmonett,  A. Sodt,  
 D. Stuck,  K. S. Thanthiriwatte,  V. Vanovschi,  Tao Wang,  A. Warshel,  
 C. F. Williams,  Q. Wu,  X. Xu,  W. Zhang

 Please cite Q-Chem as follows:
 Y. Shao et al., Mol. Phys. 113, 184-215 (2015)
 DOI: 10.1080/00268976.2014.952696

 Q-Chem 5.1.1 for Intel X86 EM64T Linux

 Parts of Q-Chem use Armadillo 8.300.2 (Tropical Shenanigans).
 http://arma.sourceforge.net/

 Q-Chem begins on Sat Oct  3 02:10:06 2020  

Host: n0090.mhg0
0

     Scratch files written to /local/scratch/users/yhljason/LiBH4_wB97X-2TQZ_aug-cc-pcVTZ.inp20201003015133//
The previous job contains 0 fragments, simply inherited here
Input Ideriv = 0
Curr. Ideriv = -1
Max.  Ideriv = 0
Analytic post-HF gradients are not available with non-HF exchange
Input Ideriv = 0
Curr. Ideriv = 0
Max.  Ideriv = 0

Checking the input file for inconsistencies... 	...done.

--------------------------------------------------------------
User input:
--------------------------------------------------------------
$molecule
read
$end

$rem

jobtype sp
method wB97X-2(TQZ)
xc_grid 000099000590
basis aug-cc-pcVTZ
max_scf_cycles 200
thresh 14
scf_convergence 8
mem_total 128000
cc_memory 96000
cc_backend xm
mem_static 1500
symmetry false
sym_ignore true
scf_guess read
unrestricted false
scf_algorithm gdm
n_frozen_core 0
$end

$multipole_field
ZZ -0.0001
$end

--------------------------------------------------------------
 ----------------------------------------------------------------
             Standard Nuclear Orientation (Angstroms)
    I     Atom           X                Y                Z
 ----------------------------------------------------------------
    1      Li      0.0000000000     0.0000000000    -1.4298000000
    2      B       0.0000000000     0.0000000000     0.5063000000
    3      H       0.0000000000     0.0000000000     1.6973000000
    4      H       0.0000000000     1.1405000000     0.0202000000
    5      H       0.9877000000    -0.5702000000     0.0202000000
    6      H      -0.9877000000    -0.5702000000     0.0202000000
 ----------------------------------------------------------------
 Nuclear Repulsion Energy =    17.3997337348 hartrees
 There are        6 alpha and        6 beta electrons
 Requested basis set is aug-cc-pCVTZ
 There are 74 shells and 210 basis functions

 Total QAlloc Memory Limit 128000 MB
 Mega-Array Size      1467 MB
 MEM_STATIC part      1500 MB

                       Distance Matrix (Angstroms)
             Li(  1)   B (  2)   H (  3)   H (  4)   H (  5)
   B (  2)  1.936100
   H (  3)  3.127100  1.191000
   H (  4)  1.844787  1.239772  2.028153
   H (  5)  1.844771  1.239747  2.028138  1.975360
   H (  6)  1.844771  1.239747  2.028138  1.975360  1.975400
 
 Applying Cartesian multipole field
    Component          Value
    ---------          -----
     (0,0,2)       -1.00000E-04
 Nucleus-field energy     =    -0.0036770305 hartrees
 A cutoff of  1.0D-14 yielded   2765 shell pairs
 There are     22363 function pairs (     28804 Cartesian)
 
 -------------------------------------------------------
 OpenMP Integral Computing Module                       
 Release: version 1.0, May 2013, Q-Chem Inc. Pittsburgh 
 -------------------------------------------------------
 Integral Job Info:
 Integral job number is                      11
 Integral operator is                         1
 short-range coefficients              63615800
 long-range coefficients              100000000
 Omega coefficients                         300
 if combine SR and LR in K                    1
 Integral screening is                        0
 Integral computing path is                   2
 max size of driver memory is            800000
 size of driver memory is                776718
 size of scratch memory is              9790524
 max col of scratch BK array              10000
 max len of scratch array in speh3          662
 max len of scratch index in speh4           32
 max int batch size is                      520
 min int batch size is                       52
 fixed nKL is                                52
 max L of basis functions is                  3
 order of int derivative is                   0
 number of shells is                         74
 number of basis is                         238
 number of cartesian basis is               238
 number of contracted shell pairs          2765
 number of primitive shell pairs           6381
 maxK2 (contraction) of shell pair           81
 max number of K2 of shell pair               1
 max number of CS2 of shell pair            487
 max number of PS2 of shell pair            487
 mem total for path MDJ                  579280
 -------------------------------------------------------
 Smallest overlap matrix eigenvalue = 3.26E-06
 Guess MOs from SCF MO coefficient file

 -----------------------------------------------------------------------
  General SCF calculation program by
  Eric Jon Sundstrom, Paul Horn, Yuezhi Mao, Dmitri Zuev, Alec White,
  David Stuck, Shaama M.S., Shane Yost, Joonho Lee, David Small,
  Daniel Levine, Susi Lehtola, Hugh Burton, Evgeny Epifanovsky
 -----------------------------------------------------------------------
 Exchange:     0.6362 Hartree-Fock + 1.0000 wB97X-2(TQZ) + LR-HF
 Correlation:  1.0000 wB97X-2(TQZ)
 Using Euler-Maclaurin-Lebedev (99,590) quadrature formula
 using 8 threads for integral computing
 -------------------------------------------------------
 OpenMP Integral computing Module                
 Release: version 1.0, May 2013, Q-Chem Inc. Pittsburgh 
 -------------------------------------------------------
 using 8 threads for integral computing
 -------------------------------------------------------
 OpenMP Integral computing Module                
 Release: version 1.0, May 2013, Q-Chem Inc. Pittsburgh 
 -------------------------------------------------------
 -------------------------------------------------------
 OpenMP BLAS3 based DFT computing Module                
 Release: version 1.0, May 2013, Q-Chem Inc. Pittsburgh 
 -------------------------------------------------------
 A restricted SCF calculation will be
 performed using GDM
 SCF converges when RMS gradient is below 1.0e-08
 ---------------------------------------
  Cycle       Energy        RMS Gradient
 ---------------------------------------
    1     -34.6458959423      1.04e-03   Normal BFGS step
    2     -34.6459018009      2.20e-04   Normal BFGS step
    3     -34.6459024047      3.55e-05   Normal BFGS step
    4     -34.6459024272      8.61e-06   Normal BFGS step
    5     -34.6459024282      1.80e-06   Normal BFGS step
    6     -34.6459024282      2.46e-07   Normal BFGS step
    7     -34.6459024282      5.35e-08   Normal BFGS step
    8     -34.6459024282      7.74e-09  Convergence criterion met
 ---------------------------------------
 SCF time:   CPU 490.52s  wall 62.00s 
 SCF   energy in the final basis set =      -34.6459024282
 Total energy in the final basis set =      -34.6459024282
 
 Components of the MP2 correlation energy:
        aaaa  correlation energy =        -0.0082988687 au
        abab  correlation energy =        -0.1052600663 au
        bbbb  correlation energy =        -0.0082988687 au
        non-Brillouin singles    =        -0.0000000000 au

 Total  MP2   correlation energy =                    -0.12185780 au
        MP2         total energy =                   -34.76776023 au
 
 --------------------------------------------------------------
 
                    Orbital Energies (a.u.)
 --------------------------------------------------------------
 
 Alpha MOs
 -- Occupied --
 -7.182  -2.324  -0.666  -0.421  -0.413  -0.413
 -- Virtual --
 -0.001   0.022   0.022   0.027   0.035   0.059   0.059   0.066
  0.075   0.075   0.078   0.088   0.088   0.089   0.118   0.132
  0.132   0.137   0.137   0.148   0.157   0.157   0.173   0.205
  0.205   0.205   0.233   0.233   0.253   0.273   0.299   0.299
  0.299   0.312   0.330   0.330   0.340   0.340   0.354   0.354
  0.358   0.360   0.360   0.380   0.392   0.412   0.423   0.423
  0.431   0.460   0.469   0.469   0.478   0.478   0.485   0.485
  0.485   0.543   0.584   0.610   0.610   0.633   0.633   0.652
  0.744   0.744   0.779   0.793   0.793   0.804   0.807   0.807
  0.831   0.831   0.838   0.880   0.880   0.891   0.938   0.954
  0.962   1.003   1.003   1.019   1.039   1.039   1.064   1.127
  1.127   1.148   1.198   1.198   1.198   1.243   1.243   1.251
  1.251   1.256   1.305   1.305   1.322   1.326   1.326   1.377
  1.377   1.399   1.448   1.465   1.555   1.555   1.574   1.574
  1.610   1.610   1.632   1.653   1.737   1.737   1.744   1.889
  1.906   1.906   1.961   2.005   2.005   2.231   2.349   2.359
  2.359   2.498   2.498   2.575   2.601   2.601   2.731   2.741
  2.847   2.848   3.085   3.085   3.197   3.652   3.696   3.696
  3.832   3.948   3.981   3.981   4.006   4.039   4.039   4.274
  4.284   4.284   4.335   4.335   4.359   4.510   4.537   4.582
  4.582   4.745   4.753   4.753   4.756   4.817   4.817   4.856
  4.856   4.950   4.985   4.985   5.113   5.113   5.159   5.462
  5.462   5.503   5.586   5.586   5.726   6.429  11.687  11.687
 11.969  12.779  14.647  14.647  14.685  14.685  14.750  16.169
 18.661  18.661  18.824  37.060  37.060  37.206  37.210  37.210
 56.501  56.501  56.679  62.222
 --------------------------------------------------------------
 
          Ground-State Mulliken Net Atomic Charges

     Atom                 Charge (a.u.)
  ----------------------------------------
      1 Li                    0.411993
      2 B                     1.279083
      3 H                    -0.281877
      4 H                    -0.469731
      5 H                    -0.469734
      6 H                    -0.469734
  ----------------------------------------
  Sum of atomic charges =    -0.000000

 -----------------------------------------------------------------
                    Cartesian Multipole Moments
 -----------------------------------------------------------------
    Charge (ESU x 10^10)
                -0.0000
    Dipole Moment (Debye)
         X       0.0000      Y      -0.0001      Z      -6.1479
       Tot       6.1479
    Quadrupole Moments (Debye-Ang)
        XX     -14.1912     XY      -0.0000     YY     -14.1914
        XZ       0.0000     YZ       0.0000     ZZ      -4.5140
    Octopole Moments (Debye-Ang^2)
       XXX      -0.0000    XXY       0.8798    XYY       0.0000
       YYY      -0.8807    XXZ      -3.1537    XYZ      -0.0000
       YYZ      -3.1536    XZZ      -0.0000    YZZ      -0.0002
       ZZZ     -27.3165
    Hexadecapole Moments (Debye-Ang^3)
      XXXX     -34.5789   XXXY       0.0000   XXYY     -11.5264
      XYYY       0.0000   YYYY     -34.5793   XXXZ       0.0000
      XXYZ      -0.0278   XYYZ       0.0000   YYYZ       0.0279
      XXZZ     -14.7420   XYZZ      -0.0000   YYZZ     -14.7421
      XZZZ      -0.0000   YZZZ       0.0001   ZZZZ     -35.0893
 -----------------------------------------------------------------
Archival summary:
1\1\n0090.mhg0\SP\ProcedureUnspecified\BasisUnspecified\1i14\yhljason\SatOct302:11:582020SatOct302:11:582020\0\\#,ProcedureUnspecified,BasisUnspecified,\\0,1\B\H,1,1.191\H,1,1.23975,2,113.085\H,1,1.23975,2,113.085,3,-120.004,0\H,1,1.23977,2,113.085,3,119.998,0\Li,3,1.84477,1,74.8988,2,-180,0\\\@

 Total job time:  112.32s(wall), 889.54s(cpu) 
 Sat Oct  3 02:11:58 2020

        *************************************************************
        *                                                           *
        *  Thank you very much for using Q-Chem.  Have a nice day.  *
        *                                                           *
        *************************************************************


