Q-Chem Developer Version!
                  Welcome to Q-Chem
     A Quantum Leap Into The Future Of Chemistry


 Q-Chem 5.1, Q-Chem, Inc., Pleasanton, CA (2018)

 Yihan Shao,  Zhengting Gan,  E. Epifanovsky,  A. T. B. Gilbert,  M. Wormit,  
 J. Kussmann,  A. W. Lange,  A. Behn,  Jia Deng,  Xintian Feng,  D. Ghosh,  
 M. Goldey,  P. R. Horn,  L. D. Jacobson,  I. Kaliman,  T. Kus,  A. Landau,  
 Jie Liu,  E. I. Proynov,  R. M. Richard,  R. P. Steele,  E. J. Sundstrom,  
 H. L. Woodcock III,  P. M. Zimmerman,  D. Zuev,  B. Albrecht,  E. Alguire,  
 S. A. Baeppler,  D. Barton,  Z. Benda,  Y. A. Bernard,  E. J. Berquist,  
 K. B. Bravaya,  H. Burton,  D. Casanova,  Chun-Min Chang,  Yunqing Chen,  
 A. Chien,  K. D. Closser,  M. P. Coons,  S. Coriani,  S. Dasgupta,  
 A. L. Dempwolff,  M. Diedenhofen,  Hainam Do,  R. G. Edgar,  Po-Tung Fang,  
 S. Faraji,  S. Fatehi,  Qingguo Feng,  K. D. Fenk,  J. Fosso-Tande,  
 Qinghui Ge,  A. Ghysels,  G. Gidofalvi,  J. Gomes,  J. Gonthier,  A. Gunina,  
 D. Hait,  M. W. D. Hanson-Heine,  P. H. P. Harbach,  A. W. Hauser,  
 J. E. Herr,  E. G. Hohenstein,  Z. C. Holden,  Kerwin Hui,  B. C. Huynh,  
 T.-C. Jagau,  Hyunjun Ji,  B. Kaduk,  K. Khistyaev,  Jaehoon Kim,  
 P. Klunzinger,  K. Koh,  D. Kosenkov,  L. Koulias,  T. Kowalczyk,  
 C. M. Krauter,  A. Kunitsa,  Ka Un Lao,  A. Laurent,  K. V. Lawler,  
 Joonho Lee,  D. Lefrancois,  S. Lehtola,  D. S. Levine,  Yi-Pei Li,  
 You-Sheng Lin,  Fenglai Liu,  E. Livshits,  A. Luenser,  P. Manohar,  
 E. Mansoor,  S. F. Manzer,  Shan-Ping Mao,  Yuezhi Mao,  N. Mardirossian,  
 A. V. Marenich,  T. Markovich,  L. A. Martinez-Martinez,  S. A. Maurer,  
 N. J. Mayhall,  S. C. McKenzie,  J.-M. Mewes,  A. F. Morrison,  
 J. W. Mullinax,  K. Nanda,  T. S. Nguyen-Beck,  R. Olivares-Amaya,  
 J. A. Parkhill,  T. M. Perrine,  F. Plasser,  P. Pokhilko,  S. Prager,  
 A. Prociuk,  E. Ramos,  D. R. Rehn,  F. Rob,  M. Schneider,  N. Sergueev,  
 S. M. Sharada,  S. Sharma,  D. W. Small,  T. Stauch,  T. Stein,  
 Yu-Chuan Su,  A. J. W. Thom,  A. Tkatchenko,  T. Tsuchimochi,  N. M. Tubman,  
 L. Vogt,  M. L. Vidal,  O. Vydrov,  M. A. Watson,  J. Wenzel,  
 M. de Wergifosse,  T. A. Wesolowski,  A. White,  J. Witte,  A. Yamada,  
 Jun Yang,  K. Yao,  S. Yeganeh,  S. R. Yost,  Zhi-Qiang You,  A. Zech,  
 Igor Ying Zhang,  Xing Zhang,  Yan Zhao,  Ying Zhu,  B. R. Brooks,  
 G. K. L. Chan,  C. J. Cramer,  M. S. Gordon,  W. J. Hehre,  A. Klamt,  
 M. W. Schmidt,  C. D. Sherrill,  D. G. Truhlar,  A. Aspuru-Guzik,  R. Baer,  
 A. T. Bell,  N. A. Besley,  Jeng-Da Chai,  A. E. DePrince, III,  
 R. A. DiStasio Jr.,  A. Dreuw,  B. D. Dunietz,  T. R. Furlani,  
 Chao-Ping Hsu,  Yousung Jung,  Jing Kong,  D. S. Lambrecht,  WanZhen Liang,  
 C. Ochsenfeld,  V. A. Rassolov,  L. V. Slipchenko,  J. E. Subotnik,  
 T. Van Voorhis,  J. M. Herbert,  A. I. Krylov,  P. M. W. Gill,  M. Head-Gordon

 Contributors to earlier versions of Q-Chem not listed above: 
 R. D. Adamson,  B. Austin,  J. Baker,  G. J. O. Beran,  K. Brandhorst,  
 S. T. Brown,  E. F. C. Byrd,  A. K. Chakraborty,  C.-L. Cheng,  
 Siu Hung Chien,  D. M. Chipman,  D. L. Crittenden,  H. Dachsel,  
 R. J. Doerksen,  A. D. Dutoi,  L. Fusti-Molnar,  W. A. Goddard III,  
 A. Golubeva-Zadorozhnaya,  S. R. Gwaltney,  G. Hawkins,  A. Heyden,  
 S. Hirata,  G. Kedziora,  F. J. Keil,  C. Kelley,  Jihan Kim,  R. A. King,  
 R. Z. Khaliullin,  P. P. Korambath,  W. Kurlancheek,  A. M. Lee,  M. S. Lee,  
 S. V. Levchenko,  Ching Yeh Lin,  D. Liotard,  R. C. Lochan,  I. Lotan,  
 P. E. Maslen,  N. Nair,  D. P. O'Neill,  D. Neuhauser,  E. Neuscamman,  
 C. M. Oana,  R. Olson,  B. Peters,  R. Peverati,  P. A. Pieniazek,  
 Y. M. Rhee,  J. Ritchie,  M. A. Rohrdanz,  E. Rosta,  N. J. Russ,  
 H. F. Schaefer III,  N. E. Schultz,  N. Shenvi,  A. C. Simmonett,  A. Sodt,  
 D. Stuck,  K. S. Thanthiriwatte,  V. Vanovschi,  Tao Wang,  A. Warshel,  
 C. F. Williams,  Q. Wu,  X. Xu,  W. Zhang

 Please cite Q-Chem as follows:
 Y. Shao et al., Mol. Phys. 113, 184-215 (2015)
 DOI: 10.1080/00268976.2014.952696

 Q-Chem 5.1.1 for Intel X86 EM64T Linux

 Parts of Q-Chem use Armadillo 8.300.2 (Tropical Shenanigans).
 http://arma.sourceforge.net/

 Q-Chem begins on Sat Oct  3 04:17:42 2020  

Host: n0070.mhg0
0

     Scratch files written to /local/scratch/users/yhljason/NH3_wB97X-2TQZ_aug-cc-pcV5Z.inp20201003025250//
Input Ideriv = 0
Curr. Ideriv = -1
Max.  Ideriv = 0
Analytic post-HF gradients are not available with non-HF exchange
Input Ideriv = 0
Curr. Ideriv = 0
Max.  Ideriv = 0

Checking the input file for inconsistencies... 	...done.

--------------------------------------------------------------
User input:
--------------------------------------------------------------
$molecule
0 1
N1      0.0000  0.0000  0.0000
H2      0.0000  -0.9377 -0.3816
H3      0.8121  0.4689  -0.3816
H4      -0.8121 0.4689  -0.3816
$end

$rem
jobtype sp
method wB97X-2(TQZ)
xc_grid 000099000590
basis aug-cc-pcV5Z
max_scf_cycles 200
thresh 14
scf_convergence 8
scf_algorithm gdm
symmetry false
sym_ignore true
unrestricted false
gen_scfman true
internal_stability_iter 15
internal_stability_davidson_iter 200
mem_total 128000
cc_memory 96000
cc_backend xm
mem_static 1500
n_frozen_core 1000
$end



--------------------------------------------------------------
 ----------------------------------------------------------------
             Standard Nuclear Orientation (Angstroms)
    I     Atom           X                Y                Z
 ----------------------------------------------------------------
    1      N       0.0000000000     0.0000000000     0.0000000000
    2      H       0.0000000000    -0.9377000000    -0.3816000000
    3      H       0.8121000000     0.4689000000    -0.3816000000
    4      H      -0.8121000000     0.4689000000    -0.3816000000
 ----------------------------------------------------------------
 Nuclear Repulsion Energy =    11.9539937263 hartrees
 There are        5 alpha and        5 beta electrons
 Requested basis set is aug-cc-pCV5Z
 There are 101 shells and 421 basis functions

 Total QAlloc Memory Limit 128000 MB
 Mega-Array Size      1467 MB
 MEM_STATIC part      1500 MB

                       Distance Matrix (Angstroms)
             N (  1)   H (  2)   H (  3)
   H (  2)  1.012373
   H (  3)  1.012419  1.624201
   H (  4)  1.012419  1.624201  1.624200
 
 A cutoff of  1.0D-14 yielded   5151 shell pairs
 There are     89891 function pairs (    162981 Cartesian)
 
 -------------------------------------------------------
 OpenMP Integral Computing Module                       
 Release: version 1.0, May 2013, Q-Chem Inc. Pittsburgh 
 -------------------------------------------------------
 Integral Job Info:
 Integral job number is                      11
 Integral operator is                         1
 short-range coefficients              63615800
 long-range coefficients              100000000
 Omega coefficients                         300
 if combine SR and LR in K                    1
 Integral screening is                        0
 Integral computing path is                   2
 max size of driver memory is           6400000
 size of driver memory is               5498286
 size of scratch memory is             29851430
 max col of scratch BK array             194481
 max len of scratch array in speh3         5572
 max len of scratch index in speh4           72
 max int batch size is                      520
 min int batch size is                       52
 fixed nKL is                                30
 max L of basis functions is                  5
 order of int derivative is                   0
 number of shells is                        101
 number of basis is                         566
 number of cartesian basis is               566
 number of contracted shell pairs          5151
 number of primitive shell pairs           8439
 maxK2 (contraction) of shell pair          100
 max number of K2 of shell pair               1
 max number of CS2 of shell pair            582
 max number of PS2 of shell pair            582
 mem total for path MDJ                 1097632
 -------------------------------------------------------
 Smallest overlap matrix eigenvalue = 9.39E-06

 Scale SEOQF with 1.000000e-01/1.000000e-01/1.000000e-01

 Standard Electronic Orientation quadrupole field applied
 Guess from superposition of atomic densities
 Warning:  Energy on first SCF cycle will be non-variational
 SAD guess density has 10.000000 electrons

 -----------------------------------------------------------------------
  General SCF calculation program by
  Eric Jon Sundstrom, Paul Horn, Yuezhi Mao, Dmitri Zuev, Alec White,
  David Stuck, Shaama M.S., Shane Yost, Joonho Lee, David Small,
  Daniel Levine, Susi Lehtola, Hugh Burton, Evgeny Epifanovsky
 -----------------------------------------------------------------------
 Exchange:     0.6362 Hartree-Fock + 1.0000 wB97X-2(TQZ) + LR-HF
 Correlation:  1.0000 wB97X-2(TQZ)
 Using Euler-Maclaurin-Lebedev (99,590) quadrature formula
Running Object-Oriented RKS (RHF)
We will preform up to 15 macro iterations over saddle points until a stable solution is found
Energy prior to optimization (guess energy) = -56.378653595380
Begin Timing: Total SCF Calculation
Begin Timing: SCF Single Stationary Point Calculation
begin iterations for algorithm: GDM          
the SCF tolerance is set to 1.00e-08
    1     -56.3786535954      4.40e-02     00000  Normal BFGS step
    2     -56.3954164388      3.03e-02     00000  Normal BFGS step
    3     -56.4058071545      2.29e-03     00000  Normal BFGS step
    4     -56.4059155013      9.31e-04     00000  Normal BFGS step
    5     -56.4059249783      2.29e-04     00000  Normal BFGS step
    6     -56.4059252429      7.89e-05     00000  Normal BFGS step
    7     -56.4059252743      9.96e-06     00000  Normal BFGS step
    8     -56.4059252755      2.93e-06     00000  Normal BFGS step
    9     -56.4059252756      5.76e-07     00000  Normal BFGS step
   10     -56.4059252756      1.48e-07     00000  Normal BFGS step
   11     -56.4059252756      2.73e-08     00000  Normal BFGS step
   12     -56.4059252756      9.91e-09     00000 Convergence criterion met
Timing for Single Stationary Point: 2822.00s (wall), 22419.61s (cpu)
Begin Timing: Stability
===================================================
Beginning Test for Internal Stability
===================================================
generating davidson guess vectors based on koopmans excitations
    1      4.17e+00     00000 Davidson Iteration
    2      3.69e+00     00000 Davidson Iteration
    3      4.49e-01     00000 Davidson Iteration
    4      7.66e-02     00000 Davidson Iteration
    5      1.69e-02     00000 Davidson Iteration
    6      3.00e-02     00000 Davidson Iteration
    7      7.54e-03     00000 Davidson Iteration
    8      1.51e-03     00000 Davidson Iteration
    9      9.82e-04     00000 Davidson Iteration
   10      2.19e-04     00000 Davidson Iteration
   11      4.76e-05     00000 Davidson Converged
converged_eigenvalues
   1.0513
   1.2551
Threshold for negative eigenvalues: -1.0e-05
solution was a local minimum (stable)
===================================================
End Test for Internal Stability
===================================================
Our SCF solution is stable!
Timing for Total SCF: 8774.00s (wall), 69822.50s (cpu)
 Total energy in the final basis set =      -56.4059252756
    ==================================================
              The end of Object-Oriented SCFman       
    ==================================================

 Q-Chem fatal error occurred in module libmdc/qalloc.C, line 49:

 Illegal memory length in mega_alloc


 Please submit a crash report at q-chem.com/reporter 
 
 
 
User input: 2 of 2 
 
Q-Chem Developer Version!
                  Welcome to Q-Chem
     A Quantum Leap Into The Future Of Chemistry


 Q-Chem 5.1, Q-Chem, Inc., Pleasanton, CA (2018)

 Yihan Shao,  Zhengting Gan,  E. Epifanovsky,  A. T. B. Gilbert,  M. Wormit,  
 J. Kussmann,  A. W. Lange,  A. Behn,  Jia Deng,  Xintian Feng,  D. Ghosh,  
 M. Goldey,  P. R. Horn,  L. D. Jacobson,  I. Kaliman,  T. Kus,  A. Landau,  
 Jie Liu,  E. I. Proynov,  R. M. Richard,  R. P. Steele,  E. J. Sundstrom,  
 H. L. Woodcock III,  P. M. Zimmerman,  D. Zuev,  B. Albrecht,  E. Alguire,  
 S. A. Baeppler,  D. Barton,  Z. Benda,  Y. A. Bernard,  E. J. Berquist,  
 K. B. Bravaya,  H. Burton,  D. Casanova,  Chun-Min Chang,  Yunqing Chen,  
 A. Chien,  K. D. Closser,  M. P. Coons,  S. Coriani,  S. Dasgupta,  
 A. L. Dempwolff,  M. Diedenhofen,  Hainam Do,  R. G. Edgar,  Po-Tung Fang,  
 S. Faraji,  S. Fatehi,  Qingguo Feng,  K. D. Fenk,  J. Fosso-Tande,  
 Qinghui Ge,  A. Ghysels,  G. Gidofalvi,  J. Gomes,  J. Gonthier,  A. Gunina,  
 D. Hait,  M. W. D. Hanson-Heine,  P. H. P. Harbach,  A. W. Hauser,  
 J. E. Herr,  E. G. Hohenstein,  Z. C. Holden,  Kerwin Hui,  B. C. Huynh,  
 T.-C. Jagau,  Hyunjun Ji,  B. Kaduk,  K. Khistyaev,  Jaehoon Kim,  
 P. Klunzinger,  K. Koh,  D. Kosenkov,  L. Koulias,  T. Kowalczyk,  
 C. M. Krauter,  A. Kunitsa,  Ka Un Lao,  A. Laurent,  K. V. Lawler,  
 Joonho Lee,  D. Lefrancois,  S. Lehtola,  D. S. Levine,  Yi-Pei Li,  
 You-Sheng Lin,  Fenglai Liu,  E. Livshits,  A. Luenser,  P. Manohar,  
 E. Mansoor,  S. F. Manzer,  Shan-Ping Mao,  Yuezhi Mao,  N. Mardirossian,  
 A. V. Marenich,  T. Markovich,  L. A. Martinez-Martinez,  S. A. Maurer,  
 N. J. Mayhall,  S. C. McKenzie,  J.-M. Mewes,  A. F. Morrison,  
 J. W. Mullinax,  K. Nanda,  T. S. Nguyen-Beck,  R. Olivares-Amaya,  
 J. A. Parkhill,  T. M. Perrine,  F. Plasser,  P. Pokhilko,  S. Prager,  
 A. Prociuk,  E. Ramos,  D. R. Rehn,  F. Rob,  M. Schneider,  N. Sergueev,  
 S. M. Sharada,  S. Sharma,  D. W. Small,  T. Stauch,  T. Stein,  
 Yu-Chuan Su,  A. J. W. Thom,  A. Tkatchenko,  T. Tsuchimochi,  N. M. Tubman,  
 L. Vogt,  M. L. Vidal,  O. Vydrov,  M. A. Watson,  J. Wenzel,  
 M. de Wergifosse,  T. A. Wesolowski,  A. White,  J. Witte,  A. Yamada,  
 Jun Yang,  K. Yao,  S. Yeganeh,  S. R. Yost,  Zhi-Qiang You,  A. Zech,  
 Igor Ying Zhang,  Xing Zhang,  Yan Zhao,  Ying Zhu,  B. R. Brooks,  
 G. K. L. Chan,  C. J. Cramer,  M. S. Gordon,  W. J. Hehre,  A. Klamt,  
 M. W. Schmidt,  C. D. Sherrill,  D. G. Truhlar,  A. Aspuru-Guzik,  R. Baer,  
 A. T. Bell,  N. A. Besley,  Jeng-Da Chai,  A. E. DePrince, III,  
 R. A. DiStasio Jr.,  A. Dreuw,  B. D. Dunietz,  T. R. Furlani,  
 Chao-Ping Hsu,  Yousung Jung,  Jing Kong,  D. S. Lambrecht,  WanZhen Liang,  
 C. Ochsenfeld,  V. A. Rassolov,  L. V. Slipchenko,  J. E. Subotnik,  
 T. Van Voorhis,  J. M. Herbert,  A. I. Krylov,  P. M. W. Gill,  M. Head-Gordon

 Contributors to earlier versions of Q-Chem not listed above: 
 R. D. Adamson,  B. Austin,  J. Baker,  G. J. O. Beran,  K. Brandhorst,  
 S. T. Brown,  E. F. C. Byrd,  A. K. Chakraborty,  C.-L. Cheng,  
 Siu Hung Chien,  D. M. Chipman,  D. L. Crittenden,  H. Dachsel,  
 R. J. Doerksen,  A. D. Dutoi,  L. Fusti-Molnar,  W. A. Goddard III,  
 A. Golubeva-Zadorozhnaya,  S. R. Gwaltney,  G. Hawkins,  A. Heyden,  
 S. Hirata,  G. Kedziora,  F. J. Keil,  C. Kelley,  Jihan Kim,  R. A. King,  
 R. Z. Khaliullin,  P. P. Korambath,  W. Kurlancheek,  A. M. Lee,  M. S. Lee,  
 S. V. Levchenko,  Ching Yeh Lin,  D. Liotard,  R. C. Lochan,  I. Lotan,  
 P. E. Maslen,  N. Nair,  D. P. O'Neill,  D. Neuhauser,  E. Neuscamman,  
 C. M. Oana,  R. Olson,  B. Peters,  R. Peverati,  P. A. Pieniazek,  
 Y. M. Rhee,  J. Ritchie,  M. A. Rohrdanz,  E. Rosta,  N. J. Russ,  
 H. F. Schaefer III,  N. E. Schultz,  N. Shenvi,  A. C. Simmonett,  A. Sodt,  
 D. Stuck,  K. S. Thanthiriwatte,  V. Vanovschi,  Tao Wang,  A. Warshel,  
 C. F. Williams,  Q. Wu,  X. Xu,  W. Zhang

 Please cite Q-Chem as follows:
 Y. Shao et al., Mol. Phys. 113, 184-215 (2015)
 DOI: 10.1080/00268976.2014.952696

 Q-Chem 5.1.1 for Intel X86 EM64T Linux

 Parts of Q-Chem use Armadillo 8.300.2 (Tropical Shenanigans).
 http://arma.sourceforge.net/

 Q-Chem begins on Sat Oct  3 06:48:06 2020  

Host: n0070.mhg0
0

     Scratch files written to /local/scratch/users/yhljason/NH3_wB97X-2TQZ_aug-cc-pcV5Z.inp20201003025250//
The previous job contains 0 fragments, simply inherited here
Input Ideriv = 2
Curr. Ideriv = -1
Max.  Ideriv = 2

Checking the input file for inconsistencies... 	...done.

--------------------------------------------------------------
User input:
--------------------------------------------------------------
$molecule
read
$end

$rem

jobtype sp
method HF
xc_grid 000099000590
basis aug-cc-pcV5Z
max_scf_cycles 0
scf_guess read
thresh 14
scf_convergence 8
mem_total 128000
cc_memory 96000
cc_backend xm
mem_static 1500
symmetry false
sym_ignore true
scf_guess read
unrestricted false
scf_algorithm gdm
n_frozen_core 0
$end


--------------------------------------------------------------
 ----------------------------------------------------------------
             Standard Nuclear Orientation (Angstroms)
    I     Atom           X                Y                Z
 ----------------------------------------------------------------
    1      N       0.0000000000     0.0000000000     0.0000000000
    2      H       0.0000000000    -0.9377000000    -0.3816000000
    3      H       0.8121000000     0.4689000000    -0.3816000000
    4      H      -0.8121000000     0.4689000000    -0.3816000000
 ----------------------------------------------------------------
 Nuclear Repulsion Energy =    11.9539937263 hartrees
 There are        5 alpha and        5 beta electrons
 Requested basis set is aug-cc-pCV5Z
 There are 101 shells and 421 basis functions

 Total QAlloc Memory Limit 128000 MB
 Mega-Array Size      1467 MB
 MEM_STATIC part      1500 MB

                       Distance Matrix (Angstroms)
             N (  1)   H (  2)   H (  3)
   H (  2)  1.012373
   H (  3)  1.012419  1.624201
   H (  4)  1.012419  1.624201  1.624200
 
 A cutoff of  1.0D-14 yielded   5151 shell pairs
 There are     89891 function pairs (    162981 Cartesian)
 
 -------------------------------------------------------
 OpenMP Integral Computing Module                       
 Release: version 1.0, May 2013, Q-Chem Inc. Pittsburgh 
 -------------------------------------------------------
 Integral Job Info:
 Integral job number is                      11
 Integral operator is                         1
 short-range coefficients                     0
 long-range coefficients              100000000
 Omega coefficients                           0
 if combine SR and LR in K                    0
 Integral screening is                        0
 Integral computing path is                   2
 max size of driver memory is           6400000
 size of driver memory is               5498286
 size of scratch memory is             29551430
 max col of scratch BK array             194481
 max len of scratch array in speh3         5572
 max len of scratch index in speh4           72
 max int batch size is                      520
 min int batch size is                       52
 fixed nKL is                                30
 max L of basis functions is                  5
 order of int derivative is                   0
 number of shells is                        101
 number of basis is                         566
 number of cartesian basis is               566
 number of contracted shell pairs          5151
 number of primitive shell pairs           8439
 maxK2 (contraction) of shell pair          100
 max number of K2 of shell pair               1
 max number of CS2 of shell pair            582
 max number of PS2 of shell pair            582
 mem total for path MDJ                 1097632
 -------------------------------------------------------
 Smallest overlap matrix eigenvalue = 9.39E-06

 Scale SEOQF with 1.000000e-01/1.000000e-01/1.000000e-01

 Standard Electronic Orientation quadrupole field applied
 Guess MOs from SCF MO coefficient file
 Reading MOs from coefficient file
 Reading MOs from coefficient file
 The restricted Hartree-Fock energy will be evaluated
 The orbitals will not be altered
Using Q-Chem read-in guess as SCF_GUESS READ specified.

 using 8 threads for integral computing
 -------------------------------------------------------
 OpenMP Integral computing Module                
 Release: version 2.0, May 2017, Q-Chem Inc. Pleasanton 
 -------------------------------------------------------
 LTot/LBra/LKet=          20          10          10
 LTot/LBra/LKet=          19           9          10
 LTot/LBra/LKet=          19           9          10

 Q-Chem warning:

 in GenH1, ket side, handled with new code

 LTot/LBra/LKet=          20          10          10
 LTot/LBra/LKet=          19           9          10
 LTot/LBra/LKet=          19           9          10
 LTot/LBra/LKet=          19           9          10

 Q-Chem warning:

 in GenH1, ket side, handled with new code


 Q-Chem warning:

 in GenH1, ket side, handled with new code


 Q-Chem warning:

 in GenH1, ket side, handled with new code

 LTot/LBra/LKet=          20          10          10

 Q-Chem warning:

 in GenH1, ket side, handled with new code


 Q-Chem warning:

 in GenH1, ket side, handled with new code


 Q-Chem warning:

 in GenH1, ket side, handled with new code


 Q-Chem warning:

 in GenH1, ket side, handled with new code

 LTot/LBra/LBra=          20          10          10

 Q-Chem warning:

 in GenH1, bra side, handled with new code

TIMEINFO->: J/JK contribution 1588.10 sec.
Avoiding writing the new MOs to disk !!! 
 ---------------------------------------
  Cycle       Energy        RMS Gradient
 ---------------------------------------
    1     -56.2233760983      9.77E-03 Convergence criterion met
 ---------------------------------------
 SCF time:  CPU 1590.51 s  wall 199.51 s
 SCF   energy in the final basis set = -56.22337610
 Total energy in the final basis set = -56.22337610
 
 --------------------------------------------------------------
 
                    Orbital Energies (a.u.)
 --------------------------------------------------------------
 
 Alpha MOs
 -- Occupied --
-15.039  -1.070  -0.605  -0.605  -0.408
 -- Virtual --
  0.026   0.040   0.040   0.083   0.114   0.117   0.117   0.164
  0.164   0.168   0.168   0.180   0.242   0.249   0.258   0.258
  0.301   0.303   0.303   0.330   0.330   0.348   0.401   0.401
  0.427   0.427   0.429   0.471   0.528   0.528   0.563   0.572
  0.572   0.588   0.600   0.626   0.639   0.639   0.657   0.657
  0.661   0.664   0.664   0.694   0.694   0.798   0.829   0.829
  0.858   0.912   0.912   0.936   1.047   1.047   1.058   1.081
  1.102   1.102   1.152   1.152   1.162   1.179   1.243   1.259
  1.259   1.299   1.299   1.311   1.311   1.318   1.349   1.354
  1.376   1.376   1.391   1.391   1.441   1.441   1.444   1.444
  1.473   1.535   1.540   1.540   1.582   1.589   1.685   1.685
  1.689   1.695   1.695   1.804   1.959   1.959   2.171   2.235
  2.235   2.235   2.293   2.293   2.313   2.331   2.332   2.378
  2.399   2.399   2.408   2.472   2.479   2.479   2.553   2.553
  2.579   2.667   2.667   2.698   2.749   2.749   2.755   2.811
  2.883   2.883   2.903   2.952   2.952   3.032   3.058   3.058
  3.087   3.120   3.120   3.149   3.149   3.204   3.223   3.223
  3.323   3.357   3.357   3.428   3.435   3.435   3.435   3.455
  3.455   3.521   3.521   3.526   3.532   3.666   3.666   3.708
  3.785   3.799   3.799   3.889   3.889   3.961   3.961   3.977
  4.083   4.101   4.101   4.195   4.208   4.213   4.213   4.434
  4.434   4.619   4.761   4.761   4.843   4.982   4.982   5.088
  5.105   5.116   5.116   5.216   5.216   5.286   5.420   5.451
  5.451   5.530   5.552   5.552   5.554   5.616   5.616   5.657
  5.683   5.683   5.761   5.761   5.782   5.793   5.889   5.889
  5.935   5.935   5.961   6.015   6.176   6.176   6.230   6.230
  6.348   6.473   6.501   6.501   6.659   6.659   6.671   6.809
  6.809   6.953   7.079   7.141   7.141   7.148   7.355   7.355
  7.367   7.390   7.390   7.475   7.808   7.808   7.891   7.988
  7.988   8.229   8.229   8.238   8.621   8.624   8.624   8.870
  8.870   9.167   9.221   9.221   9.374   9.475   9.535   9.535
  9.704   9.704  10.755  12.101  12.101  12.125  12.125  12.218
 12.301  12.301  12.314  12.359  12.660  12.660  12.952  13.125
 13.125  13.147  13.162  13.272  13.272  13.294  13.294  13.329
 13.349  13.413  13.414  13.414  13.466  13.662  13.662  13.757
 13.757  13.774  13.774  13.814  14.061  14.062  14.062  14.157
 14.208  14.243  14.243  14.276  14.276  14.382  14.417  14.445
 14.445  14.490  14.490  14.509  14.604  14.636  14.636  14.789
 14.802  14.802  15.068  15.068  15.233  15.233  15.366  15.461
 15.461  15.467  15.660  15.773  15.773  15.827  15.827  15.906
 16.383  16.383  16.432  16.548  16.548  16.582  16.831  16.899
 16.899  17.073  17.073  17.186  17.215  17.215  17.219  17.389
 17.389  17.669  17.867  17.867  18.049  18.515  18.515  18.756
 18.798  18.799  19.142  19.389  19.390  20.842  20.842  20.999
 21.038  21.372  21.372  21.579  22.309  22.309  22.677  23.957
 23.957  26.886  31.578  33.077  33.077  51.348  51.348  51.425
 52.543  52.543  58.740  59.129  59.129  59.438  59.574  59.574
 60.016  66.823  84.056  85.155  85.155 150.794 150.794 150.870
151.649 151.649 172.823 208.477 208.477 208.481 208.485 208.485
208.490 208.496 208.496 208.498 230.329 231.245 231.246 235.740
235.912 235.912 236.031 236.092 236.092 236.275 449.956 456.314
456.314 456.415 456.918 456.918 643.781 644.570 644.5701577.725
 --------------------------------------------------------------
 
          Ground-State Mulliken Net Atomic Charges

     Atom                 Charge (a.u.)
  ----------------------------------------
      1 N                    -0.808275
      2 H                     0.269434
      3 H                     0.269420
      4 H                     0.269420
  ----------------------------------------
  Sum of atomic charges =     0.000000

 -----------------------------------------------------------------
                    Cartesian Multipole Moments
 -----------------------------------------------------------------
    Charge (ESU x 10^10)
                 0.0000
    Dipole Moment (Debye)
         X       0.0000      Y       0.0001      Z      -1.5952
       Tot       1.5952
    Quadrupole Moments (Debye-Ang)
        XX      -6.3082     XY       0.0000     YY      -6.3081
        XZ      -0.0000     YZ      -0.0000     ZZ      -8.9824
    Octopole Moments (Debye-Ang^2)
       XXX       0.0000    XXY       0.9538    XYY       0.0000
       YYY      -0.9540    XXZ      -0.1763    XYZ       0.0000
       YYZ      -0.1764    XZZ       0.0000    YZZ      -0.0001
       ZZZ       1.7724
    Hexadecapole Moments (Debye-Ang^3)
      XXXX     -10.2578   XXXY       0.0000   XXYY      -3.4191
      XYYY       0.0000   YYYY     -10.2576   XXXZ      -0.0000
      XXYZ      -0.4645   XYYZ      -0.0000   YYYZ       0.4646
      XXZZ      -3.8453   XYZZ      -0.0000   YYZZ      -3.8453
      XZZZ      -0.0000   YZZZ       0.0001   ZZZZ     -12.7686
 -----------------------------------------------------------------
Archival summary:
1\1\n0070.mhg0\SP\HF\BasisUnspecified\13\yhljason\SatOct306:51:302020SatOct306:51:302020\0\\#,HF,BasisUnspecified,\\0,1\N\H,1,1.01237\H,1,1.01242,2,106.673\H,1,1.01242,2,106.673,3,-113.721,0\\HF=-56.2233761\\@

 Total job time:  204.46s(wall), 1603.80s(cpu) 
 Sat Oct  3 06:51:30 2020

        *************************************************************
        *                                                           *
        *  Thank you very much for using Q-Chem.  Have a nice day.  *
        *                                                           *
        *************************************************************


