Q-Chem Developer Version!
                  Welcome to Q-Chem
     A Quantum Leap Into The Future Of Chemistry


 Q-Chem 5.1, Q-Chem, Inc., Pleasanton, CA (2018)

 Yihan Shao,  Zhengting Gan,  E. Epifanovsky,  A. T. B. Gilbert,  M. Wormit,  
 J. Kussmann,  A. W. Lange,  A. Behn,  Jia Deng,  Xintian Feng,  D. Ghosh,  
 M. Goldey,  P. R. Horn,  L. D. Jacobson,  I. Kaliman,  T. Kus,  A. Landau,  
 Jie Liu,  E. I. Proynov,  R. M. Richard,  R. P. Steele,  E. J. Sundstrom,  
 H. L. Woodcock III,  P. M. Zimmerman,  D. Zuev,  B. Albrecht,  E. Alguire,  
 S. A. Baeppler,  D. Barton,  Z. Benda,  Y. A. Bernard,  E. J. Berquist,  
 K. B. Bravaya,  H. Burton,  D. Casanova,  Chun-Min Chang,  Yunqing Chen,  
 A. Chien,  K. D. Closser,  M. P. Coons,  S. Coriani,  S. Dasgupta,  
 A. L. Dempwolff,  M. Diedenhofen,  Hainam Do,  R. G. Edgar,  Po-Tung Fang,  
 S. Faraji,  S. Fatehi,  Qingguo Feng,  K. D. Fenk,  J. Fosso-Tande,  
 Qinghui Ge,  A. Ghysels,  G. Gidofalvi,  J. Gomes,  J. Gonthier,  A. Gunina,  
 D. Hait,  M. W. D. Hanson-Heine,  P. H. P. Harbach,  A. W. Hauser,  
 J. E. Herr,  E. G. Hohenstein,  Z. C. Holden,  Kerwin Hui,  B. C. Huynh,  
 T.-C. Jagau,  Hyunjun Ji,  B. Kaduk,  K. Khistyaev,  Jaehoon Kim,  
 P. Klunzinger,  K. Koh,  D. Kosenkov,  L. Koulias,  T. Kowalczyk,  
 C. M. Krauter,  A. Kunitsa,  Ka Un Lao,  A. Laurent,  K. V. Lawler,  
 Joonho Lee,  D. Lefrancois,  S. Lehtola,  D. S. Levine,  Yi-Pei Li,  
 You-Sheng Lin,  Fenglai Liu,  E. Livshits,  A. Luenser,  P. Manohar,  
 E. Mansoor,  S. F. Manzer,  Shan-Ping Mao,  Yuezhi Mao,  N. Mardirossian,  
 A. V. Marenich,  T. Markovich,  L. A. Martinez-Martinez,  S. A. Maurer,  
 N. J. Mayhall,  S. C. McKenzie,  J.-M. Mewes,  A. F. Morrison,  
 J. W. Mullinax,  K. Nanda,  T. S. Nguyen-Beck,  R. Olivares-Amaya,  
 J. A. Parkhill,  T. M. Perrine,  F. Plasser,  P. Pokhilko,  S. Prager,  
 A. Prociuk,  E. Ramos,  D. R. Rehn,  F. Rob,  M. Schneider,  N. Sergueev,  
 S. M. Sharada,  S. Sharma,  D. W. Small,  T. Stauch,  T. Stein,  
 Yu-Chuan Su,  A. J. W. Thom,  A. Tkatchenko,  T. Tsuchimochi,  N. M. Tubman,  
 L. Vogt,  M. L. Vidal,  O. Vydrov,  M. A. Watson,  J. Wenzel,  
 M. de Wergifosse,  T. A. Wesolowski,  A. White,  J. Witte,  A. Yamada,  
 Jun Yang,  K. Yao,  S. Yeganeh,  S. R. Yost,  Zhi-Qiang You,  A. Zech,  
 Igor Ying Zhang,  Xing Zhang,  Yan Zhao,  Ying Zhu,  B. R. Brooks,  
 G. K. L. Chan,  C. J. Cramer,  M. S. Gordon,  W. J. Hehre,  A. Klamt,  
 M. W. Schmidt,  C. D. Sherrill,  D. G. Truhlar,  A. Aspuru-Guzik,  R. Baer,  
 A. T. Bell,  N. A. Besley,  Jeng-Da Chai,  A. E. DePrince, III,  
 R. A. DiStasio Jr.,  A. Dreuw,  B. D. Dunietz,  T. R. Furlani,  
 Chao-Ping Hsu,  Yousung Jung,  Jing Kong,  D. S. Lambrecht,  WanZhen Liang,  
 C. Ochsenfeld,  V. A. Rassolov,  L. V. Slipchenko,  J. E. Subotnik,  
 T. Van Voorhis,  J. M. Herbert,  A. I. Krylov,  P. M. W. Gill,  M. Head-Gordon

 Contributors to earlier versions of Q-Chem not listed above: 
 R. D. Adamson,  B. Austin,  J. Baker,  G. J. O. Beran,  K. Brandhorst,  
 S. T. Brown,  E. F. C. Byrd,  A. K. Chakraborty,  C.-L. Cheng,  
 Siu Hung Chien,  D. M. Chipman,  D. L. Crittenden,  H. Dachsel,  
 R. J. Doerksen,  A. D. Dutoi,  L. Fusti-Molnar,  W. A. Goddard III,  
 A. Golubeva-Zadorozhnaya,  S. R. Gwaltney,  G. Hawkins,  A. Heyden,  
 S. Hirata,  G. Kedziora,  F. J. Keil,  C. Kelley,  Jihan Kim,  R. A. King,  
 R. Z. Khaliullin,  P. P. Korambath,  W. Kurlancheek,  A. M. Lee,  M. S. Lee,  
 S. V. Levchenko,  Ching Yeh Lin,  D. Liotard,  R. C. Lochan,  I. Lotan,  
 P. E. Maslen,  N. Nair,  D. P. O'Neill,  D. Neuhauser,  E. Neuscamman,  
 C. M. Oana,  R. Olson,  B. Peters,  R. Peverati,  P. A. Pieniazek,  
 Y. M. Rhee,  J. Ritchie,  M. A. Rohrdanz,  E. Rosta,  N. J. Russ,  
 H. F. Schaefer III,  N. E. Schultz,  N. Shenvi,  A. C. Simmonett,  A. Sodt,  
 D. Stuck,  K. S. Thanthiriwatte,  V. Vanovschi,  Tao Wang,  A. Warshel,  
 C. F. Williams,  Q. Wu,  X. Xu,  W. Zhang

 Please cite Q-Chem as follows:
 Y. Shao et al., Mol. Phys. 113, 184-215 (2015)
 DOI: 10.1080/00268976.2014.952696

 Q-Chem 5.1.1 for Intel X86 EM64T Linux

 Parts of Q-Chem use Armadillo 8.300.2 (Tropical Shenanigans).
 http://arma.sourceforge.net/

 Q-Chem begins on Sat Oct  3 01:58:53 2020  

Host: n0081.mhg0
0

     Scratch files written to /local/scratch/users/yhljason/NH3O_wB97X-2TQZ_aug-cc-pcVTZ.inp20201003015137//
Input Ideriv = 0
Curr. Ideriv = -1
Max.  Ideriv = 0
Analytic post-HF gradients are not available with non-HF exchange
Input Ideriv = 0
Curr. Ideriv = 0
Max.  Ideriv = 0

Checking the input file for inconsistencies... 	...done.

--------------------------------------------------------------
User input:
--------------------------------------------------------------
$molecule
0 1
N        0.0000000000      0.0000000000     -0.5344777797
H       -0.9458001927      0.0000000000     -0.9350779673
H        0.4729000069     -0.8190998435     -0.9350776619
H        0.4729000069      0.8190998435     -0.9350776619
O        0.0000000000      0.0000000000      0.8183222203
$end

$rem
jobtype sp
method wB97X-2(TQZ)
xc_grid 000099000590
basis aug-cc-pcVTZ
max_scf_cycles 200
thresh 14
scf_convergence 8
scf_algorithm gdm
symmetry false
sym_ignore true
unrestricted false
gen_scfman true
internal_stability_iter 15
internal_stability_davidson_iter 200
mem_total 128000
cc_memory 96000
cc_backend xm
mem_static 1500
n_frozen_core 0
$end



--------------------------------------------------------------
 ----------------------------------------------------------------
             Standard Nuclear Orientation (Angstroms)
    I     Atom           X                Y                Z
 ----------------------------------------------------------------
    1      N       0.0000000000     0.0000000000    -0.5344777797
    2      H      -0.9458001927     0.0000000000    -0.9350779673
    3      H       0.4729000069    -0.8190998435    -0.9350776619
    4      H       0.4729000069     0.8190998435    -0.9350776619
    5      O       0.0000000000     0.0000000000     0.8183222203
 ----------------------------------------------------------------
 Nuclear Repulsion Energy =    40.0686164025 hartrees
 There are        9 alpha and        9 beta electrons
 Requested basis set is aug-cc-pCVTZ
 There are 65 shells and 187 basis functions

 Total QAlloc Memory Limit 128000 MB
 Mega-Array Size      1467 MB
 MEM_STATIC part      1500 MB

                       Distance Matrix (Angstroms)
             N (  1)   H (  2)   H (  3)   H (  4)
   H (  2)  1.027141
   H (  3)  1.027151  1.638180
   H (  4)  1.027151  1.638180  1.638200
   O (  5)  1.352800  1.992222  1.992227  1.992227
 
 A cutoff of  1.0D-14 yielded   2128 shell pairs
 There are     17718 function pairs (     23072 Cartesian)
 
 -------------------------------------------------------
 OpenMP Integral Computing Module                       
 Release: version 1.0, May 2013, Q-Chem Inc. Pittsburgh 
 -------------------------------------------------------
 Integral Job Info:
 Integral job number is                      11
 Integral operator is                         1
 short-range coefficients              63615800
 long-range coefficients              100000000
 Omega coefficients                         300
 if combine SR and LR in K                    1
 Integral screening is                        0
 Integral computing path is                   2
 max size of driver memory is            800000
 size of driver memory is                776718
 size of scratch memory is              6904264
 max col of scratch BK array              10000
 max len of scratch array in speh3          662
 max len of scratch index in speh4           32
 max int batch size is                      520
 min int batch size is                       52
 fixed nKL is                                52
 max L of basis functions is                  3
 order of int derivative is                   0
 number of shells is                         65
 number of basis is                         213
 number of cartesian basis is               213
 number of contracted shell pairs          2128
 number of primitive shell pairs           4946
 maxK2 (contraction) of shell pair           64
 max number of K2 of shell pair               1
 max number of CS2 of shell pair            362
 max number of PS2 of shell pair            568
 mem total for path MDJ                  570992
 -------------------------------------------------------
 Smallest overlap matrix eigenvalue = 7.79E-05

 Scale SEOQF with 1.000000e-01/1.000000e-01/1.000000e-01

 Standard Electronic Orientation quadrupole field applied
 Nucleus-field energy     =    -0.0000000009 hartrees
 Guess from superposition of atomic densities
 Warning:  Energy on first SCF cycle will be non-variational
 SAD guess density has 18.000000 electrons

 -----------------------------------------------------------------------
  General SCF calculation program by
  Eric Jon Sundstrom, Paul Horn, Yuezhi Mao, Dmitri Zuev, Alec White,
  David Stuck, Shaama M.S., Shane Yost, Joonho Lee, David Small,
  Daniel Levine, Susi Lehtola, Hugh Burton, Evgeny Epifanovsky
 -----------------------------------------------------------------------
 Exchange:     0.6362 Hartree-Fock + 1.0000 wB97X-2(TQZ) + LR-HF
 Correlation:  1.0000 wB97X-2(TQZ)
 Using Euler-Maclaurin-Lebedev (99,590) quadrature formula
Running Object-Oriented RKS (RHF)
We will preform up to 15 macro iterations over saddle points until a stable solution is found
Energy prior to optimization (guess energy) = -131.244596198710
Begin Timing: Total SCF Calculation
Begin Timing: SCF Single Stationary Point Calculation
begin iterations for algorithm: GDM          
the SCF tolerance is set to 1.00e-08
    1    -131.2445961987      1.81e-01     00000  Descent step
    2    -131.3415052423      6.15e-02     00000  Normal BFGS step
    3    -131.3658359736      7.51e-03     00000  Normal BFGS step
    4    -131.3661876843      3.26e-03     00000  Normal BFGS step
    5    -131.3662324775      5.40e-04     00000  Normal BFGS step
    6    -131.3662388518      1.28e-04     00000  Normal BFGS step
    7    -131.3662391561      6.46e-05     00000  Normal BFGS step
    8    -131.3662391807      9.61e-06     00000  Normal BFGS step
    9    -131.3662391815      1.24e-06     00000  Normal BFGS step
   10    -131.3662391816      2.32e-07     00000  Normal BFGS step
   11    -131.3662391816      5.79e-08     00000  Normal BFGS step
   12    -131.3662391816      1.01e-08     00000  Normal BFGS step
   13    -131.3662391816      1.01e-08     00000  Normal BFGS step
   14    -131.3662391816      1.11e-09     00000 Convergence criterion met
Timing for Single Stationary Point: 72.00s (wall), 569.93s (cpu)
Begin Timing: Stability
===================================================
Beginning Test for Internal Stability
===================================================
generating davidson guess vectors based on koopmans excitations
    1      1.27e+00     00000 Davidson Iteration
    2      1.39e+00     00000 Davidson Iteration
    3      1.78e-01     00000 Davidson Iteration
    4      2.88e-02     00000 Davidson Iteration
    5      1.14e-02     00000 Davidson Iteration
    6      7.70e-03     00000 Davidson Iteration
    7      2.85e-03     00000 Davidson Iteration
    8      2.96e-03     00000 Davidson Iteration
    9      1.55e-03     00000 Davidson Iteration
   10      5.37e-04     00000 Davidson Iteration
   11      2.28e-04     00000 Davidson Iteration
   12      9.73e-05     00000 Davidson Iteration
   13      7.27e-05     00000 Davidson Converged
converged_eigenvalues
   0.8610
   0.8610
Threshold for negative eigenvalues: -1.0e-05
solution was a local minimum (stable)
===================================================
End Test for Internal Stability
===================================================
Our SCF solution is stable!
Timing for Total SCF: 223.00s (wall), 1768.34s (cpu)
 Total energy in the final basis set =     -131.3662391816
    ==================================================
              The end of Object-Oriented SCFman       
    ==================================================
 
 Components of the MP2 correlation energy:
        aaaa  correlation energy =        -0.0370051033 au
        abab  correlation energy =        -0.2168526558 au
        bbbb  correlation energy =        -0.0370051033 au
        non-Brillouin singles    =        -0.0000000000 au

 Total  MP2   correlation energy =                    -0.29086286 au
        MP2         total energy =                  -131.65710204 au
 
 --------------------------------------------------------------
 
                    Orbital Energies (a.u.)
 --------------------------------------------------------------
 
 Alpha MOs
 -- Occupied --
-19.894 -15.207  -1.292  -1.018  -0.723  -0.723  -0.566  -0.359
 -0.359
 -- Virtual --
  0.017   0.045   0.045   0.093   0.120   0.146   0.146   0.187
  0.187   0.188   0.217   0.217   0.261   0.293   0.293   0.309
  0.345   0.365   0.367   0.367   0.405   0.405   0.415   0.451
  0.507   0.507   0.589   0.589   0.613   0.656   0.656   0.703
  0.757   0.815   0.815   0.850   0.855   0.855   0.872   0.916
  0.916   0.939   0.945   0.945   1.021   1.025   1.025   1.055
  1.114   1.114   1.199   1.207   1.207   1.217   1.222   1.222
  1.346   1.346   1.433   1.478   1.478   1.654   1.690   1.694
  1.694   1.712   1.712   1.741   1.918   1.918   1.949   1.949
  1.982   2.067   2.078   2.190   2.195   2.195   2.248   2.296
  2.296   2.448   2.455   2.455   2.521   2.550   2.550   2.683
  2.726   2.726   3.044   3.116   3.116   3.345   3.733   3.733
  3.881   3.881   3.985   4.033   4.098   4.098   4.160   4.160
  4.160   4.303   4.367   4.367   4.392   4.392   4.420   4.483
  4.536   4.536   4.629   4.629   4.770   4.812   4.812   4.867
  4.871   4.955   4.955   5.397   5.477   5.477   5.579   5.698
  5.698   5.920   5.995   5.995   6.051   6.111   6.528   6.531
  6.609   6.609   6.798   6.864   6.864   7.125   7.125   7.229
  7.229   7.459   7.459   7.478   7.626   7.626   7.879   8.556
 21.623  21.623  21.675  23.033  26.135  26.135  27.291  29.480
 38.800  38.800  39.004  39.183  39.183  43.633  43.633  43.752
 43.752  43.813 109.018 109.018 109.111 116.740 137.719 137.719
138.597 149.554
 --------------------------------------------------------------
 
          Ground-State Mulliken Net Atomic Charges

     Atom                 Charge (a.u.)
  ----------------------------------------
      1 N                     0.200999
      2 H                     0.200435
      3 H                     0.200448
      4 H                     0.200448
      5 O                    -0.802330
  ----------------------------------------
  Sum of atomic charges =    -0.000000

 -----------------------------------------------------------------
                    Cartesian Multipole Moments
 -----------------------------------------------------------------
    Charge (ESU x 10^10)
                -0.0000
    Dipole Moment (Debye)
         X      -0.0000      Y      -0.0000      Z      -5.5122
       Tot       5.5122
    Quadrupole Moments (Debye-Ang)
        XX     -11.6675     XY      -0.0000     YY     -11.6675
        XZ       0.0000     YZ       0.0000     ZZ     -13.1548
    Octopole Moments (Debye-Ang^2)
       XXX      -1.1418    XXY      -0.0000    XYY       1.1418
       YYY      -0.0000    XXZ      -3.2661    XYZ       0.0000
       YYZ      -3.2662    XZZ      -0.0000    YZZ      -0.0000
       ZZZ      -5.2747
    Hexadecapole Moments (Debye-Ang^3)
      XXXX     -14.7974   XXXY      -0.0000   XXYY      -4.9325
      XYYY      -0.0000   YYYY     -14.7974   XXXZ       0.9871
      XXYZ       0.0000   XYYZ      -0.9871   YYYZ       0.0000
      XXZZ     -11.2893   XYZZ      -0.0000   YYZZ     -11.2892
      XZZZ       0.0001   YZZZ       0.0000   ZZZZ     -53.1061
 -----------------------------------------------------------------
Archival summary:
1\1\n0081.mhg0\SP\ProcedureUnspecified\BasisUnspecified\113\yhljason\SatOct302:03:222020SatOct302:03:222020\0\\#,ProcedureUnspecified,BasisUnspecified,\\0,1\N\H,1,1.02714\H,1,1.02715,2,105.773\H,1,1.02715,2,105.773,3,-111.921,0\O,1,1.3528,2,112.955,3,124.04,0\\\@

 Total job time:  268.86s(wall), 2126.56s(cpu) 
 Sat Oct  3 02:03:22 2020

        *************************************************************
        *                                                           *
        *  Thank you very much for using Q-Chem.  Have a nice day.  *
        *                                                           *
        *************************************************************


 
User input: 2 of 83 of 8 
 
Q-Chem Developer Version!
                  Welcome to Q-Chem
     A Quantum Leap Into The Future Of Chemistry


 Q-Chem 5.1, Q-Chem, Inc., Pleasanton, CA (2018)

 Yihan Shao,  Zhengting Gan,  E. Epifanovsky,  A. T. B. Gilbert,  M. Wormit,  
 J. Kussmann,  A. W. Lange,  A. Behn,  Jia Deng,  Xintian Feng,  D. Ghosh,  
 M. Goldey,  P. R. Horn,  L. D. Jacobson,  I. Kaliman,  T. Kus,  A. Landau,  
 Jie Liu,  E. I. Proynov,  R. M. Richard,  R. P. Steele,  E. J. Sundstrom,  
 H. L. Woodcock III,  P. M. Zimmerman,  D. Zuev,  B. Albrecht,  E. Alguire,  
 S. A. Baeppler,  D. Barton,  Z. Benda,  Y. A. Bernard,  E. J. Berquist,  
 K. B. Bravaya,  H. Burton,  D. Casanova,  Chun-Min Chang,  Yunqing Chen,  
 A. Chien,  K. D. Closser,  M. P. Coons,  S. Coriani,  S. Dasgupta,  
 A. L. Dempwolff,  M. Diedenhofen,  Hainam Do,  R. G. Edgar,  Po-Tung Fang,  
 S. Faraji,  S. Fatehi,  Qingguo Feng,  K. D. Fenk,  J. Fosso-Tande,  
 Qinghui Ge,  A. Ghysels,  G. Gidofalvi,  J. Gomes,  J. Gonthier,  A. Gunina,  
 D. Hait,  M. W. D. Hanson-Heine,  P. H. P. Harbach,  A. W. Hauser,  
 J. E. Herr,  E. G. Hohenstein,  Z. C. Holden,  Kerwin Hui,  B. C. Huynh,  
 T.-C. Jagau,  Hyunjun Ji,  B. Kaduk,  K. Khistyaev,  Jaehoon Kim,  
 P. Klunzinger,  K. Koh,  D. Kosenkov,  L. Koulias,  T. Kowalczyk,  
 C. M. Krauter,  A. Kunitsa,  Ka Un Lao,  A. Laurent,  K. V. Lawler,  
 Joonho Lee,  D. Lefrancois,  S. Lehtola,  D. S. Levine,  Yi-Pei Li,  
 You-Sheng Lin,  Fenglai Liu,  E. Livshits,  A. Luenser,  P. Manohar,  
 E. Mansoor,  S. F. Manzer,  Shan-Ping Mao,  Yuezhi Mao,  N. Mardirossian,  
 A. V. Marenich,  T. Markovich,  L. A. Martinez-Martinez,  S. A. Maurer,  
 N. J. Mayhall,  S. C. McKenzie,  J.-M. Mewes,  A. F. Morrison,  
 J. W. Mullinax,  K. Nanda,  T. S. Nguyen-Beck,  R. Olivares-Amaya,  
 J. A. Parkhill,  T. M. Perrine,  F. Plasser,  P. Pokhilko,  S. Prager,  
 A. Prociuk,  E. Ramos,  D. R. Rehn,  F. Rob,  M. Schneider,  N. Sergueev,  
 S. M. Sharada,  S. Sharma,  D. W. Small,  T. Stauch,  T. Stein,  
 Yu-Chuan Su,  A. J. W. Thom,  A. Tkatchenko,  T. Tsuchimochi,  N. M. Tubman,  
 L. Vogt,  M. L. Vidal,  O. Vydrov,  M. A. Watson,  J. Wenzel,  
 M. de Wergifosse,  T. A. Wesolowski,  A. White,  J. Witte,  A. Yamada,  
 Jun Yang,  K. Yao,  S. Yeganeh,  S. R. Yost,  Zhi-Qiang You,  A. Zech,  
 Igor Ying Zhang,  Xing Zhang,  Yan Zhao,  Ying Zhu,  B. R. Brooks,  
 G. K. L. Chan,  C. J. Cramer,  M. S. Gordon,  W. J. Hehre,  A. Klamt,  
 M. W. Schmidt,  C. D. Sherrill,  D. G. Truhlar,  A. Aspuru-Guzik,  R. Baer,  
 A. T. Bell,  N. A. Besley,  Jeng-Da Chai,  A. E. DePrince, III,  
 R. A. DiStasio Jr.,  A. Dreuw,  B. D. Dunietz,  T. R. Furlani,  
 Chao-Ping Hsu,  Yousung Jung,  Jing Kong,  D. S. Lambrecht,  WanZhen Liang,  
 C. Ochsenfeld,  V. A. Rassolov,  L. V. Slipchenko,  J. E. Subotnik,  
 T. Van Voorhis,  J. M. Herbert,  A. I. Krylov,  P. M. W. Gill,  M. Head-Gordon

 Contributors to earlier versions of Q-Chem not listed above: 
 R. D. Adamson,  B. Austin,  J. Baker,  G. J. O. Beran,  K. Brandhorst,  
 S. T. Brown,  E. F. C. Byrd,  A. K. Chakraborty,  C.-L. Cheng,  
 Siu Hung Chien,  D. M. Chipman,  D. L. Crittenden,  H. Dachsel,  
 R. J. Doerksen,  A. D. Dutoi,  L. Fusti-Molnar,  W. A. Goddard III,  
 A. Golubeva-Zadorozhnaya,  S. R. Gwaltney,  G. Hawkins,  A. Heyden,  
 S. Hirata,  G. Kedziora,  F. J. Keil,  C. Kelley,  Jihan Kim,  R. A. King,  
 R. Z. Khaliullin,  P. P. Korambath,  W. Kurlancheek,  A. M. Lee,  M. S. Lee,  
 S. V. Levchenko,  Ching Yeh Lin,  D. Liotard,  R. C. Lochan,  I. Lotan,  
 P. E. Maslen,  N. Nair,  D. P. O'Neill,  D. Neuhauser,  E. Neuscamman,  
 C. M. Oana,  R. Olson,  B. Peters,  R. Peverati,  P. A. Pieniazek,  
 Y. M. Rhee,  J. Ritchie,  M. A. Rohrdanz,  E. Rosta,  N. J. Russ,  
 H. F. Schaefer III,  N. E. Schultz,  N. Shenvi,  A. C. Simmonett,  A. Sodt,  
 D. Stuck,  K. S. Thanthiriwatte,  V. Vanovschi,  Tao Wang,  A. Warshel,  
 C. F. Williams,  Q. Wu,  X. Xu,  W. Zhang

 Please cite Q-Chem as follows:
 Y. Shao et al., Mol. Phys. 113, 184-215 (2015)
 DOI: 10.1080/00268976.2014.952696

 Q-Chem 5.1.1 for Intel X86 EM64T Linux

 Parts of Q-Chem use Armadillo 8.300.2 (Tropical Shenanigans).
 http://arma.sourceforge.net/

 Q-Chem begins on Sat Oct  3 02:03:26 2020  

Host: n0081.mhg0
0

     Scratch files written to /local/scratch/users/yhljason/NH3O_wB97X-2TQZ_aug-cc-pcVTZ.inp20201003015137//
The previous job contains 0 fragments, simply inherited here
Input Ideriv = 0
Curr. Ideriv = -1
Max.  Ideriv = 0
Analytic post-HF gradients are not available with non-HF exchange
Input Ideriv = 0
Curr. Ideriv = 0
Max.  Ideriv = 0

Checking the input file for inconsistencies... 	...done.

--------------------------------------------------------------
User input:
--------------------------------------------------------------
$molecule
read
$end

$rem

jobtype sp
method wB97X-2(TQZ)
xc_grid 000099000590
basis aug-cc-pcVTZ
max_scf_cycles 200
thresh 14
scf_convergence 8
mem_total 128000
cc_memory 96000
cc_backend xm
mem_static 1500
symmetry false
sym_ignore true
scf_guess read
unrestricted false
scf_algorithm gdm
n_frozen_core 0
$end

$multipole_field
XX 0.0001
$end


--------------------------------------------------------------
 ----------------------------------------------------------------
             Standard Nuclear Orientation (Angstroms)
    I     Atom           X                Y                Z
 ----------------------------------------------------------------
    1      N       0.0000000000     0.0000000000    -0.5344777797
    2      H      -0.9458001927     0.0000000000    -0.9350779673
    3      H       0.4729000069    -0.8190998435    -0.9350776619
    4      H       0.4729000069     0.8190998435    -0.9350776619
    5      O       0.0000000000     0.0000000000     0.8183222203
 ----------------------------------------------------------------
 Nuclear Repulsion Energy =    40.0686164025 hartrees
 There are        9 alpha and        9 beta electrons
 Requested basis set is aug-cc-pCVTZ
 There are 65 shells and 187 basis functions

 Total QAlloc Memory Limit 128000 MB
 Mega-Array Size      1467 MB
 MEM_STATIC part      1500 MB

                       Distance Matrix (Angstroms)
             N (  1)   H (  2)   H (  3)   H (  4)
   H (  2)  1.027141
   H (  3)  1.027151  1.638180
   H (  4)  1.027151  1.638180  1.638200
   O (  5)  1.352800  1.992222  1.992227  1.992227
 
 Applying Cartesian multipole field
    Component          Value
    ---------          -----
     (2,0,0)        1.00000E-04
 Nucleus-field energy     =     0.0004791679 hartrees
 A cutoff of  1.0D-14 yielded   2128 shell pairs
 There are     17718 function pairs (     23072 Cartesian)
 
 -------------------------------------------------------
 OpenMP Integral Computing Module                       
 Release: version 1.0, May 2013, Q-Chem Inc. Pittsburgh 
 -------------------------------------------------------
 Integral Job Info:
 Integral job number is                      11
 Integral operator is                         1
 short-range coefficients              63615800
 long-range coefficients              100000000
 Omega coefficients                         300
 if combine SR and LR in K                    1
 Integral screening is                        0
 Integral computing path is                   2
 max size of driver memory is            800000
 size of driver memory is                776718
 size of scratch memory is              6904264
 max col of scratch BK array              10000
 max len of scratch array in speh3          662
 max len of scratch index in speh4           32
 max int batch size is                      520
 min int batch size is                       52
 fixed nKL is                                52
 max L of basis functions is                  3
 order of int derivative is                   0
 number of shells is                         65
 number of basis is                         213
 number of cartesian basis is               213
 number of contracted shell pairs          2128
 number of primitive shell pairs           4946
 maxK2 (contraction) of shell pair           64
 max number of K2 of shell pair               1
 max number of CS2 of shell pair            362
 max number of PS2 of shell pair            568
 mem total for path MDJ                  570992
 -------------------------------------------------------
 Smallest overlap matrix eigenvalue = 7.79E-05
 Guess MOs from SCF MO coefficient file

 -----------------------------------------------------------------------
  General SCF calculation program by
  Eric Jon Sundstrom, Paul Horn, Yuezhi Mao, Dmitri Zuev, Alec White,
  David Stuck, Shaama M.S., Shane Yost, Joonho Lee, David Small,
  Daniel Levine, Susi Lehtola, Hugh Burton, Evgeny Epifanovsky
 -----------------------------------------------------------------------
 Exchange:     0.6362 Hartree-Fock + 1.0000 wB97X-2(TQZ) + LR-HF
 Correlation:  1.0000 wB97X-2(TQZ)
 Using Euler-Maclaurin-Lebedev (99,590) quadrature formula
 using 8 threads for integral computing
 -------------------------------------------------------
 OpenMP Integral computing Module                
 Release: version 1.0, May 2013, Q-Chem Inc. Pittsburgh 
 -------------------------------------------------------
 using 8 threads for integral computing
 -------------------------------------------------------
 OpenMP Integral computing Module                
 Release: version 1.0, May 2013, Q-Chem Inc. Pittsburgh 
 -------------------------------------------------------
 -------------------------------------------------------
 OpenMP BLAS3 based DFT computing Module                
 Release: version 1.0, May 2013, Q-Chem Inc. Pittsburgh 
 -------------------------------------------------------
 A restricted SCF calculation will be
 performed using GDM
 SCF converges when RMS gradient is below 1.0e-08
 ---------------------------------------
  Cycle       Energy        RMS Gradient
 ---------------------------------------
    1    -131.3671066350      2.97e-04   Normal BFGS step
    2    -131.3671069365      5.70e-05   Normal BFGS step
    3    -131.3671069896      1.74e-05   Normal BFGS step
    4    -131.3671069938      9.79e-06   Normal BFGS step
    5    -131.3671069942      3.29e-06   Normal BFGS step
    6    -131.3671069943      6.33e-07   Normal BFGS step
    7    -131.3671069943      1.96e-07   Normal BFGS step
    8    -131.3671069943      4.88e-08   Normal BFGS step
    9    -131.3671069943      1.86e-08   Normal BFGS step
   10    -131.3671069943      5.07e-09  Convergence criterion met
 ---------------------------------------
 SCF time:   CPU 481.91s  wall 61.00s 
 SCF   energy in the final basis set =     -131.3671069943
 Total energy in the final basis set =     -131.3671069943
 
 Components of the MP2 correlation energy:
        aaaa  correlation energy =        -0.0370087199 au
        abab  correlation energy =        -0.2168653419 au
        bbbb  correlation energy =        -0.0370087199 au
        non-Brillouin singles    =        -0.0000000000 au

 Total  MP2   correlation energy =                    -0.29088278 au
        MP2         total energy =                  -131.65798978 au
 
 --------------------------------------------------------------
 
                    Orbital Energies (a.u.)
 --------------------------------------------------------------
 
 Alpha MOs
 -- Occupied --
-19.895 -15.207  -1.292  -1.018  -0.724  -0.723  -0.566  -0.359
 -0.359
 -- Virtual --
  0.016   0.040   0.043   0.092   0.118   0.143   0.145   0.186
  0.186   0.187   0.216   0.217   0.260   0.291   0.292   0.308
  0.343   0.364   0.365   0.366   0.404   0.405   0.414   0.450
  0.506   0.506   0.588   0.589   0.612   0.655   0.655   0.702
  0.757   0.815   0.815   0.850   0.854   0.855   0.871   0.915
  0.916   0.938   0.944   0.945   1.021   1.024   1.024   1.054
  1.113   1.113   1.199   1.206   1.207   1.217   1.222   1.222
  1.346   1.346   1.433   1.477   1.477   1.653   1.690   1.693
  1.693   1.712   1.712   1.740   1.918   1.918   1.948   1.949
  1.982   2.067   2.078   2.190   2.194   2.195   2.248   2.296
  2.296   2.448   2.455   2.455   2.520   2.550   2.550   2.682
  2.726   2.726   3.043   3.116   3.116   3.345   3.733   3.733
  3.880   3.880   3.985   4.033   4.098   4.098   4.159   4.160
  4.160   4.303   4.367   4.367   4.392   4.392   4.420   4.482
  4.536   4.536   4.629   4.629   4.770   4.812   4.812   4.867
  4.871   4.954   4.954   5.396   5.477   5.477   5.579   5.698
  5.698   5.920   5.995   5.995   6.051   6.111   6.528   6.530
  6.609   6.609   6.798   6.864   6.864   7.125   7.125   7.228
  7.228   7.459   7.459   7.477   7.625   7.625   7.879   8.555
 21.622  21.622  21.675  23.033  26.134  26.134  27.291  29.479
 38.800  38.800  39.004  39.182  39.182  43.633  43.633  43.752
 43.752  43.813 109.018 109.018 109.111 116.740 137.718 137.718
138.597 149.553
 --------------------------------------------------------------
 
          Ground-State Mulliken Net Atomic Charges

     Atom                 Charge (a.u.)
  ----------------------------------------
      1 N                     0.201142
      2 H                     0.200052
      3 H                     0.200623
      4 H                     0.200623
      5 O                    -0.802440
  ----------------------------------------
  Sum of atomic charges =    -0.000000

 -----------------------------------------------------------------
                    Cartesian Multipole Moments
 -----------------------------------------------------------------
    Charge (ESU x 10^10)
                -0.0000
    Dipole Moment (Debye)
         X       0.0008      Y      -0.0000      Z      -5.5117
       Tot       5.5117
    Quadrupole Moments (Debye-Ang)
        XX     -11.6772     XY      -0.0000     YY     -11.6689
        XZ      -0.0014     YZ       0.0000     ZZ     -13.1571
    Octopole Moments (Debye-Ang^2)
       XXX      -1.1388    XXY      -0.0000    XYY       1.1416
       YYY      -0.0000    XXZ      -3.2651    XYZ       0.0000
       YYZ      -3.2673    XZZ       0.0016    YZZ      -0.0000
       ZZZ      -5.2749
    Hexadecapole Moments (Debye-Ang^3)
      XXXX     -14.8344   XXXY      -0.0000   XXYY      -4.9395
      XYYY      -0.0000   YYYY     -14.8037   XXXZ       0.9813
      XXYZ       0.0000   XYYZ      -0.9869   YYYZ       0.0000
      XXZZ     -11.3054   XYZZ      -0.0000   YYZZ     -11.2932
      XZZZ      -0.0032   YZZZ       0.0000   ZZZZ     -53.1216
 -----------------------------------------------------------------
Archival summary:
1\1\n0081.mhg0\SP\ProcedureUnspecified\BasisUnspecified\113\yhljason\SatOct302:05:032020SatOct302:05:032020\0\\#,ProcedureUnspecified,BasisUnspecified,\\0,1\N\H,1,1.02714\H,1,1.02715,2,105.773\H,1,1.02715,2,105.773,3,-111.921,0\O,1,1.3528,2,112.955,3,124.04,0\\\@

 Total job time:  96.53s(wall), 760.34s(cpu) 
 Sat Oct  3 02:05:03 2020

        *************************************************************
        *                                                           *
        *  Thank you very much for using Q-Chem.  Have a nice day.  *
        *                                                           *
        *************************************************************


 
User input: 4 of 8 
 
Q-Chem Developer Version!
                  Welcome to Q-Chem
     A Quantum Leap Into The Future Of Chemistry


 Q-Chem 5.1, Q-Chem, Inc., Pleasanton, CA (2018)

 Yihan Shao,  Zhengting Gan,  E. Epifanovsky,  A. T. B. Gilbert,  M. Wormit,  
 J. Kussmann,  A. W. Lange,  A. Behn,  Jia Deng,  Xintian Feng,  D. Ghosh,  
 M. Goldey,  P. R. Horn,  L. D. Jacobson,  I. Kaliman,  T. Kus,  A. Landau,  
 Jie Liu,  E. I. Proynov,  R. M. Richard,  R. P. Steele,  E. J. Sundstrom,  
 H. L. Woodcock III,  P. M. Zimmerman,  D. Zuev,  B. Albrecht,  E. Alguire,  
 S. A. Baeppler,  D. Barton,  Z. Benda,  Y. A. Bernard,  E. J. Berquist,  
 K. B. Bravaya,  H. Burton,  D. Casanova,  Chun-Min Chang,  Yunqing Chen,  
 A. Chien,  K. D. Closser,  M. P. Coons,  S. Coriani,  S. Dasgupta,  
 A. L. Dempwolff,  M. Diedenhofen,  Hainam Do,  R. G. Edgar,  Po-Tung Fang,  
 S. Faraji,  S. Fatehi,  Qingguo Feng,  K. D. Fenk,  J. Fosso-Tande,  
 Qinghui Ge,  A. Ghysels,  G. Gidofalvi,  J. Gomes,  J. Gonthier,  A. Gunina,  
 D. Hait,  M. W. D. Hanson-Heine,  P. H. P. Harbach,  A. W. Hauser,  
 J. E. Herr,  E. G. Hohenstein,  Z. C. Holden,  Kerwin Hui,  B. C. Huynh,  
 T.-C. Jagau,  Hyunjun Ji,  B. Kaduk,  K. Khistyaev,  Jaehoon Kim,  
 P. Klunzinger,  K. Koh,  D. Kosenkov,  L. Koulias,  T. Kowalczyk,  
 C. M. Krauter,  A. Kunitsa,  Ka Un Lao,  A. Laurent,  K. V. Lawler,  
 Joonho Lee,  D. Lefrancois,  S. Lehtola,  D. S. Levine,  Yi-Pei Li,  
 You-Sheng Lin,  Fenglai Liu,  E. Livshits,  A. Luenser,  P. Manohar,  
 E. Mansoor,  S. F. Manzer,  Shan-Ping Mao,  Yuezhi Mao,  N. Mardirossian,  
 A. V. Marenich,  T. Markovich,  L. A. Martinez-Martinez,  S. A. Maurer,  
 N. J. Mayhall,  S. C. McKenzie,  J.-M. Mewes,  A. F. Morrison,  
 J. W. Mullinax,  K. Nanda,  T. S. Nguyen-Beck,  R. Olivares-Amaya,  
 J. A. Parkhill,  T. M. Perrine,  F. Plasser,  P. Pokhilko,  S. Prager,  
 A. Prociuk,  E. Ramos,  D. R. Rehn,  F. Rob,  M. Schneider,  N. Sergueev,  
 S. M. Sharada,  S. Sharma,  D. W. Small,  T. Stauch,  T. Stein,  
 Yu-Chuan Su,  A. J. W. Thom,  A. Tkatchenko,  T. Tsuchimochi,  N. M. Tubman,  
 L. Vogt,  M. L. Vidal,  O. Vydrov,  M. A. Watson,  J. Wenzel,  
 M. de Wergifosse,  T. A. Wesolowski,  A. White,  J. Witte,  A. Yamada,  
 Jun Yang,  K. Yao,  S. Yeganeh,  S. R. Yost,  Zhi-Qiang You,  A. Zech,  
 Igor Ying Zhang,  Xing Zhang,  Yan Zhao,  Ying Zhu,  B. R. Brooks,  
 G. K. L. Chan,  C. J. Cramer,  M. S. Gordon,  W. J. Hehre,  A. Klamt,  
 M. W. Schmidt,  C. D. Sherrill,  D. G. Truhlar,  A. Aspuru-Guzik,  R. Baer,  
 A. T. Bell,  N. A. Besley,  Jeng-Da Chai,  A. E. DePrince, III,  
 R. A. DiStasio Jr.,  A. Dreuw,  B. D. Dunietz,  T. R. Furlani,  
 Chao-Ping Hsu,  Yousung Jung,  Jing Kong,  D. S. Lambrecht,  WanZhen Liang,  
 C. Ochsenfeld,  V. A. Rassolov,  L. V. Slipchenko,  J. E. Subotnik,  
 T. Van Voorhis,  J. M. Herbert,  A. I. Krylov,  P. M. W. Gill,  M. Head-Gordon

 Contributors to earlier versions of Q-Chem not listed above: 
 R. D. Adamson,  B. Austin,  J. Baker,  G. J. O. Beran,  K. Brandhorst,  
 S. T. Brown,  E. F. C. Byrd,  A. K. Chakraborty,  C.-L. Cheng,  
 Siu Hung Chien,  D. M. Chipman,  D. L. Crittenden,  H. Dachsel,  
 R. J. Doerksen,  A. D. Dutoi,  L. Fusti-Molnar,  W. A. Goddard III,  
 A. Golubeva-Zadorozhnaya,  S. R. Gwaltney,  G. Hawkins,  A. Heyden,  
 S. Hirata,  G. Kedziora,  F. J. Keil,  C. Kelley,  Jihan Kim,  R. A. King,  
 R. Z. Khaliullin,  P. P. Korambath,  W. Kurlancheek,  A. M. Lee,  M. S. Lee,  
 S. V. Levchenko,  Ching Yeh Lin,  D. Liotard,  R. C. Lochan,  I. Lotan,  
 P. E. Maslen,  N. Nair,  D. P. O'Neill,  D. Neuhauser,  E. Neuscamman,  
 C. M. Oana,  R. Olson,  B. Peters,  R. Peverati,  P. A. Pieniazek,  
 Y. M. Rhee,  J. Ritchie,  M. A. Rohrdanz,  E. Rosta,  N. J. Russ,  
 H. F. Schaefer III,  N. E. Schultz,  N. Shenvi,  A. C. Simmonett,  A. Sodt,  
 D. Stuck,  K. S. Thanthiriwatte,  V. Vanovschi,  Tao Wang,  A. Warshel,  
 C. F. Williams,  Q. Wu,  X. Xu,  W. Zhang

 Please cite Q-Chem as follows:
 Y. Shao et al., Mol. Phys. 113, 184-215 (2015)
 DOI: 10.1080/00268976.2014.952696

 Q-Chem 5.1.1 for Intel X86 EM64T Linux

 Parts of Q-Chem use Armadillo 8.300.2 (Tropical Shenanigans).
 http://arma.sourceforge.net/

 Q-Chem begins on Sat Oct  3 02:05:03 2020  

Host: n0081.mhg0
0

     Scratch files written to /local/scratch/users/yhljason/NH3O_wB97X-2TQZ_aug-cc-pcVTZ.inp20201003015137//
The previous job contains 0 fragments, simply inherited here
Input Ideriv = 0
Curr. Ideriv = -1
Max.  Ideriv = 0
Analytic post-HF gradients are not available with non-HF exchange
Input Ideriv = 0
Curr. Ideriv = 0
Max.  Ideriv = 0

Checking the input file for inconsistencies... 	...done.

--------------------------------------------------------------
User input:
--------------------------------------------------------------
$molecule
read
$end

$rem

jobtype sp
method wB97X-2(TQZ)
xc_grid 000099000590
basis aug-cc-pcVTZ
max_scf_cycles 200
thresh 14
scf_convergence 8
mem_total 128000
cc_memory 96000
cc_backend xm
mem_static 1500
symmetry false
sym_ignore true
scf_guess read
unrestricted false
scf_algorithm gdm
n_frozen_core 0
$end

$multipole_field
XX -0.0001
$end


--------------------------------------------------------------
 ----------------------------------------------------------------
             Standard Nuclear Orientation (Angstroms)
    I     Atom           X                Y                Z
 ----------------------------------------------------------------
    1      N       0.0000000000     0.0000000000    -0.5344777797
    2      H      -0.9458001927     0.0000000000    -0.9350779673
    3      H       0.4729000069    -0.8190998435    -0.9350776619
    4      H       0.4729000069     0.8190998435    -0.9350776619
    5      O       0.0000000000     0.0000000000     0.8183222203
 ----------------------------------------------------------------
 Nuclear Repulsion Energy =    40.0686164025 hartrees
 There are        9 alpha and        9 beta electrons
 Requested basis set is aug-cc-pCVTZ
 There are 65 shells and 187 basis functions

 Total QAlloc Memory Limit 128000 MB
 Mega-Array Size      1467 MB
 MEM_STATIC part      1500 MB

                       Distance Matrix (Angstroms)
             N (  1)   H (  2)   H (  3)   H (  4)
   H (  2)  1.027141
   H (  3)  1.027151  1.638180
   H (  4)  1.027151  1.638180  1.638200
   O (  5)  1.352800  1.992222  1.992227  1.992227
 
 Applying Cartesian multipole field
    Component          Value
    ---------          -----
     (2,0,0)       -1.00000E-04
 Nucleus-field energy     =    -0.0004791679 hartrees
 A cutoff of  1.0D-14 yielded   2128 shell pairs
 There are     17718 function pairs (     23072 Cartesian)
 
 -------------------------------------------------------
 OpenMP Integral Computing Module                       
 Release: version 1.0, May 2013, Q-Chem Inc. Pittsburgh 
 -------------------------------------------------------
 Integral Job Info:
 Integral job number is                      11
 Integral operator is                         1
 short-range coefficients              63615800
 long-range coefficients              100000000
 Omega coefficients                         300
 if combine SR and LR in K                    1
 Integral screening is                        0
 Integral computing path is                   2
 max size of driver memory is            800000
 size of driver memory is                776718
 size of scratch memory is              6904264
 max col of scratch BK array              10000
 max len of scratch array in speh3          662
 max len of scratch index in speh4           32
 max int batch size is                      520
 min int batch size is                       52
 fixed nKL is                                52
 max L of basis functions is                  3
 order of int derivative is                   0
 number of shells is                         65
 number of basis is                         213
 number of cartesian basis is               213
 number of contracted shell pairs          2128
 number of primitive shell pairs           4946
 maxK2 (contraction) of shell pair           64
 max number of K2 of shell pair               1
 max number of CS2 of shell pair            362
 max number of PS2 of shell pair            568
 mem total for path MDJ                  570992
 -------------------------------------------------------
 Smallest overlap matrix eigenvalue = 7.79E-05
 Guess MOs from SCF MO coefficient file

 -----------------------------------------------------------------------
  General SCF calculation program by
  Eric Jon Sundstrom, Paul Horn, Yuezhi Mao, Dmitri Zuev, Alec White,
  David Stuck, Shaama M.S., Shane Yost, Joonho Lee, David Small,
  Daniel Levine, Susi Lehtola, Hugh Burton, Evgeny Epifanovsky
 -----------------------------------------------------------------------
 Exchange:     0.6362 Hartree-Fock + 1.0000 wB97X-2(TQZ) + LR-HF
 Correlation:  1.0000 wB97X-2(TQZ)
 Using Euler-Maclaurin-Lebedev (99,590) quadrature formula
 using 8 threads for integral computing
 -------------------------------------------------------
 OpenMP Integral computing Module                
 Release: version 1.0, May 2013, Q-Chem Inc. Pittsburgh 
 -------------------------------------------------------
 using 8 threads for integral computing
 -------------------------------------------------------
 OpenMP Integral computing Module                
 Release: version 1.0, May 2013, Q-Chem Inc. Pittsburgh 
 -------------------------------------------------------
 -------------------------------------------------------
 OpenMP BLAS3 based DFT computing Module                
 Release: version 1.0, May 2013, Q-Chem Inc. Pittsburgh 
 -------------------------------------------------------
 A restricted SCF calculation will be
 performed using GDM
 SCF converges when RMS gradient is below 1.0e-08
 ---------------------------------------
  Cycle       Energy        RMS Gradient
 ---------------------------------------
    1    -131.3653706490      5.94e-04   Normal BFGS step
    2    -131.3653718558      1.14e-04   Normal BFGS step
    3    -131.3653720675      3.43e-05   Normal BFGS step
    4    -131.3653720841      1.95e-05   Normal BFGS step
    5    -131.3653720858      6.57e-06   Normal BFGS step
    6    -131.3653720863      1.24e-06   Normal BFGS step
    7    -131.3653720863      3.82e-07   Normal BFGS step
    8    -131.3653720863      9.73e-08   Normal BFGS step
    9    -131.3653720863      3.71e-08   Normal BFGS step
   10    -131.3653720863      1.01e-08   Normal BFGS step
   11    -131.3653720863      2.97e-09  Convergence criterion met
 ---------------------------------------
 SCF time:   CPU 522.44s  wall 66.00s 
 SCF   energy in the final basis set =     -131.3653720863
 Total energy in the final basis set =     -131.3653720863
 
 Components of the MP2 correlation energy:
        aaaa  correlation energy =        -0.0370015057 au
        abab  correlation energy =        -0.2168400292 au
        bbbb  correlation energy =        -0.0370015057 au
        non-Brillouin singles    =        -0.0000000000 au

 Total  MP2   correlation energy =                    -0.29084304 au
        MP2         total energy =                  -131.65621513 au
 
 --------------------------------------------------------------
 
                    Orbital Energies (a.u.)
 --------------------------------------------------------------
 
 Alpha MOs
 -- Occupied --
-19.894 -15.206  -1.291  -1.017  -0.723  -0.723  -0.566  -0.359
 -0.359
 -- Virtual --
  0.019   0.046   0.049   0.095   0.122   0.147   0.149   0.188
  0.188   0.189   0.218   0.219   0.262   0.293   0.294   0.310
  0.346   0.366   0.367   0.369   0.406   0.407   0.416   0.452
  0.508   0.508   0.590   0.590   0.613   0.656   0.656   0.703
  0.758   0.816   0.816   0.851   0.856   0.857   0.873   0.917
  0.917   0.940   0.946   0.946   1.022   1.026   1.026   1.056
  1.114   1.115   1.200   1.208   1.208   1.218   1.223   1.223
  1.347   1.347   1.433   1.478   1.478   1.655   1.690   1.694
  1.694   1.713   1.713   1.741   1.919   1.919   1.949   1.950
  1.983   2.067   2.078   2.190   2.195   2.195   2.249   2.297
  2.297   2.449   2.456   2.456   2.521   2.550   2.550   2.683
  2.727   2.727   3.044   3.116   3.117   3.346   3.734   3.734
  3.881   3.881   3.986   4.034   4.098   4.098   4.160   4.160
  4.160   4.303   4.367   4.367   4.392   4.392   4.421   4.483
  4.536   4.536   4.629   4.629   4.771   4.812   4.812   4.868
  4.872   4.955   4.955   5.397   5.477   5.477   5.579   5.699
  5.699   5.921   5.996   5.996   6.052   6.111   6.528   6.531
  6.609   6.609   6.798   6.865   6.865   7.125   7.125   7.229
  7.229   7.459   7.460   7.478   7.626   7.626   7.880   8.556
 21.623  21.623  21.675  23.034  26.135  26.135  27.292  29.480
 38.801  38.801  39.005  39.183  39.183  43.633  43.633  43.752
 43.752  43.814 109.018 109.018 109.112 116.740 137.719 137.719
138.597 149.554
 --------------------------------------------------------------
 
          Ground-State Mulliken Net Atomic Charges

     Atom                 Charge (a.u.)
  ----------------------------------------
      1 N                     0.200857
      2 H                     0.200817
      3 H                     0.200274
      4 H                     0.200274
      5 O                    -0.802222
  ----------------------------------------
  Sum of atomic charges =    -0.000000

 -----------------------------------------------------------------
                    Cartesian Multipole Moments
 -----------------------------------------------------------------
    Charge (ESU x 10^10)
                -0.0000
    Dipole Moment (Debye)
         X      -0.0008      Y      -0.0000      Z      -5.5127
       Tot       5.5127
    Quadrupole Moments (Debye-Ang)
        XX     -11.6579     XY      -0.0000     YY     -11.6660
        XZ       0.0014     YZ       0.0000     ZZ     -13.1524
    Octopole Moments (Debye-Ang^2)
       XXX      -1.1448    XXY      -0.0000    XYY       1.1421
       YYY       0.0000    XXZ      -3.2672    XYZ       0.0000
       YYZ      -3.2651    XZZ      -0.0016    YZZ      -0.0000
       ZZZ      -5.2746
    Hexadecapole Moments (Debye-Ang^3)
      XXXX     -14.7606   XXXY       0.0000   XXYY      -4.9255
      XYYY       0.0000   YYYY     -14.7911   XXXZ       0.9928
      XXYZ       0.0000   XYYZ      -0.9872   YYYZ      -0.0000
      XXZZ     -11.2732   XYZZ       0.0000   YYZZ     -11.2853
      XZZZ       0.0032   YZZZ      -0.0000   ZZZZ     -53.0908
 -----------------------------------------------------------------
Archival summary:
1\1\n0081.mhg0\SP\ProcedureUnspecified\BasisUnspecified\113\yhljason\SatOct302:06:462020SatOct302:06:462020\0\\#,ProcedureUnspecified,BasisUnspecified,\\0,1\N\H,1,1.02714\H,1,1.02715,2,105.773\H,1,1.02715,2,105.773,3,-111.921,0\O,1,1.3528,2,112.955,3,124.04,0\\\@

 Total job time:  103.33s(wall), 813.75s(cpu) 
 Sat Oct  3 02:06:46 2020

        *************************************************************
        *                                                           *
        *  Thank you very much for using Q-Chem.  Have a nice day.  *
        *                                                           *
        *************************************************************


 
User input: 5 of 8 
 
Q-Chem Developer Version!
                  Welcome to Q-Chem
     A Quantum Leap Into The Future Of Chemistry


 Q-Chem 5.1, Q-Chem, Inc., Pleasanton, CA (2018)

 Yihan Shao,  Zhengting Gan,  E. Epifanovsky,  A. T. B. Gilbert,  M. Wormit,  
 J. Kussmann,  A. W. Lange,  A. Behn,  Jia Deng,  Xintian Feng,  D. Ghosh,  
 M. Goldey,  P. R. Horn,  L. D. Jacobson,  I. Kaliman,  T. Kus,  A. Landau,  
 Jie Liu,  E. I. Proynov,  R. M. Richard,  R. P. Steele,  E. J. Sundstrom,  
 H. L. Woodcock III,  P. M. Zimmerman,  D. Zuev,  B. Albrecht,  E. Alguire,  
 S. A. Baeppler,  D. Barton,  Z. Benda,  Y. A. Bernard,  E. J. Berquist,  
 K. B. Bravaya,  H. Burton,  D. Casanova,  Chun-Min Chang,  Yunqing Chen,  
 A. Chien,  K. D. Closser,  M. P. Coons,  S. Coriani,  S. Dasgupta,  
 A. L. Dempwolff,  M. Diedenhofen,  Hainam Do,  R. G. Edgar,  Po-Tung Fang,  
 S. Faraji,  S. Fatehi,  Qingguo Feng,  K. D. Fenk,  J. Fosso-Tande,  
 Qinghui Ge,  A. Ghysels,  G. Gidofalvi,  J. Gomes,  J. Gonthier,  A. Gunina,  
 D. Hait,  M. W. D. Hanson-Heine,  P. H. P. Harbach,  A. W. Hauser,  
 J. E. Herr,  E. G. Hohenstein,  Z. C. Holden,  Kerwin Hui,  B. C. Huynh,  
 T.-C. Jagau,  Hyunjun Ji,  B. Kaduk,  K. Khistyaev,  Jaehoon Kim,  
 P. Klunzinger,  K. Koh,  D. Kosenkov,  L. Koulias,  T. Kowalczyk,  
 C. M. Krauter,  A. Kunitsa,  Ka Un Lao,  A. Laurent,  K. V. Lawler,  
 Joonho Lee,  D. Lefrancois,  S. Lehtola,  D. S. Levine,  Yi-Pei Li,  
 You-Sheng Lin,  Fenglai Liu,  E. Livshits,  A. Luenser,  P. Manohar,  
 E. Mansoor,  S. F. Manzer,  Shan-Ping Mao,  Yuezhi Mao,  N. Mardirossian,  
 A. V. Marenich,  T. Markovich,  L. A. Martinez-Martinez,  S. A. Maurer,  
 N. J. Mayhall,  S. C. McKenzie,  J.-M. Mewes,  A. F. Morrison,  
 J. W. Mullinax,  K. Nanda,  T. S. Nguyen-Beck,  R. Olivares-Amaya,  
 J. A. Parkhill,  T. M. Perrine,  F. Plasser,  P. Pokhilko,  S. Prager,  
 A. Prociuk,  E. Ramos,  D. R. Rehn,  F. Rob,  M. Schneider,  N. Sergueev,  
 S. M. Sharada,  S. Sharma,  D. W. Small,  T. Stauch,  T. Stein,  
 Yu-Chuan Su,  A. J. W. Thom,  A. Tkatchenko,  T. Tsuchimochi,  N. M. Tubman,  
 L. Vogt,  M. L. Vidal,  O. Vydrov,  M. A. Watson,  J. Wenzel,  
 M. de Wergifosse,  T. A. Wesolowski,  A. White,  J. Witte,  A. Yamada,  
 Jun Yang,  K. Yao,  S. Yeganeh,  S. R. Yost,  Zhi-Qiang You,  A. Zech,  
 Igor Ying Zhang,  Xing Zhang,  Yan Zhao,  Ying Zhu,  B. R. Brooks,  
 G. K. L. Chan,  C. J. Cramer,  M. S. Gordon,  W. J. Hehre,  A. Klamt,  
 M. W. Schmidt,  C. D. Sherrill,  D. G. Truhlar,  A. Aspuru-Guzik,  R. Baer,  
 A. T. Bell,  N. A. Besley,  Jeng-Da Chai,  A. E. DePrince, III,  
 R. A. DiStasio Jr.,  A. Dreuw,  B. D. Dunietz,  T. R. Furlani,  
 Chao-Ping Hsu,  Yousung Jung,  Jing Kong,  D. S. Lambrecht,  WanZhen Liang,  
 C. Ochsenfeld,  V. A. Rassolov,  L. V. Slipchenko,  J. E. Subotnik,  
 T. Van Voorhis,  J. M. Herbert,  A. I. Krylov,  P. M. W. Gill,  M. Head-Gordon

 Contributors to earlier versions of Q-Chem not listed above: 
 R. D. Adamson,  B. Austin,  J. Baker,  G. J. O. Beran,  K. Brandhorst,  
 S. T. Brown,  E. F. C. Byrd,  A. K. Chakraborty,  C.-L. Cheng,  
 Siu Hung Chien,  D. M. Chipman,  D. L. Crittenden,  H. Dachsel,  
 R. J. Doerksen,  A. D. Dutoi,  L. Fusti-Molnar,  W. A. Goddard III,  
 A. Golubeva-Zadorozhnaya,  S. R. Gwaltney,  G. Hawkins,  A. Heyden,  
 S. Hirata,  G. Kedziora,  F. J. Keil,  C. Kelley,  Jihan Kim,  R. A. King,  
 R. Z. Khaliullin,  P. P. Korambath,  W. Kurlancheek,  A. M. Lee,  M. S. Lee,  
 S. V. Levchenko,  Ching Yeh Lin,  D. Liotard,  R. C. Lochan,  I. Lotan,  
 P. E. Maslen,  N. Nair,  D. P. O'Neill,  D. Neuhauser,  E. Neuscamman,  
 C. M. Oana,  R. Olson,  B. Peters,  R. Peverati,  P. A. Pieniazek,  
 Y. M. Rhee,  J. Ritchie,  M. A. Rohrdanz,  E. Rosta,  N. J. Russ,  
 H. F. Schaefer III,  N. E. Schultz,  N. Shenvi,  A. C. Simmonett,  A. Sodt,  
 D. Stuck,  K. S. Thanthiriwatte,  V. Vanovschi,  Tao Wang,  A. Warshel,  
 C. F. Williams,  Q. Wu,  X. Xu,  W. Zhang

 Please cite Q-Chem as follows:
 Y. Shao et al., Mol. Phys. 113, 184-215 (2015)
 DOI: 10.1080/00268976.2014.952696

 Q-Chem 5.1.1 for Intel X86 EM64T Linux

 Parts of Q-Chem use Armadillo 8.300.2 (Tropical Shenanigans).
 http://arma.sourceforge.net/

 Q-Chem begins on Sat Oct  3 02:06:47 2020  

Host: n0081.mhg0
0

     Scratch files written to /local/scratch/users/yhljason/NH3O_wB97X-2TQZ_aug-cc-pcVTZ.inp20201003015137//
The previous job contains 0 fragments, simply inherited here
Input Ideriv = 0
Curr. Ideriv = -1
Max.  Ideriv = 0
Analytic post-HF gradients are not available with non-HF exchange
Input Ideriv = 0
Curr. Ideriv = 0
Max.  Ideriv = 0

Checking the input file for inconsistencies... 	...done.

--------------------------------------------------------------
User input:
--------------------------------------------------------------
$molecule
read
$end

$rem

jobtype sp
method wB97X-2(TQZ)
xc_grid 000099000590
basis aug-cc-pcVTZ
max_scf_cycles 200
thresh 14
scf_convergence 8
mem_total 128000
cc_memory 96000
cc_backend xm
mem_static 1500
symmetry false
sym_ignore true
scf_guess read
unrestricted false
scf_algorithm gdm
n_frozen_core 0
$end

$multipole_field
YY 0.0001
$end


--------------------------------------------------------------
 ----------------------------------------------------------------
             Standard Nuclear Orientation (Angstroms)
    I     Atom           X                Y                Z
 ----------------------------------------------------------------
    1      N       0.0000000000     0.0000000000    -0.5344777797
    2      H      -0.9458001927     0.0000000000    -0.9350779673
    3      H       0.4729000069    -0.8190998435    -0.9350776619
    4      H       0.4729000069     0.8190998435    -0.9350776619
    5      O       0.0000000000     0.0000000000     0.8183222203
 ----------------------------------------------------------------
 Nuclear Repulsion Energy =    40.0686164025 hartrees
 There are        9 alpha and        9 beta electrons
 Requested basis set is aug-cc-pCVTZ
 There are 65 shells and 187 basis functions

 Total QAlloc Memory Limit 128000 MB
 Mega-Array Size      1467 MB
 MEM_STATIC part      1500 MB

                       Distance Matrix (Angstroms)
             N (  1)   H (  2)   H (  3)   H (  4)
   H (  2)  1.027141
   H (  3)  1.027151  1.638180
   H (  4)  1.027151  1.638180  1.638200
   O (  5)  1.352800  1.992222  1.992227  1.992227
 
 Applying Cartesian multipole field
    Component          Value
    ---------          -----
     (0,2,0)        1.00000E-04
 Nucleus-field energy     =     0.0004791830 hartrees
 A cutoff of  1.0D-14 yielded   2128 shell pairs
 There are     17718 function pairs (     23072 Cartesian)
 
 -------------------------------------------------------
 OpenMP Integral Computing Module                       
 Release: version 1.0, May 2013, Q-Chem Inc. Pittsburgh 
 -------------------------------------------------------
 Integral Job Info:
 Integral job number is                      11
 Integral operator is                         1
 short-range coefficients              63615800
 long-range coefficients              100000000
 Omega coefficients                         300
 if combine SR and LR in K                    1
 Integral screening is                        0
 Integral computing path is                   2
 max size of driver memory is            800000
 size of driver memory is                776718
 size of scratch memory is              6904264
 max col of scratch BK array              10000
 max len of scratch array in speh3          662
 max len of scratch index in speh4           32
 max int batch size is                      520
 min int batch size is                       52
 fixed nKL is                                52
 max L of basis functions is                  3
 order of int derivative is                   0
 number of shells is                         65
 number of basis is                         213
 number of cartesian basis is               213
 number of contracted shell pairs          2128
 number of primitive shell pairs           4946
 maxK2 (contraction) of shell pair           64
 max number of K2 of shell pair               1
 max number of CS2 of shell pair            362
 max number of PS2 of shell pair            568
 mem total for path MDJ                  570992
 -------------------------------------------------------
 Smallest overlap matrix eigenvalue = 7.79E-05
 Guess MOs from SCF MO coefficient file

 -----------------------------------------------------------------------
  General SCF calculation program by
  Eric Jon Sundstrom, Paul Horn, Yuezhi Mao, Dmitri Zuev, Alec White,
  David Stuck, Shaama M.S., Shane Yost, Joonho Lee, David Small,
  Daniel Levine, Susi Lehtola, Hugh Burton, Evgeny Epifanovsky
 -----------------------------------------------------------------------
 Exchange:     0.6362 Hartree-Fock + 1.0000 wB97X-2(TQZ) + LR-HF
 Correlation:  1.0000 wB97X-2(TQZ)
 Using Euler-Maclaurin-Lebedev (99,590) quadrature formula
 using 8 threads for integral computing
 -------------------------------------------------------
 OpenMP Integral computing Module                
 Release: version 1.0, May 2013, Q-Chem Inc. Pittsburgh 
 -------------------------------------------------------
 using 8 threads for integral computing
 -------------------------------------------------------
 OpenMP Integral computing Module                
 Release: version 1.0, May 2013, Q-Chem Inc. Pittsburgh 
 -------------------------------------------------------
 -------------------------------------------------------
 OpenMP BLAS3 based DFT computing Module                
 Release: version 1.0, May 2013, Q-Chem Inc. Pittsburgh 
 -------------------------------------------------------
 A restricted SCF calculation will be
 performed using GDM
 SCF converges when RMS gradient is below 1.0e-08
 ---------------------------------------
  Cycle       Energy        RMS Gradient
 ---------------------------------------
    1    -131.3671061635      3.99e-04   Normal BFGS step
    2    -131.3671068207      9.56e-05   Normal BFGS step
    3    -131.3671069834      1.84e-05   Normal BFGS step
    4    -131.3671069874      1.87e-05   Normal BFGS step
    5    -131.3671069885      1.81e-06   Normal BFGS step
    6    -131.3671069886      5.57e-07   Normal BFGS step
    7    -131.3671069886      3.00e-07   Normal BFGS step
    8    -131.3671069886      4.13e-08   Normal BFGS step
    9    -131.3671069886      6.69e-09  Convergence criterion met
 ---------------------------------------
 SCF time:   CPU 436.06s  wall 55.00s 
 SCF   energy in the final basis set =     -131.3671069886
 Total energy in the final basis set =     -131.3671069886
 
 Components of the MP2 correlation energy:
        aaaa  correlation energy =        -0.0370087199 au
        abab  correlation energy =        -0.2168653421 au
        bbbb  correlation energy =        -0.0370087199 au
        non-Brillouin singles    =        -0.0000000000 au

 Total  MP2   correlation energy =                    -0.29088278 au
        MP2         total energy =                  -131.65798977 au
 
 --------------------------------------------------------------
 
                    Orbital Energies (a.u.)
 --------------------------------------------------------------
 
 Alpha MOs
 -- Occupied --
-19.895 -15.207  -1.292  -1.018  -0.724  -0.723  -0.566  -0.359
 -0.359
 -- Virtual --
  0.016   0.040   0.043   0.092   0.118   0.143   0.145   0.186
  0.186   0.187   0.216   0.217   0.260   0.291   0.292   0.308
  0.343   0.364   0.365   0.366   0.404   0.405   0.414   0.450
  0.506   0.506   0.588   0.589   0.612   0.655   0.655   0.702
  0.757   0.815   0.815   0.850   0.854   0.855   0.871   0.915
  0.916   0.938   0.944   0.945   1.021   1.024   1.024   1.054
  1.113   1.113   1.199   1.206   1.207   1.217   1.222   1.222
  1.346   1.346   1.433   1.477   1.477   1.653   1.690   1.693
  1.693   1.712   1.712   1.740   1.918   1.918   1.948   1.949
  1.982   2.067   2.078   2.190   2.194   2.195   2.248   2.296
  2.296   2.448   2.455   2.455   2.520   2.550   2.550   2.682
  2.726   2.726   3.043   3.116   3.116   3.345   3.733   3.733
  3.880   3.880   3.985   4.033   4.098   4.098   4.159   4.160
  4.160   4.303   4.367   4.367   4.392   4.392   4.420   4.482
  4.536   4.536   4.629   4.629   4.770   4.812   4.812   4.867
  4.871   4.954   4.954   5.396   5.477   5.477   5.579   5.698
  5.698   5.920   5.995   5.995   6.051   6.111   6.528   6.530
  6.609   6.609   6.798   6.864   6.864   7.125   7.125   7.228
  7.228   7.459   7.459   7.477   7.625   7.625   7.879   8.555
 21.622  21.622  21.675  23.033  26.134  26.134  27.291  29.479
 38.800  38.800  39.004  39.182  39.182  43.633  43.633  43.752
 43.752  43.813 109.018 109.018 109.111 116.740 137.718 137.718
138.597 149.553
 --------------------------------------------------------------
 
          Ground-State Mulliken Net Atomic Charges

     Atom                 Charge (a.u.)
  ----------------------------------------
      1 N                     0.201142
      2 H                     0.200797
      3 H                     0.200251
      4 H                     0.200251
      5 O                    -0.802440
  ----------------------------------------
  Sum of atomic charges =    -0.000000

 -----------------------------------------------------------------
                    Cartesian Multipole Moments
 -----------------------------------------------------------------
    Charge (ESU x 10^10)
                -0.0000
    Dipole Moment (Debye)
         X      -0.0008      Y      -0.0000      Z      -5.5117
       Tot       5.5117
    Quadrupole Moments (Debye-Ang)
        XX     -11.6690     XY      -0.0000     YY     -11.6771
        XZ       0.0014     YZ       0.0000     ZZ     -13.1571
    Octopole Moments (Debye-Ang^2)
       XXX      -1.1430    XXY      -0.0000    XYY       1.1402
       YYY      -0.0000    XXZ      -3.2672    XYZ       0.0000
       YYZ      -3.2651    XZZ      -0.0016    YZZ      -0.0000
       ZZZ      -5.2749
    Hexadecapole Moments (Debye-Ang^3)
      XXXX     -14.8034   XXXY      -0.0000   XXYY      -4.9398
      XYYY      -0.0000   YYYY     -14.8342   XXXZ       0.9898
      XXYZ       0.0000   XYYZ      -0.9841   YYYZ      -0.0000
      XXZZ     -11.2933   XYZZ      -0.0000   YYZZ     -11.3054
      XZZZ       0.0033   YZZZ       0.0000   ZZZZ     -53.1216
 -----------------------------------------------------------------
Archival summary:
1\1\n0081.mhg0\SP\ProcedureUnspecified\BasisUnspecified\113\yhljason\SatOct302:08:182020SatOct302:08:182020\0\\#,ProcedureUnspecified,BasisUnspecified,\\0,1\N\H,1,1.02714\H,1,1.02715,2,105.773\H,1,1.02715,2,105.773,3,-111.921,0\O,1,1.3528,2,112.955,3,124.04,0\\\@

 Total job time:  91.00s(wall), 717.59s(cpu) 
 Sat Oct  3 02:08:18 2020

        *************************************************************
        *                                                           *
        *  Thank you very much for using Q-Chem.  Have a nice day.  *
        *                                                           *
        *************************************************************


 
User input: 6 of 8 
 
Q-Chem Developer Version!
                  Welcome to Q-Chem
     A Quantum Leap Into The Future Of Chemistry


 Q-Chem 5.1, Q-Chem, Inc., Pleasanton, CA (2018)

 Yihan Shao,  Zhengting Gan,  E. Epifanovsky,  A. T. B. Gilbert,  M. Wormit,  
 J. Kussmann,  A. W. Lange,  A. Behn,  Jia Deng,  Xintian Feng,  D. Ghosh,  
 M. Goldey,  P. R. Horn,  L. D. Jacobson,  I. Kaliman,  T. Kus,  A. Landau,  
 Jie Liu,  E. I. Proynov,  R. M. Richard,  R. P. Steele,  E. J. Sundstrom,  
 H. L. Woodcock III,  P. M. Zimmerman,  D. Zuev,  B. Albrecht,  E. Alguire,  
 S. A. Baeppler,  D. Barton,  Z. Benda,  Y. A. Bernard,  E. J. Berquist,  
 K. B. Bravaya,  H. Burton,  D. Casanova,  Chun-Min Chang,  Yunqing Chen,  
 A. Chien,  K. D. Closser,  M. P. Coons,  S. Coriani,  S. Dasgupta,  
 A. L. Dempwolff,  M. Diedenhofen,  Hainam Do,  R. G. Edgar,  Po-Tung Fang,  
 S. Faraji,  S. Fatehi,  Qingguo Feng,  K. D. Fenk,  J. Fosso-Tande,  
 Qinghui Ge,  A. Ghysels,  G. Gidofalvi,  J. Gomes,  J. Gonthier,  A. Gunina,  
 D. Hait,  M. W. D. Hanson-Heine,  P. H. P. Harbach,  A. W. Hauser,  
 J. E. Herr,  E. G. Hohenstein,  Z. C. Holden,  Kerwin Hui,  B. C. Huynh,  
 T.-C. Jagau,  Hyunjun Ji,  B. Kaduk,  K. Khistyaev,  Jaehoon Kim,  
 P. Klunzinger,  K. Koh,  D. Kosenkov,  L. Koulias,  T. Kowalczyk,  
 C. M. Krauter,  A. Kunitsa,  Ka Un Lao,  A. Laurent,  K. V. Lawler,  
 Joonho Lee,  D. Lefrancois,  S. Lehtola,  D. S. Levine,  Yi-Pei Li,  
 You-Sheng Lin,  Fenglai Liu,  E. Livshits,  A. Luenser,  P. Manohar,  
 E. Mansoor,  S. F. Manzer,  Shan-Ping Mao,  Yuezhi Mao,  N. Mardirossian,  
 A. V. Marenich,  T. Markovich,  L. A. Martinez-Martinez,  S. A. Maurer,  
 N. J. Mayhall,  S. C. McKenzie,  J.-M. Mewes,  A. F. Morrison,  
 J. W. Mullinax,  K. Nanda,  T. S. Nguyen-Beck,  R. Olivares-Amaya,  
 J. A. Parkhill,  T. M. Perrine,  F. Plasser,  P. Pokhilko,  S. Prager,  
 A. Prociuk,  E. Ramos,  D. R. Rehn,  F. Rob,  M. Schneider,  N. Sergueev,  
 S. M. Sharada,  S. Sharma,  D. W. Small,  T. Stauch,  T. Stein,  
 Yu-Chuan Su,  A. J. W. Thom,  A. Tkatchenko,  T. Tsuchimochi,  N. M. Tubman,  
 L. Vogt,  M. L. Vidal,  O. Vydrov,  M. A. Watson,  J. Wenzel,  
 M. de Wergifosse,  T. A. Wesolowski,  A. White,  J. Witte,  A. Yamada,  
 Jun Yang,  K. Yao,  S. Yeganeh,  S. R. Yost,  Zhi-Qiang You,  A. Zech,  
 Igor Ying Zhang,  Xing Zhang,  Yan Zhao,  Ying Zhu,  B. R. Brooks,  
 G. K. L. Chan,  C. J. Cramer,  M. S. Gordon,  W. J. Hehre,  A. Klamt,  
 M. W. Schmidt,  C. D. Sherrill,  D. G. Truhlar,  A. Aspuru-Guzik,  R. Baer,  
 A. T. Bell,  N. A. Besley,  Jeng-Da Chai,  A. E. DePrince, III,  
 R. A. DiStasio Jr.,  A. Dreuw,  B. D. Dunietz,  T. R. Furlani,  
 Chao-Ping Hsu,  Yousung Jung,  Jing Kong,  D. S. Lambrecht,  WanZhen Liang,  
 C. Ochsenfeld,  V. A. Rassolov,  L. V. Slipchenko,  J. E. Subotnik,  
 T. Van Voorhis,  J. M. Herbert,  A. I. Krylov,  P. M. W. Gill,  M. Head-Gordon

 Contributors to earlier versions of Q-Chem not listed above: 
 R. D. Adamson,  B. Austin,  J. Baker,  G. J. O. Beran,  K. Brandhorst,  
 S. T. Brown,  E. F. C. Byrd,  A. K. Chakraborty,  C.-L. Cheng,  
 Siu Hung Chien,  D. M. Chipman,  D. L. Crittenden,  H. Dachsel,  
 R. J. Doerksen,  A. D. Dutoi,  L. Fusti-Molnar,  W. A. Goddard III,  
 A. Golubeva-Zadorozhnaya,  S. R. Gwaltney,  G. Hawkins,  A. Heyden,  
 S. Hirata,  G. Kedziora,  F. J. Keil,  C. Kelley,  Jihan Kim,  R. A. King,  
 R. Z. Khaliullin,  P. P. Korambath,  W. Kurlancheek,  A. M. Lee,  M. S. Lee,  
 S. V. Levchenko,  Ching Yeh Lin,  D. Liotard,  R. C. Lochan,  I. Lotan,  
 P. E. Maslen,  N. Nair,  D. P. O'Neill,  D. Neuhauser,  E. Neuscamman,  
 C. M. Oana,  R. Olson,  B. Peters,  R. Peverati,  P. A. Pieniazek,  
 Y. M. Rhee,  J. Ritchie,  M. A. Rohrdanz,  E. Rosta,  N. J. Russ,  
 H. F. Schaefer III,  N. E. Schultz,  N. Shenvi,  A. C. Simmonett,  A. Sodt,  
 D. Stuck,  K. S. Thanthiriwatte,  V. Vanovschi,  Tao Wang,  A. Warshel,  
 C. F. Williams,  Q. Wu,  X. Xu,  W. Zhang

 Please cite Q-Chem as follows:
 Y. Shao et al., Mol. Phys. 113, 184-215 (2015)
 DOI: 10.1080/00268976.2014.952696

 Q-Chem 5.1.1 for Intel X86 EM64T Linux

 Parts of Q-Chem use Armadillo 8.300.2 (Tropical Shenanigans).
 http://arma.sourceforge.net/

 Q-Chem begins on Sat Oct  3 02:08:18 2020  

Host: n0081.mhg0
0

     Scratch files written to /local/scratch/users/yhljason/NH3O_wB97X-2TQZ_aug-cc-pcVTZ.inp20201003015137//
The previous job contains 0 fragments, simply inherited here
Input Ideriv = 0
Curr. Ideriv = -1
Max.  Ideriv = 0
Analytic post-HF gradients are not available with non-HF exchange
Input Ideriv = 0
Curr. Ideriv = 0
Max.  Ideriv = 0

Checking the input file for inconsistencies... 	...done.

--------------------------------------------------------------
User input:
--------------------------------------------------------------
$molecule
read
$end

$rem

jobtype sp
method wB97X-2(TQZ)
xc_grid 000099000590
basis aug-cc-pcVTZ
max_scf_cycles 200
thresh 14
scf_convergence 8
mem_total 128000
cc_memory 96000
cc_backend xm
mem_static 1500
symmetry false
sym_ignore true
scf_guess read
unrestricted false
scf_algorithm gdm
n_frozen_core 0
$end

$multipole_field
YY -0.0001
$end


--------------------------------------------------------------
 ----------------------------------------------------------------
             Standard Nuclear Orientation (Angstroms)
    I     Atom           X                Y                Z
 ----------------------------------------------------------------
    1      N       0.0000000000     0.0000000000    -0.5344777797
    2      H      -0.9458001927     0.0000000000    -0.9350779673
    3      H       0.4729000069    -0.8190998435    -0.9350776619
    4      H       0.4729000069     0.8190998435    -0.9350776619
    5      O       0.0000000000     0.0000000000     0.8183222203
 ----------------------------------------------------------------
 Nuclear Repulsion Energy =    40.0686164025 hartrees
 There are        9 alpha and        9 beta electrons
 Requested basis set is aug-cc-pCVTZ
 There are 65 shells and 187 basis functions

 Total QAlloc Memory Limit 128000 MB
 Mega-Array Size      1467 MB
 MEM_STATIC part      1500 MB

                       Distance Matrix (Angstroms)
             N (  1)   H (  2)   H (  3)   H (  4)
   H (  2)  1.027141
   H (  3)  1.027151  1.638180
   H (  4)  1.027151  1.638180  1.638200
   O (  5)  1.352800  1.992222  1.992227  1.992227
 
 Applying Cartesian multipole field
    Component          Value
    ---------          -----
     (0,2,0)       -1.00000E-04
 Nucleus-field energy     =    -0.0004791830 hartrees
 A cutoff of  1.0D-14 yielded   2128 shell pairs
 There are     17718 function pairs (     23072 Cartesian)
 
 -------------------------------------------------------
 OpenMP Integral Computing Module                       
 Release: version 1.0, May 2013, Q-Chem Inc. Pittsburgh 
 -------------------------------------------------------
 Integral Job Info:
 Integral job number is                      11
 Integral operator is                         1
 short-range coefficients              63615800
 long-range coefficients              100000000
 Omega coefficients                         300
 if combine SR and LR in K                    1
 Integral screening is                        0
 Integral computing path is                   2
 max size of driver memory is            800000
 size of driver memory is                776718
 size of scratch memory is              6904264
 max col of scratch BK array              10000
 max len of scratch array in speh3          662
 max len of scratch index in speh4           32
 max int batch size is                      520
 min int batch size is                       52
 fixed nKL is                                52
 max L of basis functions is                  3
 order of int derivative is                   0
 number of shells is                         65
 number of basis is                         213
 number of cartesian basis is               213
 number of contracted shell pairs          2128
 number of primitive shell pairs           4946
 maxK2 (contraction) of shell pair           64
 max number of K2 of shell pair               1
 max number of CS2 of shell pair            362
 max number of PS2 of shell pair            568
 mem total for path MDJ                  570992
 -------------------------------------------------------
 Smallest overlap matrix eigenvalue = 7.79E-05
 Guess MOs from SCF MO coefficient file

 -----------------------------------------------------------------------
  General SCF calculation program by
  Eric Jon Sundstrom, Paul Horn, Yuezhi Mao, Dmitri Zuev, Alec White,
  David Stuck, Shaama M.S., Shane Yost, Joonho Lee, David Small,
  Daniel Levine, Susi Lehtola, Hugh Burton, Evgeny Epifanovsky
 -----------------------------------------------------------------------
 Exchange:     0.6362 Hartree-Fock + 1.0000 wB97X-2(TQZ) + LR-HF
 Correlation:  1.0000 wB97X-2(TQZ)
 Using Euler-Maclaurin-Lebedev (99,590) quadrature formula
 using 8 threads for integral computing
 -------------------------------------------------------
 OpenMP Integral computing Module                
 Release: version 1.0, May 2013, Q-Chem Inc. Pittsburgh 
 -------------------------------------------------------
 using 8 threads for integral computing
 -------------------------------------------------------
 OpenMP Integral computing Module                
 Release: version 1.0, May 2013, Q-Chem Inc. Pittsburgh 
 -------------------------------------------------------
 -------------------------------------------------------
 OpenMP BLAS3 based DFT computing Module                
 Release: version 1.0, May 2013, Q-Chem Inc. Pittsburgh 
 -------------------------------------------------------
 A restricted SCF calculation will be
 performed using GDM
 SCF converges when RMS gradient is below 1.0e-08
 ---------------------------------------
  Cycle       Energy        RMS Gradient
 ---------------------------------------
    1    -131.3653706548      5.94e-04   Normal BFGS step
    2    -131.3653718615      1.14e-04   Normal BFGS step
    3    -131.3653720732      3.43e-05   Normal BFGS step
    4    -131.3653720898      1.95e-05   Normal BFGS step
    5    -131.3653720915      6.57e-06   Normal BFGS step
    6    -131.3653720920      1.24e-06   Normal BFGS step
    7    -131.3653720920      3.82e-07   Normal BFGS step
    8    -131.3653720920      9.71e-08   Normal BFGS step
    9    -131.3653720920      3.70e-08   Normal BFGS step
   10    -131.3653720920      1.01e-08   Normal BFGS step
   11    -131.3653720920      2.97e-09  Convergence criterion met
 ---------------------------------------
 SCF time:   CPU 519.23s  wall 65.00s 
 SCF   energy in the final basis set =     -131.3653720920
 Total energy in the final basis set =     -131.3653720920
 
 Components of the MP2 correlation energy:
        aaaa  correlation energy =        -0.0370015057 au
        abab  correlation energy =        -0.2168400290 au
        bbbb  correlation energy =        -0.0370015057 au
        non-Brillouin singles    =        -0.0000000000 au

 Total  MP2   correlation energy =                    -0.29084304 au
        MP2         total energy =                  -131.65621513 au
 
 --------------------------------------------------------------
 
                    Orbital Energies (a.u.)
 --------------------------------------------------------------
 
 Alpha MOs
 -- Occupied --
-19.894 -15.206  -1.291  -1.017  -0.723  -0.723  -0.566  -0.359
 -0.359
 -- Virtual --
  0.019   0.046   0.049   0.095   0.122   0.147   0.149   0.188
  0.188   0.189   0.218   0.219   0.262   0.293   0.294   0.310
  0.346   0.366   0.367   0.369   0.406   0.407   0.416   0.452
  0.508   0.508   0.590   0.590   0.613   0.656   0.656   0.703
  0.758   0.816   0.816   0.851   0.856   0.857   0.873   0.917
  0.917   0.940   0.946   0.946   1.022   1.026   1.026   1.056
  1.114   1.115   1.200   1.208   1.208   1.218   1.223   1.223
  1.347   1.347   1.433   1.478   1.478   1.655   1.690   1.694
  1.694   1.713   1.713   1.741   1.919   1.919   1.949   1.950
  1.983   2.067   2.078   2.190   2.195   2.195   2.249   2.297
  2.297   2.449   2.456   2.456   2.521   2.550   2.550   2.683
  2.727   2.727   3.044   3.116   3.117   3.346   3.734   3.734
  3.881   3.881   3.986   4.034   4.098   4.098   4.160   4.160
  4.160   4.303   4.367   4.367   4.392   4.392   4.421   4.483
  4.536   4.536   4.629   4.629   4.771   4.812   4.812   4.868
  4.872   4.955   4.955   5.397   5.477   5.477   5.579   5.699
  5.699   5.921   5.996   5.996   6.052   6.111   6.528   6.531
  6.609   6.609   6.798   6.865   6.865   7.125   7.125   7.229
  7.229   7.459   7.460   7.478   7.626   7.626   7.880   8.556
 21.623  21.623  21.675  23.034  26.135  26.135  27.292  29.480
 38.801  38.801  39.005  39.183  39.183  43.633  43.633  43.752
 43.752  43.814 109.018 109.018 109.112 116.740 137.719 137.719
138.597 149.554
 --------------------------------------------------------------
 
          Ground-State Mulliken Net Atomic Charges

     Atom                 Charge (a.u.)
  ----------------------------------------
      1 N                     0.200857
      2 H                     0.200076
      3 H                     0.200645
      4 H                     0.200645
      5 O                    -0.802222
  ----------------------------------------
  Sum of atomic charges =    -0.000000

 -----------------------------------------------------------------
                    Cartesian Multipole Moments
 -----------------------------------------------------------------
    Charge (ESU x 10^10)
                -0.0000
    Dipole Moment (Debye)
         X       0.0008      Y       0.0000      Z      -5.5127
       Tot       5.5127
    Quadrupole Moments (Debye-Ang)
        XX     -11.6661     XY       0.0000     YY     -11.6578
        XZ      -0.0014     YZ      -0.0000     ZZ     -13.1524
    Octopole Moments (Debye-Ang^2)
       XXX      -1.1406    XXY       0.0000    XYY       1.1434
       YYY       0.0000    XXZ      -3.2651    XYZ      -0.0000
       YYZ      -3.2673    XZZ       0.0016    YZZ       0.0000
       ZZZ      -5.2746
    Hexadecapole Moments (Debye-Ang^3)
      XXXX     -14.7913   XXXY       0.0000   XXYY      -4.9252
      XYYY       0.0000   YYYY     -14.7609   XXXZ       0.9844
      XXYZ      -0.0000   XYYZ      -0.9900   YYYZ      -0.0000
      XXZZ     -11.2853   XYZZ       0.0000   YYZZ     -11.2732
      XZZZ      -0.0031   YZZZ      -0.0000   ZZZZ     -53.0908
 -----------------------------------------------------------------
Archival summary:
1\1\n0081.mhg0\SP\ProcedureUnspecified\BasisUnspecified\113\yhljason\SatOct302:10:012020SatOct302:10:012020\0\\#,ProcedureUnspecified,BasisUnspecified,\\0,1\N\H,1,1.02714\H,1,1.02715,2,105.773\H,1,1.02715,2,105.773,3,-111.921,0\O,1,1.3528,2,112.955,3,124.04,0\\\@

 Total job time:  102.76s(wall), 809.80s(cpu) 
 Sat Oct  3 02:10:01 2020

        *************************************************************
        *                                                           *
        *  Thank you very much for using Q-Chem.  Have a nice day.  *
        *                                                           *
        *************************************************************


 
User input: 7 of 8 
 
Q-Chem Developer Version!
                  Welcome to Q-Chem
     A Quantum Leap Into The Future Of Chemistry


 Q-Chem 5.1, Q-Chem, Inc., Pleasanton, CA (2018)

 Yihan Shao,  Zhengting Gan,  E. Epifanovsky,  A. T. B. Gilbert,  M. Wormit,  
 J. Kussmann,  A. W. Lange,  A. Behn,  Jia Deng,  Xintian Feng,  D. Ghosh,  
 M. Goldey,  P. R. Horn,  L. D. Jacobson,  I. Kaliman,  T. Kus,  A. Landau,  
 Jie Liu,  E. I. Proynov,  R. M. Richard,  R. P. Steele,  E. J. Sundstrom,  
 H. L. Woodcock III,  P. M. Zimmerman,  D. Zuev,  B. Albrecht,  E. Alguire,  
 S. A. Baeppler,  D. Barton,  Z. Benda,  Y. A. Bernard,  E. J. Berquist,  
 K. B. Bravaya,  H. Burton,  D. Casanova,  Chun-Min Chang,  Yunqing Chen,  
 A. Chien,  K. D. Closser,  M. P. Coons,  S. Coriani,  S. Dasgupta,  
 A. L. Dempwolff,  M. Diedenhofen,  Hainam Do,  R. G. Edgar,  Po-Tung Fang,  
 S. Faraji,  S. Fatehi,  Qingguo Feng,  K. D. Fenk,  J. Fosso-Tande,  
 Qinghui Ge,  A. Ghysels,  G. Gidofalvi,  J. Gomes,  J. Gonthier,  A. Gunina,  
 D. Hait,  M. W. D. Hanson-Heine,  P. H. P. Harbach,  A. W. Hauser,  
 J. E. Herr,  E. G. Hohenstein,  Z. C. Holden,  Kerwin Hui,  B. C. Huynh,  
 T.-C. Jagau,  Hyunjun Ji,  B. Kaduk,  K. Khistyaev,  Jaehoon Kim,  
 P. Klunzinger,  K. Koh,  D. Kosenkov,  L. Koulias,  T. Kowalczyk,  
 C. M. Krauter,  A. Kunitsa,  Ka Un Lao,  A. Laurent,  K. V. Lawler,  
 Joonho Lee,  D. Lefrancois,  S. Lehtola,  D. S. Levine,  Yi-Pei Li,  
 You-Sheng Lin,  Fenglai Liu,  E. Livshits,  A. Luenser,  P. Manohar,  
 E. Mansoor,  S. F. Manzer,  Shan-Ping Mao,  Yuezhi Mao,  N. Mardirossian,  
 A. V. Marenich,  T. Markovich,  L. A. Martinez-Martinez,  S. A. Maurer,  
 N. J. Mayhall,  S. C. McKenzie,  J.-M. Mewes,  A. F. Morrison,  
 J. W. Mullinax,  K. Nanda,  T. S. Nguyen-Beck,  R. Olivares-Amaya,  
 J. A. Parkhill,  T. M. Perrine,  F. Plasser,  P. Pokhilko,  S. Prager,  
 A. Prociuk,  E. Ramos,  D. R. Rehn,  F. Rob,  M. Schneider,  N. Sergueev,  
 S. M. Sharada,  S. Sharma,  D. W. Small,  T. Stauch,  T. Stein,  
[...]
 ---------------------------------------
 SCF time:   CPU 476.47s  wall 60.00s 
 SCF   energy in the final basis set =     -131.3672179573
 Total energy in the final basis set =     -131.3672179573
 
 Components of the MP2 correlation energy:
        aaaa  correlation energy =        -0.0370084694 au
        abab  correlation energy =        -0.2168613828 au
        bbbb  correlation energy =        -0.0370084694 au
        non-Brillouin singles    =        -0.0000000000 au

 Total  MP2   correlation energy =                    -0.29087832 au
        MP2         total energy =                  -131.65809628 au
 
 --------------------------------------------------------------
 
                    Orbital Energies (a.u.)
 --------------------------------------------------------------
 
 Alpha MOs
 -- Occupied --
-19.895 -15.207  -1.292  -1.018  -0.724  -0.724  -0.566  -0.359
 -0.359
 -- Virtual --
  0.015   0.043   0.043   0.091   0.118   0.144   0.144   0.185
  0.186   0.186   0.216   0.216   0.259   0.291   0.291   0.307
  0.344   0.364   0.365   0.365   0.404   0.404   0.413   0.450
  0.506   0.506   0.588   0.588   0.611   0.655   0.655   0.702
  0.756   0.814   0.814   0.850   0.855   0.855   0.871   0.915
  0.915   0.938   0.944   0.944   1.021   1.024   1.024   1.054
  1.113   1.113   1.198   1.206   1.206   1.216   1.222   1.222
  1.346   1.346   1.432   1.477   1.477   1.653   1.689   1.693
  1.693   1.712   1.712   1.740   1.918   1.918   1.948   1.948
  1.982   2.067   2.077   2.190   2.194   2.194   2.248   2.296
  2.296   2.448   2.455   2.455   2.520   2.549   2.549   2.682
  2.726   2.726   3.043   3.116   3.116   3.345   3.733   3.733
  3.880   3.880   3.985   4.033   4.098   4.098   4.159   4.159
  4.159   4.302   4.367   4.367   4.391   4.391   4.420   4.482
  4.535   4.535   4.628   4.628   4.770   4.811   4.811   4.867
  4.871   4.954   4.954   5.396   5.476   5.476   5.578   5.698
  5.698   5.920   5.995   5.995   6.051   6.111   6.528   6.530
  6.608   6.608   6.798   6.864   6.864   7.125   7.125   7.228
  7.228   7.459   7.459   7.477   7.625   7.625   7.879   8.555
 21.622  21.622  21.675  23.033  26.134  26.134  27.291  29.479
 38.800  38.800  39.004  39.182  39.182  43.633  43.633  43.751
 43.751  43.813 109.017 109.017 109.111 116.739 137.718 137.718
138.596 149.553
 --------------------------------------------------------------
 
          Ground-State Mulliken Net Atomic Charges

     Atom                 Charge (a.u.)
  ----------------------------------------
      1 N                     0.202361
      2 H                     0.200179
      3 H                     0.200192
      4 H                     0.200192
      5 O                    -0.802923
  ----------------------------------------
  Sum of atomic charges =    -0.000000

 -----------------------------------------------------------------
                    Cartesian Multipole Moments
 -----------------------------------------------------------------
    Charge (ESU x 10^10)
                -0.0000
    Dipole Moment (Debye)
         X      -0.0000      Y       0.0000      Z      -5.5120
       Tot       5.5120
    Quadrupole Moments (Debye-Ang)
        XX     -11.6699     XY       0.0000     YY     -11.6698
        XZ       0.0000     YZ       0.0000     ZZ     -13.1750
    Octopole Moments (Debye-Ang^2)
       XXX      -1.1414    XXY      -0.0000    XYY       1.1415
       YYY      -0.0000    XXZ      -3.2659    XYZ       0.0000
       YYZ      -3.2659    XZZ      -0.0000    YZZ      -0.0000
       ZZZ      -5.2752
    Hexadecapole Moments (Debye-Ang^3)
      XXXX     -14.8074   XXXY      -0.0000   XXYY      -4.9358
      XYYY       0.0000   YYYY     -14.8074   XXXZ       0.9865
      XXYZ       0.0000   XYYZ      -0.9865   YYYZ       0.0000
      XXZZ     -11.3079   XYZZ       0.0000   YYZZ     -11.3078
      XZZZ       0.0001   YZZZ       0.0000   ZZZZ     -53.2050
 -----------------------------------------------------------------
Archival summary:
1\1\n0081.mhg0\SP\ProcedureUnspecified\BasisUnspecified\113\yhljason\SatOct302:11:372020SatOct302:11:372020\0\\#,ProcedureUnspecified,BasisUnspecified,\\0,1\N\H,1,1.02714\H,1,1.02715,2,105.773\H,1,1.02715,2,105.773,3,-111.921,0\O,1,1.3528,2,112.955,3,124.04,0\\\@

 Total job time:  96.17s(wall), 758.39s(cpu) 
 Sat Oct  3 02:11:37 2020

        *************************************************************
        *                                                           *
        *  Thank you very much for using Q-Chem.  Have a nice day.  *
        *                                                           *
        *************************************************************


 
User input: 8 of 8 
 
Q-Chem Developer Version!
                  Welcome to Q-Chem
     A Quantum Leap Into The Future Of Chemistry


 Q-Chem 5.1, Q-Chem, Inc., Pleasanton, CA (2018)

 Yihan Shao,  Zhengting Gan,  E. Epifanovsky,  A. T. B. Gilbert,  M. Wormit,  
 J. Kussmann,  A. W. Lange,  A. Behn,  Jia Deng,  Xintian Feng,  D. Ghosh,  
 M. Goldey,  P. R. Horn,  L. D. Jacobson,  I. Kaliman,  T. Kus,  A. Landau,  
 Jie Liu,  E. I. Proynov,  R. M. Richard,  R. P. Steele,  E. J. Sundstrom,  
 H. L. Woodcock III,  P. M. Zimmerman,  D. Zuev,  B. Albrecht,  E. Alguire,  
 S. A. Baeppler,  D. Barton,  Z. Benda,  Y. A. Bernard,  E. J. Berquist,  
 K. B. Bravaya,  H. Burton,  D. Casanova,  Chun-Min Chang,  Yunqing Chen,  
 A. Chien,  K. D. Closser,  M. P. Coons,  S. Coriani,  S. Dasgupta,  
 A. L. Dempwolff,  M. Diedenhofen,  Hainam Do,  R. G. Edgar,  Po-Tung Fang,  
 S. Faraji,  S. Fatehi,  Qingguo Feng,  K. D. Fenk,  J. Fosso-Tande,  
 Qinghui Ge,  A. Ghysels,  G. Gidofalvi,  J. Gomes,  J. Gonthier,  A. Gunina,  
 D. Hait,  M. W. D. Hanson-Heine,  P. H. P. Harbach,  A. W. Hauser,  
 J. E. Herr,  E. G. Hohenstein,  Z. C. Holden,  Kerwin Hui,  B. C. Huynh,  
 T.-C. Jagau,  Hyunjun Ji,  B. Kaduk,  K. Khistyaev,  Jaehoon Kim,  
 P. Klunzinger,  K. Koh,  D. Kosenkov,  L. Koulias,  T. Kowalczyk,  
 C. M. Krauter,  A. Kunitsa,  Ka Un Lao,  A. Laurent,  K. V. Lawler,  
 Joonho Lee,  D. Lefrancois,  S. Lehtola,  D. S. Levine,  Yi-Pei Li,  
 You-Sheng Lin,  Fenglai Liu,  E. Livshits,  A. Luenser,  P. Manohar,  
 E. Mansoor,  S. F. Manzer,  Shan-Ping Mao,  Yuezhi Mao,  N. Mardirossian,  
 A. V. Marenich,  T. Markovich,  L. A. Martinez-Martinez,  S. A. Maurer,  
 N. J. Mayhall,  S. C. McKenzie,  J.-M. Mewes,  A. F. Morrison,  
 J. W. Mullinax,  K. Nanda,  T. S. Nguyen-Beck,  R. Olivares-Amaya,  
 J. A. Parkhill,  T. M. Perrine,  F. Plasser,  P. Pokhilko,  S. Prager,  
 A. Prociuk,  E. Ramos,  D. R. Rehn,  F. Rob,  M. Schneider,  N. Sergueev,  
 S. M. Sharada,  S. Sharma,  D. W. Small,  T. Stauch,  T. Stein,  
 Yu-Chuan Su,  A. J. W. Thom,  A. Tkatchenko,  T. Tsuchimochi,  N. M. Tubman,  
 L. Vogt,  M. L. Vidal,  O. Vydrov,  M. A. Watson,  J. Wenzel,  
 M. de Wergifosse,  T. A. Wesolowski,  A. White,  J. Witte,  A. Yamada,  
 Jun Yang,  K. Yao,  S. Yeganeh,  S. R. Yost,  Zhi-Qiang You,  A. Zech,  
 Igor Ying Zhang,  Xing Zhang,  Yan Zhao,  Ying Zhu,  B. R. Brooks,  
 G. K. L. Chan,  C. J. Cramer,  M. S. Gordon,  W. J. Hehre,  A. Klamt,  
 M. W. Schmidt,  C. D. Sherrill,  D. G. Truhlar,  A. Aspuru-Guzik,  R. Baer,  
 A. T. Bell,  N. A. Besley,  Jeng-Da Chai,  A. E. DePrince, III,  
 R. A. DiStasio Jr.,  A. Dreuw,  B. D. Dunietz,  T. R. Furlani,  
 Chao-Ping Hsu,  Yousung Jung,  Jing Kong,  D. S. Lambrecht,  WanZhen Liang,  
 C. Ochsenfeld,  V. A. Rassolov,  L. V. Slipchenko,  J. E. Subotnik,  
 T. Van Voorhis,  J. M. Herbert,  A. I. Krylov,  P. M. W. Gill,  M. Head-Gordon

 Contributors to earlier versions of Q-Chem not listed above: 
 R. D. Adamson,  B. Austin,  J. Baker,  G. J. O. Beran,  K. Brandhorst,  
 S. T. Brown,  E. F. C. Byrd,  A. K. Chakraborty,  C.-L. Cheng,  
 Siu Hung Chien,  D. M. Chipman,  D. L. Crittenden,  H. Dachsel,  
 R. J. Doerksen,  A. D. Dutoi,  L. Fusti-Molnar,  W. A. Goddard III,  
 A. Golubeva-Zadorozhnaya,  S. R. Gwaltney,  G. Hawkins,  A. Heyden,  
 S. Hirata,  G. Kedziora,  F. J. Keil,  C. Kelley,  Jihan Kim,  R. A. King,  
 R. Z. Khaliullin,  P. P. Korambath,  W. Kurlancheek,  A. M. Lee,  M. S. Lee,  
 S. V. Levchenko,  Ching Yeh Lin,  D. Liotard,  R. C. Lochan,  I. Lotan,  
 P. E. Maslen,  N. Nair,  D. P. O'Neill,  D. Neuhauser,  E. Neuscamman,  
 C. M. Oana,  R. Olson,  B. Peters,  R. Peverati,  P. A. Pieniazek,  
 Y. M. Rhee,  J. Ritchie,  M. A. Rohrdanz,  E. Rosta,  N. J. Russ,  
 H. F. Schaefer III,  N. E. Schultz,  N. Shenvi,  A. C. Simmonett,  A. Sodt,  
 D. Stuck,  K. S. Thanthiriwatte,  V. Vanovschi,  Tao Wang,  A. Warshel,  
 C. F. Williams,  Q. Wu,  X. Xu,  W. Zhang

 Please cite Q-Chem as follows:
 Y. Shao et al., Mol. Phys. 113, 184-215 (2015)
 DOI: 10.1080/00268976.2014.952696

 Q-Chem 5.1.1 for Intel X86 EM64T Linux

 Parts of Q-Chem use Armadillo 8.300.2 (Tropical Shenanigans).
 http://arma.sourceforge.net/

 Q-Chem begins on Sat Oct  3 02:11:37 2020  

Host: n0081.mhg0
0

     Scratch files written to /local/scratch/users/yhljason/NH3O_wB97X-2TQZ_aug-cc-pcVTZ.inp20201003015137//
The previous job contains 0 fragments, simply inherited here
Input Ideriv = 0
Curr. Ideriv = -1
Max.  Ideriv = 0
Analytic post-HF gradients are not available with non-HF exchange
Input Ideriv = 0
Curr. Ideriv = 0
Max.  Ideriv = 0

Checking the input file for inconsistencies... 	...done.

--------------------------------------------------------------
User input:
--------------------------------------------------------------
$molecule
read
$end

$rem

jobtype sp
method wB97X-2(TQZ)
xc_grid 000099000590
basis aug-cc-pcVTZ
max_scf_cycles 200
thresh 14
scf_convergence 8
mem_total 128000
cc_memory 96000
cc_backend xm
mem_static 1500
symmetry false
sym_ignore true
scf_guess read
unrestricted false
scf_algorithm gdm
n_frozen_core 0
$end

$multipole_field
ZZ -0.0001
$end

--------------------------------------------------------------
 ----------------------------------------------------------------
             Standard Nuclear Orientation (Angstroms)
    I     Atom           X                Y                Z
 ----------------------------------------------------------------
    1      N       0.0000000000     0.0000000000    -0.5344777797
    2      H      -0.9458001927     0.0000000000    -0.9350779673
    3      H       0.4729000069    -0.8190998435    -0.9350776619
    4      H       0.4729000069     0.8190998435    -0.9350776619
    5      O       0.0000000000     0.0000000000     0.8183222203
 ----------------------------------------------------------------
 Nuclear Repulsion Energy =    40.0686164025 hartrees
 There are        9 alpha and        9 beta electrons
 Requested basis set is aug-cc-pCVTZ
 There are 65 shells and 187 basis functions

 Total QAlloc Memory Limit 128000 MB
 Mega-Array Size      1467 MB
 MEM_STATIC part      1500 MB

                       Distance Matrix (Angstroms)
             N (  1)   H (  2)   H (  3)   H (  4)
   H (  2)  1.027141
   H (  3)  1.027151  1.638180
   H (  4)  1.027151  1.638180  1.638200
   O (  5)  1.352800  1.992222  1.992227  1.992227
 
 Applying Cartesian multipole field
    Component          Value
    ---------          -----
     (0,0,2)       -1.00000E-04
 Nucleus-field energy     =    -0.0035639180 hartrees
 A cutoff of  1.0D-14 yielded   2128 shell pairs
 There are     17718 function pairs (     23072 Cartesian)
 
 -------------------------------------------------------
 OpenMP Integral Computing Module                       
 Release: version 1.0, May 2013, Q-Chem Inc. Pittsburgh 
 -------------------------------------------------------
 Integral Job Info:
 Integral job number is                      11
 Integral operator is                         1
 short-range coefficients              63615800
 long-range coefficients              100000000
 Omega coefficients                         300
 if combine SR and LR in K                    1
 Integral screening is                        0
 Integral computing path is                   2
 max size of driver memory is            800000
 size of driver memory is                776718
 size of scratch memory is              6904264
 max col of scratch BK array              10000
 max len of scratch array in speh3          662
 max len of scratch index in speh4           32
 max int batch size is                      520
 min int batch size is                       52
 fixed nKL is                                52
 max L of basis functions is                  3
 order of int derivative is                   0
 number of shells is                         65
 number of basis is                         213
 number of cartesian basis is               213
 number of contracted shell pairs          2128
 number of primitive shell pairs           4946
 maxK2 (contraction) of shell pair           64
 max number of K2 of shell pair               1
 max number of CS2 of shell pair            362
 max number of PS2 of shell pair            568
 mem total for path MDJ                  570992
 -------------------------------------------------------
 Smallest overlap matrix eigenvalue = 7.79E-05
 Guess MOs from SCF MO coefficient file

 -----------------------------------------------------------------------
  General SCF calculation program by
  Eric Jon Sundstrom, Paul Horn, Yuezhi Mao, Dmitri Zuev, Alec White,
  David Stuck, Shaama M.S., Shane Yost, Joonho Lee, David Small,
  Daniel Levine, Susi Lehtola, Hugh Burton, Evgeny Epifanovsky
 -----------------------------------------------------------------------
 Exchange:     0.6362 Hartree-Fock + 1.0000 wB97X-2(TQZ) + LR-HF
 Correlation:  1.0000 wB97X-2(TQZ)
 Using Euler-Maclaurin-Lebedev (99,590) quadrature formula
 using 8 threads for integral computing
 -------------------------------------------------------
 OpenMP Integral computing Module                
 Release: version 1.0, May 2013, Q-Chem Inc. Pittsburgh 
 -------------------------------------------------------
 using 8 threads for integral computing
 -------------------------------------------------------
 OpenMP Integral computing Module                
 Release: version 1.0, May 2013, Q-Chem Inc. Pittsburgh 
 -------------------------------------------------------
 -------------------------------------------------------
 OpenMP BLAS3 based DFT computing Module                
 Release: version 1.0, May 2013, Q-Chem Inc. Pittsburgh 
 -------------------------------------------------------
 A restricted SCF calculation will be
 performed using GDM
 SCF converges when RMS gradient is below 1.0e-08
 ---------------------------------------
  Cycle       Energy        RMS Gradient
 ---------------------------------------
    1    -131.3652589020      5.41e-04   Normal BFGS step
    2    -131.3652614854      1.48e-04   Normal BFGS step
    3    -131.3652618827      3.22e-05   Normal BFGS step
    4    -131.3652619046      8.51e-06   Normal BFGS step
    5    -131.3652619054      3.26e-06   Normal BFGS step
    6    -131.3652619055      2.05e-06   Normal BFGS step
    7    -131.3652619055      2.55e-07   Normal BFGS step
    8    -131.3652619055      5.97e-08   Normal BFGS step
    9    -131.3652619055      8.15e-09  Convergence criterion met
 ---------------------------------------
 SCF time:   CPU 443.91s  wall 56.00s 
 SCF   energy in the final basis set =     -131.3652619055
 Total energy in the final basis set =     -131.3652619055
 
 Components of the MP2 correlation energy:
        aaaa  correlation energy =        -0.0370017731 au
        abab  correlation energy =        -0.2168440226 au
        bbbb  correlation energy =        -0.0370017731 au
        non-Brillouin singles    =        -0.0000000000 au

 Total  MP2   correlation energy =                    -0.29084757 au
        MP2         total energy =                  -131.65610947 au
 
 --------------------------------------------------------------
 
                    Orbital Energies (a.u.)
 --------------------------------------------------------------
 
 Alpha MOs
 -- Occupied --
-19.894 -15.206  -1.291  -1.017  -0.723  -0.723  -0.565  -0.358
 -0.358
 -- Virtual --
  0.020   0.047   0.047   0.095   0.122   0.147   0.147   0.188
  0.188   0.191   0.219   0.219   0.263   0.294   0.294   0.310
  0.345   0.366   0.368   0.368   0.406   0.406   0.417   0.452
  0.508   0.508   0.590   0.590   0.614   0.656   0.656   0.704
  0.758   0.816   0.816   0.851   0.856   0.856   0.873   0.917
  0.917   0.940   0.946   0.946   1.022   1.026   1.026   1.056
  1.114   1.114   1.200   1.208   1.208   1.218   1.223   1.223
  1.347   1.347   1.434   1.478   1.478   1.654   1.691   1.694
  1.694   1.713   1.713   1.741   1.919   1.919   1.950   1.950
  1.983   2.068   2.079   2.191   2.195   2.195   2.249   2.297
  2.297   2.449   2.456   2.456   2.522   2.551   2.551   2.683
  2.727   2.727   3.044   3.117   3.117   3.346   3.734   3.734
  3.881   3.881   3.986   4.034   4.099   4.099   4.160   4.160
  4.160   4.303   4.368   4.368   4.392   4.392   4.421   4.483
  4.536   4.536   4.629   4.629   4.771   4.812   4.812   4.868
  4.872   4.955   4.955   5.397   5.477   5.477   5.580   5.699
  5.699   5.921   5.996   5.996   6.052   6.112   6.529   6.531
  6.610   6.610   6.799   6.865   6.865   7.126   7.126   7.229
  7.229   7.460   7.460   7.478   7.626   7.626   7.880   8.556
 21.623  21.623  21.676  23.034  26.135  26.135  27.292  29.480
 38.801  38.801  39.005  39.183  39.183  43.634  43.634  43.752
 43.752  43.814 109.018 109.018 109.112 116.740 137.719 137.719
138.597 149.554
 --------------------------------------------------------------
 
          Ground-State Mulliken Net Atomic Charges

     Atom                 Charge (a.u.)
  ----------------------------------------
      1 N                     0.199648
      2 H                     0.200689
      3 H                     0.200702
      4 H                     0.200702
      5 O                    -0.801741
  ----------------------------------------
  Sum of atomic charges =     0.000000

 -----------------------------------------------------------------
                    Cartesian Multipole Moments
 -----------------------------------------------------------------
    Charge (ESU x 10^10)
                -0.0000
    Dipole Moment (Debye)
         X      -0.0000      Y      -0.0000      Z      -5.5124
       Tot       5.5124
    Quadrupole Moments (Debye-Ang)
        XX     -11.6652     XY      -0.0000     YY     -11.6651
        XZ       0.0000     YZ       0.0000     ZZ     -13.1346
    Octopole Moments (Debye-Ang^2)
       XXX      -1.1422    XXY      -0.0000    XYY       1.1422
       YYY      -0.0000    XXZ      -3.2664    XYZ       0.0000
       YYZ      -3.2665    XZZ      -0.0000    YZZ      -0.0000
       ZZZ      -5.2742
    Hexadecapole Moments (Debye-Ang^3)
      XXXX     -14.7874   XXXY      -0.0000   XXYY      -4.9291
      XYYY      -0.0000   YYYY     -14.7874   XXXZ       0.9877
      XXYZ       0.0000   XYYZ      -0.9876   YYYZ       0.0000
      XXZZ     -11.2708   XYZZ      -0.0000   YYZZ     -11.2708
      XZZZ       0.0001   YZZZ       0.0000   ZZZZ     -53.0079
 -----------------------------------------------------------------
Archival summary:
1\1\n0081.mhg0\SP\ProcedureUnspecified\BasisUnspecified\113\yhljason\SatOct302:13:102020SatOct302:13:102020\0\\#,ProcedureUnspecified,BasisUnspecified,\\0,1\N\H,1,1.02714\H,1,1.02715,2,105.773\H,1,1.02715,2,105.773,3,-111.921,0\O,1,1.3528,2,112.955,3,124.04,0\\\@

 Total job time:  92.74s(wall), 730.04s(cpu) 
 Sat Oct  3 02:13:10 2020

        *************************************************************
        *                                                           *
        *  Thank you very much for using Q-Chem.  Have a nice day.  *
        *                                                           *
        *************************************************************


