                  Welcome to Q-Chem
     A Quantum Leap Into The Future Of Chemistry


 Q-Chem 5.3 (devel), Q-Chem, Inc., Pleasanton, CA (2020)

 Yihan Shao,  Zhengting Gan,  E. Epifanovsky,  A. T. B. Gilbert,  M. Wormit,  
 J. Kussmann,  A. W. Lange,  A. Behn,  Jia Deng,  Xintian Feng,  D. Ghosh,  
 M. Goldey,  P. R. Horn,  L. D. Jacobson,  I. Kaliman,  T. Kus,  A. Landau,  
 Jie Liu,  E. I. Proynov,  R. M. Richard,  R. P. Steele,  E. J. Sundstrom,  
 H. L. Woodcock III,  P. M. Zimmerman,  D. Zuev,  B. Alam,  B. Albrecht,  
 E. Alguire,  S. A. Baeppler,  D. Barton,  Z. Benda,  Y. A. Bernard,  
 E. J. Berquist,  K. B. Bravaya,  H. Burton,  K. Carter-Fenk,  D. Casanova,  
 Chun-Min Chang,  Yunqing Chen,  A. Chien,  K. D. Closser,  M. P. Coons,  
 S. Coriani,  S. Dasgupta,  A. L. Dempwolff,  M. Diedenhofen,  Hainam Do,  
 R. G. Edgar,  Po-Tung Fang,  S. Faraji,  S. Fatehi,  Qingguo Feng,  
 J. Fosso-Tande,  J. Gayvert,  Qinghui Ge,  A. Ghysels,  G. Gidofalvi,  
 J. Gomes,  J. Gonthier,  A. Gunina,  D. Hait,  M. W. D. Hanson-Heine,  
 P. H. P. Harbach,  A. W. Hauser,  M. F. Herbst,  J. E. Herr,  
 E. G. Hohenstein,  Z. C. Holden,  Kerwin Hui,  B. C. Huynh,  T.-C. Jagau,  
 Hyunjun Ji,  B. Kaduk,  K. Khistyaev,  Jaehoon Kim,  P. Klunzinger,  K. Koh,  
 D. Kosenkov,  L. Koulias,  T. Kowalczyk,  C. M. Krauter,  A. Kunitsa,  
 Ka Un Lao,  A. Laurent,  K. V. Lawler,  Joonho Lee,  D. Lefrancois,  
 S. Lehtola,  D. S. Levine,  Yi-Pei Li,  You-Sheng Lin,  Fenglai Liu,  
 Kuan-Yu Liu,  E. Livshits,  M. Loipersberger,  A. Luenser,  P. Manohar,  
 E. Mansoor,  S. F. Manzer,  Shan-Ping Mao,  Yuezhi Mao,  N. Mardirossian,  
 A. V. Marenich,  T. Markovich,  L. A. Martinez-Martinez,  S. A. Maurer,  
 N. J. Mayhall,  S. C. McKenzie,  J.-M. Mewes,  P. Morgante,  A. F. Morrison,  
 J. W. Mullinax,  K. Nanda,  T. S. Nguyen-Beck,  R. Olivares-Amaya,  
 K. J. Oosterbaan,  J. A. Parkhill,  S. K. Paul,  F. Pavosevic,  Zheng Pei,  
 T. M. Perrine,  F. Plasser,  P. Pokhilko,  S. Prager,  A. Prociuk,  
 E. Ramos,  B. Rana,  D. R. Rehn,  F. Rob,  M. Scheurer,  M. Schneider,  
 N. Sergueev,  S. M. Sharada,  S. Sharma,  D. W. Small,  T. Stauch,  
 C. J. Stein,  T. Stein,  Yu-Chuan Su,  S. P. Veccham,  Zhen Tao,  
 A. J. W. Thom,  A. Tkatchenko,  T. Tsuchimochi,  N. M. Tubman,  L. Vogt,  
 M. L. Vidal,  O. Vydrov,  M. A. Watson,  J. Wenzel,  M. de Wergifosse,  
 T. A. Wesolowski,  A. White,  J. Witte,  A. Yamada,  Jun Yang,  K. Yao,  
 S. Yeganeh,  S. R. Yost,  Zhi-Qiang You,  A. Zech,  Igor Ying Zhang,  
 Xing Zhang,  Yan Zhao,  Ying Zhu,  B. R. Brooks,  G. K. L. Chan,  
 C. J. Cramer,  M. S. Gordon,  W. J. Hehre,  A. Klamt,  M. W. Schmidt,  
 C. D. Sherrill,  D. G. Truhlar,  A. Aspuru-Guzik,  R. Baer,  A. T. Bell,  
 N. A. Besley,  Jeng-Da Chai,  A. E. DePrince, III,  R. A. DiStasio Jr.,  
 A. Dreuw,  B. D. Dunietz,  T. R. Furlani,  Chao-Ping Hsu,  Yousung Jung,  
 Jing Kong,  D. S. Lambrecht,  WanZhen Liang,  C. Ochsenfeld,  
 V. A. Rassolov,  L. V. Slipchenko,  J. E. Subotnik,  T. Van Voorhis,  
 J. M. Herbert,  A. I. Krylov,  P. M. W. Gill,  M. Head-Gordon

 Contributors to earlier versions of Q-Chem not listed above: 
 R. D. Adamson,  B. Austin,  J. Baker,  G. J. O. Beran,  K. Brandhorst,  
 S. T. Brown,  E. F. C. Byrd,  A. K. Chakraborty,  C.-L. Cheng,  
 Siu Hung Chien,  D. M. Chipman,  D. L. Crittenden,  H. Dachsel,  
 R. J. Doerksen,  A. D. Dutoi,  L. Fusti-Molnar,  W. A. Goddard III,  
 A. Golubeva-Zadorozhnaya,  S. R. Gwaltney,  G. Hawkins,  A. Heyden,  
 S. Hirata,  G. Kedziora,  F. J. Keil,  C. Kelley,  Jihan Kim,  R. A. King,  
 R. Z. Khaliullin,  P. P. Korambath,  W. Kurlancheek,  A. M. Lee,  M. S. Lee,  
 S. V. Levchenko,  Ching Yeh Lin,  D. Liotard,  R. C. Lochan,  I. Lotan,  
 P. E. Maslen,  N. Nair,  D. P. O'Neill,  D. Neuhauser,  E. Neuscamman,  
 C. M. Oana,  R. Olson,  B. Peters,  R. Peverati,  P. A. Pieniazek,  
 Y. M. Rhee,  J. Ritchie,  M. A. Rohrdanz,  E. Rosta,  N. J. Russ,  
 H. F. Schaefer III,  N. E. Schultz,  N. Shenvi,  A. C. Simmonett,  A. Sodt,  
 D. Stuck,  K. S. Thanthiriwatte,  V. Vanovschi,  Tao Wang,  A. Warshel,  
 C. F. Williams,  Q. Wu,  X. Xu,  W. Zhang

 Please cite Q-Chem as follows:
 Y. Shao et al., Mol. Phys. 113, 184-215 (2015)
 DOI: 10.1080/00268976.2014.952696

 Q-Chem 5.3.0 for Intel X86 EM64T Linux

 Parts of Q-Chem use Armadillo 9.800.1 (Horizon Scraper).
 http://arma.sourceforge.net/

 Q-Chem begins on Wed Sep  2 00:27:40 2020  

n0067.mhg0
Host: 0

     Scratch files written to /local/scratch/users/yhljason/LiBH4_SOGGA11_aug-pc-4.inp20200901183414//
Processing $rem in /clusterfs/mhg/diptarka/qchem_transmom//config/preferences:
Processing $rem in /global/home/users/yhljason/.qchemrc:

Checking the input file for inconsistencies... 	...done.

--------------------------------------------------------------
User input:
--------------------------------------------------------------
$molecule
0 1
     Li        0.0000000000    0.0000000000   -1.4298000000
        B         0.0000000000    0.0000000000    0.5063000000
        H         0.0000000000    0.0000000000    1.6973000000
        H         0.0000000000    1.1405000000    0.0202000000
        H         0.9877000000   -0.5702000000    0.0202000000
       H        -0.9877000000   -0.5702000000    0.0202000000
$end

$rem
jobtype sp
method sogga11
xc_grid 000099000590
basis aug-pc-4
max_scf_cycles 200
thresh 14
scf_convergence 8
scf_algorithm gdm
gen_scfman false
stability_analysis true
symmetry false
sym_ignore true
unrestricted true
gen_scfman true
mem_total 64000
mem_static 1500
n_frozen_core 0
max_cis_cycles 200
$end
--------------------------------------------------------------
 ----------------------------------------------------------------
             Standard Nuclear Orientation (Angstroms)
    I     Atom           X                Y                Z
 ----------------------------------------------------------------
    1      Li      0.0000000000     0.0000000000    -1.4298000000
    2      B       0.0000000000     0.0000000000     0.5063000000
    3      H       0.0000000000     0.0000000000     1.6973000000
    4      H       0.0000000000     1.1405000000     0.0202000000
    5      H       0.9877000000    -0.5702000000     0.0202000000
    6      H      -0.9877000000    -0.5702000000     0.0202000000
 ----------------------------------------------------------------
 Nuclear Repulsion Energy =          17.39973373 hartrees
 There are        6 alpha and        6 beta electrons
 Requested basis set is aug-pc-4
 There are 152 shells and 580 basis functions

 Total QAlloc Memory Limit  64000 MB
 Mega-Array Size      1467 MB
 MEM_STATIC part      1500 MB

                       Distance Matrix (Angstroms)
             Li(  1)   B (  2)   H (  3)   H (  4)   H (  5)
   B (  2)  1.936100
   H (  3)  3.127100  1.191000
   H (  4)  1.844787  1.239772  2.028153
   H (  5)  1.844771  1.239747  2.028138  1.975360
   H (  6)  1.844771  1.239747  2.028138  1.975360  1.975400

 A cutoff of  1.0D-14 yielded  11529 shell pairs
 There are    169097 function pairs (    292839 Cartesian)
 Smallest overlap matrix eigenvalue = 3.52E-08
 Linear dependence detected in AO basis
 Tighter screening thresholds may be required for diffuse basis sets
 Use S2THRESH > 14 and THRESH = 14 in case of SCF convergence issues
 Number of orthogonalized atomic orbitals = 572
 Maximum deviation from orthogonality = 3.328E-10

 Scale SEOQF with 1.000000e-01/1.000000e-01/1.000000e-01

 Standard Electronic Orientation quadrupole field applied
 Nucleus-field energy     =    -0.0000000009 hartrees
 Guess from superposition of atomic densities
 Warning:  Energy on first SCF cycle will be non-variational
 SAD guess density has 12.000000 electrons

 -----------------------------------------------------------------------
  General SCF calculation program by
  Eric Jon Sundstrom, Paul Horn, Yuezhi Mao, Dmitri Zuev, Alec White,
  David Stuck, Shaama M.S., Shane Yost, Joonho Lee, David Small,
  Daniel Levine, Susi Lehtola, Hugh Burton, Evgeny Epifanovsky,
  Bang C. Huynh
 -----------------------------------------------------------------------
 Exchange:  SOGGA11      Correlation:  SOGGA11
 Using Euler-Maclaurin-Lebedev (99,590) quadrature formula
 A unrestricted SCF calculation will be
 performed using Roothaan-Hall, GDM
 SCF converges when RMS gradient is below 1.0e-08
 ---------------------------------------
  Cycle       Energy         DIIS error
 ---------------------------------------
    1     -34.6576921576      2.53e-03  Roothaan Step
 ---------------------------------------
  Cycle       Energy        RMS Gradient
 ---------------------------------------
    1     -34.6718363048      1.99e-01   Descent step
    2     -34.7481036844      1.31e-01   Descent step
    3     -34.8010396428      5.10e-02   Normal BFGS step
    4     -34.8079950576      2.76e-02   Normal BFGS step
    5     -34.8147284226      1.65e-02   Normal BFGS step
    6     -34.8171281413      1.65e-02   Normal BFGS step
    7     -34.8184508598      8.21e-03   Normal BFGS step
    8     -34.8192889969      7.55e-03   Normal BFGS step
    9     -34.8196446374      4.63e-03   Normal BFGS step
   10     -34.8195914306      6.49e-03  Line search: overstep
   11     -34.8197982197      2.20e-03   Normal BFGS step
   12     -34.8197956092      3.39e-03  Line search: overstep
   13     -34.8198565321      1.34e-03   Normal BFGS step
   14     -34.8198983375      1.35e-03   Normal BFGS step
   15     -34.8199225325      1.71e-03   Normal BFGS step
   16     -34.8199419201      1.53e-03   Normal BFGS step
   17     -34.8199447333      1.08e-03   Normal BFGS step
   18     -34.8199499213      5.39e-04   Normal BFGS step
   19     -34.8199504548      1.79e-04   Normal BFGS step
   20     -34.8199506937      1.04e-04   Normal BFGS step
   21     -34.8199505789      1.86e-04  Line search: overstep
   22     -34.8199507519      4.17e-05   Normal BFGS step
   23     -34.8199507457      5.71e-05   Normal BFGS step
   24     -34.8199507670      2.57e-05   Normal BFGS step
   25     -34.8199507678      2.09e-05   Normal BFGS step
   26     -34.8199507701      8.77e-06   Normal BFGS step
   27     -34.8199507694      1.35e-05   Normal BFGS step
   28     -34.8199507708      3.29e-06   Normal BFGS step
   29     -34.8199507707      5.15e-06   Normal BFGS step
   30     -34.8199507709      2.34e-06   Normal BFGS step
   31     -34.8199507708      4.17e-06   Normal BFGS step
   32     -34.8199507709      3.70e-07   Normal BFGS step
   33     -34.8199507709      7.10e-07   Normal BFGS step
   34     -34.8199507709      2.27e-07   Normal BFGS step
   35     -34.8199507709      4.90e-07   Normal BFGS step
   36     -34.8199507709      7.42e-08   Normal BFGS step
   37     -34.8199507709      1.70e-07   Normal BFGS step
   38     -34.8199507709      5.19e-08   Normal BFGS step
   39     -34.8199507709      1.10e-07   Normal BFGS step
   40     -34.8199507709      1.29e-08   Normal BFGS step
   41     -34.8199507709      2.78e-08   Normal BFGS step
   42     -34.8199507709      3.96e-09  Convergence criterion met
 ---------------------------------------
 SCF time:   CPU 193377.63s  wall 24465.00s 
<S^2> =          0.000000000
 SCF   energy in the final basis set =      -34.8199507709
 Total energy in the final basis set =      -34.8199507709

 Direct TDDFT/TDA calculation will be performed
 Exchange:  SOGGA11      Correlation:  SOGGA11
 Using Euler-Maclaurin-Lebedev (99,590) quadrature formula
 CIS energy converged when residual is below 10e- 6
 NRoots was altered as:  1 -->  2
 ---------------------------------------------------
 Iter    Rts Conv    Rts Left    Ttl Dev     Max Dev
 ---------------------------------------------------
   1         0           2      0.004273    0.002140
   2         0           2      0.004157    0.002169
   3         0           2      0.001652    0.000859
   4         0           2      0.001053    0.000557
   5         0           2      0.000581    0.000306
   6         0           2      0.000416    0.000221
   7         0           2      0.000415    0.000219
   8         0           2      0.000644    0.000387
   9         0           2      0.000619    0.000366
  10         0           2      0.000339    0.000212
  11         0           2      0.000183    0.000118
  12         0           2      0.000087    0.000056
  13         0           2      0.000052    0.000036
  14         0           2      0.000028    0.000019
  15         0           2      0.000017    0.000013
  16         0           2      0.000008    0.000007
  17         1           1      0.000004    0.000004
  18         1           1      0.000002    0.000001
  19         2           0      0.000001    0.000001    Roots Converged
 ---------------------------------------------------

 ---------------------------------------------------
         TDDFT/TDA Excitation Energies              
 ---------------------------------------------------

 Excited state   1: excitation energy (eV) =    5.2014
 Total energy for state  1:                   -34.62880257 au
    <S**2>     :  0.0000
    Trans. Mom.:  0.0000 X   0.2136 Y  -0.0106 Z
    Strength   :     0.0058306796
    D(    4) --> V(    3) amplitude =  0.1576 alpha
    D(    6) --> V(    1) amplitude =  0.6661 alpha
    D(    4) --> V(    3) amplitude =  0.1577 beta
    D(    6) --> V(    1) amplitude =  0.6663 beta

 Excited state   2: excitation energy (eV) =    5.2068
 Total energy for state  2:                   -34.62860301 au
    <S**2>     :  0.0000
    Trans. Mom.:  0.2101 X  -0.0000 Y  -0.0000 Z
    Strength   :     0.0056312177
    D(    4) --> V(    2) amplitude = -0.1766 alpha
    D(    5) --> V(    1) amplitude =  0.6580 alpha
    D(    4) --> V(    2) amplitude = -0.1766 beta
    D(    5) --> V(    1) amplitude =  0.6581 beta

 ---------------------------------------------------

 Stability analysis will be performed
 ---------------------------------------------------
 Iter    Rts Conv    Rts Left    Ttl Dev     Max Dev
 ---------------------------------------------------
   1         2           2      0.004303    0.001093
   2         2           2      0.002013    0.000754
   3         2           2      0.001646    0.000614
   4         2           2      0.001848    0.000834
   5         2           2      0.001494    0.000670
   6         2           2      0.001122    0.000461
   7         2           2      0.000882    0.000351
   8         2           2      0.000846    0.000358
   9         2           2      0.000708    0.000296
  10         2           2      0.000609    0.000210
  11         2           2      0.000556    0.000174
  12         2           2      0.000507    0.000146
  13         2           2      0.000503    0.000146
  14         2           2      0.000443    0.000146
  15         2           2      0.000412    0.000146
  16         2           2      0.000396    0.000146
  17         2           2      0.000348    0.000146
  18         2           2      0.000320    0.000145
  19         2           2      0.000291    0.000136
  20         2           2      0.000277    0.000133
  21         2           2      0.000270    0.000132
  22         2           2      0.000262    0.000132
  23         2           2      0.000258    0.000131
  24         3           1      0.000259    0.000131
  25         3           1      0.000259    0.000131
  26         3           1      0.000256    0.000131
  27         3           1      0.000255    0.000130
  28         3           1      0.000254    0.000130
  29         4           0      0.000255    0.000130    Roots Converged
 UKS-> UKS   stable,    smallest eigenvalue:      0.1801995
 UKS->CUKS   stable,    smallest eigenvalue:      0.1787457
 ---------------------------------------------------
  SETman timing summary (seconds)
  CPU time            218376.45s
  System time              0.01s
  Wall time            27495.27s

 --------------------------------------------------------------

                    Orbital Energies (a.u.)
 --------------------------------------------------------------

 Alpha MOs
 -- Occupied --
 -6.4427  -1.8937  -0.4474  -0.2626  -0.2624  -0.2624
 -- Virtual --
 -0.0839  -0.0491  -0.0490  -0.0426  -0.0264  -0.0226  -0.0226  -0.0224
 -0.0183  -0.0183  -0.0035  -0.0035  -0.0034   0.0029   0.0065   0.0065
  0.0066   0.0135   0.0174   0.0175   0.0204   0.0204   0.0219   0.0264
  0.0371   0.0371   0.0378   0.0468   0.0469   0.0498   0.0558   0.0558
  0.0574   0.0625   0.0646   0.0648   0.0719   0.0720   0.0734   0.0760
  0.0792   0.0793   0.0818   0.0825   0.0857   0.1099   0.1099   0.1178
  0.1178   0.1199   0.1223   0.1257   0.1257   0.1283   0.1297   0.1331
  0.1332   0.1343   0.1449   0.1475   0.1477   0.1541   0.1607   0.1607
  0.1660   0.1661   0.1736   0.1790   0.1821   0.1822   0.1974   0.1976
  0.2058   0.2058   0.2107   0.2129   0.2219   0.2232   0.2232   0.2301
  0.2407   0.2407   0.2488   0.2488   0.2549   0.2604   0.2609   0.2610
  0.2654   0.2689   0.2690   0.2786   0.2787   0.2791   0.2953   0.2953
  0.2979   0.3079   0.3269   0.3309   0.3309   0.3395   0.3397   0.3443
  0.3538   0.3541   0.3643   0.3643   0.3719   0.3719   0.3742   0.3745
  0.3746   0.3829   0.3892   0.4025   0.4150   0.4150   0.4156   0.4360
  0.4389   0.4391   0.4391   0.4430   0.4589   0.4622   0.4622   0.4895
  0.4951   0.4953   0.4964   0.5135   0.5135   0.5188   0.5188   0.5355
  0.5356   0.5563   0.5605   0.5606   0.5692   0.5847   0.5989   0.5989
  0.6127   0.6127   0.6153   0.6154   0.6202   0.6323   0.6323   0.6488
  0.6488   0.6599   0.6623   0.6763   0.6763   0.6794   0.6794   0.6797
  0.7011   0.7032   0.7033   0.7062   0.7160   0.7160   0.7281   0.7363
  0.7384   0.7384   0.7408   0.7409   0.7752   0.7762   0.7792   0.7863
  0.7863   0.8002   0.8016   0.8016   0.8224   0.8225   0.8420   0.8526
  0.8526   0.8559   0.8560   0.8644   0.8742   0.8764   0.8787   0.8788
  0.8938   0.8939   0.9055   0.9114   0.9114   0.9170   0.9195   0.9195
  0.9352   0.9461   0.9461   0.9466   0.9494   0.9494   0.9598   1.0177
  1.0197   1.0197   1.0525   1.0857   1.0857   1.1184   1.1184   1.1236
  1.1813   1.1827   1.1983   1.1983   1.2360   1.2643   1.2643   1.3125
  1.3125   1.3167   1.3167   1.3216   1.3388   1.4077   1.4293   1.4293
  1.4537   1.4840   1.4840   1.5248   1.5248   1.5338   1.5445   1.5445
  1.5449   1.5976   1.5976   1.6016   1.6254   1.6254   1.6612   1.6612
  1.6667   1.7179   1.7179   1.7186   1.7776   1.7776   1.7951   1.8143
  1.8143   1.8455   1.8455   1.8518   1.9109   1.9688   1.9688   1.9987
  2.0457   2.0792   2.1009   2.1268   2.1268   2.1693   2.1693   2.1781
  2.2371   2.2371   2.3197   2.3407   2.3407   2.3527   2.3527   2.4440
  2.4926   2.5207   2.5378   2.6404   2.6404   2.7104   2.7104   2.7214
  2.7905   2.7905   2.8551   2.8668   2.9205   2.9205   3.0116   3.0116
  3.0309   3.0652   3.1135   3.1143   3.1143   3.2128   3.2128   3.2510
  3.2511   3.2666   3.2920   3.4201   3.4201   3.4368   3.4368   3.4886
  3.4886   3.5155   3.5763   3.5764   3.5981   3.6183   3.7292   3.7293
  3.7293   3.7634   3.7634   3.8298   3.8669   3.8669   3.8691   3.8958
  3.9404   3.9404   3.9848   3.9848   4.0186   4.0424   4.0424   4.1144
  4.1533   4.1615   4.1615   4.1963   4.2469   4.2657   4.2657   4.3209
  4.3209   4.3363   4.3579   4.3579   4.4507   4.4640   4.4746   4.4746
  4.6912   4.6912   4.7805   4.7805   4.8427   4.8427   4.8561   4.8999
  5.0308   5.0335   5.0335   5.0594   5.1893   5.2170   5.2170   5.3680
  5.4058   5.4567   5.4567   5.5773   5.5773   5.6493   5.6493   5.7554
  5.8831   5.8831   5.9129   6.0080   6.1893   6.1893   6.2203   6.2203
  6.3109   6.3786   6.4238   6.4238   6.4616   6.5740   6.5740   6.7850
  6.7850   7.0529   8.1226   8.1226   8.3540   8.5217   8.6366   8.6366
  8.6975   8.6975   8.7300   8.8350   8.8350   8.8870   8.8874   8.8874
  8.9997   9.0152   9.0152   9.0639   9.0640   9.1144   9.1145   9.1331
  9.1634   9.2746   9.2846   9.2846   9.4435   9.4435   9.5238   9.6048
  9.6048   9.7525   9.8828   9.8829   9.9700  10.0350  10.0644  10.0644
 10.1141  10.1678  10.1805  10.1806  10.2459  10.2459  10.3821  10.3821
 10.6898  10.7151  10.7437  10.7437  10.9088  10.9088  10.9499  11.1834
 11.1834  11.2898  11.3773  11.4062  11.4171  11.4171  11.5545  11.5546
 11.8954  11.9578  11.9578  11.9669  12.4745  12.5544  12.5544  12.5602
 12.6876  12.6876  12.6879  12.7731  12.7919  12.8337  12.8337  13.0264
 13.0264  13.0304  13.1080  13.1417  13.1418  13.1898  13.1898  13.4082
 13.4083  13.5161  13.6260  13.6413  13.6513  13.6513  14.2386  14.2571
 14.2573  14.6724  14.7763  14.7763  15.8384  15.8386  16.2473  16.7567
 16.7926  16.7948  16.7948  16.8112  16.8112  16.8298  16.8298  16.8302
 16.9795  16.9795  17.0349  17.0350  17.0669  17.0781  17.1560  17.5561
 17.6224  17.6224  17.7527  17.7880  17.7880  18.0460  18.0460  18.8223
 18.8285  18.8285  19.1221  19.2457  19.2459  19.3765  19.5682  19.5683
 19.6096  19.7216  19.7217  21.0874  21.1636  21.1637  22.5032  22.5971
 22.5972  23.5526  23.6567  23.6568  23.7373  23.7373  23.9043  23.9043
 23.9050  24.5874  24.9184  24.9185  25.2237  40.9337  40.9498  40.9499
 41.1758  80.1639  91.2427  91.3100  91.3101  91.3671  91.3671  91.4845
 91.4876  91.4876  91.8888  92.1423  92.1424  92.3325

 Beta MOs
 -- Occupied --
 -6.4427  -1.8937  -0.4474  -0.2626  -0.2624  -0.2624
 -- Virtual --
 -0.0839  -0.0491  -0.0490  -0.0426  -0.0264  -0.0226  -0.0226  -0.0224
 -0.0183  -0.0183  -0.0035  -0.0035  -0.0034   0.0029   0.0065   0.0065
  0.0066   0.0135   0.0174   0.0175   0.0204   0.0204   0.0219   0.0264
  0.0371   0.0371   0.0378   0.0468   0.0469   0.0498   0.0558   0.0558
  0.0574   0.0625   0.0646   0.0648   0.0719   0.0720   0.0734   0.0760
  0.0792   0.0793   0.0818   0.0825   0.0857   0.1099   0.1099   0.1178
  0.1178   0.1199   0.1223   0.1257   0.1257   0.1283   0.1297   0.1331
  0.1332   0.1343   0.1449   0.1475   0.1477   0.1541   0.1607   0.1607
  0.1660   0.1661   0.1736   0.1790   0.1821   0.1822   0.1974   0.1976
  0.2058   0.2058   0.2107   0.2129   0.2219   0.2232   0.2232   0.2301
  0.2407   0.2407   0.2488   0.2488   0.2549   0.2604   0.2609   0.2610
  0.2654   0.2689   0.2690   0.2786   0.2787   0.2791   0.2953   0.2953
  0.2979   0.3079   0.3269   0.3309   0.3309   0.3395   0.3397   0.3443
  0.3538   0.3541   0.3643   0.3643   0.3719   0.3719   0.3742   0.3745
  0.3746   0.3829   0.3892   0.4025   0.4150   0.4150   0.4156   0.4360
  0.4389   0.4391   0.4391   0.4430   0.4589   0.4622   0.4622   0.4895
  0.4951   0.4953   0.4964   0.5135   0.5135   0.5188   0.5188   0.5355
  0.5356   0.5563   0.5605   0.5606   0.5692   0.5847   0.5989   0.5989
  0.6127   0.6127   0.6153   0.6154   0.6202   0.6323   0.6323   0.6488
  0.6488   0.6599   0.6623   0.6763   0.6763   0.6794   0.6794   0.6797
  0.7011   0.7032   0.7033   0.7062   0.7160   0.7160   0.7281   0.7363
  0.7384   0.7384   0.7408   0.7409   0.7752   0.7762   0.7792   0.7863
  0.7863   0.8002   0.8016   0.8016   0.8224   0.8225   0.8420   0.8526
  0.8526   0.8559   0.8560   0.8644   0.8742   0.8764   0.8787   0.8788
  0.8938   0.8939   0.9055   0.9114   0.9114   0.9170   0.9195   0.9195
  0.9352   0.9461   0.9461   0.9466   0.9494   0.9494   0.9598   1.0177
  1.0197   1.0197   1.0525   1.0857   1.0857   1.1184   1.1184   1.1236
  1.1813   1.1827   1.1983   1.1983   1.2360   1.2643   1.2643   1.3125
  1.3125   1.3167   1.3167   1.3216   1.3388   1.4077   1.4293   1.4293
  1.4537   1.4840   1.4840   1.5248   1.5248   1.5338   1.5445   1.5445
  1.5449   1.5976   1.5976   1.6016   1.6254   1.6254   1.6612   1.6612
  1.6667   1.7179   1.7179   1.7186   1.7776   1.7776   1.7951   1.8143
  1.8143   1.8455   1.8455   1.8518   1.9109   1.9688   1.9688   1.9987
  2.0457   2.0792   2.1009   2.1268   2.1268   2.1693   2.1693   2.1781
  2.2371   2.2371   2.3197   2.3407   2.3407   2.3527   2.3527   2.4440
  2.4926   2.5207   2.5378   2.6404   2.6404   2.7104   2.7104   2.7214
  2.7905   2.7905   2.8551   2.8668   2.9205   2.9205   3.0116   3.0116
  3.0309   3.0652   3.1135   3.1143   3.1143   3.2128   3.2128   3.2510
  3.2511   3.2666   3.2920   3.4201   3.4201   3.4368   3.4368   3.4886
  3.4886   3.5155   3.5763   3.5764   3.5981   3.6183   3.7292   3.7293
  3.7293   3.7634   3.7634   3.8298   3.8669   3.8669   3.8691   3.8958
  3.9404   3.9404   3.9848   3.9848   4.0186   4.0424   4.0424   4.1144
  4.1533   4.1615   4.1615   4.1963   4.2469   4.2657   4.2657   4.3209
  4.3209   4.3363   4.3579   4.3579   4.4507   4.4640   4.4746   4.4746
  4.6912   4.6912   4.7805   4.7805   4.8427   4.8427   4.8561   4.8999
  5.0308   5.0335   5.0335   5.0594   5.1893   5.2170   5.2170   5.3680
  5.4058   5.4567   5.4567   5.5773   5.5773   5.6493   5.6493   5.7554
  5.8831   5.8831   5.9129   6.0080   6.1893   6.1893   6.2203   6.2203
  6.3109   6.3786   6.4238   6.4238   6.4616   6.5740   6.5740   6.7850
  6.7850   7.0529   8.1226   8.1226   8.3540   8.5217   8.6366   8.6366
  8.6975   8.6975   8.7300   8.8350   8.8350   8.8870   8.8874   8.8874
  8.9997   9.0152   9.0152   9.0639   9.0640   9.1144   9.1145   9.1331
  9.1634   9.2746   9.2846   9.2846   9.4435   9.4435   9.5238   9.6048
  9.6048   9.7525   9.8828   9.8829   9.9700  10.0350  10.0644  10.0644
 10.1141  10.1678  10.1805  10.1806  10.2459  10.2459  10.3821  10.3821
 10.6898  10.7151  10.7437  10.7437  10.9088  10.9088  10.9499  11.1834
 11.1834  11.2898  11.3773  11.4062  11.4171  11.4171  11.5545  11.5546
 11.8954  11.9578  11.9578  11.9669  12.4745  12.5544  12.5544  12.5602
 12.6876  12.6876  12.6879  12.7731  12.7919  12.8337  12.8337  13.0264
 13.0264  13.0304  13.1080  13.1417  13.1418  13.1898  13.1898  13.4082
 13.4083  13.5161  13.6260  13.6413  13.6513  13.6513  14.2386  14.2571
 14.2573  14.6724  14.7763  14.7763  15.8384  15.8386  16.2473  16.7567
 16.7926  16.7948  16.7948  16.8112  16.8112  16.8298  16.8298  16.8302
 16.9795  16.9795  17.0349  17.0350  17.0669  17.0781  17.1560  17.5561
 17.6224  17.6224  17.7527  17.7880  17.7880  18.0460  18.0460  18.8223
 18.8285  18.8285  19.1221  19.2457  19.2459  19.3765  19.5682  19.5683
 19.6096  19.7216  19.7217  21.0874  21.1636  21.1637  22.5032  22.5971
 22.5972  23.5526  23.6567  23.6568  23.7373  23.7373  23.9043  23.9043
 23.9050  24.5874  24.9184  24.9185  25.2237  40.9337  40.9498  40.9499
 41.1758  80.1639  91.2427  91.3100  91.3101  91.3671  91.3671  91.4845
 91.4876  91.4876  91.8888  92.1423  92.1424  92.3325
 --------------------------------------------------------------

          Ground-State Mulliken Net Atomic Charges

     Atom                 Charge (a.u.)    Spin (a.u.)
  --------------------------------------------------------
      1 Li                   -0.511339       0.000000
      2 B                     6.657763       0.000000
      3 H                    -4.637705       0.000000
      4 H                    -0.502947       0.000000
      5 H                    -0.502886       0.000000
      6 H                    -0.502886       0.000000
  --------------------------------------------------------
  Sum of atomic charges =     0.000000
  Sum of spin   charges =     0.000000

 -----------------------------------------------------------------
                    Cartesian Multipole Moments
 -----------------------------------------------------------------
    Charge (ESU x 10^10)
                 0.0000
    Dipole Moment (Debye)
         X       0.0000      Y      -0.0001      Z      -5.9559
       Tot       5.9559
    Quadrupole Moments (Debye-Ang)
        XX     -14.4582     XY      -0.0000     YY     -14.4583
        XZ       0.0000     YZ       0.0000     ZZ      -5.1960
    Octopole Moments (Debye-Ang^2)
       XXX       0.0000    XXY       0.7537    XYY       0.0000
       YYY      -0.7545    XXZ      -3.2901    XYZ       0.0000
       YYZ      -3.2901    XZZ       0.0000    YZZ      -0.0002
       ZZZ     -27.4045
    Hexadecapole Moments (Debye-Ang^3)
      XXXX     -39.3229   XXXY      -0.0000   XXYY     -13.1075
      XYYY      -0.0000   YYYY     -39.3220   XXXZ       0.0000
      XXYZ      -0.1495   XYYZ       0.0000   YYYZ       0.1496
      XXZZ     -16.6970   XYZZ      -0.0000   YYZZ     -16.6969
      XZZZ       0.0000   YZZZ       0.0001   ZZZZ     -42.4476
 -----------------------------------------------------------------
Archival summary:
1\1\n0067.mhg0\SP\ProcedureUnspecified\BasisUnspecified\1i14\yhljason\WedSep214:53:482020WedSep214:53:482020\0\\#,ProcedureUnspecified,BasisUnspecified,\\0,1\B\H,1,1.191\H,1,1.23975,2,113.085\H,1,1.23975,2,113.085,3,-120.004,0\H,1,1.23977,2,113.085,3,119.998,0\Li,3,1.84477,1,74.8988,2,180,0\\\@

 Total job time:  51967.50s(wall), 411790.55s(cpu) 
 Wed Sep  2 14:53:48 2020

        *************************************************************
        *                                                           *
        *  Thank you very much for using Q-Chem.  Have a nice day.  *
        *                                                           *
        *************************************************************


