                  Welcome to Q-Chem
     A Quantum Leap Into The Future Of Chemistry


 Q-Chem 5.3 (devel), Q-Chem, Inc., Pleasanton, CA (2020)

 Yihan Shao,  Zhengting Gan,  E. Epifanovsky,  A. T. B. Gilbert,  M. Wormit,  
 J. Kussmann,  A. W. Lange,  A. Behn,  Jia Deng,  Xintian Feng,  D. Ghosh,  
 M. Goldey,  P. R. Horn,  L. D. Jacobson,  I. Kaliman,  T. Kus,  A. Landau,  
 Jie Liu,  E. I. Proynov,  R. M. Richard,  R. P. Steele,  E. J. Sundstrom,  
 H. L. Woodcock III,  P. M. Zimmerman,  D. Zuev,  B. Alam,  B. Albrecht,  
 E. Alguire,  S. A. Baeppler,  D. Barton,  Z. Benda,  Y. A. Bernard,  
 E. J. Berquist,  K. B. Bravaya,  H. Burton,  K. Carter-Fenk,  D. Casanova,  
 Chun-Min Chang,  Yunqing Chen,  A. Chien,  K. D. Closser,  M. P. Coons,  
 S. Coriani,  S. Dasgupta,  A. L. Dempwolff,  M. Diedenhofen,  Hainam Do,  
 R. G. Edgar,  Po-Tung Fang,  S. Faraji,  S. Fatehi,  Qingguo Feng,  
 J. Fosso-Tande,  J. Gayvert,  Qinghui Ge,  A. Ghysels,  G. Gidofalvi,  
 J. Gomes,  J. Gonthier,  A. Gunina,  D. Hait,  M. W. D. Hanson-Heine,  
 P. H. P. Harbach,  A. W. Hauser,  M. F. Herbst,  J. E. Herr,  
 E. G. Hohenstein,  Z. C. Holden,  Kerwin Hui,  B. C. Huynh,  T.-C. Jagau,  
 Hyunjun Ji,  B. Kaduk,  K. Khistyaev,  Jaehoon Kim,  P. Klunzinger,  K. Koh,  
 D. Kosenkov,  L. Koulias,  T. Kowalczyk,  C. M. Krauter,  A. Kunitsa,  
 Ka Un Lao,  A. Laurent,  K. V. Lawler,  Joonho Lee,  D. Lefrancois,  
 S. Lehtola,  D. S. Levine,  Yi-Pei Li,  You-Sheng Lin,  Fenglai Liu,  
 Kuan-Yu Liu,  E. Livshits,  M. Loipersberger,  A. Luenser,  P. Manohar,  
 E. Mansoor,  S. F. Manzer,  Shan-Ping Mao,  Yuezhi Mao,  N. Mardirossian,  
 A. V. Marenich,  T. Markovich,  L. A. Martinez-Martinez,  S. A. Maurer,  
 N. J. Mayhall,  S. C. McKenzie,  J.-M. Mewes,  P. Morgante,  A. F. Morrison,  
 J. W. Mullinax,  K. Nanda,  T. S. Nguyen-Beck,  R. Olivares-Amaya,  
 K. J. Oosterbaan,  J. A. Parkhill,  S. K. Paul,  F. Pavosevic,  Zheng Pei,  
 T. M. Perrine,  F. Plasser,  P. Pokhilko,  S. Prager,  A. Prociuk,  
 E. Ramos,  B. Rana,  D. R. Rehn,  F. Rob,  M. Scheurer,  M. Schneider,  
 N. Sergueev,  S. M. Sharada,  S. Sharma,  D. W. Small,  T. Stauch,  
 C. J. Stein,  T. Stein,  Yu-Chuan Su,  S. P. Veccham,  Zhen Tao,  
 A. J. W. Thom,  A. Tkatchenko,  T. Tsuchimochi,  N. M. Tubman,  L. Vogt,  
 M. L. Vidal,  O. Vydrov,  M. A. Watson,  J. Wenzel,  M. de Wergifosse,  
 T. A. Wesolowski,  A. White,  J. Witte,  A. Yamada,  Jun Yang,  K. Yao,  
 S. Yeganeh,  S. R. Yost,  Zhi-Qiang You,  A. Zech,  Igor Ying Zhang,  
 Xing Zhang,  Yan Zhao,  Ying Zhu,  B. R. Brooks,  G. K. L. Chan,  
 C. J. Cramer,  M. S. Gordon,  W. J. Hehre,  A. Klamt,  M. W. Schmidt,  
 C. D. Sherrill,  D. G. Truhlar,  A. Aspuru-Guzik,  R. Baer,  A. T. Bell,  
 N. A. Besley,  Jeng-Da Chai,  A. E. DePrince, III,  R. A. DiStasio Jr.,  
 A. Dreuw,  B. D. Dunietz,  T. R. Furlani,  Chao-Ping Hsu,  Yousung Jung,  
 Jing Kong,  D. S. Lambrecht,  WanZhen Liang,  C. Ochsenfeld,  
 V. A. Rassolov,  L. V. Slipchenko,  J. E. Subotnik,  T. Van Voorhis,  
 J. M. Herbert,  A. I. Krylov,  P. M. W. Gill,  M. Head-Gordon

 Contributors to earlier versions of Q-Chem not listed above: 
 R. D. Adamson,  B. Austin,  J. Baker,  G. J. O. Beran,  K. Brandhorst,  
 S. T. Brown,  E. F. C. Byrd,  A. K. Chakraborty,  C.-L. Cheng,  
 Siu Hung Chien,  D. M. Chipman,  D. L. Crittenden,  H. Dachsel,  
 R. J. Doerksen,  A. D. Dutoi,  L. Fusti-Molnar,  W. A. Goddard III,  
 A. Golubeva-Zadorozhnaya,  S. R. Gwaltney,  G. Hawkins,  A. Heyden,  
 S. Hirata,  G. Kedziora,  F. J. Keil,  C. Kelley,  Jihan Kim,  R. A. King,  
 R. Z. Khaliullin,  P. P. Korambath,  W. Kurlancheek,  A. M. Lee,  M. S. Lee,  
 S. V. Levchenko,  Ching Yeh Lin,  D. Liotard,  R. C. Lochan,  I. Lotan,  
 P. E. Maslen,  N. Nair,  D. P. O'Neill,  D. Neuhauser,  E. Neuscamman,  
 C. M. Oana,  R. Olson,  B. Peters,  R. Peverati,  P. A. Pieniazek,  
 Y. M. Rhee,  J. Ritchie,  M. A. Rohrdanz,  E. Rosta,  N. J. Russ,  
 H. F. Schaefer III,  N. E. Schultz,  N. Shenvi,  A. C. Simmonett,  A. Sodt,  
 D. Stuck,  K. S. Thanthiriwatte,  V. Vanovschi,  Tao Wang,  A. Warshel,  
 C. F. Williams,  Q. Wu,  X. Xu,  W. Zhang

 Please cite Q-Chem as follows:
 Y. Shao et al., Mol. Phys. 113, 184-215 (2015)
 DOI: 10.1080/00268976.2014.952696

 Q-Chem 5.3.0 for Intel X86 EM64T Linux

 Parts of Q-Chem use Armadillo 9.800.1 (Horizon Scraper).
 http://arma.sourceforge.net/

 Q-Chem begins on Wed Sep  2 00:27:41 2020  

n0070.mhg0
Host: 0

     Scratch files written to /local/scratch/users/yhljason/N_SOGGA11_aug-pc-4.inp20200901183415//
Processing $rem in /clusterfs/mhg/diptarka/qchem_transmom//config/preferences:
Processing $rem in /global/home/users/yhljason/.qchemrc:

Checking the input file for inconsistencies... 	...done.

--------------------------------------------------------------
User input:
--------------------------------------------------------------
$molecule
0 4
N
$end

$rem
jobtype sp
method sogga11
xc_grid 000099000590
basis aug-pc-4
max_scf_cycles 200
thresh 14
scf_convergence 8
scf_algorithm gdm
gen_scfman false
stability_analysis true
symmetry false
sym_ignore true
unrestricted true
gen_scfman true
mem_total 64000
mem_static 1500
n_frozen_core 0
max_cis_cycles 200
$end
--------------------------------------------------------------
 ----------------------------------------------------------------
             Standard Nuclear Orientation (Angstroms)
    I     Atom           X                Y                Z
 ----------------------------------------------------------------
    1      N       0.0000000000     0.0000000000     0.0000000000
 ----------------------------------------------------------------
 Nuclear Repulsion Energy =           0.00000000 hartrees
 There are        5 alpha and        2 beta electrons
 Requested basis set is aug-pc-4
 There are 33 shells and 145 basis functions

 Total QAlloc Memory Limit  64000 MB
 Mega-Array Size      1467 MB
 MEM_STATIC part      1500 MB
 A cutoff of  1.0D-14 yielded    561 shell pairs
 There are     10981 function pairs (     21547 Cartesian)
 Smallest overlap matrix eigenvalue = 8.45E-04

 Scale SEOQF with 1.000000e-01/1.000000e-01/1.000000e-01

 Standard Electronic Orientation quadrupole field applied
 Guess from superposition of atomic densities
 Warning:  Energy on first SCF cycle will be non-variational
 SAD guess density has 7.000000 electrons

 -----------------------------------------------------------------------
  General SCF calculation program by
  Eric Jon Sundstrom, Paul Horn, Yuezhi Mao, Dmitri Zuev, Alec White,
  David Stuck, Shaama M.S., Shane Yost, Joonho Lee, David Small,
  Daniel Levine, Susi Lehtola, Hugh Burton, Evgeny Epifanovsky,
  Bang C. Huynh
 -----------------------------------------------------------------------
 Exchange:  SOGGA11      Correlation:  SOGGA11
 Using Euler-Maclaurin-Lebedev (99,590) quadrature formula
 A unrestricted SCF calculation will be
 performed using Roothaan-Hall, GDM
 SCF converges when RMS gradient is below 1.0e-08
 ---------------------------------------
  Cycle       Energy         DIIS error
 ---------------------------------------
    1     -54.4591883505      3.01e-03  Roothaan Step
 ---------------------------------------
  Cycle       Energy        RMS Gradient
 ---------------------------------------
    1     -54.6005258000      7.93e-02   Normal BFGS step
    2     -54.6111130824      5.15e-02   Normal BFGS step
    3     -54.6166946336      1.39e-02   Normal BFGS step
    4     -54.6168420169      1.38e-02   Normal BFGS step
    5     -54.6169259412      3.98e-03   Normal BFGS step
    6     -54.6169400965      6.48e-04   Normal BFGS step
    7     -54.6169407891      3.28e-04   Normal BFGS step
    8     -54.6169409866      1.75e-05   Normal BFGS step
    9     -54.6169409876      4.10e-06   Normal BFGS step
   10     -54.6169409877      8.29e-07   Normal BFGS step
   11     -54.6169409877      1.58e-07   Normal BFGS step
   12     -54.6169409877      4.10e-08   Normal BFGS step
   13     -54.6169409877      1.40e-08   Normal BFGS step
   14     -54.6169409877      7.67e-09  Convergence criterion met
 ---------------------------------------
 SCF time:   CPU 588.17s  wall 83.00s 
<S^2> =          3.757710705
 SCF   energy in the final basis set =      -54.6169409877
 Total energy in the final basis set =      -54.6169409877

 Q-Chem warning in module /clusterfs/mhg/diptarka/qchem_transmom/libsym/oriorb.F, line  198:

 OriOrb: Failure to resolve orbital degeneracies.


 Q-Chem warning in module /clusterfs/mhg/diptarka/qchem_transmom/libsym/oriorb.F, line  198:

 OriOrb: Failure to resolve orbital degeneracies.


 Direct TDDFT/TDA calculation will be performed
 Exchange:  SOGGA11      Correlation:  SOGGA11
 Using Euler-Maclaurin-Lebedev (99,590) quadrature formula
 CIS energy converged when residual is below 10e- 6
 NRoots was altered as:  1 -->  9
 ---------------------------------------------------
 Iter    Rts Conv    Rts Left    Ttl Dev     Max Dev
 ---------------------------------------------------
   1         3           6      0.003692    0.001895
   2         3           6      0.001082    0.000730
   3         3           6      0.000197    0.000133
   4         3           6      0.000039    0.000024
   5         8           1      0.000011    0.000008
   6         8           1      0.000005    0.000001
   7         9           0      0.000004    0.000001    Roots Converged
 ---------------------------------------------------

 ---------------------------------------------------
         TDDFT/TDA Excitation Energies              
 ---------------------------------------------------

 Excited state   1: excitation energy (eV) =    7.2961
 Total energy for state  1:                   -54.34881311 au
    <S**2>     :  3.7577
    Trans. Mom.: -0.0000 X   0.0000 Y   0.0000 Z
    Strength   :     0.0000000000
    S(    2) --> V(    1) amplitude =  0.6728 alpha
    S(    2) --> V(    2) amplitude = -0.1728 alpha
    S(    3) --> V(    1) amplitude = -0.2155 alpha
    S(    3) --> V(    2) amplitude = -0.5874 alpha
    S(    3) --> V(    3) amplitude = -0.3292 alpha

 Excited state   2: excitation energy (eV) =    7.2961
 Total energy for state  2:                   -54.34881311 au
    <S**2>     :  3.7577
    Trans. Mom.: -0.0000 X  -0.0000 Y  -0.0000 Z
    Strength   :     0.0000000000
    S(    1) --> V(    1) amplitude =  0.6352 alpha
    S(    1) --> V(    2) amplitude = -0.2630 alpha
    S(    1) --> V(    3) amplitude = -0.1653 alpha
    S(    3) --> V(    2) amplitude = -0.3445 alpha
    S(    3) --> V(    3) amplitude =  0.6089 alpha

 Excited state   3: excitation energy (eV) =    7.2961
 Total energy for state  3:                   -54.34881311 au
    <S**2>     :  3.7577
    Trans. Mom.: -0.0000 X   0.0000 Y   0.0000 Z
    Strength   :     0.0000000000
    S(    1) --> V(    1) amplitude =  0.3102 alpha
    S(    1) --> V(    2) amplitude =  0.5562 alpha
    S(    1) --> V(    3) amplitude =  0.3069 alpha
    S(    2) --> V(    2) amplitude = -0.3484 alpha
    S(    2) --> V(    3) amplitude =  0.6061 alpha

 Excited state   4: excitation energy (eV) =    7.4067
 Total energy for state  4:                   -54.34475157 au
    <S**2>     :  3.7579
    Trans. Mom.: -0.0000 X   0.0000 Y   0.0000 Z
    Strength   :     0.0000000000
    S(    1) --> V(    2) amplitude = -0.1919 alpha
    S(    1) --> V(    3) amplitude =  0.3057 alpha
    S(    2) --> V(    1) amplitude = -0.4325 alpha
    S(    2) --> V(    2) amplitude = -0.2174 alpha
    S(    3) --> V(    1) amplitude =  0.5545 alpha
    S(    3) --> V(    2) amplitude = -0.5297 alpha
    S(    3) --> V(    3) amplitude = -0.1662 alpha

 Excited state   5: excitation energy (eV) =    7.4067
 Total energy for state  5:                   -54.34475157 au
    <S**2>     :  3.7579
    Trans. Mom.: -0.0000 X  -0.0000 Y   0.0000 Z
    Strength   :     0.0000000000
    S(    1) --> V(    1) amplitude = -0.3526 alpha
    S(    1) --> V(    2) amplitude =  0.5334 alpha
    S(    2) --> V(    2) amplitude = -0.2268 alpha
    S(    2) --> V(    3) amplitude = -0.4984 alpha
    S(    3) --> V(    1) amplitude =  0.1654 alpha
    S(    3) --> V(    3) amplitude =  0.4996 alpha

 Excited state   6: excitation energy (eV) =    7.4067
 Total energy for state  6:                   -54.34475157 au
    <S**2>     :  3.7579
    Trans. Mom.:  0.0000 X  -0.0000 Y  -0.0000 Z
    Strength   :     0.0000000000
    S(    1) --> V(    1) amplitude =  0.3400 alpha
    S(    1) --> V(    2) amplitude =  0.3047 alpha
    S(    1) --> V(    3) amplitude =  0.5458 alpha
    S(    2) --> V(    2) amplitude =  0.5600 alpha
    S(    2) --> V(    3) amplitude = -0.3840 alpha
    S(    3) --> V(    3) amplitude = -0.1791 alpha

 Excited state   7: excitation energy (eV) =    7.4067
 Total energy for state  7:                   -54.34475157 au
    <S**2>     :  3.7579
    Trans. Mom.:  0.0000 X   0.0000 Y  -0.0000 Z
    Strength   :     0.0000000000
    S(    1) --> V(    1) amplitude =  0.1713 alpha
    S(    1) --> V(    2) amplitude = -0.2742 alpha
    S(    1) --> V(    3) amplitude =  0.2350 alpha
    S(    2) --> V(    1) amplitude =  0.5116 alpha
    S(    2) --> V(    2) amplitude = -0.2331 alpha
    S(    3) --> V(    1) amplitude =  0.5589 alpha
    S(    3) --> V(    2) amplitude =  0.4544 alpha

 Excited state   8: excitation energy (eV) =    7.4067
 Total energy for state  8:                   -54.34475157 au
    <S**2>     :  3.7579
    Trans. Mom.: -0.0000 X   0.0000 Y   0.0000 Z
    Strength   :     0.0000000000
    S(    1) --> V(    1) amplitude =  0.4618 alpha
    S(    1) --> V(    2) amplitude =  0.2256 alpha
    S(    1) --> V(    3) amplitude = -0.4220 alpha
    S(    2) --> V(    1) amplitude = -0.2382 alpha
    S(    2) --> V(    2) amplitude = -0.3854 alpha
    S(    2) --> V(    3) amplitude = -0.3649 alpha
    S(    3) --> V(    3) amplitude = -0.4415 alpha

 Excited state   9: excitation energy (eV) =    7.7853
 Total energy for state  9:                   -54.33083553 au
    <S**2>     :  3.7591
    Trans. Mom.: -0.0000 X   0.0000 Y   0.0000 Z
    Strength   :     0.0000000000
    S(    1) --> V(    2) amplitude =  0.2830 alpha
    S(    1) --> V(    3) amplitude = -0.4998 alpha
    S(    2) --> V(    1) amplitude =  0.1751 alpha
    S(    2) --> V(    2) amplitude =  0.4781 alpha
    S(    2) --> V(    3) amplitude =  0.2662 alpha
    S(    3) --> V(    1) amplitude =  0.5471 alpha

 ---------------------------------------------------

 Stability analysis will be performed
 ---------------------------------------------------
 Iter    Rts Conv    Rts Left    Ttl Dev     Max Dev
 ---------------------------------------------------
   1        12           6      0.005800    0.001167
   2        12           6      0.001561    0.000781
   3        12           6      0.000755    0.000326
   4        12           6      0.000409    0.000147
   5        12           6      0.000261    0.000110
   6        12           6      0.000158    0.000110
   7        12           6      0.000139    0.000107
   8        17           1      0.000127    0.000109
   9        18           0      0.000096    0.000081    Roots Converged
 UKS-> UKS   stable,    smallest eigenvalue:      0.2681279
 UKS->CUKS   stable,    smallest eigenvalue:      0.2681279
 ---------------------------------------------------
  SETman timing summary (seconds)
  CPU time               609.28s
  System time              0.00s
  Wall time               84.85s

 --------------------------------------------------------------

                    Orbital Energies (a.u.)
 --------------------------------------------------------------

 Alpha MOs
 -- Occupied --
-14.1329  -0.7240  -0.3084  -0.3084  -0.3084
 -- Virtual --
 -0.0403  -0.0403  -0.0403  -0.0195   0.1066   0.1512   0.1512   0.1512
  0.1554   0.1554   0.1554   0.1554   0.1554   0.3541   0.3541   0.3541
  0.3541   0.3541   0.3541   0.3541   0.3750   0.3750   0.3750   0.3750
  0.3750   0.4330   0.4330   0.4330   0.5896   0.5896   0.5896   0.5896
  0.5896   0.5896   0.5896   0.5896   0.5896   0.8689   0.8689   0.8689
  0.8689   0.8689   0.8689   0.8689   0.8689   0.8689   0.8689   0.8689
  0.9055   1.0985   1.0985   1.0985   1.0985   1.0985   1.2503   1.2503
  1.2503   1.5862   1.5862   1.5862   1.5862   1.5862   1.5862   1.5862
  2.7075   2.7784   2.7784   2.7784   2.7784   2.7784   3.4427   3.4427
  3.4427   4.3269   4.3269   4.3269   4.3269   4.3269   4.3269   4.3269
  4.9000   4.9000   4.9000   4.9000   4.9000   4.9000   4.9000   4.9000
  4.9000   6.6523   6.6523   6.6523   6.6523   6.6523   7.2220   8.6245
  8.6245   8.6245  11.0058  11.0058  11.0058  11.0058  11.0058  11.0058
 11.0058  11.2366  11.2366  11.2366  11.2366  11.2366  11.2366  11.2366
 11.2366  11.2366  11.2366  11.2366  14.1169  14.1169  14.1169  14.1169
 14.1169  14.1169  14.1169  14.1169  14.1169  16.5205  16.5205  16.5205
 16.5205  16.5205  20.4654  25.5852  25.5852  25.5852  47.2826  47.2826
 47.2826  47.2826  47.2826 100.2939

 Beta MOs
 -- Occupied --
-14.0601  -0.5442
 -- Virtual --
 -0.1429  -0.1429  -0.1429  -0.1241  -0.0789  -0.0789  -0.0789  -0.0093
 -0.0093  -0.0093  -0.0093  -0.0093   0.0659   0.0659   0.0659   0.2274
  0.2428   0.2428   0.2428   0.2428   0.2428   0.2428   0.2428   0.4454
  0.4454   0.4454   0.4454   0.4454   0.4539   0.4539   0.4539   0.4610
  0.4610   0.4610   0.4610   0.4610   0.4610   0.4610   0.4610   0.4610
  0.7213   0.7213   0.7213   0.7213   0.7213   0.7213   0.7213   0.7213
  0.7213   0.7213   0.7213   0.8833   1.4220   1.4220   1.4220   1.4220
  1.4220   1.6245   1.6245   1.6245   1.6245   1.6245   1.6245   1.6245
  1.6485   1.6485   1.6485   2.6403   2.9023   2.9023   2.9023   2.9023
  2.9023   3.5390   3.5390   3.5390   4.3507   4.3507   4.3507   4.3507
  4.3507   4.3507   4.3507   5.0382   5.0382   5.0382   5.0382   5.0382
  5.0382   5.0382   5.0382   5.0382   6.7956   6.7956   6.7956   6.7956
  6.7956   7.4605   8.8522   8.8522   8.8522  11.2000  11.2000  11.2000
 11.2000  11.2000  11.2000  11.2000  11.3952  11.3952  11.3952  11.3952
 11.3952  11.3952  11.3952  11.3952  11.3952  11.3952  11.3952  14.3574
 14.3574  14.3574  14.3574  14.3574  14.3574  14.3574  14.3574  14.3574
 16.9067  16.9067  16.9067  16.9067  16.9067  20.7845  25.6571  25.6571
 25.6571  47.4141  47.4141  47.4141  47.4141  47.4141 100.3216
 --------------------------------------------------------------

          Ground-State Mulliken Net Atomic Charges

     Atom                 Charge (a.u.)    Spin (a.u.)
  --------------------------------------------------------
      1 N                     0.000000       3.000000
  --------------------------------------------------------
  Sum of atomic charges =     0.000000
  Sum of spin   charges =     3.000000

 -----------------------------------------------------------------
                    Cartesian Multipole Moments
 -----------------------------------------------------------------
    Charge (ESU x 10^10)
                -0.0000
    Dipole Moment (Debye)
         X      -0.0000      Y      -0.0000      Z      -0.0000
       Tot       0.0000
    Quadrupole Moments (Debye-Ang)
        XX      -5.6184     XY       0.0000     YY      -5.6184
        XZ       0.0000     YZ      -0.0000     ZZ      -5.6184
    Octopole Moments (Debye-Ang^2)
       XXX      -0.0000    XXY       0.0000    XYY      -0.0000
       YYY       0.0000    XXZ      -0.0000    XYZ       0.0000
       YYZ      -0.0000    XZZ      -0.0000    YZZ       0.0000
       ZZZ      -0.0000
    Hexadecapole Moments (Debye-Ang^3)
      XXXX      -5.7982   XXXY       0.0000   XXYY      -1.9327
      XYYY       0.0000   YYYY      -5.7982   XXXZ       0.0000
      XXYZ      -0.0000   XYYZ       0.0000   YYYZ      -0.0000
      XXZZ      -1.9327   XYZZ       0.0000   YYZZ      -1.9327
      XZZZ       0.0000   YZZZ      -0.0000   ZZZZ      -5.7982
 -----------------------------------------------------------------

 STANDARD THERMODYNAMIC QUANTITIES AT   298.15 K  AND     1.00 ATM

   Translational Enthalpy:        0.889 kcal/mol
   Rotational Enthalpy:           0.000 kcal/mol
   Vibrational Enthalpy:          0.000 kcal/mol
   gas constant (RT):             0.592 kcal/mol
   Translational Entropy:        33.858  cal/mol.K
   Rotational Entropy:            0.000  cal/mol.K
   Vibrational Entropy:           0.000  cal/mol.K

   Total Enthalpy:                1.481 kcal/mol
   Total Entropy:                33.858  cal/mol.K

 -----------------------------------------------------------------

Archival summary:
1\1\n0070.mhg0\SP\ProcedureUnspecified\BasisUnspecified\1(4)\yhljason\WedSep200:30:302020WedSep200:30:302020\0\\#,ProcedureUnspecified,BasisUnspecified,\\0,4\N\\\@

 Total job time:  169.27s(wall), 1203.13s(cpu) 
 Wed Sep  2 00:30:30 2020

        *************************************************************
        *                                                           *
        *  Thank you very much for using Q-Chem.  Have a nice day.  *
        *                                                           *
        *************************************************************


