Q-Chem Developer Version!
                  Welcome to Q-Chem
     A Quantum Leap Into The Future Of Chemistry


 Q-Chem 5.1, Q-Chem, Inc., Pleasanton, CA (2018)

 Yihan Shao,  Zhengting Gan,  E. Epifanovsky,  A. T. B. Gilbert,  M. Wormit,  
 J. Kussmann,  A. W. Lange,  A. Behn,  Jia Deng,  Xintian Feng,  D. Ghosh,  
 M. Goldey,  P. R. Horn,  L. D. Jacobson,  I. Kaliman,  T. Kus,  A. Landau,  
 Jie Liu,  E. I. Proynov,  R. M. Richard,  R. P. Steele,  E. J. Sundstrom,  
 H. L. Woodcock III,  P. M. Zimmerman,  D. Zuev,  B. Albrecht,  E. Alguire,  
 S. A. Baeppler,  D. Barton,  Z. Benda,  Y. A. Bernard,  E. J. Berquist,  
 K. B. Bravaya,  H. Burton,  D. Casanova,  Chun-Min Chang,  Yunqing Chen,  
 A. Chien,  K. D. Closser,  M. P. Coons,  S. Coriani,  S. Dasgupta,  
 A. L. Dempwolff,  M. Diedenhofen,  Hainam Do,  R. G. Edgar,  Po-Tung Fang,  
 S. Faraji,  S. Fatehi,  Qingguo Feng,  K. D. Fenk,  J. Fosso-Tande,  
 Qinghui Ge,  A. Ghysels,  G. Gidofalvi,  J. Gomes,  J. Gonthier,  A. Gunina,  
 D. Hait,  M. W. D. Hanson-Heine,  P. H. P. Harbach,  A. W. Hauser,  
 J. E. Herr,  E. G. Hohenstein,  Z. C. Holden,  Kerwin Hui,  B. C. Huynh,  
 T.-C. Jagau,  Hyunjun Ji,  B. Kaduk,  K. Khistyaev,  Jaehoon Kim,  
 P. Klunzinger,  K. Koh,  D. Kosenkov,  L. Koulias,  T. Kowalczyk,  
 C. M. Krauter,  A. Kunitsa,  Ka Un Lao,  A. Laurent,  K. V. Lawler,  
 Joonho Lee,  D. Lefrancois,  S. Lehtola,  D. S. Levine,  Yi-Pei Li,  
 You-Sheng Lin,  Fenglai Liu,  E. Livshits,  A. Luenser,  P. Manohar,  
 E. Mansoor,  S. F. Manzer,  Shan-Ping Mao,  Yuezhi Mao,  N. Mardirossian,  
 A. V. Marenich,  T. Markovich,  L. A. Martinez-Martinez,  S. A. Maurer,  
 N. J. Mayhall,  S. C. McKenzie,  J.-M. Mewes,  A. F. Morrison,  
 J. W. Mullinax,  K. Nanda,  T. S. Nguyen-Beck,  R. Olivares-Amaya,  
 J. A. Parkhill,  T. M. Perrine,  F. Plasser,  P. Pokhilko,  S. Prager,  
 A. Prociuk,  E. Ramos,  D. R. Rehn,  F. Rob,  M. Schneider,  N. Sergueev,  
 S. M. Sharada,  S. Sharma,  D. W. Small,  T. Stauch,  T. Stein,  
 Yu-Chuan Su,  A. J. W. Thom,  A. Tkatchenko,  T. Tsuchimochi,  N. M. Tubman,  
 L. Vogt,  M. L. Vidal,  O. Vydrov,  M. A. Watson,  J. Wenzel,  
 M. de Wergifosse,  T. A. Wesolowski,  A. White,  J. Witte,  A. Yamada,  
 Jun Yang,  K. Yao,  S. Yeganeh,  S. R. Yost,  Zhi-Qiang You,  A. Zech,  
 Igor Ying Zhang,  Xing Zhang,  Yan Zhao,  Ying Zhu,  B. R. Brooks,  
 G. K. L. Chan,  C. J. Cramer,  M. S. Gordon,  W. J. Hehre,  A. Klamt,  
 M. W. Schmidt,  C. D. Sherrill,  D. G. Truhlar,  A. Aspuru-Guzik,  R. Baer,  
 A. T. Bell,  N. A. Besley,  Jeng-Da Chai,  A. E. DePrince, III,  
 R. A. DiStasio Jr.,  A. Dreuw,  B. D. Dunietz,  T. R. Furlani,  
 Chao-Ping Hsu,  Yousung Jung,  Jing Kong,  D. S. Lambrecht,  WanZhen Liang,  
 C. Ochsenfeld,  V. A. Rassolov,  L. V. Slipchenko,  J. E. Subotnik,  
 T. Van Voorhis,  J. M. Herbert,  A. I. Krylov,  P. M. W. Gill,  M. Head-Gordon

 Contributors to earlier versions of Q-Chem not listed above: 
 R. D. Adamson,  B. Austin,  J. Baker,  G. J. O. Beran,  K. Brandhorst,  
 S. T. Brown,  E. F. C. Byrd,  A. K. Chakraborty,  C.-L. Cheng,  
 Siu Hung Chien,  D. M. Chipman,  D. L. Crittenden,  H. Dachsel,  
 R. J. Doerksen,  A. D. Dutoi,  L. Fusti-Molnar,  W. A. Goddard III,  
 A. Golubeva-Zadorozhnaya,  S. R. Gwaltney,  G. Hawkins,  A. Heyden,  
 S. Hirata,  G. Kedziora,  F. J. Keil,  C. Kelley,  Jihan Kim,  R. A. King,  
 R. Z. Khaliullin,  P. P. Korambath,  W. Kurlancheek,  A. M. Lee,  M. S. Lee,  
 S. V. Levchenko,  Ching Yeh Lin,  D. Liotard,  R. C. Lochan,  I. Lotan,  
 P. E. Maslen,  N. Nair,  D. P. O'Neill,  D. Neuhauser,  E. Neuscamman,  
 C. M. Oana,  R. Olson,  B. Peters,  R. Peverati,  P. A. Pieniazek,  
 Y. M. Rhee,  J. Ritchie,  M. A. Rohrdanz,  E. Rosta,  N. J. Russ,  
 H. F. Schaefer III,  N. E. Schultz,  N. Shenvi,  A. C. Simmonett,  A. Sodt,  
 D. Stuck,  K. S. Thanthiriwatte,  V. Vanovschi,  Tao Wang,  A. Warshel,  
 C. F. Williams,  Q. Wu,  X. Xu,  W. Zhang

 Please cite Q-Chem as follows:
 Y. Shao et al., Mol. Phys. 113, 184-215 (2015)
 DOI: 10.1080/00268976.2014.952696

 Q-Chem 5.1.1 for Intel X86 EM64T Linux

 Parts of Q-Chem use Armadillo 8.300.2 (Tropical Shenanigans).
 http://arma.sourceforge.net/

 Q-Chem begins on Mon Nov  9 20:14:15 2020  

Host: n0041.mhg0
0

     Scratch files written to /local/scratch/users/yhljason/SiH3_wB97X-2TQZ_aug-cc-pcVQZ.inp20201109201407//
Input Ideriv = 0
Curr. Ideriv = -1
Max.  Ideriv = 0
Input Ideriv = 1
Curr. Ideriv = 0
Max.  Ideriv = 0

Checking the input file for inconsistencies... 	...done.

--------------------------------------------------------------
User input:
--------------------------------------------------------------
$molecule
0 2
Si1   0.0000   0.0000   0.0819
H2 0.0000   1.3928   -0.3820
H3 1.2062   -0.6964  -0.3820
H4 -1.2062  -0.6964  -0.3820
$end

$rem
jobtype sp
exchange wB97X-2(TQZ)
xc_grid 000099000590
basis aug-cc-pcVQZ

max_scf_cycles 200
thresh 14
scf_convergence 8
scf_algorithm gdm
symmetry false
sym_ignore true
unrestricted false
gen_scfman true
internal_stability_iter 15
internal_stability_davidson_iter 200
mem_total 128000
cc_memory 96000
cc_backend xm
mem_static 1500
n_frozen_core 0
$end



--------------------------------------------------------------
 ----------------------------------------------------------------
             Standard Nuclear Orientation (Angstroms)
    I     Atom           X                Y                Z
 ----------------------------------------------------------------
    1      Si      0.0000000000     0.0000000000     0.0819000000
    2      H       0.0000000000     1.3928000000    -0.3820000000
    3      H       1.2062000000    -0.6964000000    -0.3820000000
    4      H      -1.2062000000    -0.6964000000    -0.3820000000
 ----------------------------------------------------------------
 Nuclear Repulsion Energy =    15.7977703342 hartrees
 There are        9 alpha and        8 beta electrons
 Requested basis set is aug-cc-pCVQZ
 There are 76 shells and 272 basis functions

 Total QAlloc Memory Limit 128000 MB
 Mega-Array Size      1467 MB
 MEM_STATIC part      1500 MB

                       Distance Matrix (Angstroms)
             Si(  1)   H (  2)   H (  3)
   H (  2)  1.468024
   H (  3)  1.468024  2.412400
   H (  4)  1.468024  2.412400  2.412400
 
 A cutoff of  1.0D-14 yielded   2926 shell pairs
 There are     37690 function pairs (     58743 Cartesian)
 
 -------------------------------------------------------
 OpenMP Integral Computing Module                       
 Release: version 1.0, May 2013, Q-Chem Inc. Pittsburgh 
 -------------------------------------------------------
 Integral Job Info:
 Integral job number is                      11
 Integral operator is                         1
 short-range coefficients              63615800
 long-range coefficients              100000000
 Omega coefficients                         300
 if combine SR and LR in K                    1
 Integral screening is                        0
 Integral computing path is                   2
 max size of driver memory is           3200000
 size of driver memory is               1704330
 size of scratch memory is             28840424
 max col of scratch BK array              50625
 max len of scratch array in speh3         2114
 max len of scratch index in speh4           50
 max int batch size is                      520
 min int batch size is                       52
 fixed nKL is                                21
 max L of basis functions is                  4
 order of int derivative is                   0
 number of shells is                         76
 number of basis is                         339
 number of cartesian basis is               339
 number of contracted shell pairs          2926
 number of primitive shell pairs           8726
 maxK2 (contraction) of shell pair          169
 max number of K2 of shell pair               1
 max number of CS2 of shell pair            370
 max number of PS2 of shell pair           1014
 mem total for path MDJ                  695312
 -------------------------------------------------------
 Smallest overlap matrix eigenvalue = 3.18E-05

 Scale SEOQF with 1.000000e-01/1.000000e-01/1.000000e-01

 Standard Electronic Orientation quadrupole field applied
 Nucleus-field energy     =     0.0000000003 hartrees
 Guess from superposition of atomic densities
 Warning:  Energy on first SCF cycle will be non-variational
 SAD guess density has 17.000000 electrons

 -----------------------------------------------------------------------
  General SCF calculation program by
  Eric Jon Sundstrom, Paul Horn, Yuezhi Mao, Dmitri Zuev, Alec White,
  David Stuck, Shaama M.S., Shane Yost, Joonho Lee, David Small,
  Daniel Levine, Susi Lehtola, Hugh Burton, Evgeny Epifanovsky
 -----------------------------------------------------------------------
 Exchange:     0.6362 Hartree-Fock + 1.0000 wB97X-2(TQZ) + LR-HF
 Correlation:  1.0000 wB97X-2(TQZ)
 Using Euler-Maclaurin-Lebedev (99,590) quadrature formula
Running Object-Oriented ROKS (ROHF)
ROHF occupied orbitals are orthonormal
ROHF occupied orbitals are orthogonal to virtual orbitals
ROHF virtual orbitals are orthonormal
We will preform up to 15 macro iterations over saddle points until a stable solution is found
Energy prior to optimization (guess energy) = -290.078098240776
Begin Timing: Total SCF Calculation
Begin Timing: SCF Single Stationary Point Calculation
begin iterations for algorithm: GDM          
the SCF tolerance is set to 1.00e-08
    1    -290.0780982408      6.20e-01     00000  Descent step
    2    -290.3156880724      3.77e-01     00000  Descent step
    3    -290.4466012315      1.47e-01     00000  Dog-leg BFGS step
    4    -290.5104790093      2.78e-01     00000  Dog-leg BFGS step
    5    -290.6355359879      6.59e-01     00000  Descent step
    6    -290.8366669912      3.96e-01     00000  Descent step
    7    -290.8696074626      1.95e-01     00000  Normal BFGS step
    8    -290.8861197214      2.13e-02     00000  Normal BFGS step
    9    -290.8867471378      1.36e-02     00000  Normal BFGS step
   10    -290.8869992631      5.32e-03     00000  Normal BFGS step
   11    -290.8870252162      8.79e-04     00000  Normal BFGS step
   12    -290.8870298771      3.41e-04     00000  Normal BFGS step
   13    -290.8870301863      7.43e-05     00000  Normal BFGS step
   14    -290.8870302080      1.68e-05     00000  Normal BFGS step
   15    -290.8870302095      5.36e-06     00000  Normal BFGS step
   16    -290.8870302097      1.61e-06     00000  Normal BFGS step
   17    -290.8870302097      6.63e-07     00000  Normal BFGS step
   18    -290.8870302097      4.44e-07     00000  Normal BFGS step
   19    -290.8870302097      1.54e-07     00000  Normal BFGS step
   20    -290.8870302097      1.73e-08     00000  Normal BFGS step
   21    -290.8870302097      4.33e-09     00000 Convergence criterion met
The disked orbital energies are calculated using alpha and beta Focks
Timing for Single Stationary Point: 535.00s (wall), 4267.37s (cpu)
Begin Timing: Stability
===================================================
Beginning Test for Internal Stability
===================================================
generating davidson guess vectors based on koopmans-like excitations
    1      2.66e-01     00000 Davidson Iteration
    2      1.01e-01     00000 Davidson Iteration
    3      1.94e-01     00000 Davidson Iteration
    4      1.93e-01     00000 Davidson Iteration
    5      1.50e-01     00000 Davidson Iteration
    6      8.08e-02     00000 Davidson Iteration
    7      2.53e-02     00000 Davidson Iteration
    8      7.41e-03     00000 Davidson Iteration
    9      4.01e-03     00000 Davidson Iteration
   10      1.26e-03     00000 Davidson Iteration
   11      3.70e-04     00000 Davidson Iteration
   12      1.79e-04     00000 Davidson Iteration
   13      2.19e-04     00000 Davidson Iteration
   14      1.59e-04     00000 Davidson Iteration
   15      4.15e-05     00000 Davidson Converged
converged_eigenvalues
   0.3986
   0.3986
Threshold for negative eigenvalues: -1.0e-05
solution was a local minimum (stable)
===================================================
End Test for Internal Stability
===================================================
Our SCF solution is stable!
The disked orbital energies are calculated using alpha and beta Focks
Timing for Total SCF: 1584.00s (wall), 12641.67s (cpu)
 Total energy in the final basis set =     -290.8870302097
<S^2> =          0.750000000
    ==================================================
              The end of Object-Oriented SCFman       
    ==================================================
 
 Components of the MP2 correlation energy:
        aaaa  correlation energy =        -0.0328461620 au
        abab  correlation energy =        -0.1802249659 au
        bbbb  correlation energy =        -0.0278231746 au
        non-Brillouin singles    =        -0.0007969839 au

 Total  MP2   correlation energy =                    -0.24169129 au
        MP2         total energy =                  -291.12872150 au
 
 --------------------------------------------------------------
 
                    Orbital Energies (a.u.)
 --------------------------------------------------------------
 
 Alpha MOs
 -- Occupied --
-67.640  -5.786  -4.009  -4.001  -4.001  -0.701  -0.485  -0.485
 -0.333
 -- Virtual --
  0.031   0.045   0.045   0.051   0.068   0.068   0.113   0.113
  0.119   0.109   0.121   0.121   0.194   0.194   0.197   0.197
  0.218   0.218   0.245   0.245   0.259   0.259   0.287   0.287
  0.314   0.325   0.325   0.363   0.382   0.382   0.389   0.418
  0.436   0.436   0.436   0.449   0.449   0.477   0.477   0.479
  0.596   0.619   0.660   0.660   0.690   0.690   0.702   0.702
  0.717   0.773   0.773   0.792   0.800   0.800   0.842   0.878
  0.878   0.871   0.900   0.902   0.902   0.942   0.942   1.010
  1.010   1.016   1.030   1.069   1.069   1.087   1.103   1.177
  1.177   1.174   1.201   1.201   1.217   1.235   1.307   1.307
  1.465   1.465   1.479   1.494   1.494   1.530   1.530   1.525
  1.669   1.671   1.671   1.731   1.802   1.802   1.854   1.884
  1.884   1.906   1.944   1.944   1.956   1.956   1.987   2.025
  2.044   2.044   2.098   2.098   2.120   2.142   2.171   2.171
  2.224   2.224   2.276   2.303   2.350   2.388   2.388   2.482
  2.482   2.489   2.518   2.533   2.533   2.607   2.607   2.666
  2.672   2.672   2.675   2.675   2.713   2.813   2.813   2.822
  2.822   2.995   2.995   3.069   3.077   3.121   3.121   3.354
  3.354   3.363   3.400   3.400   3.401   3.399   3.582   3.582
  3.868   3.868   3.884   3.941   3.941   4.059   4.081   4.081
  4.122   4.489   4.955   4.955   6.099   6.404   6.404   6.599
  6.599   6.600   6.620   6.620   6.644   6.682   6.732   6.732
  6.817   6.867   6.867   6.879   7.001   7.001   7.038   7.059
  7.059   7.324   7.344   7.344   7.578   7.753   7.753   8.024
  8.024   8.033   8.426   8.426   8.481   8.493   8.535   8.535
  8.575   8.575   8.642   8.708   8.761   8.761   9.076   9.076
  9.143   9.274   9.331   9.331   9.495   9.495   9.560   9.940
  9.940   9.961  11.914  12.484  12.484  13.868  13.985  13.985
 14.085  14.085  14.294  14.406  19.244  21.772  21.772  22.056
 22.430  22.430  32.815  33.271  33.271  38.772  38.773  38.773
 38.776  38.776  38.778  38.782  38.786  38.786  48.150  48.187
 48.187  48.256  48.256  48.346  48.392  55.637  64.333  64.333
 64.496  64.799  64.799 101.584 101.952 101.952 269.246
 
 Beta MOs
 -- Occupied --
-67.636  -5.780  -3.993  -3.999  -3.999  -0.668  -0.473  -0.473
 -- Virtual --
  0.026   0.036   0.050   0.050   0.063   0.071   0.071   0.118
  0.118   0.123   0.130   0.135   0.135   0.196   0.196   0.209
  0.216   0.227   0.227   0.257   0.257   0.259   0.276   0.293
  0.293   0.322   0.333   0.333   0.365   0.387   0.387   0.392
  0.425   0.435   0.438   0.438   0.463   0.463   0.478   0.478
  0.505   0.597   0.620   0.666   0.666   0.688   0.688   0.708
  0.708   0.722   0.779   0.779   0.790   0.809   0.809   0.840
  0.876   0.876   0.896   0.897   0.904   0.904   0.946   0.946
  1.018   1.018   1.018   1.037   1.071   1.071   1.079   1.108
  1.173   1.173   1.182   1.200   1.200   1.217   1.234   1.301
  1.301   1.469   1.469   1.480   1.496   1.496   1.532   1.532
  1.533   1.668   1.676   1.676   1.738   1.802   1.802   1.853
  1.883   1.883   1.910   1.944   1.944   1.959   1.959   1.983
  2.027   2.047   2.047   2.102   2.102   2.124   2.146   2.177
  2.177   2.227   2.227   2.280   2.304   2.363   2.401   2.401
  2.490   2.490   2.495   2.519   2.535   2.535   2.617   2.617
  2.677   2.679   2.679   2.684   2.684   2.720   2.820   2.820
  2.829   2.839   2.999   2.999   3.075   3.080   3.134   3.134
  3.363   3.363   3.375   3.403   3.403   3.406   3.406   3.588
  3.588   3.875   3.875   3.888   3.947   3.947   4.065   4.085
  4.085   4.125   4.507   4.959   4.959   6.105   6.407   6.407
  6.600   6.600   6.602   6.621   6.621   6.647   6.684   6.735
  6.735   6.819   6.869   6.869   6.881   7.004   7.004   7.042
  7.061   7.061   7.326   7.349   7.349   7.582   7.757   7.757
  8.027   8.027   8.036   8.429   8.429   8.483   8.496   8.537
  8.537   8.578   8.578   8.644   8.710   8.762   8.762   9.079
  9.079   9.146   9.276   9.333   9.333   9.498   9.498   9.562
  9.944   9.944   9.965  11.928  12.488  12.488  13.868  13.985
 13.985  14.085  14.085  14.294  14.407  19.248  21.777  21.777
 22.063  22.433  22.433  32.823  33.273  33.273  38.774  38.775
 38.775  38.777  38.777  38.779  38.783  38.786  38.786  48.154
 48.191  48.191  48.260  48.260  48.347  48.394  55.640  64.337
 64.337  64.503  64.801  64.801 101.590 101.953 101.953 269.248
 --------------------------------------------------------------
 
          Ground-State Mulliken Net Atomic Charges

     Atom                 Charge (a.u.)
  ----------------------------------------
      1 Si                    0.269739
      2 H                    -0.089903
      3 H                    -0.089918
      4 H                    -0.089918
  ----------------------------------------
  Sum of atomic charges =     0.000000

 -----------------------------------------------------------------
                    Cartesian Multipole Moments
 -----------------------------------------------------------------
    Charge (ESU x 10^10)
                 0.0000
    Dipole Moment (Debye)
         X       0.0000      Y      -0.0000      Z       0.0083
       Tot       0.0083
    Quadrupole Moments (Debye-Ang)
        XX     -16.0058     XY      -0.0000     YY     -16.0058
        XZ      -0.0000     YZ      -0.0000     ZZ     -16.3668
    Octopole Moments (Debye-Ang^2)
       XXX       0.0000    XXY       0.9478    XYY       0.0000
       YYY      -0.9478    XXZ       0.4019    XYZ       0.0000
       YYZ       0.4019    XZZ       0.0000    YZZ      -0.0000
       ZZZ      -2.0609
    Hexadecapole Moments (Debye-Ang^3)
      XXXX     -42.3838   XXXY      -0.0000   XXYY     -14.1279
      XYYY      -0.0000   YYYY     -42.3838   XXXZ      -0.0000
      XXYZ       0.2180   XYYZ      -0.0000   YYYZ      -0.2180
      XXZZ     -12.5123   XYZZ      -0.0000   YYZZ     -12.5123
      XZZZ      -0.0000   YZZZ      -0.0000   ZZZZ     -33.5962
 -----------------------------------------------------------------
Archival summary:
1\1\n0041.mhg0\SP\ROProcedureUnspecified\BasisUnspecified\i13(2)\yhljason\MonNov920:49:092020MonNov920:49:092020\0\\#,ROProcedureUnspecified,BasisUnspecified,\\0,2\Si\H,1,1.46802\H,1,1.46802,2,110.5\H,1,1.46802,2,110.5,3,122.613,0\\\@

 Total job time:  2093.92s(wall), 16690.62s(cpu) 
 Mon Nov  9 20:49:09 2020

        *************************************************************
        *                                                           *
        *  Thank you very much for using Q-Chem.  Have a nice day.  *
        *                                                           *
        *************************************************************


 
User input: 2 of 3 
 
Q-Chem Developer Version!
                  Welcome to Q-Chem
     A Quantum Leap Into The Future Of Chemistry


 Q-Chem 5.1, Q-Chem, Inc., Pleasanton, CA (2018)

 Yihan Shao,  Zhengting Gan,  E. Epifanovsky,  A. T. B. Gilbert,  M. Wormit,  
 J. Kussmann,  A. W. Lange,  A. Behn,  Jia Deng,  Xintian Feng,  D. Ghosh,  
 M. Goldey,  P. R. Horn,  L. D. Jacobson,  I. Kaliman,  T. Kus,  A. Landau,  
 Jie Liu,  E. I. Proynov,  R. M. Richard,  R. P. Steele,  E. J. Sundstrom,  
 H. L. Woodcock III,  P. M. Zimmerman,  D. Zuev,  B. Albrecht,  E. Alguire,  
 S. A. Baeppler,  D. Barton,  Z. Benda,  Y. A. Bernard,  E. J. Berquist,  
 K. B. Bravaya,  H. Burton,  D. Casanova,  Chun-Min Chang,  Yunqing Chen,  
 A. Chien,  K. D. Closser,  M. P. Coons,  S. Coriani,  S. Dasgupta,  
 A. L. Dempwolff,  M. Diedenhofen,  Hainam Do,  R. G. Edgar,  Po-Tung Fang,  
 S. Faraji,  S. Fatehi,  Qingguo Feng,  K. D. Fenk,  J. Fosso-Tande,  
 Qinghui Ge,  A. Ghysels,  G. Gidofalvi,  J. Gomes,  J. Gonthier,  A. Gunina,  
 D. Hait,  M. W. D. Hanson-Heine,  P. H. P. Harbach,  A. W. Hauser,  
 J. E. Herr,  E. G. Hohenstein,  Z. C. Holden,  Kerwin Hui,  B. C. Huynh,  
 T.-C. Jagau,  Hyunjun Ji,  B. Kaduk,  K. Khistyaev,  Jaehoon Kim,  
 P. Klunzinger,  K. Koh,  D. Kosenkov,  L. Koulias,  T. Kowalczyk,  
 C. M. Krauter,  A. Kunitsa,  Ka Un Lao,  A. Laurent,  K. V. Lawler,  
 Joonho Lee,  D. Lefrancois,  S. Lehtola,  D. S. Levine,  Yi-Pei Li,  
 You-Sheng Lin,  Fenglai Liu,  E. Livshits,  A. Luenser,  P. Manohar,  
 E. Mansoor,  S. F. Manzer,  Shan-Ping Mao,  Yuezhi Mao,  N. Mardirossian,  
 A. V. Marenich,  T. Markovich,  L. A. Martinez-Martinez,  S. A. Maurer,  
 N. J. Mayhall,  S. C. McKenzie,  J.-M. Mewes,  A. F. Morrison,  
 J. W. Mullinax,  K. Nanda,  T. S. Nguyen-Beck,  R. Olivares-Amaya,  
 J. A. Parkhill,  T. M. Perrine,  F. Plasser,  P. Pokhilko,  S. Prager,  
 A. Prociuk,  E. Ramos,  D. R. Rehn,  F. Rob,  M. Schneider,  N. Sergueev,  
 S. M. Sharada,  S. Sharma,  D. W. Small,  T. Stauch,  T. Stein,  
 Yu-Chuan Su,  A. J. W. Thom,  A. Tkatchenko,  T. Tsuchimochi,  N. M. Tubman,  
 L. Vogt,  M. L. Vidal,  O. Vydrov,  M. A. Watson,  J. Wenzel,  
 M. de Wergifosse,  T. A. Wesolowski,  A. White,  J. Witte,  A. Yamada,  
 Jun Yang,  K. Yao,  S. Yeganeh,  S. R. Yost,  Zhi-Qiang You,  A. Zech,  
 Igor Ying Zhang,  Xing Zhang,  Yan Zhao,  Ying Zhu,  B. R. Brooks,  
 G. K. L. Chan,  C. J. Cramer,  M. S. Gordon,  W. J. Hehre,  A. Klamt,  
 M. W. Schmidt,  C. D. Sherrill,  D. G. Truhlar,  A. Aspuru-Guzik,  R. Baer,  
 A. T. Bell,  N. A. Besley,  Jeng-Da Chai,  A. E. DePrince, III,  
 R. A. DiStasio Jr.,  A. Dreuw,  B. D. Dunietz,  T. R. Furlani,  
 Chao-Ping Hsu,  Yousung Jung,  Jing Kong,  D. S. Lambrecht,  WanZhen Liang,  
 C. Ochsenfeld,  V. A. Rassolov,  L. V. Slipchenko,  J. E. Subotnik,  
 T. Van Voorhis,  J. M. Herbert,  A. I. Krylov,  P. M. W. Gill,  M. Head-Gordon

 Contributors to earlier versions of Q-Chem not listed above: 
 R. D. Adamson,  B. Austin,  J. Baker,  G. J. O. Beran,  K. Brandhorst,  
 S. T. Brown,  E. F. C. Byrd,  A. K. Chakraborty,  C.-L. Cheng,  
 Siu Hung Chien,  D. M. Chipman,  D. L. Crittenden,  H. Dachsel,  
 R. J. Doerksen,  A. D. Dutoi,  L. Fusti-Molnar,  W. A. Goddard III,  
 A. Golubeva-Zadorozhnaya,  S. R. Gwaltney,  G. Hawkins,  A. Heyden,  
 S. Hirata,  G. Kedziora,  F. J. Keil,  C. Kelley,  Jihan Kim,  R. A. King,  
 R. Z. Khaliullin,  P. P. Korambath,  W. Kurlancheek,  A. M. Lee,  M. S. Lee,  
 S. V. Levchenko,  Ching Yeh Lin,  D. Liotard,  R. C. Lochan,  I. Lotan,  
 P. E. Maslen,  N. Nair,  D. P. O'Neill,  D. Neuhauser,  E. Neuscamman,  
 C. M. Oana,  R. Olson,  B. Peters,  R. Peverati,  P. A. Pieniazek,  
 Y. M. Rhee,  J. Ritchie,  M. A. Rohrdanz,  E. Rosta,  N. J. Russ,  
 H. F. Schaefer III,  N. E. Schultz,  N. Shenvi,  A. C. Simmonett,  A. Sodt,  
 D. Stuck,  K. S. Thanthiriwatte,  V. Vanovschi,  Tao Wang,  A. Warshel,  
 C. F. Williams,  Q. Wu,  X. Xu,  W. Zhang

 Please cite Q-Chem as follows:
 Y. Shao et al., Mol. Phys. 113, 184-215 (2015)
 DOI: 10.1080/00268976.2014.952696

 Q-Chem 5.1.1 for Intel X86 EM64T Linux

 Parts of Q-Chem use Armadillo 8.300.2 (Tropical Shenanigans).
 http://arma.sourceforge.net/

 Q-Chem begins on Mon Nov  9 20:49:09 2020  

Host: n0041.mhg0
0

     Scratch files written to /local/scratch/users/yhljason/SiH3_wB97X-2TQZ_aug-cc-pcVQZ.inp20201109201407//
The previous job contains 0 fragments, simply inherited here
Input Ideriv = 0
Curr. Ideriv = -1
Max.  Ideriv = 0
Input Ideriv = 1
Curr. Ideriv = 0
Max.  Ideriv = 0

Checking the input file for inconsistencies... 	...done.

--------------------------------------------------------------
User input:
--------------------------------------------------------------
$molecule
read
$end

$rem
jobtype sp
exchange wB97X-2(TQZ)
xc_grid 000099000590
basis aug-cc-pcVQZ

max_scf_cycles 200
thresh 14
scf_convergence 8
mem_total 128000
cc_memory 96000
cc_backend xm
mem_static 1500
symmetry false
sym_ignore true
scf_guess read
unrestricted false
scf_algorithm gdm
n_frozen_core 0
$end



$multipole_field
Z 0.0001
$end


--------------------------------------------------------------
 ----------------------------------------------------------------
             Standard Nuclear Orientation (Angstroms)
    I     Atom           X                Y                Z
 ----------------------------------------------------------------
    1      Si      0.0000000000     0.0000000000     0.0819000000
    2      H       0.0000000000     1.3928000000    -0.3820000000
    3      H       1.2062000000    -0.6964000000    -0.3820000000
    4      H      -1.2062000000    -0.6964000000    -0.3820000000
 ----------------------------------------------------------------
 Nuclear Repulsion Energy =    15.7977703342 hartrees
 There are        9 alpha and        8 beta electrons
 Requested basis set is aug-cc-pCVQZ
 There are 76 shells and 272 basis functions

 Total QAlloc Memory Limit 128000 MB
 Mega-Array Size      1467 MB
 MEM_STATIC part      1500 MB

                       Distance Matrix (Angstroms)
             Si(  1)   H (  2)   H (  3)
   H (  2)  1.468024
   H (  3)  1.468024  2.412400
   H (  4)  1.468024  2.412400  2.412400
 
 Applying Cartesian multipole field
    Component          Value
    ---------          -----
     (0,0,1)        1.00000E-04
 Nucleus-field energy     =     0.0000001134 hartrees
 A cutoff of  1.0D-14 yielded   2926 shell pairs
 There are     37690 function pairs (     58743 Cartesian)
 
 -------------------------------------------------------
 OpenMP Integral Computing Module                       
 Release: version 1.0, May 2013, Q-Chem Inc. Pittsburgh 
 -------------------------------------------------------
 Integral Job Info:
 Integral job number is                      11
 Integral operator is                         1
 short-range coefficients              63615800
 long-range coefficients              100000000
 Omega coefficients                         300
 if combine SR and LR in K                    1
 Integral screening is                        0
 Integral computing path is                   2
 max size of driver memory is           3200000
 size of driver memory is               1704330
 size of scratch memory is             28840424
 max col of scratch BK array              50625
 max len of scratch array in speh3         2114
 max len of scratch index in speh4           50
 max int batch size is                      520
 min int batch size is                       52
 fixed nKL is                                21
 max L of basis functions is                  4
 order of int derivative is                   0
 number of shells is                         76
 number of basis is                         339
 number of cartesian basis is               339
 number of contracted shell pairs          2926
 number of primitive shell pairs           8726
 maxK2 (contraction) of shell pair          169
 max number of K2 of shell pair               1
 max number of CS2 of shell pair            370
 max number of PS2 of shell pair           1014
 mem total for path MDJ                  695312
 -------------------------------------------------------
 Smallest overlap matrix eigenvalue = 3.18E-05
 Guess MOs from SCF MO coefficient file
 Reading MOs from coefficient file
 Reading MOs from coefficient file
 Long-range K will be added via erf
 Coulomb attenuation parameter = 0.3 bohr**(-1)
 A restricted hybrid HF-DFT SCF calculation will be
 performed using Geometric Direct Minimization
 Exchange:     0.6362 Hartree-Fock + 1.0000 wB97X-2(TQZ) + LR-HF
 Correlation:  1.0000 wB97X-2(TQZ)
 Using Euler-Maclaurin-Lebedev (99,590) quadrature formula
 SCF converges when RMS gradient is below 1.0E-08
Using Q-Chem read-in guess as SCF_GUESS READ specified.

 using 8 threads for integral computing
 -------------------------------------------------------
 OpenMP Integral computing Module                
 Release: version 1.0, May 2013, Q-Chem Inc. Pittsburgh 
 -------------------------------------------------------
 using 8 threads for integral computing
 -------------------------------------------------------
 OpenMP Integral computing Module                
 Release: version 1.0, May 2013, Q-Chem Inc. Pittsburgh 
 -------------------------------------------------------
TIMEINFO->: J/JK contribution 169.61 sec.
 -------------------------------------------------------
 OpenMP BLAS3 based DFT computing Module                
 Release: version 1.0, May 2013, Q-Chem Inc. Pittsburgh 
 -------------------------------------------------------
 ---------------------------------------
  Cycle       Energy        RMS Gradient
 ---------------------------------------
    1    -290.8870298824      3.18E-04 Normal BFGS step
TIMEINFO->: J/JK contribution 171.40 sec.
    2    -290.8870300270      9.83E-05 Normal BFGS step
TIMEINFO->: J/JK contribution 168.48 sec.
    3    -290.8870300444      3.45E-05 Normal BFGS step
TIMEINFO->: J/JK contribution 168.33 sec.
    4    -290.8870300451      1.94E-05 Normal BFGS step
TIMEINFO->: J/JK contribution 164.53 sec.
    5    -290.8870300454      1.23E-06 Normal BFGS step
TIMEINFO->: J/JK contribution 161.46 sec.
    6    -290.8870300454      9.04E-07 Normal BFGS step
TIMEINFO->: J/JK contribution 156.75 sec.
   GDM::WARNING energy changes are now smaller than effective accuracy.
   GDM::        calculation will continue, but THRESH should be increased
   GDM::        or SCF_CONVERGENCE decreased.
   GDM::        effective_thresh =   9.000000000000000E-011
    7    -290.8870300454      2.49E-07 Normal BFGS step
TIMEINFO->: J/JK contribution 156.98 sec.
    8    -290.8870300454      5.29E-08 Normal BFGS step
TIMEINFO->: J/JK contribution 149.29 sec.
    9    -290.8870300454      4.51E-09 Convergence criterion met
 ---------------------------------------
 SCF time:  CPU 1662.20 s  wall 239.35 s
 SCF   energy in the final basis set = -290.88703005
 Total energy in the final basis set = -290.88703005
 
 Components of the MP2 correlation energy:
        aaaa  correlation energy =        -0.0328448897 au
        abab  correlation energy =        -0.1802247852 au
        bbbb  correlation energy =        -0.0278236032 au
        non-Brillouin singles    =        -0.0007965619 au

 Total  MP2   correlation energy =                    -0.24168984 au
        MP2         total energy =                  -291.12871989 au
 
 --------------------------------------------------------------
 
                    Orbital Energies (a.u.)
 --------------------------------------------------------------
 
 Alpha MOs
 -- Occupied --
-67.640  -5.786  -4.001  -4.001  -4.009  -0.701  -0.485  -0.485
 -0.333
 -- Virtual --
  0.030   0.045   0.045   0.050   0.068   0.068   0.112   0.112
  0.106   0.118   0.121   0.121   0.194   0.194   0.190   0.203
  0.216   0.216   0.244   0.244   0.259   0.259   0.286   0.286
  0.315   0.326   0.326   0.364   0.382   0.382   0.389   0.417
  0.436   0.437   0.437   0.450   0.450   0.477   0.477   0.478
  0.596   0.619   0.659   0.659   0.688   0.688   0.704   0.704
  0.717   0.773   0.773   0.792   0.801   0.801   0.843   0.878
  0.878   0.872   0.899   0.902   0.902   0.943   0.943   1.010
  1.010   1.016   1.030   1.068   1.068   1.080   1.106   1.177
  1.177   1.177   1.201   1.201   1.218   1.235   1.307   1.307
  1.465   1.465   1.479   1.494   1.494   1.526   1.531   1.531
  1.669   1.671   1.671   1.731   1.802   1.802   1.854   1.884
  1.884   1.906   1.944   1.944   1.957   1.957   1.987   2.025
  2.044   2.044   2.098   2.098   2.120   2.142   2.171   2.171
  2.224   2.224   2.277   2.303   2.350   2.388   2.388   2.482
  2.482   2.489   2.518   2.534   2.534   2.607   2.607   2.666
  2.672   2.672   2.675   2.675   2.713   2.813   2.813   2.822
  2.822   2.995   2.995   3.069   3.077   3.122   3.122   3.354
  3.354   3.363   3.400   3.400   3.400   3.401   3.582   3.582
  3.868   3.868   3.884   3.941   3.941   4.059   4.081   4.081
  4.122   4.489   4.955   4.955   6.099   6.404   6.404   6.599
  6.599   6.600   6.620   6.620   6.644   6.682   6.732   6.732
  6.817   6.867   6.867   6.879   7.001   7.001   7.038   7.059
  7.059   7.324   7.344   7.344   7.578   7.753   7.753   8.024
  8.024   8.033   8.426   8.426   8.481   8.493   8.535   8.535
  8.575   8.575   8.642   8.708   8.761   8.761   9.076   9.076
  9.143   9.274   9.331   9.331   9.495   9.495   9.560   9.941
  9.941   9.961  11.914  12.484  12.484  13.868  13.985  13.985
 14.085  14.085  14.294  14.406  19.244  21.772  21.772  22.056
 22.430  22.430  32.815  33.271  33.271  38.772  38.773  38.773
 38.776  38.776  38.778  38.782  38.786  38.786  48.150  48.187
 48.187  48.256  48.256  48.346  48.392  55.637  64.333  64.333
 64.496  64.799  64.799 101.584 101.952 101.952 269.246
 
 Beta MOs
 -- Occupied --
-67.636  -5.780  -3.999  -3.999  -3.993  -0.668  -0.473  -0.473
 -- Virtual --
  0.026   0.036   0.050   0.050   0.064   0.071   0.071   0.119
  0.119   0.131   0.123   0.135   0.135   0.196   0.196   0.211
  0.214   0.227   0.227   0.257   0.257   0.260   0.275   0.293
  0.293   0.321   0.333   0.333   0.365   0.387   0.387   0.392
  0.425   0.435   0.438   0.438   0.462   0.462   0.478   0.478
  0.505   0.597   0.620   0.666   0.666   0.689   0.689   0.707
  0.707   0.722   0.779   0.779   0.790   0.808   0.808   0.840
  0.876   0.876   0.896   0.897   0.903   0.904   0.946   0.946
  1.018   1.018   1.018   1.037   1.072   1.072   1.083   1.107
  1.172   1.172   1.180   1.200   1.200   1.216   1.234   1.301
  1.301   1.469   1.469   1.480   1.496   1.496   1.533   1.532
  1.532   1.668   1.676   1.676   1.738   1.802   1.802   1.853
  1.883   1.883   1.910   1.944   1.944   1.959   1.959   1.983
  2.027   2.047   2.047   2.102   2.102   2.124   2.146   2.177
  2.177   2.227   2.227   2.280   2.304   2.363   2.401   2.401
  2.490   2.490   2.495   2.519   2.535   2.535   2.616   2.616
  2.677   2.679   2.679   2.684   2.684   2.720   2.820   2.820
  2.829   2.839   2.999   2.999   3.075   3.080   3.134   3.134
  3.363   3.363   3.375   3.403   3.403   3.406   3.406   3.588
  3.588   3.875   3.875   3.888   3.947   3.947   4.065   4.085
  4.085   4.125   4.507   4.959   4.959   6.105   6.407   6.407
  6.600   6.600   6.602   6.621   6.621   6.647   6.684   6.735
  6.735   6.819   6.869   6.869   6.881   7.004   7.004   7.042
  7.061   7.061   7.326   7.349   7.349   7.582   7.757   7.757
  8.027   8.027   8.036   8.429   8.429   8.483   8.496   8.537
  8.537   8.578   8.578   8.644   8.710   8.762   8.762   9.079
  9.079   9.146   9.276   9.333   9.333   9.498   9.498   9.562
  9.944   9.944   9.965  11.928  12.488  12.488  13.868  13.985
 13.985  14.085  14.085  14.294  14.407  19.248  21.777  21.777
 22.063  22.433  22.433  32.823  33.273  33.273  38.774  38.775
 38.775  38.777  38.777  38.779  38.783  38.786  38.786  48.154
 48.191  48.191  48.260  48.260  48.347  48.394  55.640  64.337
 64.337  64.503  64.801  64.801 101.590 101.953 101.953 269.248
 --------------------------------------------------------------
 
          Ground-State Mulliken Net Atomic Charges

     Atom                 Charge (a.u.)
  ----------------------------------------
      1 Si                    0.269225
      2 H                    -0.089732
      3 H                    -0.089747
      4 H                    -0.089747
  ----------------------------------------
  Sum of atomic charges =     0.000000

 -----------------------------------------------------------------
                    Cartesian Multipole Moments
 -----------------------------------------------------------------
    Charge (ESU x 10^10)
                 0.0000
    Dipole Moment (Debye)
         X       0.0000      Y      -0.0000      Z       0.0000
       Tot       0.0000
    Quadrupole Moments (Debye-Ang)
        XX     -16.0052     XY      -0.0000     YY     -16.0052
        XZ      -0.0000     YZ      -0.0000     ZZ     -16.3687
    Octopole Moments (Debye-Ang^2)
       XXX       0.0000    XXY       0.9469    XYY       0.0000
       YYY      -0.9469    XXZ       0.3926    XYZ      -0.0000
       YYZ       0.3926    XZZ       0.0000    YZZ      -0.0000
       ZZZ      -2.0891
    Hexadecapole Moments (Debye-Ang^3)
      XXXX     -42.3804   XXXY      -0.0000   XXYY     -14.1268
      XYYY      -0.0000   YYYY     -42.3804   XXXZ      -0.0000
      XXYZ       0.2200   XYYZ      -0.0000   YYYZ      -0.2200
      XXZZ     -12.5125   XYZZ      -0.0000   YYZZ     -12.5125
      XZZZ      -0.0000   YZZZ      -0.0000   ZZZZ     -33.6191
 -----------------------------------------------------------------
Archival summary:
1\1\n0041.mhg0\SP\ROProcedureUnspecified\BasisUnspecified\i13(2)\yhljason\MonNov921:03:412020MonNov921:03:412020\0\\#,ROProcedureUnspecified,BasisUnspecified,\\0,2\Si\H,1,1.46802\H,1,1.46802,2,110.5\H,1,1.46802,2,110.5,3,122.613,0\\\@

 Total job time:  871.20s(wall), 6044.53s(cpu) 
 Mon Nov  9 21:03:41 2020

        *************************************************************
        *                                                           *
        *  Thank you very much for using Q-Chem.  Have a nice day.  *
        *                                                           *
        *************************************************************


 
User input: 3 of 3 
 
Q-Chem Developer Version!
                  Welcome to Q-Chem
     A Quantum Leap Into The Future Of Chemistry


 Q-Chem 5.1, Q-Chem, Inc., Pleasanton, CA (2018)

 Yihan Shao,  Zhengting Gan,  E. Epifanovsky,  A. T. B. Gilbert,  M. Wormit,  
 J. Kussmann,  A. W. Lange,  A. Behn,  Jia Deng,  Xintian Feng,  D. Ghosh,  
 M. Goldey,  P. R. Horn,  L. D. Jacobson,  I. Kaliman,  T. Kus,  A. Landau,  
 Jie Liu,  E. I. Proynov,  R. M. Richard,  R. P. Steele,  E. J. Sundstrom,  
 H. L. Woodcock III,  P. M. Zimmerman,  D. Zuev,  B. Albrecht,  E. Alguire,  
 S. A. Baeppler,  D. Barton,  Z. Benda,  Y. A. Bernard,  E. J. Berquist,  
 K. B. Bravaya,  H. Burton,  D. Casanova,  Chun-Min Chang,  Yunqing Chen,  
 A. Chien,  K. D. Closser,  M. P. Coons,  S. Coriani,  S. Dasgupta,  
 A. L. Dempwolff,  M. Diedenhofen,  Hainam Do,  R. G. Edgar,  Po-Tung Fang,  
 S. Faraji,  S. Fatehi,  Qingguo Feng,  K. D. Fenk,  J. Fosso-Tande,  
 Qinghui Ge,  A. Ghysels,  G. Gidofalvi,  J. Gomes,  J. Gonthier,  A. Gunina,  
 D. Hait,  M. W. D. Hanson-Heine,  P. H. P. Harbach,  A. W. Hauser,  
 J. E. Herr,  E. G. Hohenstein,  Z. C. Holden,  Kerwin Hui,  B. C. Huynh,  
 T.-C. Jagau,  Hyunjun Ji,  B. Kaduk,  K. Khistyaev,  Jaehoon Kim,  
 P. Klunzinger,  K. Koh,  D. Kosenkov,  L. Koulias,  T. Kowalczyk,  
 C. M. Krauter,  A. Kunitsa,  Ka Un Lao,  A. Laurent,  K. V. Lawler,  
 Joonho Lee,  D. Lefrancois,  S. Lehtola,  D. S. Levine,  Yi-Pei Li,  
 You-Sheng Lin,  Fenglai Liu,  E. Livshits,  A. Luenser,  P. Manohar,  
 E. Mansoor,  S. F. Manzer,  Shan-Ping Mao,  Yuezhi Mao,  N. Mardirossian,  
 A. V. Marenich,  T. Markovich,  L. A. Martinez-Martinez,  S. A. Maurer,  
 N. J. Mayhall,  S. C. McKenzie,  J.-M. Mewes,  A. F. Morrison,  
 J. W. Mullinax,  K. Nanda,  T. S. Nguyen-Beck,  R. Olivares-Amaya,  
 J. A. Parkhill,  T. M. Perrine,  F. Plasser,  P. Pokhilko,  S. Prager,  
 A. Prociuk,  E. Ramos,  D. R. Rehn,  F. Rob,  M. Schneider,  N. Sergueev,  
 S. M. Sharada,  S. Sharma,  D. W. Small,  T. Stauch,  T. Stein,  
 Yu-Chuan Su,  A. J. W. Thom,  A. Tkatchenko,  T. Tsuchimochi,  N. M. Tubman,  
 L. Vogt,  M. L. Vidal,  O. Vydrov,  M. A. Watson,  J. Wenzel,  
 M. de Wergifosse,  T. A. Wesolowski,  A. White,  J. Witte,  A. Yamada,  
 Jun Yang,  K. Yao,  S. Yeganeh,  S. R. Yost,  Zhi-Qiang You,  A. Zech,  
 Igor Ying Zhang,  Xing Zhang,  Yan Zhao,  Ying Zhu,  B. R. Brooks,  
 G. K. L. Chan,  C. J. Cramer,  M. S. Gordon,  W. J. Hehre,  A. Klamt,  
 M. W. Schmidt,  C. D. Sherrill,  D. G. Truhlar,  A. Aspuru-Guzik,  R. Baer,  
 A. T. Bell,  N. A. Besley,  Jeng-Da Chai,  A. E. DePrince, III,  
 R. A. DiStasio Jr.,  A. Dreuw,  B. D. Dunietz,  T. R. Furlani,  
 Chao-Ping Hsu,  Yousung Jung,  Jing Kong,  D. S. Lambrecht,  WanZhen Liang,  
 C. Ochsenfeld,  V. A. Rassolov,  L. V. Slipchenko,  J. E. Subotnik,  
 T. Van Voorhis,  J. M. Herbert,  A. I. Krylov,  P. M. W. Gill,  M. Head-Gordon

 Contributors to earlier versions of Q-Chem not listed above: 
 R. D. Adamson,  B. Austin,  J. Baker,  G. J. O. Beran,  K. Brandhorst,  
 S. T. Brown,  E. F. C. Byrd,  A. K. Chakraborty,  C.-L. Cheng,  
 Siu Hung Chien,  D. M. Chipman,  D. L. Crittenden,  H. Dachsel,  
 R. J. Doerksen,  A. D. Dutoi,  L. Fusti-Molnar,  W. A. Goddard III,  
 A. Golubeva-Zadorozhnaya,  S. R. Gwaltney,  G. Hawkins,  A. Heyden,  
 S. Hirata,  G. Kedziora,  F. J. Keil,  C. Kelley,  Jihan Kim,  R. A. King,  
 R. Z. Khaliullin,  P. P. Korambath,  W. Kurlancheek,  A. M. Lee,  M. S. Lee,  
 S. V. Levchenko,  Ching Yeh Lin,  D. Liotard,  R. C. Lochan,  I. Lotan,  
 P. E. Maslen,  N. Nair,  D. P. O'Neill,  D. Neuhauser,  E. Neuscamman,  
 C. M. Oana,  R. Olson,  B. Peters,  R. Peverati,  P. A. Pieniazek,  
 Y. M. Rhee,  J. Ritchie,  M. A. Rohrdanz,  E. Rosta,  N. J. Russ,  
 H. F. Schaefer III,  N. E. Schultz,  N. Shenvi,  A. C. Simmonett,  A. Sodt,  
 D. Stuck,  K. S. Thanthiriwatte,  V. Vanovschi,  Tao Wang,  A. Warshel,  
 C. F. Williams,  Q. Wu,  X. Xu,  W. Zhang

 Please cite Q-Chem as follows:
 Y. Shao et al., Mol. Phys. 113, 184-215 (2015)
 DOI: 10.1080/00268976.2014.952696

 Q-Chem 5.1.1 for Intel X86 EM64T Linux

 Parts of Q-Chem use Armadillo 8.300.2 (Tropical Shenanigans).
 http://arma.sourceforge.net/

 Q-Chem begins on Mon Nov  9 21:03:41 2020  

Host: n0041.mhg0
0

     Scratch files written to /local/scratch/users/yhljason/SiH3_wB97X-2TQZ_aug-cc-pcVQZ.inp20201109201407//
The previous job contains 0 fragments, simply inherited here
Input Ideriv = 0
Curr. Ideriv = -1
Max.  Ideriv = 0
Input Ideriv = 1
Curr. Ideriv = 0
Max.  Ideriv = 0

Checking the input file for inconsistencies... 	...done.

--------------------------------------------------------------
User input:
--------------------------------------------------------------
$molecule
read
$end

$rem
jobtype sp
exchange wB97X-2(TQZ)
xc_grid 000099000590
basis aug-cc-pcVQZ

max_scf_cycles 200
thresh 14
scf_convergence 8
mem_total 128000
cc_memory 96000
cc_backend xm
mem_static 1500
symmetry false
sym_ignore true
scf_guess read
unrestricted false
scf_algorithm gdm
n_frozen_core 0
$end



$multipole_field
Z -0.0001
$end

--------------------------------------------------------------
 ----------------------------------------------------------------
             Standard Nuclear Orientation (Angstroms)
    I     Atom           X                Y                Z
 ----------------------------------------------------------------
    1      Si      0.0000000000     0.0000000000     0.0819000000
    2      H       0.0000000000     1.3928000000    -0.3820000000
    3      H       1.2062000000    -0.6964000000    -0.3820000000
    4      H      -1.2062000000    -0.6964000000    -0.3820000000
 ----------------------------------------------------------------
 Nuclear Repulsion Energy =    15.7977703342 hartrees
 There are        9 alpha and        8 beta electrons
 Requested basis set is aug-cc-pCVQZ
 There are 76 shells and 272 basis functions

 Total QAlloc Memory Limit 128000 MB
 Mega-Array Size      1467 MB
 MEM_STATIC part      1500 MB

                       Distance Matrix (Angstroms)
             Si(  1)   H (  2)   H (  3)
   H (  2)  1.468024
   H (  3)  1.468024  2.412400
   H (  4)  1.468024  2.412400  2.412400
 
 Applying Cartesian multipole field
    Component          Value
    ---------          -----
     (0,0,1)       -1.00000E-04
 Nucleus-field energy     =    -0.0000001134 hartrees
 A cutoff of  1.0D-14 yielded   2926 shell pairs
 There are     37690 function pairs (     58743 Cartesian)
 
 -------------------------------------------------------
 OpenMP Integral Computing Module                       
 Release: version 1.0, May 2013, Q-Chem Inc. Pittsburgh 
 -------------------------------------------------------
 Integral Job Info:
 Integral job number is                      11
 Integral operator is                         1
 short-range coefficients              63615800
 long-range coefficients              100000000
 Omega coefficients                         300
 if combine SR and LR in K                    1
 Integral screening is                        0
 Integral computing path is                   2
 max size of driver memory is           3200000
 size of driver memory is               1704330
 size of scratch memory is             28840424
 max col of scratch BK array              50625
 max len of scratch array in speh3         2114
 max len of scratch index in speh4           50
 max int batch size is                      520
 min int batch size is                       52
 fixed nKL is                                21
 max L of basis functions is                  4
 order of int derivative is                   0
 number of shells is                         76
 number of basis is                         339
 number of cartesian basis is               339
 number of contracted shell pairs          2926
 number of primitive shell pairs           8726
 maxK2 (contraction) of shell pair          169
 max number of K2 of shell pair               1
 max number of CS2 of shell pair            370
 max number of PS2 of shell pair           1014
 mem total for path MDJ                  695312
 -------------------------------------------------------
 Smallest overlap matrix eigenvalue = 3.18E-05
 Guess MOs from SCF MO coefficient file
 Reading MOs from coefficient file
 Reading MOs from coefficient file
 Long-range K will be added via erf
 Coulomb attenuation parameter = 0.3 bohr**(-1)
 A restricted hybrid HF-DFT SCF calculation will be
 performed using Geometric Direct Minimization
 Exchange:     0.6362 Hartree-Fock + 1.0000 wB97X-2(TQZ) + LR-HF
 Correlation:  1.0000 wB97X-2(TQZ)
 Using Euler-Maclaurin-Lebedev (99,590) quadrature formula
 SCF converges when RMS gradient is below 1.0E-08
Using Q-Chem read-in guess as SCF_GUESS READ specified.

 using 8 threads for integral computing
 -------------------------------------------------------
 OpenMP Integral computing Module                
 Release: version 1.0, May 2013, Q-Chem Inc. Pittsburgh 
 -------------------------------------------------------
 using 8 threads for integral computing
 -------------------------------------------------------
 OpenMP Integral computing Module                
 Release: version 1.0, May 2013, Q-Chem Inc. Pittsburgh 
 -------------------------------------------------------
TIMEINFO->: J/JK contribution 173.53 sec.
 -------------------------------------------------------
 OpenMP BLAS3 based DFT computing Module                
 Release: version 1.0, May 2013, Q-Chem Inc. Pittsburgh 
 -------------------------------------------------------
 ---------------------------------------
  Cycle       Energy        RMS Gradient
 ---------------------------------------
    1    -290.8870300481      6.37E-04 Normal BFGS step
TIMEINFO->: J/JK contribution 172.94 sec.
    2    -290.8870306260      1.97E-04 Normal BFGS step
TIMEINFO->: J/JK contribution 169.94 sec.
    3    -290.8870306957      7.16E-05 Normal BFGS step
TIMEINFO->: J/JK contribution 167.84 sec.
    4    -290.8870306987      3.98E-05 Normal BFGS step
TIMEINFO->: J/JK contribution 164.25 sec.
    5    -290.8870306999      2.53E-06 Normal BFGS step
TIMEINFO->: J/JK contribution 159.62 sec.
    6    -290.8870306999      1.80E-06 Normal BFGS step
TIMEINFO->: J/JK contribution 157.29 sec.
    7    -290.8870306999      5.04E-07 Normal BFGS step
TIMEINFO->: J/JK contribution 162.82 sec.
    8    -290.8870306999      1.07E-07 Normal BFGS step
TIMEINFO->: J/JK contribution 161.50 sec.
   GDM::WARNING energy changes are now smaller than effective accuracy.
   GDM::        calculation will continue, but THRESH should be increased
   GDM::        or SCF_CONVERGENCE decreased.
   GDM::        effective_thresh =   9.000000000000000E-011
    9    -290.8870306999      9.01E-09 Convergence criterion met
 ---------------------------------------
 SCF time:  CPU 1688.85 s  wall 236.85 s
 SCF   energy in the final basis set = -290.88703070
 Total energy in the final basis set = -290.88703070
 
 Components of the MP2 correlation energy:
        aaaa  correlation energy =        -0.0328474364 au
        abab  correlation energy =        -0.1802251504 au
        bbbb  correlation energy =        -0.0278227469 au
        non-Brillouin singles    =        -0.0007974062 au

 Total  MP2   correlation energy =                    -0.24169274 au
        MP2         total energy =                  -291.12872344 au
 
 --------------------------------------------------------------
 
                    Orbital Energies (a.u.)
 --------------------------------------------------------------
 
 Alpha MOs
 -- Occupied --
-67.640  -5.786  -4.001  -4.001  -4.009  -0.701  -0.485  -0.485
 -0.333
 -- Virtual --
  0.030   0.045   0.045   0.050   0.067   0.067   0.112   0.112
  0.106   0.119   0.121   0.121   0.193   0.193   0.190   0.203
  0.217   0.217   0.244   0.244   0.259   0.259   0.286   0.286
  0.315   0.326   0.326   0.364   0.382   0.382   0.389   0.417
  0.436   0.437   0.437   0.450   0.450   0.477   0.477   0.478
  0.596   0.619   0.659   0.659   0.688   0.688   0.704   0.704
  0.717   0.773   0.773   0.792   0.801   0.801   0.842   0.878
  0.878   0.872   0.899   0.902   0.902   0.943   0.943   1.010
  1.010   1.016   1.030   1.068   1.068   1.080   1.106   1.177
  1.177   1.177   1.201   1.201   1.218   1.235   1.307   1.307
  1.465   1.465   1.479   1.494   1.494   1.525   1.531   1.531
  1.669   1.671   1.671   1.731   1.802   1.802   1.854   1.884
  1.884   1.906   1.944   1.944   1.957   1.957   1.987   2.025
  2.044   2.044   2.098   2.098   2.120   2.142   2.171   2.171
  2.224   2.224   2.276   2.303   2.350   2.388   2.388   2.482
  2.482   2.489   2.518   2.534   2.534   2.607   2.607   2.666
  2.672   2.672   2.675   2.675   2.713   2.813   2.813   2.822
  2.822   2.995   2.995   3.069   3.077   3.122   3.122   3.354
  3.354   3.363   3.400   3.400   3.399   3.401   3.582   3.582
  3.868   3.868   3.884   3.941   3.941   4.059   4.081   4.081
  4.122   4.489   4.955   4.955   6.099   6.404   6.404   6.599
  6.599   6.600   6.620   6.620   6.644   6.682   6.732   6.732
  6.817   6.867   6.867   6.879   7.001   7.001   7.038   7.059
  7.059   7.324   7.344   7.344   7.578   7.753   7.753   8.024
  8.024   8.033   8.426   8.426   8.481   8.493   8.535   8.535
  8.575   8.575   8.642   8.708   8.760   8.760   9.076   9.076
  9.143   9.274   9.331   9.331   9.495   9.495   9.560   9.940
  9.940   9.961  11.914  12.484  12.484  13.868  13.985  13.985
 14.085  14.085  14.294  14.406  19.244  21.772  21.772  22.056
 22.430  22.430  32.815  33.271  33.271  38.772  38.773  38.773
 38.776  38.776  38.778  38.782  38.786  38.786  48.150  48.187
 48.187  48.256  48.256  48.346  48.392  55.637  64.333  64.333
 64.496  64.799  64.799 101.584 101.952 101.952 269.246
 
 Beta MOs
 -- Occupied --
-67.636  -5.780  -3.999  -3.999  -3.993  -0.668  -0.473  -0.473
 -- Virtual --
  0.026   0.036   0.050   0.050   0.064   0.071   0.071   0.119
  0.119   0.131   0.123   0.135   0.135   0.196   0.196   0.211
  0.214   0.227   0.227   0.257   0.257   0.259   0.275   0.293
  0.293   0.321   0.333   0.333   0.365   0.387   0.387   0.392
  0.426   0.435   0.438   0.438   0.462   0.462   0.478   0.478
  0.505   0.597   0.620   0.666   0.666   0.689   0.689   0.707
  0.707   0.722   0.779   0.779   0.790   0.808   0.808   0.839
  0.876   0.876   0.895   0.897   0.903   0.903   0.946   0.946
  1.018   1.018   1.018   1.037   1.072   1.072   1.083   1.107
  1.172   1.172   1.180   1.200   1.200   1.216   1.234   1.301
  1.301   1.469   1.469   1.480   1.496   1.496   1.533   1.532
  1.532   1.668   1.676   1.676   1.738   1.802   1.802   1.853
  1.883   1.883   1.910   1.944   1.944   1.959   1.959   1.983
  2.027   2.047   2.047   2.102   2.102   2.124   2.146   2.177
  2.177   2.227   2.227   2.280   2.304   2.363   2.401   2.401
  2.490   2.490   2.495   2.519   2.535   2.535   2.616   2.616
  2.677   2.679   2.679   2.684   2.684   2.720   2.820   2.820
  2.829   2.839   2.999   2.999   3.075   3.080   3.134   3.134
  3.363   3.363   3.375   3.403   3.403   3.406   3.406   3.588
  3.588   3.875   3.875   3.888   3.947   3.947   4.065   4.085
  4.085   4.125   4.507   4.959   4.959   6.105   6.407   6.407
  6.600   6.600   6.602   6.621   6.621   6.647   6.684   6.735
  6.735   6.819   6.868   6.868   6.881   7.004   7.004   7.042
  7.061   7.061   7.326   7.349   7.349   7.582   7.757   7.757
  8.027   8.027   8.036   8.429   8.429   8.483   8.496   8.537
  8.537   8.578   8.578   8.644   8.710   8.762   8.762   9.079
  9.079   9.146   9.275   9.333   9.333   9.498   9.498   9.562
  9.944   9.944   9.965  11.928  12.488  12.488  13.868  13.985
 13.985  14.085  14.085  14.294  14.407  19.248  21.777  21.777
 22.063  22.433  22.433  32.823  33.273  33.273  38.774  38.775
 38.775  38.777  38.777  38.779  38.783  38.786  38.786  48.154
 48.191  48.191  48.260  48.260  48.347  48.394  55.640  64.337
 64.337  64.503  64.801  64.801 101.590 101.953 101.953 269.248
 --------------------------------------------------------------
 
          Ground-State Mulliken Net Atomic Charges

     Atom                 Charge (a.u.)
  ----------------------------------------
      1 Si                    0.270249
      2 H                    -0.090073
      3 H                    -0.090088
      4 H                    -0.090088
  ----------------------------------------
  Sum of atomic charges =     0.000000

 -----------------------------------------------------------------
                    Cartesian Multipole Moments
 -----------------------------------------------------------------
    Charge (ESU x 10^10)
                 0.0000
    Dipole Moment (Debye)
         X       0.0000      Y      -0.0000      Z       0.0166
       Tot       0.0166
    Quadrupole Moments (Debye-Ang)
        XX     -16.0064     XY       0.0000     YY     -16.0064
        XZ      -0.0000     YZ      -0.0000     ZZ     -16.3649
    Octopole Moments (Debye-Ang^2)
       XXX       0.0000    XXY       0.9486    XYY      -0.0000
       YYY      -0.9486    XXZ       0.4112    XYZ       0.0000
       YYZ       0.4112    XZZ       0.0000    YZZ      -0.0000
       ZZZ      -2.0327
    Hexadecapole Moments (Debye-Ang^3)
      XXXX     -42.3873   XXXY      -0.0000   XXYY     -14.1291
      XYYY       0.0000   YYYY     -42.3873   XXXZ      -0.0000
      XXYZ       0.2159   XYYZ      -0.0000   YYYZ      -0.2159
      XXZZ     -12.5122   XYZZ       0.0000   YYZZ     -12.5122
      XZZZ      -0.0000   YZZZ      -0.0000   ZZZZ     -33.5735
 -----------------------------------------------------------------
Archival summary:
1\1\n0041.mhg0\SP\ROProcedureUnspecified\BasisUnspecified\i13(2)\yhljason\MonNov921:16:122020MonNov921:16:122020\0\\#,ROProcedureUnspecified,BasisUnspecified,\\0,2\Si\H,1,1.46802\H,1,1.46802,2,110.5\H,1,1.46802,2,110.5,3,122.613,0\\\@

 Total job time:  751.71s(wall), 5764.13s(cpu) 
 Mon Nov  9 21:16:12 2020

        *************************************************************
        *                                                           *
        *  Thank you very much for using Q-Chem.  Have a nice day.  *
        *                                                           *
        *************************************************************


