Jobname.Temp
SP        R                             aug-pc-4            
Number of atoms                            I                3
Charge                                     I                0
Multiplicity                               I                1
Number of electrons                        I                6
Number of alpha electrons                  I                3
Number of beta electrons                   I                3
Atomic numbers                             I   N=           3
           2           2           2
Current cartesian coordinates              R   N=           9
  2.31901748E+00 -2.49153889E+00 -5.92121001E+00  4.70853742E+00 -2.22167107E+00
 -8.03664370E+00  7.09927284E+00 -1.95219291E+00 -1.01535126E+01
Nuclear charges                            R   N=           3
  2.00000000E+00  2.00000000E+00  2.00000000E+00
Number of basis functions                  I              264
Number of contracted shells                I               72
Number of primitive shells                 I               84
Highest angular momentum                   I                4
Largest degree of contraction              I                5
Shell types                                I   N=          72
           0           0           0           0           0           0
           0           0           1           1           1           1
           1           1           1          -2          -2          -2
          -2          -3          -3          -3          -4          -4
           0           0           0           0           0           0
           0           0           1           1           1           1
           1           1           1          -2          -2          -2
          -2          -3          -3          -3          -4          -4
           0           0           0           0           0           0
           0           0           1           1           1           1
           1           1           1          -2          -2          -2
          -2          -3          -3          -3          -4          -4
Number of primitives per shell             I   N=          72
           5           1           1           1           1           1
           1           1           1           1           1           1
           1           1           1           1           1           1
           1           1           1           1           1           1
           5           1           1           1           1           1
           1           1           1           1           1           1
           1           1           1           1           1           1
           1           1           1           1           1           1
           5           1           1           1           1           1
           1           1           1           1           1           1
           1           1           1           1           1           1
           1           1           1           1           1           1
Shell to atom map                          I   N=          72
           1           1           1           1           1           1
           1           1           1           1           1           1
           1           1           1           1           1           1
           1           1           1           1           1           1
           2           2           2           2           2           2
           2           2           2           2           2           2
           2           2           2           2           2           2
           2           2           2           2           2           2
           3           3           3           3           3           3
           3           3           3           3           3           3
           3           3           3           3           3           3
           3           3           3           3           3           3
Primitive exponents                        R   N=          84
  8.78020000E+03  1.31560000E+03  2.99460000E+02  8.48330000E+01  2.76910000E+01
  1.00080000E+01  3.89240000E+00  1.58190000E+00  6.56980000E-01  2.64590000E-01
  1.05850000E-01  3.92000000E-02  4.05000000E+01  8.90000000E+00  2.85000000E+00
  1.30000000E+00  6.00000000E-01  2.00000000E-01  1.17600000E-01  3.70000000E+00
  1.20000000E+00  5.00000000E-01  1.56800000E-01  4.10000000E+00  1.50000000E+00
  1.96000000E-01  4.65000000E+00  2.35200000E-01  8.78020000E+03  1.31560000E+03
  2.99460000E+02  8.48330000E+01  2.76910000E+01  1.00080000E+01  3.89240000E+00
  1.58190000E+00  6.56980000E-01  2.64590000E-01  1.05850000E-01  3.92000000E-02
  4.05000000E+01  8.90000000E+00  2.85000000E+00  1.30000000E+00  6.00000000E-01
  2.00000000E-01  1.17600000E-01  3.70000000E+00  1.20000000E+00  5.00000000E-01
  1.56800000E-01  4.10000000E+00  1.50000000E+00  1.96000000E-01  4.65000000E+00
  2.35200000E-01  8.78020000E+03  1.31560000E+03  2.99460000E+02  8.48330000E+01
  2.76910000E+01  1.00080000E+01  3.89240000E+00  1.58190000E+00  6.56980000E-01
  2.64590000E-01  1.05850000E-01  3.92000000E-02  4.05000000E+01  8.90000000E+00
  2.85000000E+00  1.30000000E+00  6.00000000E-01  2.00000000E-01  1.17600000E-01
  3.70000000E+00  1.20000000E+00  5.00000000E-01  1.56800000E-01  4.10000000E+00
  1.50000000E+00  1.96000000E-01  4.65000000E+00  2.35200000E-01
Contraction coefficients                   R   N=          84
  1.29016314E-03  1.00255108E-02  5.26297525E-02  2.20737200E-01  7.84224575E-01
  1.00000000E+00  1.00000000E+00  1.00000000E+00  1.00000000E+00  1.00000000E+00
  1.00000000E+00  1.00000000E+00  1.00000000E+00  1.00000000E+00  1.00000000E+00
  1.00000000E+00  1.00000000E+00  1.00000000E+00  1.00000000E+00  1.00000000E+00
  1.00000000E+00  1.00000000E+00  1.00000000E+00  1.00000000E+00  1.00000000E+00
  1.00000000E+00  1.00000000E+00  1.00000000E+00  1.29016314E-03  1.00255108E-02
  5.26297525E-02  2.20737200E-01  7.84224575E-01  1.00000000E+00  1.00000000E+00
  1.00000000E+00  1.00000000E+00  1.00000000E+00  1.00000000E+00  1.00000000E+00
  1.00000000E+00  1.00000000E+00  1.00000000E+00  1.00000000E+00  1.00000000E+00
  1.00000000E+00  1.00000000E+00  1.00000000E+00  1.00000000E+00  1.00000000E+00
  1.00000000E+00  1.00000000E+00  1.00000000E+00  1.00000000E+00  1.00000000E+00
  1.00000000E+00  1.29016314E-03  1.00255108E-02  5.26297525E-02  2.20737200E-01
  7.84224575E-01  1.00000000E+00  1.00000000E+00  1.00000000E+00  1.00000000E+00
  1.00000000E+00  1.00000000E+00  1.00000000E+00  1.00000000E+00  1.00000000E+00
  1.00000000E+00  1.00000000E+00  1.00000000E+00  1.00000000E+00  1.00000000E+00
  1.00000000E+00  1.00000000E+00  1.00000000E+00  1.00000000E+00  1.00000000E+00
  1.00000000E+00  1.00000000E+00  1.00000000E+00  1.00000000E+00
Coordinates of each shell                  R   N=         216
  2.31901748E+00 -2.49153889E+00 -5.92121001E+00  2.31901748E+00 -2.49153889E+00
 -5.92121001E+00  2.31901748E+00 -2.49153889E+00 -5.92121001E+00  2.31901748E+00
 -2.49153889E+00 -5.92121001E+00  2.31901748E+00 -2.49153889E+00 -5.92121001E+00
  2.31901748E+00 -2.49153889E+00 -5.92121001E+00  2.31901748E+00 -2.49153889E+00
 -5.92121001E+00  2.31901748E+00 -2.49153889E+00 -5.92121001E+00  2.31901748E+00
 -2.49153889E+00 -5.92121001E+00  2.31901748E+00 -2.49153889E+00 -5.92121001E+00
  2.31901748E+00 -2.49153889E+00 -5.92121001E+00  2.31901748E+00 -2.49153889E+00
 -5.92121001E+00  2.31901748E+00 -2.49153889E+00 -5.92121001E+00  2.31901748E+00
 -2.49153889E+00 -5.92121001E+00  2.31901748E+00 -2.49153889E+00 -5.92121001E+00
  2.31901748E+00 -2.49153889E+00 -5.92121001E+00  2.31901748E+00 -2.49153889E+00
 -5.92121001E+00  2.31901748E+00 -2.49153889E+00 -5.92121001E+00  2.31901748E+00
 -2.49153889E+00 -5.92121001E+00  2.31901748E+00 -2.49153889E+00 -5.92121001E+00
  2.31901748E+00 -2.49153889E+00 -5.92121001E+00  2.31901748E+00 -2.49153889E+00
 -5.92121001E+00  2.31901748E+00 -2.49153889E+00 -5.92121001E+00  2.31901748E+00
 -2.49153889E+00 -5.92121001E+00  4.70853742E+00 -2.22167107E+00 -8.03664370E+00
  4.70853742E+00 -2.22167107E+00 -8.03664370E+00  4.70853742E+00 -2.22167107E+00
 -8.03664370E+00  4.70853742E+00 -2.22167107E+00 -8.03664370E+00  4.70853742E+00
 -2.22167107E+00 -8.03664370E+00  4.70853742E+00 -2.22167107E+00 -8.03664370E+00
  4.70853742E+00 -2.22167107E+00 -8.03664370E+00  4.70853742E+00 -2.22167107E+00
 -8.03664370E+00  4.70853742E+00 -2.22167107E+00 -8.03664370E+00  4.70853742E+00
 -2.22167107E+00 -8.03664370E+00  4.70853742E+00 -2.22167107E+00 -8.03664370E+00
  4.70853742E+00 -2.22167107E+00 -8.03664370E+00  4.70853742E+00 -2.22167107E+00
 -8.03664370E+00  4.70853742E+00 -2.22167107E+00 -8.03664370E+00  4.70853742E+00
 -2.22167107E+00 -8.03664370E+00  4.70853742E+00 -2.22167107E+00 -8.03664370E+00
  4.70853742E+00 -2.22167107E+00 -8.03664370E+00  4.70853742E+00 -2.22167107E+00
 -8.03664370E+00  4.70853742E+00 -2.22167107E+00 -8.03664370E+00  4.70853742E+00
 -2.22167107E+00 -8.03664370E+00  4.70853742E+00 -2.22167107E+00 -8.03664370E+00
  4.70853742E+00 -2.22167107E+00 -8.03664370E+00  4.70853742E+00 -2.22167107E+00
 -8.03664370E+00  4.70853742E+00 -2.22167107E+00 -8.03664370E+00  7.09927284E+00
 -1.95219291E+00 -1.01535126E+01  7.09927284E+00 -1.95219291E+00 -1.01535126E+01
  7.09927284E+00 -1.95219291E+00 -1.01535126E+01  7.09927284E+00 -1.95219291E+00
 -1.01535126E+01  7.09927284E+00 -1.95219291E+00 -1.01535126E+01  7.09927284E+00
 -1.95219291E+00 -1.01535126E+01  7.09927284E+00 -1.95219291E+00 -1.01535126E+01
  7.09927284E+00 -1.95219291E+00 -1.01535126E+01  7.09927284E+00 -1.95219291E+00
 -1.01535126E+01  7.09927284E+00 -1.95219291E+00 -1.01535126E+01  7.09927284E+00
 -1.95219291E+00 -1.01535126E+01  7.09927284E+00 -1.95219291E+00 -1.01535126E+01
  7.09927284E+00 -1.95219291E+00 -1.01535126E+01  7.09927284E+00 -1.95219291E+00
 -1.01535126E+01  7.09927284E+00 -1.95219291E+00 -1.01535126E+01  7.09927284E+00
 -1.95219291E+00 -1.01535126E+01  7.09927284E+00 -1.95219291E+00 -1.01535126E+01
  7.09927284E+00 -1.95219291E+00 -1.01535126E+01  7.09927284E+00 -1.95219291E+00
 -1.01535126E+01  7.09927284E+00 -1.95219291E+00 -1.01535126E+01  7.09927284E+00
 -1.95219291E+00 -1.01535126E+01  7.09927284E+00 -1.95219291E+00 -1.01535126E+01
  7.09927284E+00 -1.95219291E+00 -1.01535126E+01  7.09927284E+00 -1.95219291E+00
 -1.01535126E+01
Overlap Matrix                             R   N=       34980
  1.00000000E+00  7.69025572E-01  1.00000000E+00  4.81893814E-01  8.50996193E-01
  1.00000000E+00  2.72191516E-01  5.68944892E-01  8.63176226E-01  1.00000000E+00
  1.47168564E-01  3.33449069E-01  5.89445806E-01  8.69054774E-01  1.00000000E+00
  7.58420532E-02  1.78326384E-01  3.41169101E-01  5.86595724E-01  8.60689851E-01
  1.00000000E+00  3.84505711E-02  9.18224445E-02  1.81937122E-01  3.37664368E-01
  5.74891127E-01  8.58848174E-01  1.00000000E+00  1.83140681E-02  4.40253123E-02
  8.85765278E-02  1.70286063E-01  3.13033878E-01  5.49008922E-01  8.37049403E-01
  1.00000000E+00  3.62562054E-19  0.00000000E+00  0.00000000E+00  0.00000000E+00
  0.00000000E+00  0.00000000E+00  0.00000000E+00  0.00000000E+00  1.00000000E+00
  4.46964280E-15  0.00000000E+00  0.00000000E+00  0.00000000E+00  0.00000000E+00
  0.00000000E+00  0.00000000E+00  0.00000000E+00 -3.19488667E-29  1.00000000E+00
  0.00000000E+00 -8.04663311E-15  0.00000000E+00 -2.65237695E-15 -1.41870744E-15
 -7.27611303E-16 -3.68153745E-16  0.00000000E+00  0.00000000E+00  0.00000000E+00
  1.00000000E+00  2.70745815E-17  0.00000000E+00  0.00000000E+00  0.00000000E+00
  0.00000000E+00  0.00000000E+00  2.65163536E-16  0.00000000E+00  5.17981089E-01
  0.00000000E+00  0.00000000E+00  1.00000000E+00 -2.62568784E-16  0.00000000E+00
  2.33893294E-15  0.00000000E+00  0.00000000E+00  0.00000000E+00  2.65163536E-16
  0.00000000E+00  0.00000000E+00  5.17981089E-01  0.00000000E+00  0.00000000E+00
  1.00000000E+00  3.61869704E-18  0.00000000E+00  4.67786588E-15  0.00000000E+00
  0.00000000E+00  0.00000000E+00  0.00000000E+00 -2.54582932E-16  0.00000000E+00
  0.00000000E+00  5.17981089E-01  0.00000000E+00  0.00000000E+00  1.00000000E+00
  0.00000000E+00  0.00000000E+00  0.00000000E+00 -1.40637334E-15  0.00000000E+00
 -6.24352748E-16  0.00000000E+00  0.00000000E+00  1.72972510E-01  0.00000000E+00
  0.00000000E+00  6.80415042E-01  0.00000000E+00  0.00000000E+00  1.00000000E+00
 -6.99080735E-17  1.13527644E-15  0.00000000E+00  0.00000000E+00  1.03363085E-15
  6.24352748E-16  0.00000000E+00  0.00000000E+00  0.00000000E+00  1.72972510E-01
  0.00000000E+00  0.00000000E+00  6.80415042E-01  0.00000000E+00  0.00000000E+00
  1.00000000E+00  2.64506400E-20  0.00000000E+00  0.00000000E+00  0.00000000E+00
  0.00000000E+00  0.00000000E+00  0.00000000E+00  0.00000000E+00  0.00000000E+00
  0.00000000E+00  1.72972510E-01  0.00000000E+00  0.00000000E+00  6.80415042E-01
  0.00000000E+00  0.00000000E+00  1.00000000E+00  2.11487263E-16  0.00000000E+00
  0.00000000E+00  0.00000000E+00  0.00000000E+00  0.00000000E+00  0.00000000E+00
  0.00000000E+00  7.10202594E-02  0.00000000E+00  0.00000000E+00  3.63279807E-01
 -1.46154391E-30 -2.92308782E-30  8.28781432E-01  0.00000000E+00 -2.71324207E-30
  1.00000000E+00 -2.35711026E-16  5.16007689E-16  8.16742748E-16  0.00000000E+00
  0.00000000E+00  0.00000000E+00  0.00000000E+00  0.00000000E+00  0.00000000E+00
  7.10202594E-02  0.00000000E+00 -1.46154391E-30  3.63279807E-01  2.92308782E-30
  0.00000000E+00  8.28781432E-01  0.00000000E+00  0.00000000E+00  1.00000000E+00
 -4.22964609E-16  0.00000000E+00  1.63348550E-15  0.00000000E+00  1.85904082E-15
  0.00000000E+00  7.76451021E-16  0.00000000E+00  0.00000000E+00  0.00000000E+00
  7.10202594E-02 -2.92308782E-30  2.92308782E-30  3.63279807E-01 -2.71324207E-30
  0.00000000E+00  8.28781432E-01  0.00000000E+00  0.00000000E+00  1.00000000E+00
  0.00000000E+00  0.00000000E+00  3.86082168E-16 -5.80585626E-16  0.00000000E+00
  0.00000000E+00  0.00000000E+00  0.00000000E+00  2.81824196E-02  0.00000000E+00
  0.00000000E+00  1.65079273E-01  0.00000000E+00  0.00000000E+00  5.00348255E-01
  0.00000000E+00  0.00000000E+00  8.33315078E-01  0.00000000E+00  0.00000000E+00
  1.00000000E+00  9.66957883E-19  0.00000000E+00  3.86082168E-16  5.80585626E-16
 -6.86919482E-16  0.00000000E+00  0.00000000E+00 -2.28688157E-16  0.00000000E+00
  2.81824196E-02  0.00000000E+00  0.00000000E+00  1.65079273E-01  0.00000000E+00
  0.00000000E+00  5.00348255E-01  0.00000000E+00  0.00000000E+00  8.33315078E-01
  0.00000000E+00  0.00000000E+00  1.00000000E+00  1.93768919E-18 -4.32090258E-16
  7.72164336E-16  1.16117125E-15 -1.37383896E-15  0.00000000E+00  0.00000000E+00
 -4.57376314E-16  0.00000000E+00  0.00000000E+00  2.81824196E-02  0.00000000E+00
  0.00000000E+00  1.65079273E-01  0.00000000E+00  0.00000000E+00  5.00348255E-01
  0.00000000E+00  0.00000000E+00  8.33315078E-01  0.00000000E+00  0.00000000E+00
  1.00000000E+00 -2.39901161E-18  0.00000000E+00  1.12467927E-16  0.00000000E+00
 -3.09058567E-16  0.00000000E+00  0.00000000E+00  0.00000000E+00  7.31467845E-03
 -1.17424870E-31  0.00000000E+00  4.65582353E-02  0.00000000E+00  0.00000000E+00
  1.72452288E-01  0.00000000E+00  0.00000000E+00  3.81121568E-01  0.00000000E+00
  0.00000000E+00  6.97953644E-01  0.00000000E+00  0.00000000E+00  1.00000000E+00
  4.77896875E-22  0.00000000E+00  0.00000000E+00  0.00000000E+00  3.09058567E-16
  0.00000000E+00  0.00000000E+00  2.53020373E-16 -1.17424870E-31  7.31467845E-03
  0.00000000E+00  0.00000000E+00  4.65582353E-02  0.00000000E+00  0.00000000E+00
  1.72452288E-01  0.00000000E+00  0.00000000E+00  3.81121568E-01  0.00000000E+00
  0.00000000E+00  6.97953644E-01  0.00000000E+00  0.00000000E+00  1.00000000E+00
  1.91158750E-21  0.00000000E+00  2.24935853E-16  0.00000000E+00  1.23623427E-15
  7.82866995E-16  7.37255668E-16  5.06040747E-16  0.00000000E+00  0.00000000E+00
  7.31467845E-03  0.00000000E+00  0.00000000E+00  4.65582353E-02  0.00000000E+00
  0.00000000E+00  1.72452288E-01  0.00000000E+00  0.00000000E+00  3.81121568E-01
  0.00000000E+00  0.00000000E+00  6.97953644E-01  0.00000000E+00  0.00000000E+00
  1.00000000E+00  1.26654433E-19  0.00000000E+00  0.00000000E+00  1.10142994E-16
 -1.85190650E-16  0.00000000E+00  0.00000000E+00  0.00000000E+00  3.78544791E-03
 -6.06459733E-32 -1.21291947E-31  2.45241651E-02  0.00000000E+00  0.00000000E+00
  9.50882403E-02  0.00000000E+00  0.00000000E+00  2.26010736E-01  0.00000000E+00
  0.00000000E+00  4.71592760E-01 -1.33481168E-31 -2.66962335E-31  9.16580053E-01
  0.00000000E+00  0.00000000E+00  1.00000000E+00 -1.18715543E-19  0.00000000E+00
  5.97036526E-17  0.00000000E+00  1.85190650E-16  0.00000000E+00  0.00000000E+00
  0.00000000E+00 -6.06459733E-32  3.78544791E-03  1.21291947E-31  0.00000000E+00
  2.45241651E-02  0.00000000E+00  0.00000000E+00  9.50882403E-02  0.00000000E+00
  0.00000000E+00  2.26010736E-01  0.00000000E+00 -1.33481168E-31  4.71592760E-01
  2.66962335E-31  0.00000000E+00  9.16580053E-01  0.00000000E+00  0.00000000E+00
  1.00000000E+00  0.00000000E+00  0.00000000E+00  0.00000000E+00 -2.20285988E-16
  0.00000000E+00  5.40250837E-16  0.00000000E+00  0.00000000E+00 -1.21291947E-31
  1.21291947E-31  3.78544791E-03  0.00000000E+00  0.00000000E+00  2.45241651E-02
  0.00000000E+00  0.00000000E+00  9.50882403E-02  0.00000000E+00  0.00000000E+00
  2.26010736E-01 -2.66962335E-31  2.66962335E-31  4.71592760E-01  0.00000000E+00
  0.00000000E+00  9.16580053E-01 -1.85540085E-31  0.00000000E+00  1.00000000E+00
  0.00000000E+00  0.00000000E+00  0.00000000E+00  0.00000000E+00  0.00000000E+00
  0.00000000E+00  0.00000000E+00  0.00000000E+00  0.00000000E+00  0.00000000E+00
 -9.00929261E-16  0.00000000E+00  0.00000000E+00  0.00000000E+00  9.65651503E-16
 -9.65651503E-16  0.00000000E+00 -7.11003560E-16  7.11003560E-16 -2.84401424E-15
 -3.94353337E-16  3.94353337E-16  0.00000000E+00  0.00000000E+00 -1.27495123E-16
  0.00000000E+00 -6.92469569E-17  0.00000000E+00 -2.76987828E-16  1.00000000E+00
 -2.37091039E-30 -4.88346151E-30  0.00000000E+00  0.00000000E+00  0.00000000E+00
  0.00000000E+00  0.00000000E+00  0.00000000E+00 -7.80227627E-16  0.00000000E+00
  0.00000000E+00  0.00000000E+00  0.00000000E+00  0.00000000E+00  0.00000000E+00
  0.00000000E+00 -1.67255747E-15 -2.46298858E-15  4.85738850E-45  1.23149429E-15
  0.00000000E+00  0.00000000E+00  6.83040015E-16  0.00000000E+00  0.00000000E+00
  0.00000000E+00 -2.39878495E-16  0.00000000E+00  1.19939248E-16  0.00000000E+00
  1.00000000E+00  2.37097301E-30  4.88346151E-30  0.00000000E+00  0.00000000E+00
  0.00000000E+00  0.00000000E+00  0.00000000E+00  0.00000000E+00  0.00000000E+00
 -7.80227627E-16  0.00000000E+00  0.00000000E+00  0.00000000E+00  0.00000000E+00
  0.00000000E+00  0.00000000E+00  1.67255747E-15  4.85738850E-45 -2.46298858E-15
 -1.23149429E-15  0.00000000E+00  0.00000000E+00 -6.83040015E-16  0.00000000E+00
  0.00000000E+00  2.20828031E-16  0.00000000E+00 -2.39878495E-16  0.00000000E+00
  0.00000000E+00  0.00000000E+00  1.00000000E+00  0.00000000E+00  0.00000000E+00
  0.00000000E+00  0.00000000E+00  0.00000000E+00  0.00000000E+00  0.00000000E+00
  0.00000000E+00  0.00000000E+00  0.00000000E+00  0.00000000E+00  0.00000000E+00
  0.00000000E+00  0.00000000E+00 -1.67255747E-15 -1.67255747E-15  0.00000000E+00
  1.23149429E-15  1.23149429E-15  0.00000000E+00  6.83040015E-16  6.83040015E-16
  0.00000000E+00  0.00000000E+00 -2.20828031E-16  0.00000000E+00  1.19939248E-16
  0.00000000E+00  0.00000000E+00  0.00000000E+00  0.00000000E+00  0.00000000E+00
  1.00000000E+00 -1.18545520E-30 -2.44173075E-30  0.00000000E+00  0.00000000E+00
  0.00000000E+00  0.00000000E+00  0.00000000E+00  0.00000000E+00  0.00000000E+00
  0.00000000E+00  0.00000000E+00  0.00000000E+00  0.00000000E+00  0.00000000E+00
  1.67255747E-15 -1.67255747E-15  0.00000000E+00 -1.23149429E-15  1.23149429E-15
  4.85738850E-45 -6.83040015E-16  6.83040015E-16  0.00000000E+00  2.20828031E-16
  0.00000000E+00  0.00000000E+00  0.00000000E+00  1.19939248E-16  0.00000000E+00
  0.00000000E+00  0.00000000E+00  0.00000000E+00  0.00000000E+00  1.00000000E+00
  0.00000000E+00  0.00000000E+00  0.00000000E+00  0.00000000E+00  0.00000000E+00
  0.00000000E+00  0.00000000E+00  0.00000000E+00  0.00000000E+00  0.00000000E+00
 -1.45251422E-16 -1.89241261E-16  1.89241261E-16  0.00000000E+00  0.00000000E+00
  0.00000000E+00 -1.79085436E-15  0.00000000E+00  5.60610113E-16 -2.24244045E-15
  0.00000000E+00  0.00000000E+00  0.00000000E+00  0.00000000E+00  0.00000000E+00
  0.00000000E+00  0.00000000E+00  0.00000000E+00  0.00000000E+00  5.89982191E-01
  0.00000000E+00  0.00000000E+00  0.00000000E+00  0.00000000E+00  1.00000000E+00
  0.00000000E+00  0.00000000E+00  0.00000000E+00  0.00000000E+00  0.00000000E+00
  0.00000000E+00  0.00000000E+00  0.00000000E+00 -1.25791421E-16  0.00000000E+00
  0.00000000E+00  0.00000000E+00  0.00000000E+00  3.27775479E-16 -1.55092537E-15
  0.00000000E+00  0.00000000E+00 -1.94201040E-15  0.00000000E+00  0.00000000E+00
  0.00000000E+00  0.00000000E+00  0.00000000E+00  0.00000000E+00  0.00000000E+00
  0.00000000E+00  0.00000000E+00  0.00000000E+00  0.00000000E+00  0.00000000E+00
  5.89982191E-01  0.00000000E+00  0.00000000E+00  0.00000000E+00  0.00000000E+00
  1.00000000E+00  3.74277025E-31  0.00000000E+00  0.00000000E+00  0.00000000E+00
  0.00000000E+00  0.00000000E+00  0.00000000E+00  0.00000000E+00  0.00000000E+00
 -1.25791421E-16  0.00000000E+00  0.00000000E+00  0.00000000E+00 -3.27775479E-16
  0.00000000E+00 -1.55092537E-15  0.00000000E+00  0.00000000E+00 -1.94201040E-15
 -9.71005199E-16  0.00000000E+00  0.00000000E+00  0.00000000E+00  0.00000000E+00
  0.00000000E+00  0.00000000E+00  0.00000000E+00  0.00000000E+00  0.00000000E+00
  0.00000000E+00  0.00000000E+00  5.89982191E-01  0.00000000E+00  0.00000000E+00
  0.00000000E+00  0.00000000E+00  1.00000000E+00  0.00000000E+00  0.00000000E+00
  0.00000000E+00  0.00000000E+00  0.00000000E+00  0.00000000E+00  0.00000000E+00
  0.00000000E+00  0.00000000E+00  0.00000000E+00  0.00000000E+00  3.27775479E-16
  3.27775479E-16  0.00000000E+00  0.00000000E+00  0.00000000E+00  0.00000000E+00
  0.00000000E+00  9.71005199E-16  0.00000000E+00  0.00000000E+00  0.00000000E+00
  0.00000000E+00  0.00000000E+00  0.00000000E+00  0.00000000E+00  0.00000000E+00
  0.00000000E+00  0.00000000E+00  0.00000000E+00  0.00000000E+00  0.00000000E+00
  5.89982191E-01  0.00000000E+00  0.00000000E+00  0.00000000E+00  0.00000000E+00
  1.00000000E+00  0.00000000E+00  0.00000000E+00  0.00000000E+00  0.00000000E+00
  0.00000000E+00  0.00000000E+00  0.00000000E+00  0.00000000E+00  0.00000000E+00
  0.00000000E+00  0.00000000E+00 -3.27775479E-16  3.27775479E-16  0.00000000E+00
  0.00000000E+00  0.00000000E+00  0.00000000E+00 -9.71005199E-16  0.00000000E+00
  0.00000000E+00  0.00000000E+00  0.00000000E+00  0.00000000E+00  0.00000000E+00
  0.00000000E+00  0.00000000E+00  0.00000000E+00  0.00000000E+00  0.00000000E+00
  0.00000000E+00  0.00000000E+00  0.00000000E+00  0.00000000E+00  5.89982191E-01
  0.00000000E+00  0.00000000E+00  0.00000000E+00  0.00000000E+00  1.00000000E+00
  0.00000000E+00  0.00000000E+00  0.00000000E+00  0.00000000E+00  0.00000000E+00
  0.00000000E+00  0.00000000E+00  0.00000000E+00  0.00000000E+00  0.00000000E+00
  0.00000000E+00 -4.89361682E-17  0.00000000E+00  0.00000000E+00  1.55473417E-16
  0.00000000E+00  6.21893668E-16  0.00000000E+00  0.00000000E+00  0.00000000E+00
  3.58855359E-16  0.00000000E+00  0.00000000E+00  0.00000000E+00  0.00000000E+00
  0.00000000E+00  0.00000000E+00  0.00000000E+00  0.00000000E+00  2.18666872E-01
  0.00000000E+00  0.00000000E+00  0.00000000E+00  0.00000000E+00  7.22434451E-01
  0.00000000E+00  5.59354551E-31  0.00000000E+00  0.00000000E+00  1.00000000E+00
  0.00000000E+00  0.00000000E+00  0.00000000E+00  0.00000000E+00 -7.77943873E-31
  0.00000000E+00 -5.22087636E-31  0.00000000E+00  0.00000000E+00  0.00000000E+00
  0.00000000E+00  0.00000000E+00  0.00000000E+00  8.47599297E-17  5.38575715E-16
  0.00000000E+00 -2.69287857E-16  0.00000000E+00  0.00000000E+00  0.00000000E+00
  0.00000000E+00  0.00000000E+00 -6.21555714E-16  0.00000000E+00  0.00000000E+00
  0.00000000E+00  0.00000000E+00  0.00000000E+00  0.00000000E+00  0.00000000E+00
  2.18666872E-01  0.00000000E+00  0.00000000E+00  0.00000000E+00  0.00000000E+00
  7.22434451E-01  0.00000000E+00  0.00000000E+00  9.68830501E-31  0.00000000E+00
  1.00000000E+00  0.00000000E+00  0.00000000E+00  3.99377141E-31  0.00000000E+00
  7.77943873E-31  0.00000000E+00  0.00000000E+00  0.00000000E+00  0.00000000E+00
  0.00000000E+00  0.00000000E+00  0.00000000E+00  0.00000000E+00  0.00000000E+00
  0.00000000E+00  5.38575715E-16  0.00000000E+00  0.00000000E+00  0.00000000E+00
  0.00000000E+00  0.00000000E+00  0.00000000E+00  0.00000000E+00  0.00000000E+00
  0.00000000E+00  0.00000000E+00  0.00000000E+00  0.00000000E+00  0.00000000E+00
  0.00000000E+00  0.00000000E+00  2.18666872E-01  0.00000000E+00  0.00000000E+00
  5.59354551E-31  0.00000000E+00  7.22434451E-01 -9.68830501E-31  0.00000000E+00
  0.00000000E+00  0.00000000E+00  1.00000000E+00  0.00000000E+00  0.00000000E+00
  0.00000000E+00  0.00000000E+00  0.00000000E+00  0.00000000E+00  0.00000000E+00
  0.00000000E+00  0.00000000E+00  0.00000000E+00  0.00000000E+00  8.47599297E-17
  0.00000000E+00  0.00000000E+00 -2.69287857E-16  0.00000000E+00  0.00000000E+00
  0.00000000E+00  0.00000000E+00  0.00000000E+00 -6.21555714E-16  0.00000000E+00
  0.00000000E+00  0.00000000E+00  0.00000000E+00  0.00000000E+00  0.00000000E+00
  0.00000000E+00  0.00000000E+00  0.00000000E+00  0.00000000E+00  0.00000000E+00
  2.18666872E-01  0.00000000E+00  0.00000000E+00  0.00000000E+00 -9.68830501E-31
  7.22434451E-01  0.00000000E+00  0.00000000E+00  0.00000000E+00  0.00000000E+00
  1.00000000E+00  0.00000000E+00  0.00000000E+00  0.00000000E+00  0.00000000E+00
 -3.88971936E-31  0.00000000E+00  0.00000000E+00  0.00000000E+00  0.00000000E+00
  0.00000000E+00  0.00000000E+00  0.00000000E+00  8.47599297E-17  0.00000000E+00
  0.00000000E+00 -2.69287857E-16  0.00000000E+00  0.00000000E+00  0.00000000E+00
  0.00000000E+00  0.00000000E+00 -6.21555714E-16  0.00000000E+00  0.00000000E+00
  0.00000000E+00  0.00000000E+00  0.00000000E+00  0.00000000E+00  0.00000000E+00
  0.00000000E+00  0.00000000E+00  0.00000000E+00  0.00000000E+00  2.18666872E-01
  0.00000000E+00  9.68830501E-31  0.00000000E+00  0.00000000E+00  7.22434451E-01
  0.00000000E+00  0.00000000E+00  0.00000000E+00  0.00000000E+00  1.00000000E+00
  0.00000000E+00  0.00000000E+00  0.00000000E+00  0.00000000E+00  0.00000000E+00
  0.00000000E+00  0.00000000E+00  0.00000000E+00  1.09864144E-18  0.00000000E+00
 -4.39456576E-18  0.00000000E+00  0.00000000E+00  0.00000000E+00  2.67710190E-17
  0.00000000E+00  1.07084076E-16  0.00000000E+00 -6.14185472E-17  0.00000000E+00
  0.00000000E+00  1.20117542E-16 -4.80470167E-16  0.00000000E+00  0.00000000E+00
  7.97362033E-16 -1.97887821E-16  1.97887821E-16 -7.91551282E-16  3.87274310E-02
  0.00000000E+00  6.80276728E-32  0.00000000E+00  0.00000000E+00  2.09036606E-01
  0.00000000E+00  0.00000000E+00  0.00000000E+00  0.00000000E+00  5.72324174E-01
  0.00000000E+00  0.00000000E+00  0.00000000E+00  0.00000000E+00  1.00000000E+00
  1.10961645E-32  0.00000000E+00  0.00000000E+00  0.00000000E+00 -1.73314388E-31
  0.00000000E+00  0.00000000E+00  0.00000000E+00 -3.80580559E-18  0.00000000E+00
 -1.90290279E-18  0.00000000E+00  0.00000000E+00  0.00000000E+00  9.27375300E-17
  0.00000000E+00 -4.63687650E-17  0.00000000E+00  0.00000000E+00  0.00000000E+00
 -4.16099370E-16  0.00000000E+00  0.00000000E+00  6.90535776E-16  0.00000000E+00
  0.00000000E+00 -6.85503519E-16  7.41932223E-47  3.42751759E-16  0.00000000E+00
  3.87274310E-02  0.00000000E+00  0.00000000E+00  1.17827386E-31  0.00000000E+00
  2.09036606E-01  0.00000000E+00  0.00000000E+00  0.00000000E+00  0.00000000E+00
  5.72324174E-01  0.00000000E+00  0.00000000E+00  0.00000000E+00  0.00000000E+00
  1.00000000E+00  8.00049756E-36  0.00000000E+00  0.00000000E+00  0.00000000E+00
  0.00000000E+00  0.00000000E+00  0.00000000E+00  0.00000000E+00  0.00000000E+00
 -3.80580559E-18  0.00000000E+00  0.00000000E+00  0.00000000E+00  0.00000000E+00
  0.00000000E+00  9.27375300E-17  0.00000000E+00  0.00000000E+00  0.00000000E+00
  1.06380044E-16  0.00000000E+00 -4.16099370E-16 -2.08049685E-16  0.00000000E+00
  6.90535776E-16  0.00000000E+00  7.41932223E-47 -6.85503519E-16 -3.42751759E-16
  6.80276728E-32  0.00000000E+00  3.87274310E-02 -1.17827386E-31  0.00000000E+00
  0.00000000E+00  0.00000000E+00  2.09036606E-01  0.00000000E+00  0.00000000E+00
  0.00000000E+00  0.00000000E+00  5.72324174E-01  0.00000000E+00  0.00000000E+00
  0.00000000E+00  0.00000000E+00  1.00000000E+00  0.00000000E+00  0.00000000E+00
  0.00000000E+00  0.00000000E+00  0.00000000E+00  0.00000000E+00  0.00000000E+00
  0.00000000E+00 -1.90290279E-18  0.00000000E+00  0.00000000E+00  0.00000000E+00
  0.00000000E+00  0.00000000E+00 -4.63687650E-17  0.00000000E+00  0.00000000E+00
  0.00000000E+00 -1.06380044E-16  0.00000000E+00  0.00000000E+00  2.08049685E-16
  0.00000000E+00  0.00000000E+00  0.00000000E+00  0.00000000E+00  3.42751759E-16
  3.42751759E-16  0.00000000E+00  0.00000000E+00  0.00000000E+00 -1.17827386E-31
  3.87274310E-02  0.00000000E+00  0.00000000E+00  0.00000000E+00  0.00000000E+00
  2.09036606E-01  0.00000000E+00  0.00000000E+00  0.00000000E+00  0.00000000E+00
  5.72324174E-01  0.00000000E+00  0.00000000E+00  0.00000000E+00  0.00000000E+00
  1.00000000E+00 -4.00024878E-36  0.00000000E+00  0.00000000E+00  0.00000000E+00
  0.00000000E+00  0.00000000E+00  0.00000000E+00  0.00000000E+00  0.00000000E+00
 -1.90290279E-18  0.00000000E+00  0.00000000E+00  0.00000000E+00  0.00000000E+00
  0.00000000E+00 -4.63687650E-17  0.00000000E+00  1.06380044E-16  0.00000000E+00
  0.00000000E+00 -2.08049685E-16  0.00000000E+00  0.00000000E+00  0.00000000E+00
  0.00000000E+00  0.00000000E+00 -3.42751759E-16  3.42751759E-16  7.41932223E-47