Q-Chem Developer Version!
                  Welcome to Q-Chem
     A Quantum Leap Into The Future Of Chemistry


 Q-Chem 5.1, Q-Chem, Inc., Pleasanton, CA (2018)

 Yihan Shao,  Zhengting Gan,  E. Epifanovsky,  A. T. B. Gilbert,  M. Wormit,  
 J. Kussmann,  A. W. Lange,  A. Behn,  Jia Deng,  Xintian Feng,  D. Ghosh,  
 M. Goldey,  P. R. Horn,  L. D. Jacobson,  I. Kaliman,  T. Kus,  A. Landau,  
 Jie Liu,  E. I. Proynov,  R. M. Richard,  R. P. Steele,  E. J. Sundstrom,  
 H. L. Woodcock III,  P. M. Zimmerman,  D. Zuev,  B. Albrecht,  E. Alguire,  
 S. A. Baeppler,  D. Barton,  Z. Benda,  Y. A. Bernard,  E. J. Berquist,  
 K. B. Bravaya,  H. Burton,  D. Casanova,  Chun-Min Chang,  Yunqing Chen,  
 A. Chien,  K. D. Closser,  M. P. Coons,  S. Coriani,  S. Dasgupta,  
 A. L. Dempwolff,  M. Diedenhofen,  Hainam Do,  R. G. Edgar,  Po-Tung Fang,  
 S. Faraji,  S. Fatehi,  Qingguo Feng,  K. D. Fenk,  J. Fosso-Tande,  
 Qinghui Ge,  A. Ghysels,  G. Gidofalvi,  J. Gomes,  J. Gonthier,  A. Gunina,  
 D. Hait,  M. W. D. Hanson-Heine,  P. H. P. Harbach,  A. W. Hauser,  
 J. E. Herr,  E. G. Hohenstein,  Z. C. Holden,  Kerwin Hui,  B. C. Huynh,  
 T.-C. Jagau,  Hyunjun Ji,  B. Kaduk,  K. Khistyaev,  Jaehoon Kim,  
 P. Klunzinger,  K. Koh,  D. Kosenkov,  L. Koulias,  T. Kowalczyk,  
 C. M. Krauter,  A. Kunitsa,  Ka Un Lao,  A. Laurent,  K. V. Lawler,  
 Joonho Lee,  D. Lefrancois,  S. Lehtola,  D. S. Levine,  Yi-Pei Li,  
 You-Sheng Lin,  Fenglai Liu,  E. Livshits,  A. Luenser,  P. Manohar,  
 E. Mansoor,  S. F. Manzer,  Shan-Ping Mao,  Yuezhi Mao,  N. Mardirossian,  
 A. V. Marenich,  T. Markovich,  L. A. Martinez-Martinez,  S. A. Maurer,  
 N. J. Mayhall,  S. C. McKenzie,  J.-M. Mewes,  A. F. Morrison,  
 J. W. Mullinax,  K. Nanda,  T. S. Nguyen-Beck,  R. Olivares-Amaya,  
 J. A. Parkhill,  T. M. Perrine,  F. Plasser,  P. Pokhilko,  S. Prager,  
 A. Prociuk,  E. Ramos,  D. R. Rehn,  F. Rob,  M. Schneider,  N. Sergueev,  
 S. M. Sharada,  S. Sharma,  D. W. Small,  T. Stauch,  T. Stein,  
 Yu-Chuan Su,  A. J. W. Thom,  A. Tkatchenko,  T. Tsuchimochi,  N. M. Tubman,  
 L. Vogt,  M. L. Vidal,  O. Vydrov,  M. A. Watson,  J. Wenzel,  
 M. de Wergifosse,  T. A. Wesolowski,  A. White,  J. Witte,  A. Yamada,  
 Jun Yang,  K. Yao,  S. Yeganeh,  S. R. Yost,  Zhi-Qiang You,  A. Zech,  
 Igor Ying Zhang,  Xing Zhang,  Yan Zhao,  Ying Zhu,  B. R. Brooks,  
 G. K. L. Chan,  C. J. Cramer,  M. S. Gordon,  W. J. Hehre,  A. Klamt,  
 M. W. Schmidt,  C. D. Sherrill,  D. G. Truhlar,  A. Aspuru-Guzik,  R. Baer,  
 A. T. Bell,  N. A. Besley,  Jeng-Da Chai,  A. E. DePrince, III,  
 R. A. DiStasio Jr.,  A. Dreuw,  B. D. Dunietz,  T. R. Furlani,  
 Chao-Ping Hsu,  Yousung Jung,  Jing Kong,  D. S. Lambrecht,  WanZhen Liang,  
 C. Ochsenfeld,  V. A. Rassolov,  L. V. Slipchenko,  J. E. Subotnik,  
 T. Van Voorhis,  J. M. Herbert,  A. I. Krylov,  P. M. W. Gill,  M. Head-Gordon

 Contributors to earlier versions of Q-Chem not listed above: 
 R. D. Adamson,  B. Austin,  J. Baker,  G. J. O. Beran,  K. Brandhorst,  
 S. T. Brown,  E. F. C. Byrd,  A. K. Chakraborty,  C.-L. Cheng,  
 Siu Hung Chien,  D. M. Chipman,  D. L. Crittenden,  H. Dachsel,  
 R. J. Doerksen,  A. D. Dutoi,  L. Fusti-Molnar,  W. A. Goddard III,  
 A. Golubeva-Zadorozhnaya,  S. R. Gwaltney,  G. Hawkins,  A. Heyden,  
 S. Hirata,  G. Kedziora,  F. J. Keil,  C. Kelley,  Jihan Kim,  R. A. King,  
 R. Z. Khaliullin,  P. P. Korambath,  W. Kurlancheek,  A. M. Lee,  M. S. Lee,  
 S. V. Levchenko,  Ching Yeh Lin,  D. Liotard,  R. C. Lochan,  I. Lotan,  
 P. E. Maslen,  N. Nair,  D. P. O'Neill,  D. Neuhauser,  E. Neuscamman,  
 C. M. Oana,  R. Olson,  B. Peters,  R. Peverati,  P. A. Pieniazek,  
 Y. M. Rhee,  J. Ritchie,  M. A. Rohrdanz,  E. Rosta,  N. J. Russ,  
 H. F. Schaefer III,  N. E. Schultz,  N. Shenvi,  A. C. Simmonett,  A. Sodt,  
 D. Stuck,  K. S. Thanthiriwatte,  V. Vanovschi,  Tao Wang,  A. Warshel,  
 C. F. Williams,  Q. Wu,  X. Xu,  W. Zhang

 Please cite Q-Chem as follows:
 Y. Shao et al., Mol. Phys. 113, 184-215 (2015)
 DOI: 10.1080/00268976.2014.952696

 Q-Chem 5.1.1 for Intel X86 EM64T Linux

 Parts of Q-Chem use Armadillo 8.300.2 (Tropical Shenanigans).
 http://arma.sourceforge.net/

 Q-Chem begins on Thu Jul 16 01:38:51 2020  

Host: n0041.mhg0
0

     Scratch files written to /local/scratch/users/yhljason/BS_SCAN0_aug-pc-4.inp20200716013819//
Input Ideriv = 2
Curr. Ideriv = -1
Max.  Ideriv = 2
Input Ideriv = 1
Curr. Ideriv = 2
Max.  Ideriv = 1

Checking the input file for inconsistencies... 	...done.

--------------------------------------------------------------
User input:
--------------------------------------------------------------
$molecule
0 2
B1      0.0000  0.0000  0.0000
S2      0.0000  0.0000  1.6092
$end

$rem
jobtype sp
method SCAN0
xc_grid 000099000590
basis aug-pc-4
max_scf_cycles 200
thresh 14
scf_convergence 8
scf_algorithm gdm
symmetry false
sym_ignore true
unrestricted true
gen_scfman true
internal_stability_iter 15
internal_stability_davidson_iter 200
mem_total 64000
mem_static 1500
n_frozen_core 0
$end


--------------------------------------------------------------
 ----------------------------------------------------------------
             Standard Nuclear Orientation (Angstroms)
    I     Atom           X                Y                Z
 ----------------------------------------------------------------
    1      B       0.0000000000     0.0000000000     0.0000000000
    2      S       0.0000000000     0.0000000000     1.6092000000
 ----------------------------------------------------------------
 Nuclear Repulsion Energy =    26.3075918867 hartrees
 There are       11 alpha and       10 beta electrons
 Requested basis set is aug-pc-4
 There are 64 shells and 286 basis functions

 Total QAlloc Memory Limit  64000 MB
 Mega-Array Size      1467 MB
 MEM_STATIC part      1500 MB

                       Distance Matrix (Angstroms)
             B (  1)
   S (  2)  1.609200
 
 A cutoff of  1.0D-14 yielded   2075 shell pairs
 There are     41813 function pairs (     82265 Cartesian)
 
 -------------------------------------------------------
 OpenMP Integral Computing Module                       
 Release: version 1.0, May 2013, Q-Chem Inc. Pittsburgh 
 -------------------------------------------------------
 Integral Job Info:
 Integral job number is                      11
 Integral operator is                         1
 short-range coefficients                     0
 long-range coefficients              100000000
 Omega coefficients                           0
 if combine SR and LR in K                    0
 Integral screening is                        0
 Integral computing path is                   2
 max size of driver memory is           6400000
 size of driver memory is               5498286
 size of scratch memory is             27847117
 max col of scratch BK array             194481
 max len of scratch array in speh3         5572
 max len of scratch index in speh4           72
 max int batch size is                      520
 min int batch size is                       52
 fixed nKL is                                 7
 max L of basis functions is                  5
 order of int derivative is                   0
 number of shells is                         64
 number of basis is                         400
 number of cartesian basis is               400
 number of contracted shell pairs          2075
 number of primitive shell pairs           9185
 maxK2 (contraction) of shell pair          225
 max number of K2 of shell pair               1
 max number of CS2 of shell pair            170
 max number of PS2 of shell pair            528
 mem total for path MDJ                  956866
 -------------------------------------------------------
 Smallest overlap matrix eigenvalue = 4.58E-06

 Scale SEOQF with 1.000000e-01/1.000000e-01/1.000000e-01

 Standard Electronic Orientation quadrupole field applied
 Nucleus-field energy     =    -0.0000000044 hartrees
 Guess from superposition of atomic densities
 Warning:  Energy on first SCF cycle will be non-variational
 SAD guess density has 21.000000 electrons

 -----------------------------------------------------------------------
  General SCF calculation program by
  Eric Jon Sundstrom, Paul Horn, Yuezhi Mao, Dmitri Zuev, Alec White,
  David Stuck, Shaama M.S., Shane Yost, Joonho Lee, David Small,
  Daniel Levine, Susi Lehtola, Hugh Burton, Evgeny Epifanovsky
 -----------------------------------------------------------------------
 Exchange:     0.2500 Hartree-Fock + 0.7500 SCAN
 Correlation:  1.0000 SCAN
 Using Euler-Maclaurin-Lebedev (99,590) quadrature formula
Running Object-Oriented UKS (UHF)
performing a single roothaan step with Fock from read density so that orbitals are available to all algorithms
 LTot/LBra/LKet=          20          10          10
 LTot/LBra/LKet=          20          10          10
 LTot/LBra/LKet=          20          10          10
 LTot/LBra/LKet=          20          10          10

 Q-Chem warning:

 in GenH1, ket side, handled with new code


 Q-Chem warning:

 in GenH1, ket side, handled with new code

 LTot/LBra/LKet=          20          10          10
 LTot/LBra/LKet=          19           9          10

 Q-Chem warning:

 in GenH1, ket side, handled with new code

 LTot/LBra/LKet=          19           9          10
 LTot/LBra/LKet=          19           9          10

 Q-Chem warning:

 in GenH1, ket side, handled with new code


 Q-Chem warning:

 in GenH1, ket side, handled with new code


 Q-Chem warning:

 in GenH1, ket side, handled with new code


 Q-Chem warning:

 in GenH1, ket side, handled with new code


 Q-Chem warning:

 in GenH1, ket side, handled with new code

 LTot/LBra/LBra=          20          10          10

 Q-Chem warning:

 in GenH1, bra side, handled with new code

energy of the guess density (C=0) -423.160905328541
We will preform up to 15 macro iterations over saddle points until a stable solution is found
Energy prior to optimization (guess energy) = -422.972760305943
Begin Timing: Total SCF Calculation
Begin Timing: SCF Single Stationary Point Calculation
begin iterations for algorithm: GDM          
the SCF tolerance is set to 1.00e-08
    1    -422.9727603059      9.44e-02     00000  Normal BFGS step
    2    -422.9642200182      1.87e-01     00000 Line search: overstep
    3    -422.9912115227      5.85e-02     00000  Normal BFGS step
    4    -422.9942443296      3.28e-02     00000  Normal BFGS step
    5    -422.9970161470      5.48e-03     00000  Normal BFGS step
    6    -422.9971401182      2.94e-03     00000  Normal BFGS step
    7    -422.9971857434      1.63e-03     00000  Normal BFGS step
    8    -422.9972027086      3.34e-04     00000  Normal BFGS step
    9    -422.9972035025      1.43e-04     00000  Normal BFGS step
   10    -422.9972035917      2.91e-05     00000  Normal BFGS step
   11    -422.9972035941      3.17e-06     00000  Normal BFGS step
   12    -422.9972035942      7.68e-07     00000  Normal BFGS step
   13    -422.9972035942      2.41e-07     00000  Normal BFGS step
   14    -422.9972035942      7.70e-08     00000  Normal BFGS step
   15    -422.9972035942      1.14e-07     00000  Normal BFGS step
   16    -422.9972035942      1.42e-08     00000  Normal BFGS step
   17    -422.9972035942      3.33e-09     00000 Convergence criterion met
Timing for Single Stationary Point: 2066.00s (wall), 16382.33s (cpu)
Begin Timing: Stability
===================================================
Beginning Test for Internal Stability
===================================================
generating davidson guess vectors based on koopmans excitations
    1      6.64e-01     00000 Davidson Iteration
    2      2.68e-01     00000 Davidson Iteration
    3      1.30e-01     00000 Davidson Iteration
    4      2.95e-02     00000 Davidson Iteration
    5      1.70e-02     00000 Davidson Iteration
    6      3.37e-03     00000 Davidson Iteration
    7      1.11e-03     00000 Davidson Iteration
    8      5.67e-04     00000 Davidson Iteration
    9      2.48e-04     00000 Davidson Iteration
   10      7.03e-05     00000 Davidson Iteration
   11      1.33e-05     00000 Davidson Converged
converged_eigenvalues
   0.2037
   0.2037
Threshold for negative eigenvalues: -1.0e-05
solution was a local minimum (stable)
===================================================
End Test for Internal Stability
===================================================
Our SCF solution is stable!
Timing for Total SCF: 3708.00s (wall), 29472.80s (cpu)
 Total energy in the final basis set =     -422.9972035942
<S^2> =          0.767914677
    ==================================================
              The end of Object-Oriented SCFman       
    ==================================================
 
 --------------------------------------------------------------
 
                    Orbital Energies (a.u.)
 --------------------------------------------------------------
 
 Alpha MOs
 -- Occupied --
-89.370  -8.136  -6.981  -6.018  -6.014  -6.014  -0.780  -0.459
 -0.338  -0.326  -0.326
 -- Virtual --
 -0.059  -0.059   0.016   0.019   0.019   0.019   0.045   0.049
  0.049   0.071   0.071   0.074   0.074   0.074   0.087   0.100
  0.108   0.108   0.127   0.145   0.145   0.155   0.155   0.160
  0.160   0.168   0.168   0.186   0.195   0.195   0.198   0.206
  0.206   0.207   0.232   0.232   0.241   0.245   0.245   0.248
  0.256   0.256   0.260   0.260   0.310   0.310   0.313   0.331
  0.331   0.367   0.367   0.377   0.377   0.391   0.391   0.393
  0.393   0.397   0.397   0.399   0.404   0.404   0.406   0.406
  0.408   0.408   0.427   0.427   0.446   0.466   0.485   0.490
  0.491   0.491   0.491   0.547   0.549   0.549   0.565   0.565
  0.596   0.596   0.605   0.605   0.623   0.657   0.657   0.685
  0.704   0.704   0.725   0.725   0.726   0.726   0.751   0.751
  0.760   0.760   0.771   0.790   0.790   0.820   0.820   0.834
  0.883   0.895   0.895   0.925   0.925   0.999   0.999   1.066
  1.197   1.225   1.225   1.261   1.261   1.274   1.402   1.402
  1.403   1.404   1.495   1.495   1.506   1.506   1.512   1.569
  1.674   1.674   1.722   1.727   1.727   1.732   1.732   1.928
  1.999   1.999   2.241   2.241   2.253   2.451   2.451   2.596
  2.654   2.654   2.721   2.721   2.848   2.849   2.948   2.948
  2.968   3.079   3.079   3.237   3.247   3.247   3.336   3.336
  3.341   3.341   3.485   3.485   3.499   3.499   3.527   3.589
  3.646   3.646   3.746   3.746   3.779   3.805   3.805   3.926
  3.926   4.022   4.027   4.027   4.155   4.187   4.187   4.205
  4.205   4.874   5.157   5.157   5.467   5.467   5.476   5.476
  5.662   5.662   5.757   5.757   5.939   6.015   6.015   6.181
  6.181   6.239   6.510   6.510   7.008   7.567   7.568   7.585
  7.831   7.831   8.289   8.496   8.496   8.530   8.530   8.793
  8.793   9.044   9.044   9.065   9.459   9.459   9.487   9.487
  9.582   9.582   9.606   9.606   9.784   9.785   9.831   9.831
 10.028  10.264  10.264  10.445  10.478  10.478  10.512  10.514
 10.688  10.688  10.913  10.913  11.213  11.214  11.244  11.320
 11.320  11.947  11.947  12.138  12.138  12.344  13.210  13.210
 14.145  17.281  17.281  17.561  17.561  18.368  19.205  20.560
 20.560  20.791  20.791  21.719  30.761  63.417  63.417  63.561
 63.561  64.063  77.945
 
 Beta MOs
 -- Occupied --
-89.370  -8.136  -6.964  -6.016  -6.016  -6.014  -0.772  -0.432
 -0.325  -0.325
 -- Virtual --
 -0.126  -0.023  -0.023   0.015   0.019   0.019   0.020   0.045
  0.049   0.049   0.062   0.071   0.071   0.073   0.073   0.085
  0.098   0.100   0.100   0.130   0.140   0.140   0.155   0.155
  0.158   0.158   0.171   0.171   0.179   0.186   0.190   0.190
  0.204   0.208   0.208   0.229   0.229   0.233   0.233   0.243
  0.253   0.253   0.257   0.257   0.267   0.295   0.295   0.305
  0.312   0.312   0.363   0.363   0.372   0.381   0.381   0.384
  0.384   0.386   0.386   0.387   0.387   0.393   0.393   0.397
  0.397   0.399   0.399   0.417   0.417   0.424   0.444   0.453
  0.453   0.463   0.463   0.477   0.544   0.549   0.549   0.563
  0.563   0.592   0.592   0.606   0.606   0.609   0.656   0.656
  0.680   0.724   0.724   0.733   0.733   0.735   0.735   0.746
  0.746   0.764   0.764   0.772   0.798   0.798   0.820   0.820
  0.833   0.887   0.911   0.911   0.926   0.926   1.005   1.005
  1.066   1.214   1.224   1.224   1.274   1.277   1.277   1.415
  1.415   1.440   1.440   1.506   1.506   1.510   1.551   1.551
  1.579   1.686   1.686   1.773   1.773   1.773   1.787   1.787
  1.941   2.025   2.025   2.239   2.239   2.269   2.461   2.461
  2.623   2.669   2.669   2.705   2.705   2.874   2.874   2.986
  2.986   3.013   3.158   3.158   3.246   3.324   3.324   3.366
  3.366   3.396   3.396   3.495   3.495   3.521   3.574   3.574
  3.597   3.663   3.663   3.813   3.864   3.864   3.867   3.867
  3.991   3.991   4.028   4.028   4.065   4.166   4.243   4.243
  4.256   4.256   4.937   5.189   5.189   5.444   5.444   5.454
  5.454   5.668   5.668   5.750   5.750   5.959   6.024   6.024
  6.209   6.209   6.242   6.524   6.524   7.054   7.597   7.647
  7.647   7.865   7.865   8.326   8.485   8.485   8.525   8.525
  8.798   8.798   9.046   9.046   9.084   9.594   9.594   9.599
  9.599   9.624   9.624   9.645   9.645   9.809   9.809   9.888
  9.888  10.073  10.261  10.261  10.458  10.557  10.558  10.664
 10.664  10.683  10.683  10.972  10.972  11.181  11.182  11.222
 11.277  11.277  11.943  11.943  12.135  12.136  12.346  13.204
 13.204  14.155  17.277  17.277  17.562  17.562  18.369  19.210
 20.599  20.599  20.794  20.794  21.746  30.757  63.414  63.414
 63.563  63.563  64.066  77.971
 --------------------------------------------------------------
 
          Ground-State Mulliken Net Atomic Charges

     Atom                 Charge (a.u.)    Spin (a.u.)
  --------------------------------------------------------
      1 B                     0.655738       1.119274
      2 S                    -0.655738      -0.119274
  --------------------------------------------------------
  Sum of atomic charges =     0.000000
  Sum of spin   charges =     1.000000

 -----------------------------------------------------------------
                    Cartesian Multipole Moments
 -----------------------------------------------------------------
    Charge (ESU x 10^10)
                 0.0000
    Dipole Moment (Debye)
         X       0.0000      Y       0.0000      Z      -1.0090
       Tot       1.0090
    Quadrupole Moments (Debye-Ang)
        XX     -19.1275     XY      -0.0000     YY     -19.1275
        XZ      -0.0000     YZ      -0.0000     ZZ     -18.8432
    Octopole Moments (Debye-Ang^2)
       XXX      -0.0000    XXY       0.0000    XYY      -0.0000
       YYY       0.0000    XXZ     -21.4625    XYZ       0.0000
       YYZ     -21.4625    XZZ      -0.0000    YZZ      -0.0000
       ZZZ     -58.7185
    Hexadecapole Moments (Debye-Ang^3)
      XXXX     -27.1909   XXXY       0.0000   XXYY      -9.0637
      XYYY      -0.0000   YYYY     -27.1909   XXXZ      -0.0000
      XXYZ       0.0000   XYYZ      -0.0000   YYYZ       0.0000
      XXZZ     -42.2815   XYZZ       0.0000   YYZZ     -42.2815
      XZZZ      -0.0000   YZZZ      -0.0000   ZZZZ    -213.7308
 -----------------------------------------------------------------
Archival summary:
1\1\n0041.mhg0\SP\ProcedureUnspecified\BasisUnspecified\11(2)\yhljason\ThuJul1602:43:382020ThuJul1602:43:382020\0\\#,ProcedureUnspecified,BasisUnspecified,\\0,2\B\S,1,1.6092\\\@

 Total job time:  3887.77s(wall), 30863.26s(cpu) 
 Thu Jul 16 02:43:38 2020

        *************************************************************
        *                                                           *
        *  Thank you very much for using Q-Chem.  Have a nice day.  *
        *                                                           *
        *************************************************************


