Q-Chem Developer Version!
                  Welcome to Q-Chem
     A Quantum Leap Into The Future Of Chemistry


 Q-Chem 5.1, Q-Chem, Inc., Pleasanton, CA (2018)

 Yihan Shao,  Zhengting Gan,  E. Epifanovsky,  A. T. B. Gilbert,  M. Wormit,  
 J. Kussmann,  A. W. Lange,  A. Behn,  Jia Deng,  Xintian Feng,  D. Ghosh,  
 M. Goldey,  P. R. Horn,  L. D. Jacobson,  I. Kaliman,  T. Kus,  A. Landau,  
 Jie Liu,  E. I. Proynov,  R. M. Richard,  R. P. Steele,  E. J. Sundstrom,  
 H. L. Woodcock III,  P. M. Zimmerman,  D. Zuev,  B. Albrecht,  E. Alguire,  
 S. A. Baeppler,  D. Barton,  Z. Benda,  Y. A. Bernard,  E. J. Berquist,  
 K. B. Bravaya,  H. Burton,  D. Casanova,  Chun-Min Chang,  Yunqing Chen,  
 A. Chien,  K. D. Closser,  M. P. Coons,  S. Coriani,  S. Dasgupta,  
 A. L. Dempwolff,  M. Diedenhofen,  Hainam Do,  R. G. Edgar,  Po-Tung Fang,  
 S. Faraji,  S. Fatehi,  Qingguo Feng,  K. D. Fenk,  J. Fosso-Tande,  
 Qinghui Ge,  A. Ghysels,  G. Gidofalvi,  J. Gomes,  J. Gonthier,  A. Gunina,  
 D. Hait,  M. W. D. Hanson-Heine,  P. H. P. Harbach,  A. W. Hauser,  
 J. E. Herr,  E. G. Hohenstein,  Z. C. Holden,  Kerwin Hui,  B. C. Huynh,  
 T.-C. Jagau,  Hyunjun Ji,  B. Kaduk,  K. Khistyaev,  Jaehoon Kim,  
 P. Klunzinger,  K. Koh,  D. Kosenkov,  L. Koulias,  T. Kowalczyk,  
 C. M. Krauter,  A. Kunitsa,  Ka Un Lao,  A. Laurent,  K. V. Lawler,  
 Joonho Lee,  D. Lefrancois,  S. Lehtola,  D. S. Levine,  Yi-Pei Li,  
 You-Sheng Lin,  Fenglai Liu,  E. Livshits,  A. Luenser,  P. Manohar,  
 E. Mansoor,  S. F. Manzer,  Shan-Ping Mao,  Yuezhi Mao,  N. Mardirossian,  
 A. V. Marenich,  T. Markovich,  L. A. Martinez-Martinez,  S. A. Maurer,  
 N. J. Mayhall,  S. C. McKenzie,  J.-M. Mewes,  A. F. Morrison,  
 J. W. Mullinax,  K. Nanda,  T. S. Nguyen-Beck,  R. Olivares-Amaya,  
 J. A. Parkhill,  T. M. Perrine,  F. Plasser,  P. Pokhilko,  S. Prager,  
 A. Prociuk,  E. Ramos,  D. R. Rehn,  F. Rob,  M. Schneider,  N. Sergueev,  
 S. M. Sharada,  S. Sharma,  D. W. Small,  T. Stauch,  T. Stein,  
 Yu-Chuan Su,  A. J. W. Thom,  A. Tkatchenko,  T. Tsuchimochi,  N. M. Tubman,  
 L. Vogt,  M. L. Vidal,  O. Vydrov,  M. A. Watson,  J. Wenzel,  
 M. de Wergifosse,  T. A. Wesolowski,  A. White,  J. Witte,  A. Yamada,  
 Jun Yang,  K. Yao,  S. Yeganeh,  S. R. Yost,  Zhi-Qiang You,  A. Zech,  
 Igor Ying Zhang,  Xing Zhang,  Yan Zhao,  Ying Zhu,  B. R. Brooks,  
 G. K. L. Chan,  C. J. Cramer,  M. S. Gordon,  W. J. Hehre,  A. Klamt,  
 M. W. Schmidt,  C. D. Sherrill,  D. G. Truhlar,  A. Aspuru-Guzik,  R. Baer,  
 A. T. Bell,  N. A. Besley,  Jeng-Da Chai,  A. E. DePrince, III,  
 R. A. DiStasio Jr.,  A. Dreuw,  B. D. Dunietz,  T. R. Furlani,  
 Chao-Ping Hsu,  Yousung Jung,  Jing Kong,  D. S. Lambrecht,  WanZhen Liang,  
 C. Ochsenfeld,  V. A. Rassolov,  L. V. Slipchenko,  J. E. Subotnik,  
 T. Van Voorhis,  J. M. Herbert,  A. I. Krylov,  P. M. W. Gill,  M. Head-Gordon

 Contributors to earlier versions of Q-Chem not listed above: 
 R. D. Adamson,  B. Austin,  J. Baker,  G. J. O. Beran,  K. Brandhorst,  
 S. T. Brown,  E. F. C. Byrd,  A. K. Chakraborty,  C.-L. Cheng,  
 Siu Hung Chien,  D. M. Chipman,  D. L. Crittenden,  H. Dachsel,  
 R. J. Doerksen,  A. D. Dutoi,  L. Fusti-Molnar,  W. A. Goddard III,  
 A. Golubeva-Zadorozhnaya,  S. R. Gwaltney,  G. Hawkins,  A. Heyden,  
 S. Hirata,  G. Kedziora,  F. J. Keil,  C. Kelley,  Jihan Kim,  R. A. King,  
 R. Z. Khaliullin,  P. P. Korambath,  W. Kurlancheek,  A. M. Lee,  M. S. Lee,  
 S. V. Levchenko,  Ching Yeh Lin,  D. Liotard,  R. C. Lochan,  I. Lotan,  
 P. E. Maslen,  N. Nair,  D. P. O'Neill,  D. Neuhauser,  E. Neuscamman,  
 C. M. Oana,  R. Olson,  B. Peters,  R. Peverati,  P. A. Pieniazek,  
 Y. M. Rhee,  J. Ritchie,  M. A. Rohrdanz,  E. Rosta,  N. J. Russ,  
 H. F. Schaefer III,  N. E. Schultz,  N. Shenvi,  A. C. Simmonett,  A. Sodt,  
 D. Stuck,  K. S. Thanthiriwatte,  V. Vanovschi,  Tao Wang,  A. Warshel,  
 C. F. Williams,  Q. Wu,  X. Xu,  W. Zhang

 Please cite Q-Chem as follows:
 Y. Shao et al., Mol. Phys. 113, 184-215 (2015)
 DOI: 10.1080/00268976.2014.952696

 Q-Chem 5.1.1 for Intel X86 EM64T Linux

 Parts of Q-Chem use Armadillo 8.300.2 (Tropical Shenanigans).
 http://arma.sourceforge.net/

 Q-Chem begins on Wed Jul 29 03:45:12 2020  

Host: n0030.mhg0
0

     Scratch files written to /local/scratch/users/yhljason/CO2_revM06-L_aug-pc-4.inp20200729032406//
Input Ideriv = 2
Curr. Ideriv = -1
Max.  Ideriv = 2
Input Ideriv = 1
Curr. Ideriv = 2
Max.  Ideriv = 1

Checking the input file for inconsistencies... 	...done.

--------------------------------------------------------------
User input:
--------------------------------------------------------------
$molecule
0 1
C1	0.0000	0.0000	0.0000
O2	0.0000	0.0000	1.1621
O3	0.0000	0.0000	-1.1621
$end

$rem
jobtype sp
method revM06-L
xc_grid 000099000590
basis aug-pc-4
max_scf_cycles 200
thresh 14
scf_convergence 8
scf_algorithm gdm
symmetry false
sym_ignore true
unrestricted true
gen_scfman true
internal_stability_iter 15
internal_stability_davidson_iter 200
mem_total 64000
mem_static 1500
n_frozen_core 0
$end


--------------------------------------------------------------
 ----------------------------------------------------------------
             Standard Nuclear Orientation (Angstroms)
    I     Atom           X                Y                Z
 ----------------------------------------------------------------
    1      C       0.0000000000     0.0000000000     0.0000000000
    2      O       0.0000000000     0.0000000000     1.1621000000
    3      O       0.0000000000     0.0000000000    -1.1621000000
 ----------------------------------------------------------------
 Nuclear Repulsion Energy =    58.2864495159 hartrees
 There are       11 alpha and       11 beta electrons
 Requested basis set is aug-pc-4
 There are 99 shells and 435 basis functions

 Total QAlloc Memory Limit  64000 MB
 Mega-Array Size      1467 MB
 MEM_STATIC part      1500 MB

                       Distance Matrix (Angstroms)
             C (  1)   O (  2)
   O (  2)  1.162100
   O (  3)  1.162100  2.324200
 
 A cutoff of  1.0D-14 yielded   4864 shell pairs
 There are     95204 function pairs (    185867 Cartesian)
 
 -------------------------------------------------------
 OpenMP Integral Computing Module                       
 Release: version 1.0, May 2013, Q-Chem Inc. Pittsburgh 
 -------------------------------------------------------
 Integral Job Info:
 Integral job number is                      11
 Integral operator is                         1
 short-range coefficients                     0
 long-range coefficients              100000000
 Omega coefficients                           0
 if combine SR and LR in K                    0
 Integral screening is                        0
 Integral computing path is                   2
 max size of driver memory is           6400000
 size of driver memory is               5498286
 size of scratch memory is             29792225
 max col of scratch BK array             194481
 max len of scratch array in speh3         5572
 max len of scratch index in speh4           72
 max int batch size is                      520
 min int batch size is                       52
 fixed nKL is                                25
 max L of basis functions is                  5
 order of int derivative is                   0
 number of shells is                         99
 number of basis is                         606
 number of cartesian basis is               606
 number of contracted shell pairs          4864
 number of primitive shell pairs          11819
 maxK2 (contraction) of shell pair          121
 max number of K2 of shell pair               1
 max number of CS2 of shell pair            439
 max number of PS2 of shell pair            671
 mem total for path MDJ                 1213232
 -------------------------------------------------------
 Smallest overlap matrix eigenvalue = 2.62E-07
 Linear dependence detected in AO basis
 Number of orthogonalized atomic orbitals = 433
 Maximum deviation from orthogonality = 1.425E-10

 Scale SEOQF with 1.000000e-01/1.000000e-01/1.000000e-01

 Standard Electronic Orientation quadrupole field applied
 Nucleus-field energy     =    -0.0000000023 hartrees
 Guess from superposition of atomic densities
 Warning:  Energy on first SCF cycle will be non-variational
 SAD guess density has 22.000000 electrons

 -----------------------------------------------------------------------
  General SCF calculation program by
  Eric Jon Sundstrom, Paul Horn, Yuezhi Mao, Dmitri Zuev, Alec White,
  David Stuck, Shaama M.S., Shane Yost, Joonho Lee, David Small,
  Daniel Levine, Susi Lehtola, Hugh Burton, Evgeny Epifanovsky
 -----------------------------------------------------------------------
 Exchange:  revM06-L      Correlation:  revM06-L
 Using Euler-Maclaurin-Lebedev (99,590) quadrature formula
Running Object-Oriented UKS (UHF)
performing a single roothaan step with Fock from read density so that orbitals are available to all algorithms
energy of the guess density (C=0) -189.088542429881
We will preform up to 15 macro iterations over saddle points until a stable solution is found
Energy prior to optimization (guess energy) = -188.564686971628
Begin Timing: Total SCF Calculation
Begin Timing: SCF Single Stationary Point Calculation
begin iterations for algorithm: GDM          
the SCF tolerance is set to 1.00e-08
    1    -188.5646869716      1.87e-01     00000  Descent step
    2    -188.6018548125      1.38e-01     00000  Normal BFGS step
    3    -188.6266420134      9.11e-03     00000  Normal BFGS step
    4    -188.6271954661      4.40e-03     00000  Normal BFGS step
    5    -188.6274826006      2.19e-04     00000  Normal BFGS step
    6    -188.6274828190      2.08e-05     00000  Normal BFGS step
    7    -188.6274828273      6.28e-06     00000  Normal BFGS step
    8    -188.6274828274      2.53e-07     00000  Normal BFGS step
    9    -188.6274828274      5.24e-08     00000  Normal BFGS step
   10    -188.6274828274      1.21e-08     00000  Normal BFGS step
   11    -188.6274828274      3.95e-09     00000 Convergence criterion met
Timing for Single Stationary Point: 461.00s (wall), 3668.45s (cpu)
Begin Timing: Stability
===================================================
Beginning Test for Internal Stability
===================================================
generating davidson guess vectors based on koopmans excitations
    1      4.75e-01     00000 Davidson Iteration
    2      1.09e-01     00000 Davidson Iteration
    3      3.12e-02     00000 Davidson Iteration
    4      2.86e-02     00000 Davidson Iteration
    5      2.12e-02     00000 Davidson Iteration
    6      4.50e-03     00000 Davidson Iteration
    7      3.52e-03     00000 Davidson Iteration
    8      3.16e-03     00000 Davidson Iteration
    9      3.07e-03     00000 Davidson Iteration
   10      3.09e-03     00000 Davidson Iteration
   11      8.40e-04     00000 Davidson Iteration
   12      2.49e-04     00000 Davidson Iteration
   13      6.69e-05     00000 Davidson Iteration
   14      8.48e-04     00000 Davidson Iteration
   15      4.73e-04     00000 Davidson Iteration
   16      1.29e-04     00000 Davidson Iteration
   17      9.60e-05     00000 Davidson Converged
converged_eigenvalues
   0.4994
   0.5917
Threshold for negative eigenvalues: -1.0e-05
solution was a local minimum (stable)
===================================================
End Test for Internal Stability
===================================================
Our SCF solution is stable!
Timing for Total SCF: 12817.00s (wall), 101854.98s (cpu)
 Total energy in the final basis set =     -188.6274828274
<S^2> =          0.000000000
    ==================================================
              The end of Object-Oriented SCFman       
    ==================================================
 
 --------------------------------------------------------------
 
                    Orbital Energies (a.u.)
 --------------------------------------------------------------
 
 Alpha MOs
 -- Occupied --
-19.142 -19.142 -10.310  -1.165  -1.123  -0.546  -0.497  -0.487
 -0.487  -0.345  -0.345
 -- Virtual --
  0.019   0.027   0.027   0.032   0.032   0.034   0.062   0.069
  0.069   0.080   0.092   0.093   0.093   0.123   0.123   0.133
  0.140   0.140   0.171   0.182   0.182   0.204   0.220   0.220
  0.226   0.228   0.228   0.251   0.251   0.266   0.269   0.269
  0.275   0.275   0.287   0.310   0.310   0.342   0.342   0.353
  0.354   0.354   0.357   0.365   0.365   0.372   0.372   0.380
  0.380   0.381   0.406   0.406   0.447   0.468   0.468   0.523
  0.523   0.526   0.528   0.528   0.539   0.549   0.549   0.555
  0.555   0.564   0.564   0.569   0.573   0.573   0.576   0.576
  0.611   0.611   0.633   0.633   0.651   0.651   0.677   0.677
  0.679   0.704   0.726   0.727   0.727   0.735   0.735   0.747
  0.761   0.761   0.787   0.787   0.836   0.836   0.836   0.847
  0.847   0.878   0.878   0.942   0.942   0.949   0.949   0.963
  0.963   0.985   0.995   1.008   1.008   1.027   1.027   1.034
  1.034   1.052   1.052   1.064   1.064   1.067   1.071   1.071
  1.082   1.103   1.103   1.159   1.159   1.159   1.159   1.174
  1.174   1.206   1.206   1.229   1.253   1.253   1.272   1.274
  1.274   1.325   1.325   1.330   1.356   1.356   1.383   1.387
  1.387   1.415   1.415   1.415   1.415   1.534   1.569   1.569
  1.574   1.574   1.623   1.816   1.816   1.927   1.956   1.956
  2.016   2.016   2.052   2.053   2.097   2.097   2.126   2.174
  2.174   2.269   2.269   2.372   2.380   2.380   2.386   2.386
  2.407   2.407   2.417   2.417   2.543   2.543   2.583   2.706
  2.706   2.758   2.758   2.770   2.770   2.862   3.101   3.101
  3.179   3.282   3.282   3.465   3.649   3.776   3.833   3.833
  3.884   3.884   4.199   4.199   4.213   4.451   4.451   4.484
  4.484   4.587   4.587   4.601   4.625   4.629   4.629   4.634
  4.634   4.775   4.775   4.815   4.815   4.908   5.001   5.158
  5.158   5.217   5.217   5.277   5.277   5.314   5.314   5.488
  5.488   5.586   5.618   5.618   5.644   5.644   5.665   5.665
  5.822   5.998   6.368   6.368   6.460   6.460   6.512   6.512
  6.552   6.584   6.584   6.730   6.730   6.730   6.730   6.983
  7.199   7.199   7.312   7.492   7.492   7.512   7.512   8.132
  8.159   8.159   8.834   8.862   8.862   9.034   9.034   9.151
  9.151   9.176   9.176   9.222   9.617  10.172  10.172  10.312
 10.366  10.366  10.931  10.931  11.035  11.035  11.054  11.054
 11.249  11.297  11.297  11.316  11.364  11.364  11.366  11.366
 11.529  11.529  11.559  11.559  11.801  11.862  11.913  11.913
 12.076  12.076  12.205  12.205  12.390  12.390  12.477  12.477
 12.590  12.590  12.817  12.817  12.879  13.075  13.075  13.075
 13.075  13.088  13.088  13.127  13.127  13.227  13.493  13.493
 13.499  13.499  13.507  13.507  13.508  13.775  13.775  13.910
 13.939  13.939  14.026  14.026  14.241  14.241  14.295  14.295
 14.642  15.335  15.335  15.354  15.376  15.376  16.096  16.096
 16.172  16.172  16.509  17.473  17.473  18.188  18.220  18.220
 18.224  18.224  18.257  18.438  18.438  18.592  18.592  18.622
 18.622  19.230  19.230  19.663  19.663  19.723  19.723  19.792
 19.894  19.894  19.979  20.247  20.502  20.502  21.395  21.395
 22.604  24.174  24.174  24.181  24.181  25.393  25.393  25.475
 26.069  26.069  28.005  28.339  31.363  31.853  32.926  32.926
 33.098  33.098  33.133  33.133  34.645  34.645  35.065  35.986
 37.977  68.153  68.153  68.165  68.165  68.839  68.839  69.320
 69.320  70.636  70.732  78.908 145.054 146.016
 
 Beta MOs
 -- Occupied --
-19.142 -19.142 -10.310  -1.165  -1.123  -0.546  -0.497  -0.487
 -0.487  -0.345  -0.345
 -- Virtual --
  0.019   0.027   0.027   0.032   0.032   0.034   0.062   0.069
  0.069   0.080   0.092   0.093   0.093   0.123   0.123   0.133
  0.140   0.140   0.171   0.182   0.182   0.204   0.220   0.220
  0.226   0.228   0.228   0.251   0.251   0.266   0.269   0.269
  0.275   0.275   0.287   0.310   0.310   0.342   0.342   0.353
  0.354   0.354   0.357   0.365   0.365   0.372   0.372   0.380
  0.380   0.381   0.406   0.406   0.447   0.468   0.468   0.523
  0.523   0.526   0.528   0.528   0.539   0.549   0.549   0.555
  0.555   0.564   0.564   0.569   0.573   0.573   0.576   0.576
  0.611   0.611   0.633   0.633   0.651   0.651   0.677   0.677
  0.679   0.704   0.726   0.727   0.727   0.735   0.735   0.747
  0.761   0.761   0.787   0.787   0.836   0.836   0.836   0.847
  0.847   0.878   0.878   0.942   0.942   0.949   0.949   0.963
  0.963   0.985   0.995   1.008   1.008   1.027   1.027   1.034
  1.034   1.052   1.052   1.064   1.064   1.067   1.071   1.071
  1.082   1.103   1.103   1.159   1.159   1.159   1.159   1.174
  1.174   1.206   1.206   1.229   1.253   1.253   1.272   1.274
  1.274   1.325   1.325   1.330   1.356   1.356   1.383   1.387
  1.387   1.415   1.415   1.415   1.415   1.534   1.569   1.569
  1.574   1.574   1.623   1.816   1.816   1.927   1.956   1.956
  2.016   2.016   2.052   2.053   2.097   2.097   2.126   2.174
  2.174   2.269   2.269   2.372   2.380   2.380   2.386   2.386
  2.407   2.407   2.417   2.417   2.543   2.543   2.583   2.706
  2.706   2.758   2.758   2.770   2.770   2.862   3.101   3.101
  3.179   3.282   3.282   3.465   3.649   3.776   3.833   3.833
  3.884   3.884   4.199   4.199   4.213   4.451   4.451   4.484
  4.484   4.587   4.587   4.601   4.625   4.629   4.629   4.634
  4.634   4.775   4.775   4.815   4.815   4.908   5.001   5.158
  5.158   5.217   5.217   5.277   5.277   5.314   5.314   5.488
  5.488   5.586   5.618   5.618   5.644   5.644   5.665   5.665
  5.822   5.998   6.368   6.368   6.460   6.460   6.512   6.512
  6.552   6.584   6.584   6.730   6.730   6.730   6.730   6.983
  7.199   7.199   7.312   7.492   7.492   7.512   7.512   8.132
  8.159   8.159   8.834   8.862   8.862   9.034   9.034   9.151
  9.151   9.176   9.176   9.222   9.617  10.172  10.172  10.312
 10.366  10.366  10.931  10.931  11.035  11.035  11.054  11.054
 11.249  11.297  11.297  11.316  11.364  11.364  11.366  11.366
 11.529  11.529  11.559  11.559  11.801  11.862  11.913  11.913
 12.076  12.076  12.205  12.205  12.390  12.390  12.477  12.477
 12.590  12.590  12.817  12.817  12.879  13.075  13.075  13.075
 13.075  13.088  13.088  13.127  13.127  13.227  13.493  13.493
 13.499  13.499  13.507  13.507  13.508  13.775  13.775  13.910
 13.939  13.939  14.026  14.026  14.241  14.241  14.295  14.295
 14.642  15.335  15.335  15.354  15.376  15.376  16.096  16.096
 16.172  16.172  16.509  17.473  17.473  18.188  18.220  18.220
 18.224  18.224  18.257  18.438  18.438  18.592  18.592  18.622
 18.622  19.230  19.230  19.663  19.663  19.723  19.723  19.792
 19.894  19.894  19.979  20.247  20.502  20.502  21.395  21.395
 22.604  24.174  24.174  24.181  24.181  25.393  25.393  25.475
 26.069  26.069  28.005  28.339  31.363  31.853  32.926  32.926
 33.098  33.098  33.133  33.133  34.645  34.645  35.065  35.986
 37.977  68.153  68.153  68.165  68.165  68.839  68.839  69.320
 69.320  70.636  70.732  78.908 145.054 146.016
 --------------------------------------------------------------
 
          Ground-State Mulliken Net Atomic Charges

     Atom                 Charge (a.u.)    Spin (a.u.)
  --------------------------------------------------------
      1 C                     1.209446       0.000000
      2 O                    -0.604723       0.000000
      3 O                    -0.604723      -0.000000
  --------------------------------------------------------
  Sum of atomic charges =    -0.000000
  Sum of spin   charges =     0.000000

 -----------------------------------------------------------------
                    Cartesian Multipole Moments
 -----------------------------------------------------------------
    Charge (ESU x 10^10)
                 0.0000
    Dipole Moment (Debye)
         X       0.0000      Y      -0.0000      Z      -0.0000
       Tot       0.0000
    Quadrupole Moments (Debye-Ang)
        XX     -14.6143     XY      -0.0000     YY     -14.6143
        XZ       0.0000     YZ       0.0000     ZZ     -19.0028
    Octopole Moments (Debye-Ang^2)
       XXX       0.0000    XXY      -0.0000    XYY       0.0000
       YYY      -0.0000    XXZ       0.0000    XYZ       0.0000
       YYZ       0.0000    XZZ       0.0000    YZZ      -0.0000
       ZZZ      -0.0000
    Hexadecapole Moments (Debye-Ang^3)
      XXXX     -11.3812   XXXY      -0.0000   XXYY      -3.7937
      XYYY      -0.0000   YYYY     -11.3812   XXXZ       0.0000
      XXYZ       0.0000   XYYZ       0.0000   YYYZ       0.0000
      XXZZ     -18.5172   XYZZ      -0.0000   YYZZ     -18.5172
      XZZZ       0.0000   YZZZ       0.0000   ZZZZ    -100.9364
 -----------------------------------------------------------------
Archival summary:
1\1\n0030.mhg0\SP\ProcedureUnspecified\BasisUnspecified\21\yhljason\WedJul2907:20:032020WedJul2907:20:032020\0\\#,ProcedureUnspecified,BasisUnspecified,\\0,1\C\O,1,1.1621\O,1,1.1621,2,180\\\@

 Total job time:  12890.98s(wall), 102362.32s(cpu) 
 Wed Jul 29 07:20:03 2020

        *************************************************************
        *                                                           *
        *  Thank you very much for using Q-Chem.  Have a nice day.  *
        *                                                           *
        *************************************************************


