Q-Chem Developer Version!
                  Welcome to Q-Chem
     A Quantum Leap Into The Future Of Chemistry


 Q-Chem 5.1, Q-Chem, Inc., Pleasanton, CA (2018)

 Yihan Shao,  Zhengting Gan,  E. Epifanovsky,  A. T. B. Gilbert,  M. Wormit,  
 J. Kussmann,  A. W. Lange,  A. Behn,  Jia Deng,  Xintian Feng,  D. Ghosh,  
 M. Goldey,  P. R. Horn,  L. D. Jacobson,  I. Kaliman,  T. Kus,  A. Landau,  
 Jie Liu,  E. I. Proynov,  R. M. Richard,  R. P. Steele,  E. J. Sundstrom,  
 H. L. Woodcock III,  P. M. Zimmerman,  D. Zuev,  B. Albrecht,  E. Alguire,  
 S. A. Baeppler,  D. Barton,  Z. Benda,  Y. A. Bernard,  E. J. Berquist,  
 K. B. Bravaya,  H. Burton,  D. Casanova,  Chun-Min Chang,  Yunqing Chen,  
 A. Chien,  K. D. Closser,  M. P. Coons,  S. Coriani,  S. Dasgupta,  
 A. L. Dempwolff,  M. Diedenhofen,  Hainam Do,  R. G. Edgar,  Po-Tung Fang,  
 S. Faraji,  S. Fatehi,  Qingguo Feng,  K. D. Fenk,  J. Fosso-Tande,  
 Qinghui Ge,  A. Ghysels,  G. Gidofalvi,  J. Gomes,  J. Gonthier,  A. Gunina,  
 D. Hait,  M. W. D. Hanson-Heine,  P. H. P. Harbach,  A. W. Hauser,  
 J. E. Herr,  E. G. Hohenstein,  Z. C. Holden,  Kerwin Hui,  B. C. Huynh,  
 T.-C. Jagau,  Hyunjun Ji,  B. Kaduk,  K. Khistyaev,  Jaehoon Kim,  
 P. Klunzinger,  K. Koh,  D. Kosenkov,  L. Koulias,  T. Kowalczyk,  
 C. M. Krauter,  A. Kunitsa,  Ka Un Lao,  A. Laurent,  K. V. Lawler,  
 Joonho Lee,  D. Lefrancois,  S. Lehtola,  D. S. Levine,  Yi-Pei Li,  
 You-Sheng Lin,  Fenglai Liu,  E. Livshits,  A. Luenser,  P. Manohar,  
 E. Mansoor,  S. F. Manzer,  Shan-Ping Mao,  Yuezhi Mao,  N. Mardirossian,  
 A. V. Marenich,  T. Markovich,  L. A. Martinez-Martinez,  S. A. Maurer,  
 N. J. Mayhall,  S. C. McKenzie,  J.-M. Mewes,  A. F. Morrison,  
 J. W. Mullinax,  K. Nanda,  T. S. Nguyen-Beck,  R. Olivares-Amaya,  
 J. A. Parkhill,  T. M. Perrine,  F. Plasser,  P. Pokhilko,  S. Prager,  
 A. Prociuk,  E. Ramos,  D. R. Rehn,  F. Rob,  M. Schneider,  N. Sergueev,  
 S. M. Sharada,  S. Sharma,  D. W. Small,  T. Stauch,  T. Stein,  
 Yu-Chuan Su,  A. J. W. Thom,  A. Tkatchenko,  T. Tsuchimochi,  N. M. Tubman,  
 L. Vogt,  M. L. Vidal,  O. Vydrov,  M. A. Watson,  J. Wenzel,  
 M. de Wergifosse,  T. A. Wesolowski,  A. White,  J. Witte,  A. Yamada,  
 Jun Yang,  K. Yao,  S. Yeganeh,  S. R. Yost,  Zhi-Qiang You,  A. Zech,  
 Igor Ying Zhang,  Xing Zhang,  Yan Zhao,  Ying Zhu,  B. R. Brooks,  
 G. K. L. Chan,  C. J. Cramer,  M. S. Gordon,  W. J. Hehre,  A. Klamt,  
 M. W. Schmidt,  C. D. Sherrill,  D. G. Truhlar,  A. Aspuru-Guzik,  R. Baer,  
 A. T. Bell,  N. A. Besley,  Jeng-Da Chai,  A. E. DePrince, III,  
 R. A. DiStasio Jr.,  A. Dreuw,  B. D. Dunietz,  T. R. Furlani,  
 Chao-Ping Hsu,  Yousung Jung,  Jing Kong,  D. S. Lambrecht,  WanZhen Liang,  
 C. Ochsenfeld,  V. A. Rassolov,  L. V. Slipchenko,  J. E. Subotnik,  
 T. Van Voorhis,  J. M. Herbert,  A. I. Krylov,  P. M. W. Gill,  M. Head-Gordon

 Contributors to earlier versions of Q-Chem not listed above: 
 R. D. Adamson,  B. Austin,  J. Baker,  G. J. O. Beran,  K. Brandhorst,  
 S. T. Brown,  E. F. C. Byrd,  A. K. Chakraborty,  C.-L. Cheng,  
 Siu Hung Chien,  D. M. Chipman,  D. L. Crittenden,  H. Dachsel,  
 R. J. Doerksen,  A. D. Dutoi,  L. Fusti-Molnar,  W. A. Goddard III,  
 A. Golubeva-Zadorozhnaya,  S. R. Gwaltney,  G. Hawkins,  A. Heyden,  
 S. Hirata,  G. Kedziora,  F. J. Keil,  C. Kelley,  Jihan Kim,  R. A. King,  
 R. Z. Khaliullin,  P. P. Korambath,  W. Kurlancheek,  A. M. Lee,  M. S. Lee,  
 S. V. Levchenko,  Ching Yeh Lin,  D. Liotard,  R. C. Lochan,  I. Lotan,  
 P. E. Maslen,  N. Nair,  D. P. O'Neill,  D. Neuhauser,  E. Neuscamman,  
 C. M. Oana,  R. Olson,  B. Peters,  R. Peverati,  P. A. Pieniazek,  
 Y. M. Rhee,  J. Ritchie,  M. A. Rohrdanz,  E. Rosta,  N. J. Russ,  
 H. F. Schaefer III,  N. E. Schultz,  N. Shenvi,  A. C. Simmonett,  A. Sodt,  
 D. Stuck,  K. S. Thanthiriwatte,  V. Vanovschi,  Tao Wang,  A. Warshel,  
 C. F. Williams,  Q. Wu,  X. Xu,  W. Zhang

 Please cite Q-Chem as follows:
 Y. Shao et al., Mol. Phys. 113, 184-215 (2015)
 DOI: 10.1080/00268976.2014.952696

 Q-Chem 5.1.1 for Intel X86 EM64T Linux

 Parts of Q-Chem use Armadillo 8.300.2 (Tropical Shenanigans).
 http://arma.sourceforge.net/

 Q-Chem begins on Tue Jul 28 03:28:36 2020  

Host: n0045.mhg0
0

     Scratch files written to /local/scratch/users/yhljason/CO2_M06-2X_aug-pc-4.inp20200728032815//
Input Ideriv = 2
Curr. Ideriv = -1
Max.  Ideriv = 2
Input Ideriv = 1
Curr. Ideriv = 2
Max.  Ideriv = 1

Checking the input file for inconsistencies... 	...done.

--------------------------------------------------------------
User input:
--------------------------------------------------------------
$molecule
0 1
C1	0.0000	0.0000	0.0000
O2	0.0000	0.0000	1.1621
O3	0.0000	0.0000	-1.1621
$end

$rem
jobtype sp
method M06-2X
xc_grid 000099000590
basis aug-pc-4
max_scf_cycles 200
thresh 14
scf_convergence 8
scf_algorithm gdm
symmetry false
sym_ignore true
unrestricted true
gen_scfman true
internal_stability_iter 15
internal_stability_davidson_iter 200
mem_total 64000
mem_static 1500
n_frozen_core 0
$end


--------------------------------------------------------------
 ----------------------------------------------------------------
             Standard Nuclear Orientation (Angstroms)
    I     Atom           X                Y                Z
 ----------------------------------------------------------------
    1      C       0.0000000000     0.0000000000     0.0000000000
    2      O       0.0000000000     0.0000000000     1.1621000000
    3      O       0.0000000000     0.0000000000    -1.1621000000
 ----------------------------------------------------------------
 Nuclear Repulsion Energy =    58.2864495159 hartrees
 There are       11 alpha and       11 beta electrons
 Requested basis set is aug-pc-4
 There are 99 shells and 435 basis functions

 Total QAlloc Memory Limit  64000 MB
 Mega-Array Size      1467 MB
 MEM_STATIC part      1500 MB

                       Distance Matrix (Angstroms)
             C (  1)   O (  2)
   O (  2)  1.162100
   O (  3)  1.162100  2.324200
 
 A cutoff of  1.0D-14 yielded   4864 shell pairs
 There are     95204 function pairs (    185867 Cartesian)
 
 -------------------------------------------------------
 OpenMP Integral Computing Module                       
 Release: version 1.0, May 2013, Q-Chem Inc. Pittsburgh 
 -------------------------------------------------------
 Integral Job Info:
 Integral job number is                      11
 Integral operator is                         1
 short-range coefficients                     0
 long-range coefficients              100000000
 Omega coefficients                           0
 if combine SR and LR in K                    0
 Integral screening is                        0
 Integral computing path is                   2
 max size of driver memory is           6400000
 size of driver memory is               5498286
 size of scratch memory is             29792225
 max col of scratch BK array             194481
 max len of scratch array in speh3         5572
 max len of scratch index in speh4           72
 max int batch size is                      520
 min int batch size is                       52
 fixed nKL is                                25
 max L of basis functions is                  5
 order of int derivative is                   0
 number of shells is                         99
 number of basis is                         606
 number of cartesian basis is               606
 number of contracted shell pairs          4864
 number of primitive shell pairs          11819
 maxK2 (contraction) of shell pair          121
 max number of K2 of shell pair               1
 max number of CS2 of shell pair            439
 max number of PS2 of shell pair            671
 mem total for path MDJ                 1213232
 -------------------------------------------------------
 Smallest overlap matrix eigenvalue = 2.62E-07
 Linear dependence detected in AO basis
 Number of orthogonalized atomic orbitals = 433
 Maximum deviation from orthogonality = 1.425E-10

 Scale SEOQF with 1.000000e-01/1.000000e-01/1.000000e-01

 Standard Electronic Orientation quadrupole field applied
 Nucleus-field energy     =    -0.0000000023 hartrees
 Guess from superposition of atomic densities
 Warning:  Energy on first SCF cycle will be non-variational
 SAD guess density has 22.000000 electrons

 -----------------------------------------------------------------------
  General SCF calculation program by
  Eric Jon Sundstrom, Paul Horn, Yuezhi Mao, Dmitri Zuev, Alec White,
  David Stuck, Shaama M.S., Shane Yost, Joonho Lee, David Small,
  Daniel Levine, Susi Lehtola, Hugh Burton, Evgeny Epifanovsky
 -----------------------------------------------------------------------
 Exchange:     0.5400 Hartree-Fock + 1.0000 M06-2X
 Correlation:  1.0000 M06-2X
 Using Euler-Maclaurin-Lebedev (99,590) quadrature formula
Running Object-Oriented UKS (UHF)
performing a single roothaan step with Fock from read density so that orbitals are available to all algorithms
 LTot/LBra/LKet=          18           9           9
 LTot/LBra/LKet=          18           9           9
 LTot/LBra/LKet=          18           9           9
 LTot/LBra/LKet=          18           9           9

 Q-Chem warning:

 in GenH1, ket side, handled with new code


 Q-Chem warning:

 in GenH1, ket side, handled with new code

 LTot/LBra/LKet=          18           9           9

 Q-Chem warning:

 in GenH1, ket side, handled with new code


 Q-Chem warning:

 in GenH1, ket side, handled with new code

 LTot/LBra/LBra=          18           9           9

 Q-Chem warning:

 in GenH1, bra side, handled with new code


 Q-Chem warning:

 in GenH1, ket side, handled with new code

energy of the guess density (C=0) -189.116558118848
We will preform up to 15 macro iterations over saddle points until a stable solution is found
Energy prior to optimization (guess energy) = -188.536932429757
Begin Timing: Total SCF Calculation
Begin Timing: SCF Single Stationary Point Calculation
begin iterations for algorithm: GDM          
the SCF tolerance is set to 1.00e-08
    1    -188.5369324298      1.97e-01     00000  Descent step
    2    -188.6007982130      5.83e-02     00000  Normal BFGS step
    3    -188.6111472422      2.68e-03     00000  Normal BFGS step
    4    -188.6112382838      8.75e-04     00000  Normal BFGS step
    5    -188.6112464599      1.79e-04     00000  Normal BFGS step
    6    -188.6112469960      2.53e-05     00000  Normal BFGS step
    7    -188.6112470041      4.96e-06     00000  Normal BFGS step
    8    -188.6112470043      3.23e-07     00000  Normal BFGS step
    9    -188.6112470043      3.46e-08     00000  Normal BFGS step
   10    -188.6112470043      2.58e-08     00000  Normal BFGS step
   11    -188.6112470043      9.95e-09     00000 Convergence criterion met
Timing for Single Stationary Point: 5750.00s (wall), 45784.79s (cpu)
Begin Timing: Stability
===================================================
Beginning Test for Internal Stability
===================================================
generating davidson guess vectors based on koopmans excitations
    1      4.61e-01     00000 Davidson Iteration
    2      3.56e-01     00000 Davidson Iteration
    3      4.29e-02     00000 Davidson Iteration
    4      3.35e-02     00000 Davidson Iteration
    5      1.32e-02     00000 Davidson Iteration
    6      3.75e-03     00000 Davidson Iteration
    7      1.58e-03     00000 Davidson Iteration
    8      5.26e-03     00000 Davidson Iteration
    9      1.22e-03     00000 Davidson Iteration
   10      4.45e-04     00000 Davidson Iteration
   11      2.46e-04     00000 Davidson Iteration
   12      2.54e-04     00000 Davidson Iteration
   13      2.45e-04     00000 Davidson Iteration
   14      2.50e-04     00000 Davidson Iteration
   15      2.45e-04     00000 Davidson Iteration
   16      2.51e-04     00000 Davidson Iteration
   17      1.64e-04     00000 Davidson Iteration
   18      2.05e-04     00000 Davidson Iteration
   19      1.92e-04     00000 Davidson Iteration
   20      7.07e-05     00000 Davidson Iteration
   21      2.70e-04     00000 Davidson Iteration
   22      2.44e-04     00000 Davidson Iteration
   23      1.45e-04     00000 Davidson Iteration
   24      8.25e-05     00000 Davidson Converged
converged_eigenvalues
   0.4244
   0.5002
Threshold for negative eigenvalues: -1.0e-05
solution was a local minimum (stable)
===================================================
End Test for Internal Stability
===================================================
Our SCF solution is stable!
Timing for Total SCF: 23657.00s (wall), 188141.81s (cpu)
 Total energy in the final basis set =     -188.6112470043
<S^2> =         -0.000000000
    ==================================================
              The end of Object-Oriented SCFman       
    ==================================================
 
 --------------------------------------------------------------
 
                    Orbital Energies (a.u.)
 --------------------------------------------------------------
 
 Alpha MOs
 -- Occupied --
-19.714 -19.714 -10.743  -1.296  -1.247  -0.667  -0.615  -0.611
 -0.611  -0.453  -0.453
 -- Virtual --
 -0.010   0.016   0.016   0.018   0.046   0.050   0.050   0.066
  0.066   0.068   0.071   0.071   0.074   0.082   0.082   0.103
  0.114   0.114   0.133   0.142   0.142   0.168   0.168   0.178
  0.178   0.188   0.195   0.211   0.211   0.225   0.227   0.227
  0.229   0.229   0.248   0.263   0.263   0.290   0.290   0.303
  0.303   0.310   0.310   0.312   0.318   0.319   0.319   0.328
  0.328   0.334   0.334   0.365   0.405   0.412   0.412   0.449
  0.449   0.469   0.469   0.470   0.478   0.478   0.487   0.487
  0.501   0.504   0.513   0.513   0.517   0.517   0.524   0.524
  0.526   0.526   0.541   0.541   0.575   0.575   0.598   0.627
  0.627   0.636   0.636   0.642   0.651   0.651   0.670   0.670
  0.672   0.680   0.723   0.723   0.747   0.747   0.756   0.756
  0.777   0.777   0.785   0.833   0.833   0.857   0.857   0.907
  0.907   0.914   0.914   0.923   0.923   0.925   0.932   0.932
  0.940   0.940   0.942   0.942   0.952   0.978   0.981   0.981
  1.004   1.004   1.025   1.035   1.035   1.059   1.059   1.079
  1.079   1.088   1.088   1.136   1.140   1.140   1.154   1.154
  1.170   1.209   1.220   1.220   1.245   1.245   1.259   1.259
  1.267   1.267   1.267   1.278   1.278   1.423   1.446   1.446
  1.490   1.494   1.494   1.693   1.693   1.790   1.790   1.811
  1.902   1.902   1.910   1.916   1.954   1.954   1.968   1.997
  1.997   2.116   2.116   2.170   2.170   2.205   2.230   2.230
  2.231   2.231   2.240   2.240   2.344   2.344   2.403   2.472
  2.472   2.552   2.552   2.580   2.580   2.676   2.853   2.853
  2.890   2.973   2.973   3.225   3.342   3.466   3.521   3.521
  3.574   3.574   3.916   3.929   3.929   4.052   4.052   4.204
  4.204   4.223   4.223   4.244   4.244   4.245   4.255   4.255
  4.298   4.423   4.423   4.502   4.520   4.520   4.631   4.795
  4.795   4.848   4.848   4.904   4.904   4.935   4.935   5.044
  5.044   5.174   5.217   5.217   5.233   5.233   5.284   5.284
  5.430   5.587   5.891   5.891   5.966   5.966   5.980   5.980
  6.028   6.028   6.095   6.162   6.162   6.166   6.166   6.447
  6.678   6.678   6.685   6.828   6.828   6.985   6.985   7.431
  7.431   7.500   8.084   8.084   8.149   8.256   8.256   8.329
  8.329   8.382   8.382   8.452   8.815   9.432   9.432   9.541
  9.583   9.583  10.066  10.066  10.224  10.224  10.345  10.345
 10.403  10.403  10.479  10.479  10.504  10.528  10.528  10.564
 10.564  10.588  10.684  10.684  10.980  11.019  11.020  11.020
 11.364  11.364  11.473  11.473  11.590  11.590  11.626  11.626
 11.660  11.660  11.786  11.786  11.846  11.940  11.940  11.952
 11.952  11.963  11.963  11.974  11.974  12.197  12.307  12.307
 12.450  12.450  12.520  12.520  12.631  12.633  12.633  12.897
 12.897  12.915  12.977  12.977  13.155  13.155  13.158  13.158
 13.568  13.988  13.988  14.141  14.141  14.167  14.785  14.785
 14.813  14.813  15.465  16.147  16.147  16.612  16.763  16.763
 16.767  16.767  16.875  16.875  16.946  16.946  17.034  17.111
 17.111  17.639  17.639  18.061  18.061  18.093  18.093  18.309
 18.593  18.593  18.666  18.760  18.822  18.822  20.120  20.120
 21.023  23.022  23.022  23.029  23.029  24.146  24.146  24.422
 24.731  24.731  26.603  26.850  30.492  30.905  32.025  32.025
 32.312  32.312  32.361  32.361  33.477  33.477  34.131  34.943
 36.559  66.626  66.626  66.638  66.638  67.279  67.279  67.724
 67.724  68.968  69.044  77.118 142.815 143.754
 
 Beta MOs
 -- Occupied --
-19.714 -19.714 -10.743  -1.296  -1.247  -0.667  -0.615  -0.611
 -0.611  -0.453  -0.453
 -- Virtual --
 -0.010   0.016   0.016   0.018   0.046   0.050   0.050   0.066
  0.066   0.068   0.071   0.071   0.074   0.082   0.082   0.103
  0.114   0.114   0.133   0.142   0.142   0.168   0.168   0.178
  0.178   0.188   0.195   0.211   0.211   0.225   0.227   0.227
  0.229   0.229   0.248   0.263   0.263   0.290   0.290   0.303
  0.303   0.310   0.310   0.312   0.318   0.319   0.319   0.328
  0.328   0.334   0.334   0.365   0.405   0.412   0.412   0.449
  0.449   0.469   0.469   0.470   0.478   0.478   0.487   0.487
  0.501   0.504   0.513   0.513   0.517   0.517   0.524   0.524
  0.526   0.526   0.541   0.541   0.575   0.575   0.598   0.627
  0.627   0.636   0.636   0.642   0.651   0.651   0.670   0.670
  0.672   0.680   0.723   0.723   0.747   0.747   0.756   0.756
  0.777   0.777   0.785   0.833   0.833   0.857   0.857   0.907
  0.907   0.914   0.914   0.923   0.923   0.925   0.932   0.932
  0.940   0.940   0.942   0.942   0.952   0.978   0.981   0.981
  1.004   1.004   1.025   1.035   1.035   1.059   1.059   1.079
  1.079   1.088   1.088   1.136   1.140   1.140   1.154   1.154
  1.170   1.209   1.220   1.220   1.245   1.245   1.259   1.259
  1.267   1.267   1.267   1.278   1.278   1.423   1.446   1.446
  1.490   1.494   1.494   1.693   1.693   1.790   1.790   1.811
  1.902   1.902   1.910   1.916   1.954   1.954   1.968   1.997
  1.997   2.116   2.116   2.170   2.170   2.205   2.230   2.230
  2.231   2.231   2.240   2.240   2.344   2.344   2.403   2.472
  2.472   2.552   2.552   2.580   2.580   2.676   2.853   2.853
  2.890   2.973   2.973   3.225   3.342   3.466   3.521   3.521
  3.574   3.574   3.916   3.929   3.929   4.052   4.052   4.204
  4.204   4.223   4.223   4.244   4.244   4.245   4.255   4.255
  4.298   4.423   4.423   4.502   4.520   4.520   4.631   4.795
  4.795   4.848   4.848   4.904   4.904   4.935   4.935   5.044
  5.044   5.174   5.217   5.217   5.233   5.233   5.284   5.284
  5.430   5.587   5.891   5.891   5.966   5.966   5.980   5.980
  6.028   6.028   6.095   6.162   6.162   6.166   6.166   6.447
  6.678   6.678   6.685   6.828   6.828   6.985   6.985   7.431
  7.431   7.500   8.084   8.084   8.149   8.256   8.256   8.329
  8.329   8.382   8.382   8.452   8.815   9.432   9.432   9.541
  9.583   9.583  10.066  10.066  10.224  10.224  10.345  10.345
 10.403  10.403  10.479  10.479  10.504  10.528  10.528  10.564
 10.564  10.588  10.684  10.684  10.980  11.019  11.020  11.020
 11.364  11.364  11.473  11.473  11.590  11.590  11.626  11.626
 11.660  11.660  11.786  11.786  11.846  11.940  11.940  11.952
 11.952  11.963  11.963  11.974  11.974  12.197  12.307  12.307
 12.450  12.450  12.520  12.520  12.631  12.633  12.633  12.897
 12.897  12.915  12.977  12.977  13.155  13.155  13.158  13.158
 13.568  13.988  13.988  14.141  14.141  14.167  14.785  14.785
 14.813  14.813  15.465  16.147  16.147  16.612  16.763  16.763
 16.767  16.767  16.875  16.875  16.946  16.946  17.034  17.111
 17.111  17.639  17.639  18.061  18.061  18.093  18.093  18.309
 18.593  18.593  18.666  18.760  18.822  18.822  20.120  20.120
 21.023  23.022  23.022  23.029  23.029  24.146  24.146  24.422
 24.731  24.731  26.603  26.850  30.492  30.905  32.025  32.025
 32.312  32.312  32.361  32.361  33.477  33.477  34.131  34.943
 36.559  66.626  66.626  66.638  66.638  67.279  67.279  67.724
 67.724  68.968  69.044  77.118 142.815 143.754
 --------------------------------------------------------------
 
          Ground-State Mulliken Net Atomic Charges

     Atom                 Charge (a.u.)    Spin (a.u.)
  --------------------------------------------------------
      1 C                     0.646777      -0.000000
      2 O                    -0.323389       0.000000
      3 O                    -0.323389      -0.000000
  --------------------------------------------------------
  Sum of atomic charges =    -0.000000
  Sum of spin   charges =    -0.000000

 -----------------------------------------------------------------
                    Cartesian Multipole Moments
 -----------------------------------------------------------------
    Charge (ESU x 10^10)
                -0.0000
    Dipole Moment (Debye)
         X      -0.0000      Y       0.0000      Z       0.0000
       Tot       0.0000
    Quadrupole Moments (Debye-Ang)
        XX     -14.8641     XY       0.0000     YY     -14.8641
        XZ      -0.0000     YZ      -0.0000     ZZ     -19.3126
    Octopole Moments (Debye-Ang^2)
       XXX       0.0000    XXY       0.0000    XYY       0.0000
       YYY       0.0000    XXZ      -0.0000    XYZ      -0.0000
       YYZ      -0.0000    XZZ       0.0000    YZZ       0.0000
       ZZZ       0.0000
    Hexadecapole Moments (Debye-Ang^3)
      XXXX     -11.9156   XXXY       0.0000   XXYY      -3.9719
      XYYY       0.0000   YYYY     -11.9156   XXXZ      -0.0000
      XXYZ      -0.0000   XYYZ      -0.0000   YYYZ      -0.0000
      XXZZ     -18.9998   XYZZ       0.0000   YYZZ     -18.9998
      XZZZ      -0.0000   YZZZ      -0.0000   ZZZZ    -102.9972
 -----------------------------------------------------------------
Archival summary:
1\1\n0045.mhg0\SP\ProcedureUnspecified\BasisUnspecified\21\yhljason\TueJul2810:13:002020TueJul2810:13:002020\0\\#,ProcedureUnspecified,BasisUnspecified,\\0,1\C\O,1,1.1621\O,1,1.1621,2,180\\\@

 Total job time:  24263.73s(wall), 192858.22s(cpu) 
 Tue Jul 28 10:13:00 2020

        *************************************************************
        *                                                           *
        *  Thank you very much for using Q-Chem.  Have a nice day.  *
        *                                                           *
        *************************************************************


