Q-Chem Developer Version!
                  Welcome to Q-Chem
     A Quantum Leap Into The Future Of Chemistry


 Q-Chem 5.1, Q-Chem, Inc., Pleasanton, CA (2018)

 Yihan Shao,  Zhengting Gan,  E. Epifanovsky,  A. T. B. Gilbert,  M. Wormit,  
 J. Kussmann,  A. W. Lange,  A. Behn,  Jia Deng,  Xintian Feng,  D. Ghosh,  
 M. Goldey,  P. R. Horn,  L. D. Jacobson,  I. Kaliman,  T. Kus,  A. Landau,  
 Jie Liu,  E. I. Proynov,  R. M. Richard,  R. P. Steele,  E. J. Sundstrom,  
 H. L. Woodcock III,  P. M. Zimmerman,  D. Zuev,  B. Albrecht,  E. Alguire,  
 S. A. Baeppler,  D. Barton,  Z. Benda,  Y. A. Bernard,  E. J. Berquist,  
 K. B. Bravaya,  H. Burton,  D. Casanova,  Chun-Min Chang,  Yunqing Chen,  
 A. Chien,  K. D. Closser,  M. P. Coons,  S. Coriani,  S. Dasgupta,  
 A. L. Dempwolff,  M. Diedenhofen,  Hainam Do,  R. G. Edgar,  Po-Tung Fang,  
 S. Faraji,  S. Fatehi,  Qingguo Feng,  K. D. Fenk,  J. Fosso-Tande,  
 Qinghui Ge,  A. Ghysels,  G. Gidofalvi,  J. Gomes,  J. Gonthier,  A. Gunina,  
 D. Hait,  M. W. D. Hanson-Heine,  P. H. P. Harbach,  A. W. Hauser,  
 J. E. Herr,  E. G. Hohenstein,  Z. C. Holden,  Kerwin Hui,  B. C. Huynh,  
 T.-C. Jagau,  Hyunjun Ji,  B. Kaduk,  K. Khistyaev,  Jaehoon Kim,  
 P. Klunzinger,  K. Koh,  D. Kosenkov,  L. Koulias,  T. Kowalczyk,  
 C. M. Krauter,  A. Kunitsa,  Ka Un Lao,  A. Laurent,  K. V. Lawler,  
 Joonho Lee,  D. Lefrancois,  S. Lehtola,  D. S. Levine,  Yi-Pei Li,  
 You-Sheng Lin,  Fenglai Liu,  E. Livshits,  A. Luenser,  P. Manohar,  
 E. Mansoor,  S. F. Manzer,  Shan-Ping Mao,  Yuezhi Mao,  N. Mardirossian,  
 A. V. Marenich,  T. Markovich,  L. A. Martinez-Martinez,  S. A. Maurer,  
 N. J. Mayhall,  S. C. McKenzie,  J.-M. Mewes,  A. F. Morrison,  
 J. W. Mullinax,  K. Nanda,  T. S. Nguyen-Beck,  R. Olivares-Amaya,  
 J. A. Parkhill,  T. M. Perrine,  F. Plasser,  P. Pokhilko,  S. Prager,  
 A. Prociuk,  E. Ramos,  D. R. Rehn,  F. Rob,  M. Schneider,  N. Sergueev,  
 S. M. Sharada,  S. Sharma,  D. W. Small,  T. Stauch,  T. Stein,  
 Yu-Chuan Su,  A. J. W. Thom,  A. Tkatchenko,  T. Tsuchimochi,  N. M. Tubman,  
 L. Vogt,  M. L. Vidal,  O. Vydrov,  M. A. Watson,  J. Wenzel,  
 M. de Wergifosse,  T. A. Wesolowski,  A. White,  J. Witte,  A. Yamada,  
 Jun Yang,  K. Yao,  S. Yeganeh,  S. R. Yost,  Zhi-Qiang You,  A. Zech,  
 Igor Ying Zhang,  Xing Zhang,  Yan Zhao,  Ying Zhu,  B. R. Brooks,  
 G. K. L. Chan,  C. J. Cramer,  M. S. Gordon,  W. J. Hehre,  A. Klamt,  
 M. W. Schmidt,  C. D. Sherrill,  D. G. Truhlar,  A. Aspuru-Guzik,  R. Baer,  
 A. T. Bell,  N. A. Besley,  Jeng-Da Chai,  A. E. DePrince, III,  
 R. A. DiStasio Jr.,  A. Dreuw,  B. D. Dunietz,  T. R. Furlani,  
 Chao-Ping Hsu,  Yousung Jung,  Jing Kong,  D. S. Lambrecht,  WanZhen Liang,  
 C. Ochsenfeld,  V. A. Rassolov,  L. V. Slipchenko,  J. E. Subotnik,  
 T. Van Voorhis,  J. M. Herbert,  A. I. Krylov,  P. M. W. Gill,  M. Head-Gordon

 Contributors to earlier versions of Q-Chem not listed above: 
 R. D. Adamson,  B. Austin,  J. Baker,  G. J. O. Beran,  K. Brandhorst,  
 S. T. Brown,  E. F. C. Byrd,  A. K. Chakraborty,  C.-L. Cheng,  
 Siu Hung Chien,  D. M. Chipman,  D. L. Crittenden,  H. Dachsel,  
 R. J. Doerksen,  A. D. Dutoi,  L. Fusti-Molnar,  W. A. Goddard III,  
 A. Golubeva-Zadorozhnaya,  S. R. Gwaltney,  G. Hawkins,  A. Heyden,  
 S. Hirata,  G. Kedziora,  F. J. Keil,  C. Kelley,  Jihan Kim,  R. A. King,  
 R. Z. Khaliullin,  P. P. Korambath,  W. Kurlancheek,  A. M. Lee,  M. S. Lee,  
 S. V. Levchenko,  Ching Yeh Lin,  D. Liotard,  R. C. Lochan,  I. Lotan,  
 P. E. Maslen,  N. Nair,  D. P. O'Neill,  D. Neuhauser,  E. Neuscamman,  
 C. M. Oana,  R. Olson,  B. Peters,  R. Peverati,  P. A. Pieniazek,  
 Y. M. Rhee,  J. Ritchie,  M. A. Rohrdanz,  E. Rosta,  N. J. Russ,  
 H. F. Schaefer III,  N. E. Schultz,  N. Shenvi,  A. C. Simmonett,  A. Sodt,  
 D. Stuck,  K. S. Thanthiriwatte,  V. Vanovschi,  Tao Wang,  A. Warshel,  
 C. F. Williams,  Q. Wu,  X. Xu,  W. Zhang

 Please cite Q-Chem as follows:
 Y. Shao et al., Mol. Phys. 113, 184-215 (2015)
 DOI: 10.1080/00268976.2014.952696

 Q-Chem 5.1.1 for Intel X86 EM64T Linux

 Parts of Q-Chem use Armadillo 8.300.2 (Tropical Shenanigans).
 http://arma.sourceforge.net/

 Q-Chem begins on Wed Jul 29 03:45:12 2020  

Host: n0053.mhg0
0

     Scratch files written to /local/scratch/users/yhljason/FCN_B3LYP5_aug-pc-4.inp20200729032408//
Input Ideriv = 2
Curr. Ideriv = -1
Max.  Ideriv = 2

Checking the input file for inconsistencies... 	...done.

--------------------------------------------------------------
User input:
--------------------------------------------------------------
$molecule
0 1
C1      0.0000  0.0000  0.0000
F2      0.0000  0.0000  -1.2620
N3      0.0000  0.0000  1.1590
$end

$rem
jobtype sp
method B3LYP5
xc_grid 000099000590
basis aug-pc-4
max_scf_cycles 200
thresh 14
scf_convergence 8
scf_algorithm gdm
symmetry false
sym_ignore true
unrestricted true
gen_scfman true
internal_stability_iter 15
internal_stability_davidson_iter 200
mem_total 64000
mem_static 1500
n_frozen_core 0
$end


--------------------------------------------------------------
 ----------------------------------------------------------------
             Standard Nuclear Orientation (Angstroms)
    I     Atom           X                Y                Z
 ----------------------------------------------------------------
    1      C       0.0000000000     0.0000000000     0.0000000000
    2      F       0.0000000000     0.0000000000    -1.2620000000
    3      N       0.0000000000     0.0000000000     1.1590000000
 ----------------------------------------------------------------
 Nuclear Repulsion Energy =    55.5898885148 hartrees
 There are       11 alpha and       11 beta electrons
 Requested basis set is aug-pc-4
 There are 99 shells and 435 basis functions

 Total QAlloc Memory Limit  64000 MB
 Mega-Array Size      1467 MB
 MEM_STATIC part      1500 MB

                       Distance Matrix (Angstroms)
             C (  1)   F (  2)
   F (  2)  1.262000
   N (  3)  1.159000  2.421000
 
 A cutoff of  1.0D-14 yielded   4852 shell pairs
 There are     95036 function pairs (    185578 Cartesian)
 
 -------------------------------------------------------
 OpenMP Integral Computing Module                       
 Release: version 1.0, May 2013, Q-Chem Inc. Pittsburgh 
 -------------------------------------------------------
 Integral Job Info:
 Integral job number is                      11
 Integral operator is                         1
 short-range coefficients                     0
 long-range coefficients              100000000
 Omega coefficients                           0
 if combine SR and LR in K                    0
 Integral screening is                        0
 Integral computing path is                   2
 max size of driver memory is           6400000
 size of driver memory is               5498286
 size of scratch memory is             29792225
 max col of scratch BK array             194481
 max len of scratch array in speh3         5572
 max len of scratch index in speh4           72
 max int batch size is                      520
 min int batch size is                       52
 fixed nKL is                                25
 max L of basis functions is                  5
 order of int derivative is                   0
 number of shells is                         99
 number of basis is                         606
 number of cartesian basis is               606
 number of contracted shell pairs          4852
 number of primitive shell pairs          11728
 maxK2 (contraction) of shell pair          121
 max number of K2 of shell pair               1
 max number of CS2 of shell pair            440
 max number of PS2 of shell pair            682
 mem total for path MDJ                 1213232
 -------------------------------------------------------
 Smallest overlap matrix eigenvalue = 4.26E-07
 Linear dependence detected in AO basis
 Number of orthogonalized atomic orbitals = 433
 Maximum deviation from orthogonality = 1.403E-10

 Scale SEOQF with 1.000000e-01/1.000000e-01/1.000000e-01

 Standard Electronic Orientation quadrupole field applied
 Nucleus-field energy     =    -0.0000000025 hartrees
 Guess from superposition of atomic densities
 Warning:  Energy on first SCF cycle will be non-variational
 SAD guess density has 22.000000 electrons

 -----------------------------------------------------------------------
  General SCF calculation program by
  Eric Jon Sundstrom, Paul Horn, Yuezhi Mao, Dmitri Zuev, Alec White,
  David Stuck, Shaama M.S., Shane Yost, Joonho Lee, David Small,
  Daniel Levine, Susi Lehtola, Hugh Burton, Evgeny Epifanovsky
 -----------------------------------------------------------------------
 Exchange:     0.2000 Hartree-Fock + 0.0800 Slater + 0.7200 B88
 Correlation:  0.1900 VWN5 + 0.8100 LYP
 Using Euler-Maclaurin-Lebedev (99,590) quadrature formula
Running Object-Oriented UKS (UHF)
performing a single roothaan step with Fock from read density so that orbitals are available to all algorithms
 LTot/LBra/LKet=          18           9           9

 Q-Chem warning:

 in GenH1, ket side, handled with new code

 LTot/LBra/LBra=          18           9           9

 Q-Chem warning:

 in GenH1, bra side, handled with new code

energy of the guess density (C=0) -193.097744796117
We will preform up to 15 macro iterations over saddle points until a stable solution is found
Energy prior to optimization (guess energy) = -192.541545704696
Begin Timing: Total SCF Calculation
Begin Timing: SCF Single Stationary Point Calculation
begin iterations for algorithm: GDM          
the SCF tolerance is set to 1.00e-08
    1    -192.5415457047      3.54e-01     00000  Descent step
    2    -192.6114113485      1.80e-01     00000  Normal BFGS step
    3    -192.6473401142      1.81e-02     00000  Normal BFGS step
    4    -192.6489184906      1.55e-02     00000  Normal BFGS step
    5    -192.6498968466      5.95e-03     00000  Normal BFGS step
    6    -192.6500000185      2.42e-03     00000  Normal BFGS step
    7    -192.6500744896      3.53e-04     00000  Normal BFGS step
    8    -192.6500750097      5.89e-05     00000  Normal BFGS step
    9    -192.6500750462      7.24e-06     00000  Normal BFGS step
   10    -192.6500750466      2.07e-06     00000  Normal BFGS step
   11    -192.6500750466      1.04e-07     00000  Normal BFGS step
   12    -192.6500750466      1.20e-07     00000  Normal BFGS step
   13    -192.6500750466      1.22e-07     00000  Normal BFGS step
   14    -192.6500750466      3.16e-08     00000  Normal BFGS step
   15    -192.6500750466      1.39e-08     00000  Normal BFGS step
   16    -192.6500750466      3.10e-09     00000 Convergence criterion met
Timing for Single Stationary Point: 7750.00s (wall), 61460.79s (cpu)
Begin Timing: Stability
===================================================
Beginning Test for Internal Stability
===================================================
generating davidson guess vectors based on koopmans excitations
    1      4.88e-01     00000 Davidson Iteration
    2      1.64e-01     00000 Davidson Iteration
    3      3.10e-02     00000 Davidson Iteration
    4      2.74e-02     00000 Davidson Iteration
    5      1.41e-02     00000 Davidson Iteration
    6      1.43e-02     00000 Davidson Iteration
    7      1.55e-03     00000 Davidson Iteration
    8      2.95e-03     00000 Davidson Iteration
    9      2.37e-03     00000 Davidson Iteration
   10      5.50e-04     00000 Davidson Iteration
   11      2.24e-04     00000 Davidson Iteration
   12      3.37e-04     00000 Davidson Iteration
   13      1.83e-04     00000 Davidson Iteration
   14      6.42e-05     00000 Davidson Iteration
   15      1.31e-03     00000 Davidson Iteration
   16      6.36e-04     00000 Davidson Iteration
   17      3.18e-04     00000 Davidson Iteration
   18      1.87e-04     00000 Davidson Iteration
   19      7.91e-05     00000 Davidson Converged
converged_eigenvalues
   0.4731
   0.3292
Threshold for negative eigenvalues: -1.0e-05
solution was a local minimum (stable)
===================================================
End Test for Internal Stability
===================================================
Our SCF solution is stable!
Timing for Total SCF: 20851.00s (wall), 164408.75s (cpu)
 Total energy in the final basis set =     -192.6500750466
<S^2> =          0.000000000
    ==================================================
              The end of Object-Oriented SCFman       
    ==================================================
 
 --------------------------------------------------------------
 
                    Orbital Energies (a.u.)
 --------------------------------------------------------------
 
 Alpha MOs
 -- Occupied --
-24.813 -14.351 -10.323  -1.359  -0.944  -0.699  -0.578  -0.578
 -0.406  -0.363  -0.363
 -- Virtual --
 -0.038   0.015   0.015   0.016   0.025   0.025   0.031   0.054
  0.055   0.055   0.068   0.068   0.072   0.086   0.086   0.097
  0.109   0.109   0.120   0.148   0.158   0.158   0.181   0.181
  0.191   0.191   0.199   0.199   0.201   0.216   0.216   0.230
  0.233   0.234   0.234   0.266   0.269   0.269   0.294   0.294
  0.320   0.344   0.344   0.349   0.349   0.352   0.352   0.363
  0.379   0.379   0.389   0.389   0.425   0.446   0.446   0.456
  0.456   0.466   0.466   0.484   0.484   0.485   0.492   0.503
  0.503   0.514   0.516   0.516   0.522   0.522   0.537   0.537
  0.556   0.557   0.557   0.560   0.560   0.582   0.582   0.644
  0.663   0.663   0.679   0.679   0.701   0.701   0.737   0.740
  0.740   0.749   0.751   0.751   0.794   0.794   0.796   0.796
  0.801   0.801   0.814   0.874   0.899   0.899   0.902   0.902
  0.912   0.912   0.934   0.934   0.949   0.949   0.958   0.958
  0.965   0.973   0.973   0.992   0.992   1.005   1.020   1.020
  1.054   1.092   1.092   1.109   1.109   1.117   1.119   1.119
  1.144   1.144   1.187   1.197   1.197   1.216   1.263   1.263
  1.284   1.284   1.292   1.292   1.315   1.315   1.383   1.383
  1.384   1.411   1.411   1.460   1.495   1.495   1.506   1.506
  1.567   1.567   1.609   1.621   1.621   1.694   1.718   1.718
  1.776   1.776   1.889   1.923   1.923   1.966   2.011   2.011
  2.014   2.014   2.177   2.177   2.185   2.186   2.186   2.329
  2.336   2.336   2.408   2.408   2.409   2.470   2.470   2.503
  2.503   2.585   2.586   2.586   2.627   2.627   2.844   2.918
  2.965   2.965   3.112   3.112   3.161   3.161   3.370   3.463
  3.463   3.502   3.530   3.530   3.617   3.798   3.798   4.065
  4.111   4.111   4.113   4.178   4.178   4.193   4.193   4.202
  4.202   4.277   4.277   4.625   4.708   4.708   4.751   4.751
  4.786   4.786   4.843   4.887   4.887   5.011   5.011   5.134
  5.134   5.322   5.322   5.485   5.485   5.565   5.629   5.631
  5.631   5.688   5.688   5.752   5.752   5.896   6.050   6.050
  6.179   6.179   6.319   6.460   6.460   6.466   6.703   6.808
  6.808   6.898   6.898   6.932   6.932   7.133   7.133   7.217
  7.217   7.223   7.351   7.351   7.399   7.399   7.803   7.985
  8.076   8.076   8.458   8.796   8.796   8.944   8.944   8.962
  9.329   9.329   9.904   9.904   9.943  10.295  10.295  10.347
 10.367  10.367  10.431  10.431  10.531  10.531  10.540  10.540
 10.780  10.780  11.156  11.209  11.209  11.290  11.290  11.332
 11.513  11.513  11.517  11.517  11.640  11.640  11.755  11.755
 11.883  11.883  11.933  11.933  11.950  11.950  12.122  12.122
 12.191  12.191  12.355  12.355  12.371  12.419  12.643  12.643
 12.708  12.708  12.764  12.764  12.804  12.804  13.136  13.136
 13.324  13.805  13.805  13.958  14.248  14.248  14.263  14.263
 14.395  14.395  14.598  14.668  14.668  14.781  14.781  15.073
 15.073  15.162  15.162  15.176  15.201  15.201  15.506  15.506
 15.765  16.124  16.124  16.185  16.542  16.701  16.701  16.802
 16.802  16.848  17.073  17.073  17.840  17.840  18.512  18.512
 18.515  18.636  20.180  20.180  20.325  20.325  20.341  20.341
 20.731  21.202  21.202  22.499  22.499  22.800  24.271  24.584
 26.595  26.595  28.538  30.462  30.462  31.266  31.266  32.089
 32.089  32.172  33.321  33.321  35.891  42.079  42.079  42.409
 45.088  47.943  47.943  48.371  48.371  49.272  77.133  91.540
 91.540  92.068  92.068  92.928 105.783 203.498
 
 Beta MOs
 -- Occupied --
-24.813 -14.351 -10.323  -1.359  -0.944  -0.699  -0.578  -0.578
 -0.406  -0.363  -0.363
 -- Virtual --
 -0.038   0.015   0.015   0.016   0.025   0.025   0.031   0.054
  0.055   0.055   0.068   0.068   0.072   0.086   0.086   0.097
  0.109   0.109   0.120   0.148   0.158   0.158   0.181   0.181
  0.191   0.191   0.199   0.199   0.201   0.216   0.216   0.230
  0.233   0.234   0.234   0.266   0.269   0.269   0.294   0.294
  0.320   0.344   0.344   0.349   0.349   0.352   0.352   0.363
  0.379   0.379   0.389   0.389   0.425   0.446   0.446   0.456
  0.456   0.466   0.466   0.484   0.484   0.485   0.492   0.503
  0.503   0.514   0.516   0.516   0.522   0.522   0.537   0.537
  0.556   0.557   0.557   0.560   0.560   0.582   0.582   0.644
  0.663   0.663   0.679   0.679   0.701   0.701   0.737   0.740
  0.740   0.749   0.751   0.751   0.794   0.794   0.796   0.796
  0.801   0.801   0.814   0.874   0.899   0.899   0.902   0.902
  0.912   0.912   0.934   0.934   0.949   0.949   0.958   0.958
  0.965   0.973   0.973   0.992   0.992   1.005   1.020   1.020
  1.054   1.092   1.092   1.109   1.109   1.117   1.119   1.119
  1.144   1.144   1.187   1.197   1.197   1.216   1.263   1.263
  1.284   1.284   1.292   1.292   1.315   1.315   1.383   1.383
  1.384   1.411   1.411   1.460   1.495   1.495   1.506   1.506
  1.567   1.567   1.609   1.621   1.621   1.694   1.718   1.718
  1.776   1.776   1.889   1.923   1.923   1.966   2.011   2.011
  2.014   2.014   2.177   2.177   2.185   2.186   2.186   2.329
  2.336   2.336   2.408   2.408   2.409   2.470   2.470   2.503
  2.503   2.585   2.586   2.586   2.627   2.627   2.844   2.918
  2.965   2.965   3.112   3.112   3.161   3.161   3.370   3.463
  3.463   3.502   3.530   3.530   3.617   3.798   3.798   4.065
  4.111   4.111   4.113   4.178   4.178   4.193   4.193   4.202
  4.202   4.277   4.277   4.625   4.708   4.708   4.751   4.751
  4.786   4.786   4.843   4.887   4.887   5.011   5.011   5.134
  5.134   5.322   5.322   5.485   5.485   5.565   5.629   5.631
  5.631   5.688   5.688   5.752   5.752   5.896   6.050   6.050
  6.179   6.179   6.319   6.460   6.460   6.466   6.703   6.808
  6.808   6.898   6.898   6.932   6.932   7.133   7.133   7.217
  7.217   7.223   7.351   7.351   7.399   7.399   7.803   7.985
  8.076   8.076   8.458   8.796   8.796   8.944   8.944   8.962
  9.329   9.329   9.904   9.904   9.943  10.295  10.295  10.347
 10.367  10.367  10.431  10.431  10.531  10.531  10.540  10.540
 10.780  10.780  11.156  11.209  11.209  11.290  11.290  11.332
 11.513  11.513  11.517  11.517  11.640  11.640  11.755  11.755
 11.883  11.883  11.933  11.933  11.950  11.950  12.122  12.122
 12.191  12.191  12.355  12.355  12.371  12.419  12.643  12.643
 12.708  12.708  12.764  12.764  12.804  12.804  13.136  13.136
 13.324  13.805  13.805  13.958  14.248  14.248  14.263  14.263
 14.395  14.395  14.598  14.668  14.668  14.781  14.781  15.073
 15.073  15.162  15.162  15.176  15.201  15.201  15.506  15.506
 15.765  16.124  16.124  16.185  16.542  16.701  16.701  16.802
 16.802  16.848  17.073  17.073  17.840  17.840  18.512  18.512
 18.515  18.636  20.180  20.180  20.325  20.325  20.341  20.341
 20.731  21.202  21.202  22.499  22.499  22.800  24.271  24.584
 26.595  26.595  28.538  30.462  30.462  31.266  31.266  32.089
 32.089  32.172  33.321  33.321  35.891  42.079  42.079  42.409
 45.088  47.943  47.943  48.371  48.371  49.272  77.133  91.540
 91.540  92.068  92.068  92.928 105.783 203.498
 --------------------------------------------------------------
 
          Ground-State Mulliken Net Atomic Charges

     Atom                 Charge (a.u.)    Spin (a.u.)
  --------------------------------------------------------
      1 C                     0.381150       0.000000
      2 F                    -0.266238      -0.000000
      3 N                    -0.114911      -0.000000
  --------------------------------------------------------
  Sum of atomic charges =     0.000000
  Sum of spin   charges =     0.000000

 -----------------------------------------------------------------
                    Cartesian Multipole Moments
 -----------------------------------------------------------------
    Charge (ESU x 10^10)
                 0.0000
    Dipole Moment (Debye)
         X       0.0000      Y       0.0000      Z      -2.2910
       Tot       2.2910
    Quadrupole Moments (Debye-Ang)
        XX     -15.2886     XY       0.0000     YY     -15.2886
        XZ      -0.0000     YZ      -0.0000     ZZ     -18.5579
    Octopole Moments (Debye-Ang^2)
       XXX       0.0000    XXY       0.0000    XYY       0.0000
       YYY       0.0000    XXZ      -1.4772    XYZ      -0.0000
       YYZ      -1.4772    XZZ      -0.0000    YZZ      -0.0000
       ZZZ      -7.3424
    Hexadecapole Moments (Debye-Ang^3)
      XXXX     -13.6257   XXXY      -0.0000   XXYY      -4.5419
      XYYY      -0.0000   YYYY     -13.6257   XXXZ      -0.0000
      XXYZ       0.0000   XYYZ      -0.0000   YYYZ       0.0000
      XXZZ     -20.2328   XYZZ      -0.0000   YYZZ     -20.2328
      XZZZ       0.0000   YZZZ      -0.0000   ZZZZ    -112.0531
 -----------------------------------------------------------------
Archival summary:
1\1\n0053.mhg0\SP\ProcedureUnspecified\BasisUnspecified\111\yhljason\WedJul2909:41:442020WedJul2909:41:442020\0\\#,ProcedureUnspecified,BasisUnspecified,\\0,1\C\N,1,1.159\F,1,1.262,2,180\\\@

 Total job time:  21391.76s(wall), 168639.19s(cpu) 
 Wed Jul 29 09:41:44 2020

        *************************************************************
        *                                                           *
        *  Thank you very much for using Q-Chem.  Have a nice day.  *
        *                                                           *
        *************************************************************


