Q-Chem Developer Version!
                  Welcome to Q-Chem
     A Quantum Leap Into The Future Of Chemistry


 Q-Chem 5.1, Q-Chem, Inc., Pleasanton, CA (2018)

 Yihan Shao,  Zhengting Gan,  E. Epifanovsky,  A. T. B. Gilbert,  M. Wormit,  
 J. Kussmann,  A. W. Lange,  A. Behn,  Jia Deng,  Xintian Feng,  D. Ghosh,  
 M. Goldey,  P. R. Horn,  L. D. Jacobson,  I. Kaliman,  T. Kus,  A. Landau,  
 Jie Liu,  E. I. Proynov,  R. M. Richard,  R. P. Steele,  E. J. Sundstrom,  
 H. L. Woodcock III,  P. M. Zimmerman,  D. Zuev,  B. Albrecht,  E. Alguire,  
 S. A. Baeppler,  D. Barton,  Z. Benda,  Y. A. Bernard,  E. J. Berquist,  
 K. B. Bravaya,  H. Burton,  D. Casanova,  Chun-Min Chang,  Yunqing Chen,  
 A. Chien,  K. D. Closser,  M. P. Coons,  S. Coriani,  S. Dasgupta,  
 A. L. Dempwolff,  M. Diedenhofen,  Hainam Do,  R. G. Edgar,  Po-Tung Fang,  
 S. Faraji,  S. Fatehi,  Qingguo Feng,  K. D. Fenk,  J. Fosso-Tande,  
 Qinghui Ge,  A. Ghysels,  G. Gidofalvi,  J. Gomes,  J. Gonthier,  A. Gunina,  
 D. Hait,  M. W. D. Hanson-Heine,  P. H. P. Harbach,  A. W. Hauser,  
 J. E. Herr,  E. G. Hohenstein,  Z. C. Holden,  Kerwin Hui,  B. C. Huynh,  
 T.-C. Jagau,  Hyunjun Ji,  B. Kaduk,  K. Khistyaev,  Jaehoon Kim,  
 P. Klunzinger,  K. Koh,  D. Kosenkov,  L. Koulias,  T. Kowalczyk,  
 C. M. Krauter,  A. Kunitsa,  Ka Un Lao,  A. Laurent,  K. V. Lawler,  
 Joonho Lee,  D. Lefrancois,  S. Lehtola,  D. S. Levine,  Yi-Pei Li,  
 You-Sheng Lin,  Fenglai Liu,  E. Livshits,  A. Luenser,  P. Manohar,  
 E. Mansoor,  S. F. Manzer,  Shan-Ping Mao,  Yuezhi Mao,  N. Mardirossian,  
 A. V. Marenich,  T. Markovich,  L. A. Martinez-Martinez,  S. A. Maurer,  
 N. J. Mayhall,  S. C. McKenzie,  J.-M. Mewes,  A. F. Morrison,  
 J. W. Mullinax,  K. Nanda,  T. S. Nguyen-Beck,  R. Olivares-Amaya,  
 J. A. Parkhill,  T. M. Perrine,  F. Plasser,  P. Pokhilko,  S. Prager,  
 A. Prociuk,  E. Ramos,  D. R. Rehn,  F. Rob,  M. Schneider,  N. Sergueev,  
 S. M. Sharada,  S. Sharma,  D. W. Small,  T. Stauch,  T. Stein,  
 Yu-Chuan Su,  A. J. W. Thom,  A. Tkatchenko,  T. Tsuchimochi,  N. M. Tubman,  
 L. Vogt,  M. L. Vidal,  O. Vydrov,  M. A. Watson,  J. Wenzel,  
 M. de Wergifosse,  T. A. Wesolowski,  A. White,  J. Witte,  A. Yamada,  
 Jun Yang,  K. Yao,  S. Yeganeh,  S. R. Yost,  Zhi-Qiang You,  A. Zech,  
 Igor Ying Zhang,  Xing Zhang,  Yan Zhao,  Ying Zhu,  B. R. Brooks,  
 G. K. L. Chan,  C. J. Cramer,  M. S. Gordon,  W. J. Hehre,  A. Klamt,  
 M. W. Schmidt,  C. D. Sherrill,  D. G. Truhlar,  A. Aspuru-Guzik,  R. Baer,  
 A. T. Bell,  N. A. Besley,  Jeng-Da Chai,  A. E. DePrince, III,  
 R. A. DiStasio Jr.,  A. Dreuw,  B. D. Dunietz,  T. R. Furlani,  
 Chao-Ping Hsu,  Yousung Jung,  Jing Kong,  D. S. Lambrecht,  WanZhen Liang,  
 C. Ochsenfeld,  V. A. Rassolov,  L. V. Slipchenko,  J. E. Subotnik,  
 T. Van Voorhis,  J. M. Herbert,  A. I. Krylov,  P. M. W. Gill,  M. Head-Gordon

 Contributors to earlier versions of Q-Chem not listed above: 
 R. D. Adamson,  B. Austin,  J. Baker,  G. J. O. Beran,  K. Brandhorst,  
 S. T. Brown,  E. F. C. Byrd,  A. K. Chakraborty,  C.-L. Cheng,  
 Siu Hung Chien,  D. M. Chipman,  D. L. Crittenden,  H. Dachsel,  
 R. J. Doerksen,  A. D. Dutoi,  L. Fusti-Molnar,  W. A. Goddard III,  
 A. Golubeva-Zadorozhnaya,  S. R. Gwaltney,  G. Hawkins,  A. Heyden,  
 S. Hirata,  G. Kedziora,  F. J. Keil,  C. Kelley,  Jihan Kim,  R. A. King,  
 R. Z. Khaliullin,  P. P. Korambath,  W. Kurlancheek,  A. M. Lee,  M. S. Lee,  
 S. V. Levchenko,  Ching Yeh Lin,  D. Liotard,  R. C. Lochan,  I. Lotan,  
 P. E. Maslen,  N. Nair,  D. P. O'Neill,  D. Neuhauser,  E. Neuscamman,  
 C. M. Oana,  R. Olson,  B. Peters,  R. Peverati,  P. A. Pieniazek,  
 Y. M. Rhee,  J. Ritchie,  M. A. Rohrdanz,  E. Rosta,  N. J. Russ,  
 H. F. Schaefer III,  N. E. Schultz,  N. Shenvi,  A. C. Simmonett,  A. Sodt,  
 D. Stuck,  K. S. Thanthiriwatte,  V. Vanovschi,  Tao Wang,  A. Warshel,  
 C. F. Williams,  Q. Wu,  X. Xu,  W. Zhang

 Please cite Q-Chem as follows:
 Y. Shao et al., Mol. Phys. 113, 184-215 (2015)
 DOI: 10.1080/00268976.2014.952696

 Q-Chem 5.1.1 for Intel X86 EM64T Linux

 Parts of Q-Chem use Armadillo 8.300.2 (Tropical Shenanigans).
 http://arma.sourceforge.net/

 Q-Chem begins on Wed Jul 29 03:45:12 2020  

Host: n0088.mhg0
0

     Scratch files written to /local/scratch/users/yhljason/FCN_Slater_aug-pc-4.inp20200729032412//
Input Ideriv = 2
Curr. Ideriv = -1
Max.  Ideriv = 2

Checking the input file for inconsistencies... 	...done.

--------------------------------------------------------------
User input:
--------------------------------------------------------------
$molecule
0 1
C1      0.0000  0.0000  0.0000
F2      0.0000  0.0000  -1.2620
N3      0.0000  0.0000  1.1590
$end

$rem
jobtype sp
exchange slater
xc_grid 000099000590
basis aug-pc-4
max_scf_cycles 200
thresh 14
scf_convergence 8
scf_algorithm gdm
symmetry false
sym_ignore true
unrestricted true
gen_scfman true
internal_stability_iter 15
internal_stability_davidson_iter 200
mem_total 64000
mem_static 1500
n_frozen_core 0
$end


--------------------------------------------------------------
 ----------------------------------------------------------------
             Standard Nuclear Orientation (Angstroms)
    I     Atom           X                Y                Z
 ----------------------------------------------------------------
    1      C       0.0000000000     0.0000000000     0.0000000000
    2      F       0.0000000000     0.0000000000    -1.2620000000
    3      N       0.0000000000     0.0000000000     1.1590000000
 ----------------------------------------------------------------
 Nuclear Repulsion Energy =    55.5898885148 hartrees
 There are       11 alpha and       11 beta electrons
 Requested basis set is aug-pc-4
 There are 99 shells and 435 basis functions

 Total QAlloc Memory Limit  64000 MB
 Mega-Array Size      1467 MB
 MEM_STATIC part      1500 MB

                       Distance Matrix (Angstroms)
             C (  1)   F (  2)
   F (  2)  1.262000
   N (  3)  1.159000  2.421000
 
 A cutoff of  1.0D-14 yielded   4852 shell pairs
 There are     95036 function pairs (    185578 Cartesian)
 
 -------------------------------------------------------
 OpenMP Integral Computing Module                       
 Release: version 1.0, May 2013, Q-Chem Inc. Pittsburgh 
 -------------------------------------------------------
 Integral Job Info:
 Integral job number is                      11
 Integral operator is                         1
 short-range coefficients                     0
 long-range coefficients              100000000
 Omega coefficients                           0
 if combine SR and LR in K                    0
 Integral screening is                        0
 Integral computing path is                   2
 max size of driver memory is           6400000
 size of driver memory is               5498286
 size of scratch memory is             29792225
 max col of scratch BK array             194481
 max len of scratch array in speh3         5572
 max len of scratch index in speh4           72
 max int batch size is                      520
 min int batch size is                       52
 fixed nKL is                                25
 max L of basis functions is                  5
 order of int derivative is                   0
 number of shells is                         99
 number of basis is                         606
 number of cartesian basis is               606
 number of contracted shell pairs          4852
 number of primitive shell pairs          11728
 maxK2 (contraction) of shell pair          121
 max number of K2 of shell pair               1
 max number of CS2 of shell pair            440
 max number of PS2 of shell pair            682
 mem total for path MDJ                 1213232
 -------------------------------------------------------
 Smallest overlap matrix eigenvalue = 4.26E-07
 Linear dependence detected in AO basis
 Number of orthogonalized atomic orbitals = 433
 Maximum deviation from orthogonality = 1.403E-10

 Scale SEOQF with 1.000000e-01/1.000000e-01/1.000000e-01

 Standard Electronic Orientation quadrupole field applied
 Nucleus-field energy     =    -0.0000000025 hartrees
 Guess from superposition of atomic densities
 Warning:  Energy on first SCF cycle will be non-variational
 SAD guess density has 22.000000 electrons

 -----------------------------------------------------------------------
  General SCF calculation program by
  Eric Jon Sundstrom, Paul Horn, Yuezhi Mao, Dmitri Zuev, Alec White,
  David Stuck, Shaama M.S., Shane Yost, Joonho Lee, David Small,
  Daniel Levine, Susi Lehtola, Hugh Burton, Evgeny Epifanovsky
 -----------------------------------------------------------------------
 Exchange:  Slater     
 Using Euler-Maclaurin-Lebedev (99,590) quadrature formula
Running Object-Oriented UKS (UHF)
performing a single roothaan step with Fock from read density so that orbitals are available to all algorithms
energy of the guess density (C=0) -190.232608996808
We will preform up to 15 macro iterations over saddle points until a stable solution is found
Energy prior to optimization (guess energy) = -189.690958841585
Begin Timing: Total SCF Calculation
Begin Timing: SCF Single Stationary Point Calculation
begin iterations for algorithm: GDM          
the SCF tolerance is set to 1.00e-08
    1    -189.6909588416      4.04e-01     00000  Descent step
    2    -189.7004527392      3.59e-01     00000  Descent step
    3    -189.7365238996      3.06e-01     00000  Normal BFGS step
    4    -189.7795696973      1.08e-01     00000  Normal BFGS step
    5    -189.8038649529      2.01e-02     00000  Normal BFGS step
    6    -189.8040323969      1.93e-02     00000  Normal BFGS step
    7    -189.8049501217      2.71e-03     00000  Normal BFGS step
    8    -189.8049995938      1.37e-03     00000  Normal BFGS step
    9    -189.8050309731      7.15e-04     00000  Normal BFGS step
   10    -189.8050318431      1.42e-04     00000  Normal BFGS step
   11    -189.8050319343      1.44e-05     00000  Normal BFGS step
   12    -189.8050319360      6.58e-06     00000  Normal BFGS step
   13    -189.8050319362      2.86e-07     00000  Normal BFGS step
   14    -189.8050319362      1.54e-07     00000  Normal BFGS step
   15    -189.8050319362      1.30e-07     00000  Normal BFGS step
   16    -189.8050319362      9.29e-08     00000  Normal BFGS step
   17    -189.8050319362      5.21e-09     00000 Convergence criterion met
Timing for Single Stationary Point: 558.00s (wall), 4467.07s (cpu)
Begin Timing: Stability
===================================================
Beginning Test for Internal Stability
===================================================
generating davidson guess vectors based on koopmans excitations
    1      4.77e-01     00000 Davidson Iteration
    2      1.95e-01     00000 Davidson Iteration
    3      7.16e-02     00000 Davidson Iteration
    4      9.40e-03     00000 Davidson Iteration
    5      1.62e-03     00000 Davidson Iteration
    6      4.49e-04     00000 Davidson Iteration
    7      1.07e-03     00000 Davidson Iteration
    8      2.86e-04     00000 Davidson Iteration
    9      2.52e-04     00000 Davidson Iteration
   10      7.36e-05     00000 Davidson Iteration
   11      4.96e-04     00000 Davidson Iteration
   12      1.54e-04     00000 Davidson Iteration
   13      9.54e-05     00000 Davidson Iteration
   14      6.89e-05     00000 Davidson Converged
converged_eigenvalues
   0.4456
   0.5216
   0.3498
Threshold for negative eigenvalues: -1.0e-05
solution was a local minimum (stable)
===================================================
End Test for Internal Stability
===================================================
Our SCF solution is stable!
Timing for Total SCF: 11106.00s (wall), 88743.89s (cpu)
 Total energy in the final basis set =     -189.8050319362
<S^2> =          0.000000000
    ==================================================
              The end of Object-Oriented SCFman       
    ==================================================
 
 --------------------------------------------------------------
 
                    Orbital Energies (a.u.)
 --------------------------------------------------------------
 
 Alpha MOs
 -- Occupied --
-24.157 -13.826  -9.856  -1.199  -0.809  -0.590  -0.470  -0.470
 -0.303  -0.280  -0.280
 -- Virtual --
 -0.031   0.021   0.021   0.023   0.027   0.027   0.036   0.061
  0.061   0.061   0.075   0.075   0.080   0.094   0.094   0.104
  0.116   0.116   0.125   0.155   0.166   0.166   0.190   0.190
  0.200   0.200   0.207   0.207   0.210   0.224   0.224   0.238
  0.242   0.242   0.242   0.271   0.278   0.278   0.303   0.303
  0.328   0.353   0.353   0.359   0.359   0.360   0.360   0.372
  0.388   0.388   0.398   0.398   0.433   0.451   0.451   0.465
  0.465   0.472   0.472   0.491   0.491   0.493   0.500   0.513
  0.513   0.519   0.523   0.523   0.531   0.531   0.548   0.548
  0.560   0.568   0.568   0.569   0.569   0.589   0.589   0.650
  0.665   0.665   0.684   0.684   0.711   0.711   0.745   0.746
  0.747   0.747   0.761   0.761   0.797   0.797   0.802   0.802
  0.810   0.810   0.821   0.864   0.906   0.906   0.908   0.908
  0.912   0.912   0.944   0.944   0.956   0.956   0.969   0.969
  0.973   0.980   0.980   0.992   0.992   1.006   1.023   1.023
  1.051   1.105   1.105   1.118   1.118   1.119   1.120   1.120
  1.149   1.149   1.186   1.199   1.199   1.226   1.266   1.266
  1.297   1.297   1.298   1.298   1.324   1.324   1.382   1.383
  1.383   1.418   1.418   1.465   1.490   1.490   1.502   1.502
  1.566   1.566   1.610   1.625   1.625   1.690   1.704   1.704
  1.763   1.763   1.875   1.908   1.908   1.957   1.991   1.991
  2.001   2.001   2.160   2.160   2.173   2.173   2.175   2.315
  2.317   2.317   2.385   2.385   2.389   2.446   2.446   2.478
  2.478   2.565   2.567   2.567   2.607   2.607   2.809   2.896
  2.939   2.939   3.087   3.087   3.132   3.132   3.343   3.432
  3.432   3.468   3.504   3.504   3.591   3.767   3.767   4.032
  4.080   4.080   4.084   4.140   4.140   4.154   4.154   4.159
  4.159   4.246   4.246   4.583   4.670   4.670   4.711   4.711
  4.744   4.744   4.803   4.849   4.849   4.967   4.967   5.092
  5.092   5.270   5.270   5.439   5.439   5.516   5.576   5.587
  5.587   5.644   5.644   5.691   5.691   5.838   5.993   5.993
  6.121   6.121   6.272   6.406   6.406   6.414   6.645   6.754
  6.754   6.848   6.848   6.873   6.873   7.071   7.071   7.158
  7.158   7.168   7.294   7.294   7.336   7.336   7.749   7.925
  8.014   8.014   8.403   8.734   8.734   8.889   8.889   8.899
  9.258   9.258   9.838   9.838   9.870  10.231  10.231  10.277
 10.301  10.301  10.374  10.374  10.478  10.478  10.481  10.481
 10.737  10.737  11.090  11.142  11.142  11.217  11.217  11.263
 11.449  11.449  11.453  11.453  11.570  11.570  11.701  11.701
 11.826  11.826  11.875  11.875  11.879  11.879  12.051  12.051
 12.109  12.109  12.257  12.257  12.294  12.343  12.571  12.571
 12.628  12.628  12.684  12.684  12.722  12.722  13.043  13.043
 13.227  13.735  13.735  13.880  14.172  14.172  14.178  14.178
 14.323  14.323  14.497  14.596  14.596  14.670  14.670  14.968
 14.968  15.073  15.073  15.084  15.117  15.117  15.426  15.426
 15.670  16.037  16.037  16.095  16.457  16.624  16.624  16.711
 16.711  16.766  16.963  16.963  17.747  17.747  18.417  18.417
 18.433  18.543  20.068  20.068  20.229  20.229  20.233  20.233
 20.624  21.090  21.090  22.388  22.388  22.688  24.166  24.488
 26.461  26.461  28.402  30.277  30.277  31.082  31.082  31.972
 31.972  31.994  33.198  33.198  35.759  41.880  41.880  42.235
 44.902  47.769  47.769  48.197  48.197  49.098  77.083  91.259
 91.259  91.787  91.787  92.646 105.699 203.360
 
 Beta MOs
 -- Occupied --
-24.157 -13.826  -9.856  -1.199  -0.809  -0.590  -0.470  -0.470
 -0.303  -0.280  -0.280
 -- Virtual --
 -0.031   0.021   0.021   0.023   0.027   0.027   0.036   0.061
  0.061   0.061   0.075   0.075   0.080   0.094   0.094   0.104
  0.116   0.116   0.125   0.155   0.166   0.166   0.190   0.190
  0.200   0.200   0.207   0.207   0.210   0.224   0.224   0.238
  0.242   0.242   0.242   0.271   0.278   0.278   0.303   0.303
  0.328   0.353   0.353   0.359   0.359   0.360   0.360   0.372
  0.388   0.388   0.398   0.398   0.433   0.451   0.451   0.465
  0.465   0.472   0.472   0.491   0.491   0.493   0.500   0.513
  0.513   0.519   0.523   0.523   0.531   0.531   0.548   0.548
  0.560   0.568   0.568   0.569   0.569   0.589   0.589   0.650
  0.665   0.665   0.684   0.684   0.711   0.711   0.745   0.746
  0.747   0.747   0.761   0.761   0.797   0.797   0.802   0.802
  0.810   0.810   0.821   0.864   0.906   0.906   0.908   0.908
  0.912   0.912   0.944   0.944   0.956   0.956   0.969   0.969
  0.973   0.980   0.980   0.992   0.992   1.006   1.023   1.023
  1.051   1.105   1.105   1.118   1.118   1.119   1.120   1.120
  1.149   1.149   1.186   1.199   1.199   1.226   1.266   1.266
  1.297   1.297   1.298   1.298   1.324   1.324   1.382   1.383
  1.383   1.418   1.418   1.465   1.490   1.490   1.502   1.502
  1.566   1.566   1.610   1.625   1.625   1.690   1.704   1.704
  1.763   1.763   1.875   1.908   1.908   1.957   1.991   1.991
  2.001   2.001   2.160   2.160   2.173   2.173   2.175   2.315
  2.317   2.317   2.385   2.385   2.389   2.446   2.446   2.478
  2.478   2.565   2.567   2.567   2.607   2.607   2.809   2.896
  2.939   2.939   3.087   3.087   3.132   3.132   3.343   3.432
  3.432   3.468   3.504   3.504   3.591   3.767   3.767   4.032
  4.080   4.080   4.084   4.140   4.140   4.154   4.154   4.159
  4.159   4.246   4.246   4.583   4.670   4.670   4.711   4.711
  4.744   4.744   4.803   4.849   4.849   4.967   4.967   5.092
  5.092   5.270   5.270   5.439   5.439   5.516   5.576   5.587
  5.587   5.644   5.644   5.691   5.691   5.838   5.993   5.993
  6.121   6.121   6.272   6.406   6.406   6.414   6.645   6.754
  6.754   6.848   6.848   6.873   6.873   7.071   7.071   7.158
  7.158   7.168   7.294   7.294   7.336   7.336   7.749   7.925
  8.014   8.014   8.403   8.734   8.734   8.889   8.889   8.899
  9.258   9.258   9.838   9.838   9.870  10.231  10.231  10.277
 10.301  10.301  10.374  10.374  10.478  10.478  10.481  10.481
 10.737  10.737  11.090  11.142  11.142  11.217  11.217  11.263
 11.449  11.449  11.453  11.453  11.570  11.570  11.701  11.701
 11.826  11.826  11.875  11.875  11.879  11.879  12.051  12.051
 12.109  12.109  12.257  12.257  12.294  12.343  12.571  12.571
 12.628  12.628  12.684  12.684  12.722  12.722  13.043  13.043
 13.227  13.735  13.735  13.880  14.172  14.172  14.178  14.178
 14.323  14.323  14.497  14.596  14.596  14.670  14.670  14.968
 14.968  15.073  15.073  15.084  15.117  15.117  15.426  15.426
 15.670  16.037  16.037  16.095  16.457  16.624  16.624  16.711
 16.711  16.766  16.963  16.963  17.747  17.747  18.417  18.417
 18.433  18.543  20.068  20.068  20.229  20.229  20.233  20.233
 20.624  21.090  21.090  22.388  22.388  22.688  24.166  24.488
 26.461  26.461  28.402  30.277  30.277  31.082  31.082  31.972
 31.972  31.994  33.198  33.198  35.759  41.880  41.880  42.235
 44.902  47.769  47.769  48.197  48.197  49.098  77.083  91.259
 91.259  91.787  91.787  92.646 105.699 203.360
 --------------------------------------------------------------
 
          Ground-State Mulliken Net Atomic Charges

     Atom                 Charge (a.u.)    Spin (a.u.)
  --------------------------------------------------------
      1 C                     0.382284       0.000000
      2 F                    -0.236278      -0.000000
      3 N                    -0.146006      -0.000000
  --------------------------------------------------------
  Sum of atomic charges =     0.000000
  Sum of spin   charges =    -0.000000

 -----------------------------------------------------------------
                    Cartesian Multipole Moments
 -----------------------------------------------------------------
    Charge (ESU x 10^10)
                 0.0000
    Dipole Moment (Debye)
         X      -0.0000      Y       0.0000      Z      -2.4055
       Tot       2.4055
    Quadrupole Moments (Debye-Ang)
        XX     -15.6844     XY       0.0000     YY     -15.6844
        XZ      -0.0000     YZ       0.0000     ZZ     -18.7711
    Octopole Moments (Debye-Ang^2)
       XXX      -0.0000    XXY      -0.0000    XYY      -0.0000
       YYY      -0.0000    XXZ      -1.5917    XYZ       0.0000
       YYZ      -1.5917    XZZ      -0.0000    YZZ      -0.0000
       ZZZ      -8.1497
    Hexadecapole Moments (Debye-Ang^3)
      XXXX     -14.6505   XXXY       0.0000   XXYY      -4.8835
      XYYY       0.0000   YYYY     -14.6505   XXXZ      -0.0000
      XXYZ      -0.0000   XYYZ      -0.0000   YYYZ      -0.0000
      XXZZ     -21.0271   XYZZ       0.0000   YYZZ     -21.0271
      XZZZ       0.0000   YZZZ       0.0000   ZZZZ    -115.6217
 -----------------------------------------------------------------
Archival summary:
1\1\n0088.mhg0\SP\ProcedureUnspecified\BasisUnspecified\111\yhljason\WedJul2906:51:122020WedJul2906:51:122020\0\\#,ProcedureUnspecified,BasisUnspecified,\\0,1\C\N,1,1.159\F,1,1.262,2,180\\\@

 Total job time:  11160.51s(wall), 89091.64s(cpu) 
 Wed Jul 29 06:51:12 2020

        *************************************************************
        *                                                           *
        *  Thank you very much for using Q-Chem.  Have a nice day.  *
        *                                                           *
        *************************************************************


