Q-Chem Developer Version!
                  Welcome to Q-Chem
     A Quantum Leap Into The Future Of Chemistry


 Q-Chem 5.1, Q-Chem, Inc., Pleasanton, CA (2018)

 Yihan Shao,  Zhengting Gan,  E. Epifanovsky,  A. T. B. Gilbert,  M. Wormit,  
 J. Kussmann,  A. W. Lange,  A. Behn,  Jia Deng,  Xintian Feng,  D. Ghosh,  
 M. Goldey,  P. R. Horn,  L. D. Jacobson,  I. Kaliman,  T. Kus,  A. Landau,  
 Jie Liu,  E. I. Proynov,  R. M. Richard,  R. P. Steele,  E. J. Sundstrom,  
 H. L. Woodcock III,  P. M. Zimmerman,  D. Zuev,  B. Albrecht,  E. Alguire,  
 S. A. Baeppler,  D. Barton,  Z. Benda,  Y. A. Bernard,  E. J. Berquist,  
 K. B. Bravaya,  H. Burton,  D. Casanova,  Chun-Min Chang,  Yunqing Chen,  
 A. Chien,  K. D. Closser,  M. P. Coons,  S. Coriani,  S. Dasgupta,  
 A. L. Dempwolff,  M. Diedenhofen,  Hainam Do,  R. G. Edgar,  Po-Tung Fang,  
 S. Faraji,  S. Fatehi,  Qingguo Feng,  K. D. Fenk,  J. Fosso-Tande,  
 Qinghui Ge,  A. Ghysels,  G. Gidofalvi,  J. Gomes,  J. Gonthier,  A. Gunina,  
 D. Hait,  M. W. D. Hanson-Heine,  P. H. P. Harbach,  A. W. Hauser,  
 J. E. Herr,  E. G. Hohenstein,  Z. C. Holden,  Kerwin Hui,  B. C. Huynh,  
 T.-C. Jagau,  Hyunjun Ji,  B. Kaduk,  K. Khistyaev,  Jaehoon Kim,  
 P. Klunzinger,  K. Koh,  D. Kosenkov,  L. Koulias,  T. Kowalczyk,  
 C. M. Krauter,  A. Kunitsa,  Ka Un Lao,  A. Laurent,  K. V. Lawler,  
 Joonho Lee,  D. Lefrancois,  S. Lehtola,  D. S. Levine,  Yi-Pei Li,  
 You-Sheng Lin,  Fenglai Liu,  E. Livshits,  A. Luenser,  P. Manohar,  
 E. Mansoor,  S. F. Manzer,  Shan-Ping Mao,  Yuezhi Mao,  N. Mardirossian,  
 A. V. Marenich,  T. Markovich,  L. A. Martinez-Martinez,  S. A. Maurer,  
 N. J. Mayhall,  S. C. McKenzie,  J.-M. Mewes,  A. F. Morrison,  
 J. W. Mullinax,  K. Nanda,  T. S. Nguyen-Beck,  R. Olivares-Amaya,  
 J. A. Parkhill,  T. M. Perrine,  F. Plasser,  P. Pokhilko,  S. Prager,  
 A. Prociuk,  E. Ramos,  D. R. Rehn,  F. Rob,  M. Schneider,  N. Sergueev,  
 S. M. Sharada,  S. Sharma,  D. W. Small,  T. Stauch,  T. Stein,  
 Yu-Chuan Su,  A. J. W. Thom,  A. Tkatchenko,  T. Tsuchimochi,  N. M. Tubman,  
 L. Vogt,  M. L. Vidal,  O. Vydrov,  M. A. Watson,  J. Wenzel,  
 M. de Wergifosse,  T. A. Wesolowski,  A. White,  J. Witte,  A. Yamada,  
 Jun Yang,  K. Yao,  S. Yeganeh,  S. R. Yost,  Zhi-Qiang You,  A. Zech,  
 Igor Ying Zhang,  Xing Zhang,  Yan Zhao,  Ying Zhu,  B. R. Brooks,  
 G. K. L. Chan,  C. J. Cramer,  M. S. Gordon,  W. J. Hehre,  A. Klamt,  
 M. W. Schmidt,  C. D. Sherrill,  D. G. Truhlar,  A. Aspuru-Guzik,  R. Baer,  
 A. T. Bell,  N. A. Besley,  Jeng-Da Chai,  A. E. DePrince, III,  
 R. A. DiStasio Jr.,  A. Dreuw,  B. D. Dunietz,  T. R. Furlani,  
 Chao-Ping Hsu,  Yousung Jung,  Jing Kong,  D. S. Lambrecht,  WanZhen Liang,  
 C. Ochsenfeld,  V. A. Rassolov,  L. V. Slipchenko,  J. E. Subotnik,  
 T. Van Voorhis,  J. M. Herbert,  A. I. Krylov,  P. M. W. Gill,  M. Head-Gordon

 Contributors to earlier versions of Q-Chem not listed above: 
 R. D. Adamson,  B. Austin,  J. Baker,  G. J. O. Beran,  K. Brandhorst,  
 S. T. Brown,  E. F. C. Byrd,  A. K. Chakraborty,  C.-L. Cheng,  
 Siu Hung Chien,  D. M. Chipman,  D. L. Crittenden,  H. Dachsel,  
 R. J. Doerksen,  A. D. Dutoi,  L. Fusti-Molnar,  W. A. Goddard III,  
 A. Golubeva-Zadorozhnaya,  S. R. Gwaltney,  G. Hawkins,  A. Heyden,  
 S. Hirata,  G. Kedziora,  F. J. Keil,  C. Kelley,  Jihan Kim,  R. A. King,  
 R. Z. Khaliullin,  P. P. Korambath,  W. Kurlancheek,  A. M. Lee,  M. S. Lee,  
 S. V. Levchenko,  Ching Yeh Lin,  D. Liotard,  R. C. Lochan,  I. Lotan,  
 P. E. Maslen,  N. Nair,  D. P. O'Neill,  D. Neuhauser,  E. Neuscamman,  
 C. M. Oana,  R. Olson,  B. Peters,  R. Peverati,  P. A. Pieniazek,  
 Y. M. Rhee,  J. Ritchie,  M. A. Rohrdanz,  E. Rosta,  N. J. Russ,  
 H. F. Schaefer III,  N. E. Schultz,  N. Shenvi,  A. C. Simmonett,  A. Sodt,  
 D. Stuck,  K. S. Thanthiriwatte,  V. Vanovschi,  Tao Wang,  A. Warshel,  
 C. F. Williams,  Q. Wu,  X. Xu,  W. Zhang

 Please cite Q-Chem as follows:
 Y. Shao et al., Mol. Phys. 113, 184-215 (2015)
 DOI: 10.1080/00268976.2014.952696

 Q-Chem 5.1.1 for Intel X86 EM64T Linux

 Parts of Q-Chem use Armadillo 8.300.2 (Tropical Shenanigans).
 http://arma.sourceforge.net/

 Q-Chem begins on Wed Jul 29 03:45:12 2020  

Host: n0069.mhg0
0

     Scratch files written to /local/scratch/users/yhljason/FCN_MGGA_MS2_aug-pc-4.inp20200729032411//
Input Ideriv = 2
Curr. Ideriv = -1
Max.  Ideriv = 2
Input Ideriv = 1
Curr. Ideriv = 2
Max.  Ideriv = 1

Checking the input file for inconsistencies... 	...done.

--------------------------------------------------------------
User input:
--------------------------------------------------------------
$molecule
0 1
C1      0.0000  0.0000  0.0000
F2      0.0000  0.0000  -1.2620
N3      0.0000  0.0000  1.1590
$end

$rem
jobtype sp
method MGGA_MS2
xc_grid 000099000590
basis aug-pc-4
max_scf_cycles 200
thresh 14
scf_convergence 8
scf_algorithm gdm
symmetry false
sym_ignore true
unrestricted true
gen_scfman true
internal_stability_iter 15
internal_stability_davidson_iter 200
mem_total 64000
mem_static 1500
n_frozen_core 0
$end


--------------------------------------------------------------
 ----------------------------------------------------------------
             Standard Nuclear Orientation (Angstroms)
    I     Atom           X                Y                Z
 ----------------------------------------------------------------
    1      C       0.0000000000     0.0000000000     0.0000000000
    2      F       0.0000000000     0.0000000000    -1.2620000000
    3      N       0.0000000000     0.0000000000     1.1590000000
 ----------------------------------------------------------------
 Nuclear Repulsion Energy =    55.5898885148 hartrees
 There are       11 alpha and       11 beta electrons
 Requested basis set is aug-pc-4
 There are 99 shells and 435 basis functions

 Total QAlloc Memory Limit  64000 MB
 Mega-Array Size      1467 MB
 MEM_STATIC part      1500 MB

                       Distance Matrix (Angstroms)
             C (  1)   F (  2)
   F (  2)  1.262000
   N (  3)  1.159000  2.421000
 
 A cutoff of  1.0D-14 yielded   4852 shell pairs
 There are     95036 function pairs (    185578 Cartesian)
 
 -------------------------------------------------------
 OpenMP Integral Computing Module                       
 Release: version 1.0, May 2013, Q-Chem Inc. Pittsburgh 
 -------------------------------------------------------
 Integral Job Info:
 Integral job number is                      11
 Integral operator is                         1
 short-range coefficients                     0
 long-range coefficients              100000000
 Omega coefficients                           0
 if combine SR and LR in K                    0
 Integral screening is                        0
 Integral computing path is                   2
 max size of driver memory is           6400000
 size of driver memory is               5498286
 size of scratch memory is             29792225
 max col of scratch BK array             194481
 max len of scratch array in speh3         5572
 max len of scratch index in speh4           72
 max int batch size is                      520
 min int batch size is                       52
 fixed nKL is                                25
 max L of basis functions is                  5
 order of int derivative is                   0
 number of shells is                         99
 number of basis is                         606
 number of cartesian basis is               606
 number of contracted shell pairs          4852
 number of primitive shell pairs          11728
 maxK2 (contraction) of shell pair          121
 max number of K2 of shell pair               1
 max number of CS2 of shell pair            440
 max number of PS2 of shell pair            682
 mem total for path MDJ                 1213232
 -------------------------------------------------------
 Smallest overlap matrix eigenvalue = 4.26E-07
 Linear dependence detected in AO basis
 Number of orthogonalized atomic orbitals = 433
 Maximum deviation from orthogonality = 1.403E-10

 Scale SEOQF with 1.000000e-01/1.000000e-01/1.000000e-01

 Standard Electronic Orientation quadrupole field applied
 Nucleus-field energy     =    -0.0000000025 hartrees
 Guess from superposition of atomic densities
 Warning:  Energy on first SCF cycle will be non-variational
 SAD guess density has 22.000000 electrons

 -----------------------------------------------------------------------
  General SCF calculation program by
  Eric Jon Sundstrom, Paul Horn, Yuezhi Mao, Dmitri Zuev, Alec White,
  David Stuck, Shaama M.S., Shane Yost, Joonho Lee, David Small,
  Daniel Levine, Susi Lehtola, Hugh Burton, Evgeny Epifanovsky
 -----------------------------------------------------------------------
 Exchange:  MGGA_MS2      Correlation:  regTPSS
 Using Euler-Maclaurin-Lebedev (99,590) quadrature formula
Running Object-Oriented UKS (UHF)
performing a single roothaan step with Fock from read density so that orbitals are available to all algorithms
energy of the guess density (C=0) -193.188340039228
We will preform up to 15 macro iterations over saddle points until a stable solution is found
Energy prior to optimization (guess energy) = -192.655631699789
Begin Timing: Total SCF Calculation
Begin Timing: SCF Single Stationary Point Calculation
begin iterations for algorithm: GDM          
the SCF tolerance is set to 1.00e-08
    1    -192.6556316998      3.58e-01     00000  Descent step
    2    -192.6911110170      2.95e-01     00000  Normal BFGS step
    3    -192.7548371765      3.06e-02     00000  Normal BFGS step
    4    -192.7588719274      1.01e-02     00000  Normal BFGS step
    5    -192.7600704767      2.04e-03     00000  Normal BFGS step
    6    -192.7600775742      1.21e-03     00000  Normal BFGS step
    7    -192.7600801673      5.76e-04     00000  Normal BFGS step
    8    -192.7600817903      1.30e-04     00000  Normal BFGS step
    9    -192.7600818981      2.05e-05     00000  Normal BFGS step
   10    -192.7600819023      4.43e-06     00000  Normal BFGS step
   11    -192.7600819024      5.35e-07     00000  Normal BFGS step
   12    -192.7600819024      2.52e-07     00000  Normal BFGS step
   13    -192.7600819024      5.30e-07     00000  Normal BFGS step
   14    -192.7600819024      8.31e-09     00000 Convergence criterion met
Timing for Single Stationary Point: 715.00s (wall), 5667.13s (cpu)
Begin Timing: Stability
===================================================
Beginning Test for Internal Stability
===================================================
generating davidson guess vectors based on koopmans excitations
    1      5.22e-01     00000 Davidson Iteration
    2      2.67e-01     00000 Davidson Iteration
    3      1.21e-01     00000 Davidson Iteration
    4      1.64e-01     00000 Davidson Iteration
    5      2.07e-02     00000 Davidson Iteration
    6      1.48e-02     00000 Davidson Iteration
    7      3.88e-03     00000 Davidson Iteration
    8      8.60e-03     00000 Davidson Iteration
    9      5.76e-03     00000 Davidson Iteration
   10      2.03e-03     00000 Davidson Iteration
   11      7.41e-04     00000 Davidson Iteration
   12      7.15e-04     00000 Davidson Iteration
   13      6.95e-04     00000 Davidson Iteration
   14      7.41e-04     00000 Davidson Iteration
   15      4.80e-04     00000 Davidson Iteration
   16      6.85e-04     00000 Davidson Iteration
   17      6.88e-04     00000 Davidson Iteration
   18      2.70e-04     00000 Davidson Iteration
   19      9.37e-05     00000 Davidson Iteration
   20      3.64e-04     00000 Davidson Iteration
   21      9.94e-05     00000 Davidson Converged
converged_eigenvalues
   0.3150
   0.3327
Threshold for negative eigenvalues: -1.0e-05
solution was a local minimum (stable)
===================================================
End Test for Internal Stability
===================================================
Our SCF solution is stable!
Timing for Total SCF: 19152.00s (wall), 152423.52s (cpu)
 Total energy in the final basis set =     -192.7600819024
<S^2> =         -0.000000000
    ==================================================
              The end of Object-Oriented SCFman       
    ==================================================
 
 --------------------------------------------------------------
 
                    Orbital Energies (a.u.)
 --------------------------------------------------------------
 
 Alpha MOs
 -- Occupied --
-24.551 -14.146 -10.138  -1.314  -0.906  -0.647  -0.520  -0.520
 -0.372  -0.325  -0.325
 -- Virtual --
 -0.040   0.009   0.009   0.020   0.020   0.021   0.033   0.058
  0.059   0.059   0.071   0.071   0.076   0.090   0.090   0.101
  0.113   0.113   0.121   0.149   0.161   0.161   0.185   0.185
  0.195   0.195   0.203   0.203   0.206   0.219   0.219   0.234
  0.238   0.239   0.239   0.268   0.272   0.272   0.297   0.297
  0.324   0.347   0.347   0.352   0.352   0.356   0.356   0.368
  0.383   0.383   0.393   0.393   0.431   0.448   0.448   0.457
  0.457   0.473   0.473   0.488   0.488   0.489   0.499   0.507
  0.507   0.518   0.520   0.520   0.524   0.524   0.540   0.540
  0.560   0.560   0.560   0.562   0.562   0.585   0.585   0.648
  0.663   0.663   0.679   0.679   0.704   0.704   0.741   0.744
  0.744   0.753   0.753   0.756   0.800   0.800   0.803   0.803
  0.807   0.807   0.818   0.875   0.900   0.900   0.903   0.903
  0.918   0.918   0.935   0.935   0.954   0.954   0.961   0.961
  0.970   0.974   0.974   1.000   1.000   1.013   1.026   1.026
  1.067   1.096   1.096   1.112   1.112   1.121   1.121   1.125
  1.148   1.148   1.199   1.199   1.202   1.224   1.268   1.268
  1.286   1.286   1.296   1.296   1.315   1.315   1.389   1.389
  1.393   1.412   1.412   1.465   1.503   1.503   1.516   1.516
  1.569   1.569   1.623   1.625   1.625   1.707   1.757   1.757
  1.801   1.801   1.917   1.941   1.941   1.984   2.040   2.040
  2.040   2.040   2.191   2.191   2.209   2.213   2.213   2.361
  2.361   2.368   2.440   2.455   2.455   2.507   2.507   2.549
  2.549   2.602   2.623   2.623   2.660   2.660   2.896   2.961
  3.029   3.029   3.168   3.168   3.235   3.235   3.438   3.567
  3.567   3.593   3.616   3.616   3.690   3.830   3.830   4.148
  4.216   4.226   4.226   4.263   4.263   4.266   4.266   4.299
  4.299   4.398   4.398   4.741   4.886   4.886   4.901   4.901
  4.931   4.931   4.946   4.992   4.992   5.146   5.146   5.400
  5.400   5.449   5.449   5.627   5.627   5.703   5.810   5.888
  5.888   5.918   5.918   5.981   5.981   6.055   6.208   6.208
  6.374   6.374   6.514   6.607   6.694   6.694   6.878   6.984
  6.984   7.136   7.136   7.171   7.171   7.437   7.437   7.459
  7.459   7.465   7.665   7.665   7.702   7.702   8.064   8.220
  8.353   8.353   8.702   9.142   9.142   9.228   9.228   9.229
  9.569   9.569  10.190  10.190  10.236  10.507  10.507  10.553
 10.553  10.563  10.668  10.668  10.862  10.862  10.969  10.969
 11.074  11.074  11.490  11.490  11.504  11.598  11.598  11.777
 11.854  11.854  11.882  11.882  12.007  12.007  12.119  12.119
 12.143  12.143  12.290  12.290  12.434  12.434  12.492  12.492
 12.509  12.509  12.654  12.697  12.698  12.736  13.154  13.154
 13.243  13.243  13.320  13.320  13.348  13.348  13.447  13.447
 13.661  14.384  14.384  14.397  14.658  14.658  14.758  14.758
 14.858  14.858  14.934  15.133  15.133  15.196  15.196  15.488
 15.488  15.623  15.624  15.624  15.674  15.674  16.100  16.100
 16.143  16.652  16.652  16.668  17.014  17.159  17.159  17.243
 17.257  17.257  17.358  17.358  18.281  18.281  18.831  18.993
 18.993  19.005  20.596  20.596  20.877  20.877  21.011  21.011
 21.209  21.882  21.882  23.186  23.186  23.466  24.555  24.935
 26.587  26.587  28.608  30.831  30.831  31.589  31.589  32.191
 32.191  32.501  33.481  33.481  36.109  42.170  42.170  42.667
 45.288  48.096  48.096  48.565  48.565  49.475  76.883  91.833
 91.833  92.327  92.327  93.185 105.517 203.163
 
 Beta MOs
 -- Occupied --
-24.551 -14.146 -10.138  -1.314  -0.906  -0.647  -0.520  -0.520
 -0.372  -0.325  -0.325
 -- Virtual --
 -0.040   0.009   0.009   0.020   0.020   0.021   0.033   0.058
  0.059   0.059   0.071   0.071   0.076   0.090   0.090   0.101
  0.113   0.113   0.121   0.149   0.161   0.161   0.185   0.185
  0.195   0.195   0.203   0.203   0.206   0.219   0.219   0.234
  0.238   0.239   0.239   0.268   0.272   0.272   0.297   0.297
  0.324   0.347   0.347   0.352   0.352   0.356   0.356   0.368
  0.383   0.383   0.393   0.393   0.431   0.448   0.448   0.457
  0.457   0.473   0.473   0.488   0.488   0.489   0.499   0.507
  0.507   0.518   0.520   0.520   0.524   0.524   0.540   0.540
  0.560   0.560   0.560   0.562   0.562   0.585   0.585   0.648
  0.663   0.663   0.679   0.679   0.704   0.704   0.741   0.744
  0.744   0.753   0.753   0.756   0.800   0.800   0.803   0.803
  0.807   0.807   0.818   0.875   0.900   0.900   0.903   0.903
  0.918   0.918   0.935   0.935   0.954   0.954   0.961   0.961
  0.970   0.974   0.974   1.000   1.000   1.013   1.026   1.026
  1.067   1.096   1.096   1.112   1.112   1.121   1.121   1.125
  1.148   1.148   1.199   1.199   1.202   1.224   1.268   1.268
  1.286   1.286   1.296   1.296   1.315   1.315   1.389   1.389
  1.393   1.412   1.412   1.465   1.503   1.503   1.516   1.516
  1.569   1.569   1.623   1.625   1.625   1.707   1.757   1.757
  1.801   1.801   1.917   1.941   1.941   1.984   2.040   2.040
  2.040   2.040   2.191   2.191   2.209   2.213   2.213   2.361
  2.361   2.368   2.440   2.455   2.455   2.507   2.507   2.549
  2.549   2.602   2.623   2.623   2.660   2.660   2.896   2.961
  3.029   3.029   3.168   3.168   3.235   3.235   3.438   3.567
  3.567   3.593   3.616   3.616   3.690   3.830   3.830   4.148
  4.216   4.226   4.226   4.263   4.263   4.266   4.266   4.299
  4.299   4.398   4.398   4.741   4.886   4.886   4.901   4.901
  4.931   4.931   4.946   4.992   4.992   5.146   5.146   5.400
  5.400   5.449   5.449   5.627   5.627   5.703   5.810   5.888
  5.888   5.918   5.918   5.981   5.981   6.055   6.208   6.208
  6.374   6.374   6.514   6.607   6.694   6.694   6.878   6.984
  6.984   7.136   7.136   7.171   7.171   7.437   7.437   7.459
  7.459   7.465   7.665   7.665   7.702   7.702   8.064   8.220
  8.353   8.353   8.702   9.142   9.142   9.228   9.228   9.229
  9.569   9.569  10.190  10.190  10.236  10.507  10.507  10.553
 10.553  10.563  10.668  10.668  10.862  10.862  10.969  10.969
 11.074  11.074  11.490  11.490  11.504  11.598  11.598  11.777
 11.854  11.854  11.882  11.882  12.007  12.007  12.119  12.119
 12.143  12.143  12.290  12.290  12.434  12.434  12.492  12.492
 12.509  12.509  12.654  12.697  12.698  12.736  13.154  13.154
 13.243  13.243  13.320  13.320  13.348  13.348  13.447  13.447
 13.661  14.384  14.384  14.397  14.658  14.658  14.758  14.758
 14.858  14.858  14.934  15.133  15.133  15.196  15.196  15.488
 15.488  15.623  15.624  15.624  15.674  15.674  16.100  16.100
 16.143  16.652  16.652  16.668  17.014  17.159  17.159  17.243
 17.257  17.257  17.358  17.358  18.281  18.281  18.831  18.993
 18.993  19.005  20.596  20.596  20.877  20.877  21.011  21.011
 21.209  21.882  21.882  23.186  23.186  23.466  24.555  24.935
 26.587  26.587  28.608  30.831  30.831  31.589  31.589  32.191
 32.191  32.501  33.481  33.481  36.109  42.170  42.170  42.667
 45.288  48.096  48.096  48.565  48.565  49.475  76.883  91.833
 91.833  92.327  92.327  93.185 105.517 203.163
 --------------------------------------------------------------
 
          Ground-State Mulliken Net Atomic Charges

     Atom                 Charge (a.u.)    Spin (a.u.)
  --------------------------------------------------------
      1 C                     0.109730      -0.000000
      2 F                    -0.161322      -0.000000
      3 N                     0.051592       0.000000
  --------------------------------------------------------
  Sum of atomic charges =    -0.000000
  Sum of spin   charges =     0.000000

 -----------------------------------------------------------------
                    Cartesian Multipole Moments
 -----------------------------------------------------------------
    Charge (ESU x 10^10)
                -0.0000
    Dipole Moment (Debye)
         X      -0.0000      Y       0.0000      Z      -2.2944
       Tot       2.2944
    Quadrupole Moments (Debye-Ang)
        XX     -15.1480     XY       0.0000     YY     -15.1480
        XZ      -0.0000     YZ      -0.0000     ZZ     -18.1662
    Octopole Moments (Debye-Ang^2)
       XXX      -0.0000    XXY       0.0000    XYY      -0.0000
       YYY       0.0000    XXZ      -1.3840    XYZ       0.0000
       YYZ      -1.3840    XZZ       0.0000    YZZ      -0.0000
       ZZZ      -7.2731
    Hexadecapole Moments (Debye-Ang^3)
      XXXX     -13.1850   XXXY       0.0000   XXYY      -4.3950
      XYYY       0.0000   YYYY     -13.1850   XXXZ       0.0000
      XXYZ      -0.0000   XYYZ      -0.0000   YYYZ      -0.0000
      XXZZ     -19.8171   XYZZ       0.0000   YYZZ     -19.8171
      XZZZ       0.0000   YZZZ      -0.0000   ZZZZ    -109.4958
 -----------------------------------------------------------------
Archival summary:
1\1\n0069.mhg0\SP\ProcedureUnspecified\BasisUnspecified\111\yhljason\WedJul2909:05:552020WedJul2909:05:552020\0\\#,ProcedureUnspecified,BasisUnspecified,\\0,1\C\N,1,1.159\F,1,1.262,2,180\\\@

 Total job time:  19242.59s(wall), 153056.60s(cpu) 
 Wed Jul 29 09:05:55 2020

        *************************************************************
        *                                                           *
        *  Thank you very much for using Q-Chem.  Have a nice day.  *
        *                                                           *
        *************************************************************


