Q-Chem Developer Version!
                  Welcome to Q-Chem
     A Quantum Leap Into The Future Of Chemistry


 Q-Chem 5.1, Q-Chem, Inc., Pleasanton, CA (2018)

 Yihan Shao,  Zhengting Gan,  E. Epifanovsky,  A. T. B. Gilbert,  M. Wormit,  
 J. Kussmann,  A. W. Lange,  A. Behn,  Jia Deng,  Xintian Feng,  D. Ghosh,  
 M. Goldey,  P. R. Horn,  L. D. Jacobson,  I. Kaliman,  T. Kus,  A. Landau,  
 Jie Liu,  E. I. Proynov,  R. M. Richard,  R. P. Steele,  E. J. Sundstrom,  
 H. L. Woodcock III,  P. M. Zimmerman,  D. Zuev,  B. Albrecht,  E. Alguire,  
 S. A. Baeppler,  D. Barton,  Z. Benda,  Y. A. Bernard,  E. J. Berquist,  
 K. B. Bravaya,  H. Burton,  D. Casanova,  Chun-Min Chang,  Yunqing Chen,  
 A. Chien,  K. D. Closser,  M. P. Coons,  S. Coriani,  S. Dasgupta,  
 A. L. Dempwolff,  M. Diedenhofen,  Hainam Do,  R. G. Edgar,  Po-Tung Fang,  
 S. Faraji,  S. Fatehi,  Qingguo Feng,  K. D. Fenk,  J. Fosso-Tande,  
 Qinghui Ge,  A. Ghysels,  G. Gidofalvi,  J. Gomes,  J. Gonthier,  A. Gunina,  
 D. Hait,  M. W. D. Hanson-Heine,  P. H. P. Harbach,  A. W. Hauser,  
 J. E. Herr,  E. G. Hohenstein,  Z. C. Holden,  Kerwin Hui,  B. C. Huynh,  
 T.-C. Jagau,  Hyunjun Ji,  B. Kaduk,  K. Khistyaev,  Jaehoon Kim,  
 P. Klunzinger,  K. Koh,  D. Kosenkov,  L. Koulias,  T. Kowalczyk,  
 C. M. Krauter,  A. Kunitsa,  Ka Un Lao,  A. Laurent,  K. V. Lawler,  
 Joonho Lee,  D. Lefrancois,  S. Lehtola,  D. S. Levine,  Yi-Pei Li,  
 You-Sheng Lin,  Fenglai Liu,  E. Livshits,  A. Luenser,  P. Manohar,  
 E. Mansoor,  S. F. Manzer,  Shan-Ping Mao,  Yuezhi Mao,  N. Mardirossian,  
 A. V. Marenich,  T. Markovich,  L. A. Martinez-Martinez,  S. A. Maurer,  
 N. J. Mayhall,  S. C. McKenzie,  J.-M. Mewes,  A. F. Morrison,  
 J. W. Mullinax,  K. Nanda,  T. S. Nguyen-Beck,  R. Olivares-Amaya,  
 J. A. Parkhill,  T. M. Perrine,  F. Plasser,  P. Pokhilko,  S. Prager,  
 A. Prociuk,  E. Ramos,  D. R. Rehn,  F. Rob,  M. Schneider,  N. Sergueev,  
 S. M. Sharada,  S. Sharma,  D. W. Small,  T. Stauch,  T. Stein,  
 Yu-Chuan Su,  A. J. W. Thom,  A. Tkatchenko,  T. Tsuchimochi,  N. M. Tubman,  
 L. Vogt,  M. L. Vidal,  O. Vydrov,  M. A. Watson,  J. Wenzel,  
 M. de Wergifosse,  T. A. Wesolowski,  A. White,  J. Witte,  A. Yamada,  
 Jun Yang,  K. Yao,  S. Yeganeh,  S. R. Yost,  Zhi-Qiang You,  A. Zech,  
 Igor Ying Zhang,  Xing Zhang,  Yan Zhao,  Ying Zhu,  B. R. Brooks,  
 G. K. L. Chan,  C. J. Cramer,  M. S. Gordon,  W. J. Hehre,  A. Klamt,  
 M. W. Schmidt,  C. D. Sherrill,  D. G. Truhlar,  A. Aspuru-Guzik,  R. Baer,  
 A. T. Bell,  N. A. Besley,  Jeng-Da Chai,  A. E. DePrince, III,  
 R. A. DiStasio Jr.,  A. Dreuw,  B. D. Dunietz,  T. R. Furlani,  
 Chao-Ping Hsu,  Yousung Jung,  Jing Kong,  D. S. Lambrecht,  WanZhen Liang,  
 C. Ochsenfeld,  V. A. Rassolov,  L. V. Slipchenko,  J. E. Subotnik,  
 T. Van Voorhis,  J. M. Herbert,  A. I. Krylov,  P. M. W. Gill,  M. Head-Gordon

 Contributors to earlier versions of Q-Chem not listed above: 
 R. D. Adamson,  B. Austin,  J. Baker,  G. J. O. Beran,  K. Brandhorst,  
 S. T. Brown,  E. F. C. Byrd,  A. K. Chakraborty,  C.-L. Cheng,  
 Siu Hung Chien,  D. M. Chipman,  D. L. Crittenden,  H. Dachsel,  
 R. J. Doerksen,  A. D. Dutoi,  L. Fusti-Molnar,  W. A. Goddard III,  
 A. Golubeva-Zadorozhnaya,  S. R. Gwaltney,  G. Hawkins,  A. Heyden,  
 S. Hirata,  G. Kedziora,  F. J. Keil,  C. Kelley,  Jihan Kim,  R. A. King,  
 R. Z. Khaliullin,  P. P. Korambath,  W. Kurlancheek,  A. M. Lee,  M. S. Lee,  
 S. V. Levchenko,  Ching Yeh Lin,  D. Liotard,  R. C. Lochan,  I. Lotan,  
 P. E. Maslen,  N. Nair,  D. P. O'Neill,  D. Neuhauser,  E. Neuscamman,  
 C. M. Oana,  R. Olson,  B. Peters,  R. Peverati,  P. A. Pieniazek,  
 Y. M. Rhee,  J. Ritchie,  M. A. Rohrdanz,  E. Rosta,  N. J. Russ,  
 H. F. Schaefer III,  N. E. Schultz,  N. Shenvi,  A. C. Simmonett,  A. Sodt,  
 D. Stuck,  K. S. Thanthiriwatte,  V. Vanovschi,  Tao Wang,  A. Warshel,  
 C. F. Williams,  Q. Wu,  X. Xu,  W. Zhang

 Please cite Q-Chem as follows:
 Y. Shao et al., Mol. Phys. 113, 184-215 (2015)
 DOI: 10.1080/00268976.2014.952696

 Q-Chem 5.1.1 for Intel X86 EM64T Linux

 Parts of Q-Chem use Armadillo 8.300.2 (Tropical Shenanigans).
 http://arma.sourceforge.net/

 Q-Chem begins on Wed Jul 29 23:39:06 2020  

Host: n0035.mhg0
0

     Scratch files written to /local/scratch/users/yhljason/H2O_wB97X-V_aug-pc-4.inp20200729233904//
Input Ideriv = 2
Curr. Ideriv = -1
Max.  Ideriv = 2
Input Ideriv = 1
Curr. Ideriv = 2
Max.  Ideriv = 1

Checking the input file for inconsistencies... 	...done.

--------------------------------------------------------------
User input:
--------------------------------------------------------------
$molecule
0 1
O       0.0000  0.0000  0.1173
H       0.0000  0.7572  -0.4692
H       0.0000  -0.7572 -0.4692
$end

$rem
jobtype sp
method wB97X-V
xc_grid 000099000590
basis aug-pc-4
max_scf_cycles 200
thresh 14
scf_convergence 8
scf_algorithm gdm
symmetry false
sym_ignore true
unrestricted true
gen_scfman true
internal_stability_iter 15
internal_stability_davidson_iter 200
mem_total 64000
mem_static 1500
n_frozen_core 0
$end


--------------------------------------------------------------
 ----------------------------------------------------------------
             Standard Nuclear Orientation (Angstroms)
    I     Atom           X                Y                Z
 ----------------------------------------------------------------
    1      O       0.0000000000     0.0000000000     0.1173000000
    2      H       0.0000000000     0.7572000000    -0.4692000000
    3      H       0.0000000000    -0.7572000000    -0.4692000000
 ----------------------------------------------------------------
 Nuclear Repulsion Energy =     9.1895337609 hartrees
 There are        5 alpha and        5 beta electrons
 Requested basis set is aug-pc-4
 There are 81 shells and 321 basis functions

 Total QAlloc Memory Limit  64000 MB
 Mega-Array Size      1467 MB
 MEM_STATIC part      1500 MB

                       Distance Matrix (Angstroms)
             O (  1)   H (  2)
   H (  2)  0.957776
   H (  3)  0.957776  1.514400
 
 A cutoff of  1.0D-14 yielded   3313 shell pairs
 There are     52429 function pairs (     93662 Cartesian)
 
 -------------------------------------------------------
 OpenMP Integral Computing Module                       
 Release: version 1.0, May 2013, Q-Chem Inc. Pittsburgh 
 -------------------------------------------------------
 Integral Job Info:
 Integral job number is                      11
 Integral operator is                         1
 short-range coefficients              16700000
 long-range coefficients              100000000
 Omega coefficients                         300
 if combine SR and LR in K                    1
 Integral screening is                        0
 Integral computing path is                   2
 max size of driver memory is           6400000
 size of driver memory is               5498286
 size of scratch memory is             28955960
 max col of scratch BK array             194481
 max len of scratch array in speh3         5572
 max len of scratch index in speh4           72
 max int batch size is                      520
 min int batch size is                       52
 fixed nKL is                                24
 max L of basis functions is                  5
 order of int derivative is                   0
 number of shells is                         81
 number of basis is                         428
 number of cartesian basis is               428
 number of contracted shell pairs          3313
 number of primitive shell pairs           6043
 maxK2 (contraction) of shell pair          121
 max number of K2 of shell pair               1
 max number of CS2 of shell pair            445
 max number of PS2 of shell pair            445
 mem total for path MDJ                  900380
 -------------------------------------------------------
 Smallest overlap matrix eigenvalue = 1.45E-06

 Scale SEOQF with 1.000000e-01/1.000000e-01/1.000000e-01

 Standard Electronic Orientation quadrupole field applied
 Guess from superposition of atomic densities
 Warning:  Energy on first SCF cycle will be non-variational
 SAD guess density has 10.000000 electrons

 -----------------------------------------------------------------------
  General SCF calculation program by
  Eric Jon Sundstrom, Paul Horn, Yuezhi Mao, Dmitri Zuev, Alec White,
  David Stuck, Shaama M.S., Shane Yost, Joonho Lee, David Small,
  Daniel Levine, Susi Lehtola, Hugh Burton, Evgeny Epifanovsky
 -----------------------------------------------------------------------
 Exchange:     0.1670 Hartree-Fock + 1.0000 wB97X-V + LR-HF
 Correlation:  1.0000 wB97X-V
 Using Euler-Maclaurin-Lebedev (99,590) quadrature formula
 Nonlocal Correlation:  VV10 with C = 0.0100 and b = 6.00 and scale = 1.00000
 Grid used for NLC:  SG-1 standard quadrature
Running Object-Oriented UKS (UHF)
performing a single roothaan step with Fock from read density so that orbitals are available to all algorithms
 Nonlocal correlation = 0.042339552639
energy of the guess density (C=0) -76.334529707431
 Nonlocal correlation = 0.042770266549
We will preform up to 15 macro iterations over saddle points until a stable solution is found
Energy prior to optimization (guess energy) = -76.387546254082
Begin Timing: Total SCF Calculation
Begin Timing: SCF Single Stationary Point Calculation
begin iterations for algorithm: GDM          
the SCF tolerance is set to 1.00e-08
 Nonlocal correlation = 4.243942774670e-02
    1     -76.3875462541      7.20e-02     00000  Descent step
 Nonlocal correlation = 4.258540365831e-02
    2     -76.4278011565      4.17e-02     00000  Normal BFGS step
 Nonlocal correlation = 4.257837885711e-02
    3     -76.4413012761      2.97e-03     00000  Normal BFGS step
 Nonlocal correlation = 4.257744217646e-02
    4     -76.4414656618      7.99e-04     00000  Normal BFGS step
 Nonlocal correlation = 4.257760037473e-02
    5     -76.4414751851      1.81e-04     00000  Normal BFGS step
 Nonlocal correlation = 4.257760928737e-02
    6     -76.4414754412      3.06e-05     00000  Normal BFGS step
 Nonlocal correlation = 4.257760136283e-02
    7     -76.4414754549      4.22e-06     00000  Normal BFGS step
 Nonlocal correlation = 4.257759941507e-02
    8     -76.4414754552      9.30e-07     00000  Normal BFGS step
 Nonlocal correlation = 4.257759935625e-02
    9     -76.4414754552      2.26e-07     00000  Normal BFGS step
 Nonlocal correlation = 4.257759932863e-02
   10     -76.4414754552      4.36e-08     00000  Normal BFGS step
 Nonlocal correlation = 4.257759938022e-02
   11     -76.4414754552      9.75e-09     00000 Convergence criterion met
Timing for Single Stationary Point: 976.00s (wall), 7749.00s (cpu)
Begin Timing: Stability
===================================================
Beginning Test for Internal Stability
===================================================
generating davidson guess vectors based on koopmans excitations
computing hessian-vector products by finite difference
 Nonlocal correlation = 0.042577599399
 Nonlocal correlation = 0.042577599333
 Nonlocal correlation = 0.042577599356
 Nonlocal correlation = 0.042577599375
 Nonlocal correlation = 0.042577599380
    1      4.89e-01     00000 Davidson Iteration
computing hessian-vector products by finite difference
 Nonlocal correlation = 4.257759976202e-02
 Nonlocal correlation = 4.257759896547e-02
 Nonlocal correlation = 4.257759914593e-02
 Nonlocal correlation = 4.257759957907e-02
 Nonlocal correlation = 4.257759938022e-02
    2      6.45e-01     00000 Davidson Iteration
computing hessian-vector products by finite difference
 Nonlocal correlation = 4.257760655954e-02
 Nonlocal correlation = 4.257759218293e-02
 Nonlocal correlation = 4.257759551433e-02
 Nonlocal correlation = 4.257760322803e-02
 Nonlocal correlation = 4.257759938022e-02
    3      1.14e-01     00000 Davidson Iteration
computing hessian-vector products by finite difference
 Nonlocal correlation = 4.257770140019e-02
 Nonlocal correlation = 4.257749735246e-02
 Nonlocal correlation = 4.257756944692e-02
 Nonlocal correlation = 4.257762930950e-02
 Nonlocal correlation = 4.257759938022e-02
    4      3.52e-02     00000 Davidson Iteration
computing hessian-vector products by finite difference
 Nonlocal correlation = 4.257747526422e-02
 Nonlocal correlation = 4.257772348814e-02
 Nonlocal correlation = 4.257759135035e-02
 Nonlocal correlation = 4.257760740253e-02
 Nonlocal correlation = 4.257759938022e-02
    5      7.62e-03     00000 Davidson Iteration
computing hessian-vector products by finite difference
 Nonlocal correlation = 4.257757562344e-02
 Nonlocal correlation = 4.257762313062e-02
 Nonlocal correlation = 4.257759817457e-02
 Nonlocal correlation = 4.257760058000e-02
 Nonlocal correlation = 4.257759938022e-02
    6      2.74e-03     00000 Davidson Iteration
computing hessian-vector products by finite difference
 Nonlocal correlation = 4.257760032903e-02
 Nonlocal correlation = 4.257759842596e-02
 Nonlocal correlation = 4.257759653541e-02
 Nonlocal correlation = 4.257760221416e-02
 Nonlocal correlation = 4.257759938022e-02
    7      1.04e-03     00000 Davidson Iteration
computing hessian-vector products by finite difference
 Nonlocal correlation = 4.257760014134e-02
 Nonlocal correlation = 4.257759861144e-02
 Nonlocal correlation = 4.257759699459e-02
 Nonlocal correlation = 4.257760175481e-02
 Nonlocal correlation = 4.257759938022e-02
    8      5.43e-04     00000 Davidson Converged
converged_eigenvalues
   0.4924
   0.5484
Threshold for negative eigenvalues: -1.0e-05
solution was a local minimum (stable)
===================================================
End Test for Internal Stability
===================================================
Our SCF solution is stable!
Timing for Total SCF: 4528.00s (wall), 35966.34s (cpu)
 Total energy in the final basis set =      -76.4414754552
<S^2> =          0.000000000
    ==================================================
              The end of Object-Oriented SCFman       
    ==================================================
 
 --------------------------------------------------------------
 
                    Orbital Energies (a.u.)
 --------------------------------------------------------------
 
 Alpha MOs
 -- Occupied --
-19.218  -1.146  -0.648  -0.507  -0.431
 -- Virtual --
  0.016   0.028   0.053   0.056   0.074   0.075   0.100   0.111
  0.121   0.125   0.125   0.148   0.168   0.181   0.202   0.205
  0.206   0.208   0.229   0.229   0.233   0.245   0.254   0.256
  0.276   0.282   0.301   0.303   0.317   0.320   0.330   0.357
  0.359   0.360   0.363   0.365   0.372   0.427   0.430   0.442
  0.455   0.457   0.457   0.465   0.473   0.486   0.492   0.504
  0.540   0.549   0.551   0.558   0.572   0.577   0.580   0.595
  0.599   0.600   0.606   0.611   0.620   0.630   0.643   0.644
  0.656   0.672   0.689   0.698   0.698   0.724   0.731   0.736
  0.745   0.755   0.777   0.784   0.804   0.820   0.825   0.850
  0.863   0.877   0.883   0.901   0.922   0.929   0.933   0.967
  0.972   0.985   0.995   1.031   1.038   1.056   1.066   1.089
  1.095   1.097   1.111   1.113   1.153   1.154   1.183   1.184
  1.185   1.204   1.213   1.245   1.251   1.311   1.345   1.367
  1.448   1.484   1.544   1.599   1.626   1.700   1.732   1.770
  1.771   1.783   1.832   1.839   1.879   1.960   1.990   2.020
  2.046   2.141   2.324   2.325   2.339   2.444   2.482   2.567
  2.656   2.676   2.779   2.825   2.871   3.031   3.094   3.170
  3.257   3.268   3.451   3.468   3.530   3.562   3.589   3.626
  3.678   3.730   3.734   3.809   3.812   3.826   3.969   4.010
  4.016   4.094   4.203   4.293   4.363   4.481   4.508   4.538
  4.590   4.614   4.729   4.804   4.874   4.880   5.084   5.238
  5.354   5.555   5.583   5.637   5.755   5.799   5.861   6.130
  6.215   6.242   6.438   6.505   6.518   6.933   7.031   7.121
  7.277   7.387   7.541   7.581   7.615   7.616   7.699   7.823
  8.004   8.562   8.630   8.738   8.945   9.000   9.238   9.246
  9.363   9.493   9.580   9.590   9.925   9.962  10.379  10.454
 10.631  10.840  10.876  10.934  11.397  11.640  11.648  11.722
 11.926  11.987  12.091  12.165  12.215  12.286  12.307  12.453
 12.553  12.570  12.809  12.836  12.847  12.914  12.958  13.013
 13.155  13.197  13.699  13.866  14.003  14.112  14.162  14.376
 14.443  14.459  14.929  14.993  15.679  15.943  16.663  16.839
 16.947  16.982  17.002  17.037  17.127  17.311  17.489  17.608
 17.632  17.676  17.794  17.827  17.876  18.000  18.117  18.133
 18.192  18.615  18.703  19.192  19.513  19.712  19.868  20.568
 20.750  20.872  21.049  21.140  21.418  21.764  22.296  23.781
 23.830  24.015  24.130  24.250  24.270  24.468  26.464  27.363
 27.413  28.427  31.553  32.569  34.404  35.002  41.515  41.649
 67.282  67.449  67.527  68.515  69.804  91.227  91.272  91.445
 91.463  93.857  93.955 144.798
 
 Beta MOs
 -- Occupied --
-19.218  -1.146  -0.648  -0.507  -0.431
 -- Virtual --
  0.016   0.028   0.053   0.056   0.074   0.075   0.100   0.111
  0.121   0.125   0.125   0.148   0.168   0.181   0.202   0.205
  0.206   0.208   0.229   0.229   0.233   0.245   0.254   0.256
  0.276   0.282   0.301   0.303   0.317   0.320   0.330   0.357
  0.359   0.360   0.363   0.365   0.372   0.427   0.430   0.442
  0.455   0.457   0.457   0.465   0.473   0.486   0.492   0.504
  0.540   0.549   0.551   0.558   0.572   0.577   0.580   0.595
  0.599   0.600   0.606   0.611   0.620   0.630   0.643   0.644
  0.656   0.672   0.689   0.698   0.698   0.724   0.731   0.736
  0.745   0.755   0.777   0.784   0.804   0.820   0.825   0.850
  0.863   0.877   0.883   0.901   0.922   0.929   0.933   0.967
  0.972   0.985   0.995   1.031   1.038   1.056   1.066   1.089
  1.095   1.097   1.111   1.113   1.153   1.154   1.183   1.184
  1.185   1.204   1.213   1.245   1.251   1.311   1.345   1.367
  1.448   1.484   1.544   1.599   1.626   1.700   1.732   1.770
  1.771   1.783   1.832   1.839   1.879   1.960   1.990   2.020
  2.046   2.141   2.324   2.325   2.339   2.444   2.482   2.567
  2.656   2.676   2.779   2.825   2.871   3.031   3.094   3.170
  3.257   3.268   3.451   3.468   3.530   3.562   3.589   3.626
  3.678   3.730   3.734   3.809   3.812   3.826   3.969   4.010
  4.016   4.094   4.203   4.293   4.363   4.481   4.508   4.538
  4.590   4.614   4.729   4.804   4.874   4.880   5.084   5.238
  5.354   5.555   5.583   5.637   5.755   5.799   5.861   6.130
  6.215   6.242   6.438   6.505   6.518   6.933   7.031   7.121
  7.277   7.387   7.541   7.581   7.615   7.616   7.699   7.823
  8.004   8.562   8.630   8.738   8.945   9.000   9.238   9.246
  9.363   9.493   9.580   9.590   9.925   9.962  10.379  10.454
 10.631  10.840  10.876  10.934  11.397  11.640  11.648  11.722
 11.926  11.987  12.091  12.165  12.215  12.286  12.307  12.453
 12.553  12.570  12.809  12.836  12.847  12.914  12.958  13.013
 13.155  13.197  13.699  13.866  14.003  14.112  14.162  14.376
 14.443  14.459  14.929  14.993  15.679  15.943  16.663  16.839
 16.947  16.982  17.002  17.037  17.127  17.311  17.489  17.608
 17.632  17.676  17.794  17.827  17.876  18.000  18.117  18.133
 18.192  18.615  18.703  19.192  19.513  19.712  19.868  20.568
 20.750  20.872  21.049  21.140  21.418  21.764  22.296  23.781
 23.830  24.015  24.130  24.250  24.270  24.468  26.464  27.363
 27.413  28.427  31.553  32.569  34.404  35.002  41.515  41.649
 67.282  67.449  67.527  68.515  69.804  91.227  91.272  91.445
 91.463  93.857  93.955 144.798
 --------------------------------------------------------------
 
          Ground-State Mulliken Net Atomic Charges

     Atom                 Charge (a.u.)    Spin (a.u.)
  --------------------------------------------------------
      1 O                    -0.336581      -0.000000
      2 H                     0.168291       0.000000
      3 H                     0.168291      -0.000000
  --------------------------------------------------------
  Sum of atomic charges =     0.000000
  Sum of spin   charges =    -0.000000

 -----------------------------------------------------------------
                    Cartesian Multipole Moments
 -----------------------------------------------------------------
    Charge (ESU x 10^10)
                 0.0000
    Dipole Moment (Debye)
         X      -0.0000      Y       0.0000      Z      -1.8747
       Tot       1.8747
    Quadrupole Moments (Debye-Ang)
        XX      -7.7632     XY      -0.0000     YY      -4.4487
        XZ       0.0000     YZ      -0.0000     ZZ      -6.4389
    Octopole Moments (Debye-Ang^2)
       XXX       0.0000    XXY       0.0000    XYY      -0.0000
       YYY      -0.0000    XXZ      -0.2216    XYZ       0.0000
       YYZ      -1.3184    XZZ      -0.0000    YZZ       0.0000
       ZZZ      -1.0270
    Hexadecapole Moments (Debye-Ang^3)
      XXXX      -7.6107   XXXY      -0.0000   XXYY      -2.6820
      XYYY      -0.0000   YYYY      -6.5317   XXXZ      -0.0000
      XXYZ       0.0000   XYYZ       0.0000   YYYZ       0.0000
      XXZZ      -2.6400   XYZZ      -0.0000   YYZZ      -2.0865
      XZZZ       0.0000   YZZZ      -0.0000   ZZZZ      -7.9219
 -----------------------------------------------------------------
Archival summary:
1\1\n0035.mhg0\SP\ProcedureUnspecified\BasisUnspecified\12\yhljason\ThuJul3000:56:162020ThuJul3000:56:162020\0\\#,ProcedureUnspecified,BasisUnspecified,\\0,1\O\H,1,0.957776\H,1,0.957776,2,104.48\\\@

 Total job time:  4629.93s(wall), 36733.90s(cpu) 
 Thu Jul 30 00:56:16 2020

        *************************************************************
        *                                                           *
        *  Thank you very much for using Q-Chem.  Have a nice day.  *
        *                                                           *
        *************************************************************


