Q-Chem Developer Version!
                  Welcome to Q-Chem
     A Quantum Leap Into The Future Of Chemistry


 Q-Chem 5.1, Q-Chem, Inc., Pleasanton, CA (2018)

 Yihan Shao,  Zhengting Gan,  E. Epifanovsky,  A. T. B. Gilbert,  M. Wormit,  
 J. Kussmann,  A. W. Lange,  A. Behn,  Jia Deng,  Xintian Feng,  D. Ghosh,  
 M. Goldey,  P. R. Horn,  L. D. Jacobson,  I. Kaliman,  T. Kus,  A. Landau,  
 Jie Liu,  E. I. Proynov,  R. M. Richard,  R. P. Steele,  E. J. Sundstrom,  
 H. L. Woodcock III,  P. M. Zimmerman,  D. Zuev,  B. Albrecht,  E. Alguire,  
 S. A. Baeppler,  D. Barton,  Z. Benda,  Y. A. Bernard,  E. J. Berquist,  
 K. B. Bravaya,  H. Burton,  D. Casanova,  Chun-Min Chang,  Yunqing Chen,  
 A. Chien,  K. D. Closser,  M. P. Coons,  S. Coriani,  S. Dasgupta,  
 A. L. Dempwolff,  M. Diedenhofen,  Hainam Do,  R. G. Edgar,  Po-Tung Fang,  
 S. Faraji,  S. Fatehi,  Qingguo Feng,  K. D. Fenk,  J. Fosso-Tande,  
 Qinghui Ge,  A. Ghysels,  G. Gidofalvi,  J. Gomes,  J. Gonthier,  A. Gunina,  
 D. Hait,  M. W. D. Hanson-Heine,  P. H. P. Harbach,  A. W. Hauser,  
 J. E. Herr,  E. G. Hohenstein,  Z. C. Holden,  Kerwin Hui,  B. C. Huynh,  
 T.-C. Jagau,  Hyunjun Ji,  B. Kaduk,  K. Khistyaev,  Jaehoon Kim,  
 P. Klunzinger,  K. Koh,  D. Kosenkov,  L. Koulias,  T. Kowalczyk,  
 C. M. Krauter,  A. Kunitsa,  Ka Un Lao,  A. Laurent,  K. V. Lawler,  
 Joonho Lee,  D. Lefrancois,  S. Lehtola,  D. S. Levine,  Yi-Pei Li,  
 You-Sheng Lin,  Fenglai Liu,  E. Livshits,  A. Luenser,  P. Manohar,  
 E. Mansoor,  S. F. Manzer,  Shan-Ping Mao,  Yuezhi Mao,  N. Mardirossian,  
 A. V. Marenich,  T. Markovich,  L. A. Martinez-Martinez,  S. A. Maurer,  
 N. J. Mayhall,  S. C. McKenzie,  J.-M. Mewes,  A. F. Morrison,  
 J. W. Mullinax,  K. Nanda,  T. S. Nguyen-Beck,  R. Olivares-Amaya,  
 J. A. Parkhill,  T. M. Perrine,  F. Plasser,  P. Pokhilko,  S. Prager,  
 A. Prociuk,  E. Ramos,  D. R. Rehn,  F. Rob,  M. Schneider,  N. Sergueev,  
 S. M. Sharada,  S. Sharma,  D. W. Small,  T. Stauch,  T. Stein,  
 Yu-Chuan Su,  A. J. W. Thom,  A. Tkatchenko,  T. Tsuchimochi,  N. M. Tubman,  
 L. Vogt,  M. L. Vidal,  O. Vydrov,  M. A. Watson,  J. Wenzel,  
 M. de Wergifosse,  T. A. Wesolowski,  A. White,  J. Witte,  A. Yamada,  
 Jun Yang,  K. Yao,  S. Yeganeh,  S. R. Yost,  Zhi-Qiang You,  A. Zech,  
 Igor Ying Zhang,  Xing Zhang,  Yan Zhao,  Ying Zhu,  B. R. Brooks,  
 G. K. L. Chan,  C. J. Cramer,  M. S. Gordon,  W. J. Hehre,  A. Klamt,  
 M. W. Schmidt,  C. D. Sherrill,  D. G. Truhlar,  A. Aspuru-Guzik,  R. Baer,  
 A. T. Bell,  N. A. Besley,  Jeng-Da Chai,  A. E. DePrince, III,  
 R. A. DiStasio Jr.,  A. Dreuw,  B. D. Dunietz,  T. R. Furlani,  
 Chao-Ping Hsu,  Yousung Jung,  Jing Kong,  D. S. Lambrecht,  WanZhen Liang,  
 C. Ochsenfeld,  V. A. Rassolov,  L. V. Slipchenko,  J. E. Subotnik,  
 T. Van Voorhis,  J. M. Herbert,  A. I. Krylov,  P. M. W. Gill,  M. Head-Gordon

 Contributors to earlier versions of Q-Chem not listed above: 
 R. D. Adamson,  B. Austin,  J. Baker,  G. J. O. Beran,  K. Brandhorst,  
 S. T. Brown,  E. F. C. Byrd,  A. K. Chakraborty,  C.-L. Cheng,  
 Siu Hung Chien,  D. M. Chipman,  D. L. Crittenden,  H. Dachsel,  
 R. J. Doerksen,  A. D. Dutoi,  L. Fusti-Molnar,  W. A. Goddard III,  
 A. Golubeva-Zadorozhnaya,  S. R. Gwaltney,  G. Hawkins,  A. Heyden,  
 S. Hirata,  G. Kedziora,  F. J. Keil,  C. Kelley,  Jihan Kim,  R. A. King,  
 R. Z. Khaliullin,  P. P. Korambath,  W. Kurlancheek,  A. M. Lee,  M. S. Lee,  
 S. V. Levchenko,  Ching Yeh Lin,  D. Liotard,  R. C. Lochan,  I. Lotan,  
 P. E. Maslen,  N. Nair,  D. P. O'Neill,  D. Neuhauser,  E. Neuscamman,  
 C. M. Oana,  R. Olson,  B. Peters,  R. Peverati,  P. A. Pieniazek,  
 Y. M. Rhee,  J. Ritchie,  M. A. Rohrdanz,  E. Rosta,  N. J. Russ,  
 H. F. Schaefer III,  N. E. Schultz,  N. Shenvi,  A. C. Simmonett,  A. Sodt,  
 D. Stuck,  K. S. Thanthiriwatte,  V. Vanovschi,  Tao Wang,  A. Warshel,  
 C. F. Williams,  Q. Wu,  X. Xu,  W. Zhang

 Please cite Q-Chem as follows:
 Y. Shao et al., Mol. Phys. 113, 184-215 (2015)
 DOI: 10.1080/00268976.2014.952696

 Q-Chem 5.1.1 for Intel X86 EM64T Linux

 Parts of Q-Chem use Armadillo 8.300.2 (Tropical Shenanigans).
 http://arma.sourceforge.net/

 Q-Chem begins on Wed Jul 29 19:20:30 2020  

Host: n0031.mhg0
0

     Scratch files written to /local/scratch/users/yhljason/H2O_B3LYP5_aug-pc-4.inp20200729191934//
Input Ideriv = 2
Curr. Ideriv = -1
Max.  Ideriv = 2

Checking the input file for inconsistencies... 	...done.

--------------------------------------------------------------
User input:
--------------------------------------------------------------
$molecule
0 1
O       0.0000  0.0000  0.1173
H       0.0000  0.7572  -0.4692
H       0.0000  -0.7572 -0.4692
$end

$rem
jobtype sp
method B3LYP5
xc_grid 000099000590
basis aug-pc-4
max_scf_cycles 200
thresh 14
scf_convergence 8
scf_algorithm gdm
symmetry false
sym_ignore true
unrestricted true
gen_scfman true
internal_stability_iter 15
internal_stability_davidson_iter 200
mem_total 64000
mem_static 1500
n_frozen_core 0
$end


--------------------------------------------------------------
 ----------------------------------------------------------------
             Standard Nuclear Orientation (Angstroms)
    I     Atom           X                Y                Z
 ----------------------------------------------------------------
    1      O       0.0000000000     0.0000000000     0.1173000000
    2      H       0.0000000000     0.7572000000    -0.4692000000
    3      H       0.0000000000    -0.7572000000    -0.4692000000
 ----------------------------------------------------------------
 Nuclear Repulsion Energy =     9.1895337609 hartrees
 There are        5 alpha and        5 beta electrons
 Requested basis set is aug-pc-4
 There are 81 shells and 321 basis functions

 Total QAlloc Memory Limit  64000 MB
 Mega-Array Size      1467 MB
 MEM_STATIC part      1500 MB

                       Distance Matrix (Angstroms)
             O (  1)   H (  2)
   H (  2)  0.957776
   H (  3)  0.957776  1.514400
 
 A cutoff of  1.0D-14 yielded   3313 shell pairs
 There are     52429 function pairs (     93662 Cartesian)
 
 -------------------------------------------------------
 OpenMP Integral Computing Module                       
 Release: version 1.0, May 2013, Q-Chem Inc. Pittsburgh 
 -------------------------------------------------------
 Integral Job Info:
 Integral job number is                      11
 Integral operator is                         1
 short-range coefficients                     0
 long-range coefficients              100000000
 Omega coefficients                           0
 if combine SR and LR in K                    0
 Integral screening is                        0
 Integral computing path is                   2
 max size of driver memory is           6400000
 size of driver memory is               5498286
 size of scratch memory is             29792225
 max col of scratch BK array             194481
 max len of scratch array in speh3         5572
 max len of scratch index in speh4           72
 max int batch size is                      520
 min int batch size is                       52
 fixed nKL is                                25
 max L of basis functions is                  5
 order of int derivative is                   0
 number of shells is                         81
 number of basis is                         428
 number of cartesian basis is               428
 number of contracted shell pairs          3313
 number of primitive shell pairs           6043
 maxK2 (contraction) of shell pair          121
 max number of K2 of shell pair               1
 max number of CS2 of shell pair            445
 max number of PS2 of shell pair            445
 mem total for path MDJ                  900380
 -------------------------------------------------------
 Smallest overlap matrix eigenvalue = 1.45E-06

 Scale SEOQF with 1.000000e-01/1.000000e-01/1.000000e-01

 Standard Electronic Orientation quadrupole field applied
 Guess from superposition of atomic densities
 Warning:  Energy on first SCF cycle will be non-variational
 SAD guess density has 10.000000 electrons

 -----------------------------------------------------------------------
  General SCF calculation program by
  Eric Jon Sundstrom, Paul Horn, Yuezhi Mao, Dmitri Zuev, Alec White,
  David Stuck, Shaama M.S., Shane Yost, Joonho Lee, David Small,
  Daniel Levine, Susi Lehtola, Hugh Burton, Evgeny Epifanovsky
 -----------------------------------------------------------------------
 Exchange:     0.2000 Hartree-Fock + 0.0800 Slater + 0.7200 B88
 Correlation:  0.1900 VWN5 + 0.8100 LYP
 Using Euler-Maclaurin-Lebedev (99,590) quadrature formula
Running Object-Oriented UKS (UHF)
performing a single roothaan step with Fock from read density so that orbitals are available to all algorithms
 LTot/LBra/LKet=          18           9           9
 LTot/LBra/LKet=          18           9           9

 Q-Chem warning:

 in GenH1, ket side, handled with new code


 Q-Chem warning:

 in GenH1, ket side, handled with new code

 LTot/LBra/LBra=          18           9           9

 Q-Chem warning:

 in GenH1, bra side, handled with new code

energy of the guess density (C=0) -76.391566578113
We will preform up to 15 macro iterations over saddle points until a stable solution is found
Energy prior to optimization (guess energy) = -76.364669796667
Begin Timing: Total SCF Calculation
Begin Timing: SCF Single Stationary Point Calculation
begin iterations for algorithm: GDM          
the SCF tolerance is set to 1.00e-08
    1     -76.3646697967      1.12e-01     00000  Descent step
    2     -76.4173134874      6.25e-02     00000  Normal BFGS step
    3     -76.4369574783      6.11e-03     00000  Normal BFGS step
    4     -76.4372053239      7.55e-04     00000  Normal BFGS step
    5     -76.4372097185      1.93e-04     00000  Normal BFGS step
    6     -76.4372102175      9.43e-06     00000  Normal BFGS step
    7     -76.4372102190      1.58e-06     00000  Normal BFGS step
    8     -76.4372102191      7.48e-08     00000  Normal BFGS step
    9     -76.4372102191      1.15e-08     00000  Normal BFGS step
   10     -76.4372102191      5.56e-09     00000 Convergence criterion met
Timing for Single Stationary Point: 779.00s (wall), 6189.08s (cpu)
Begin Timing: Stability
===================================================
Beginning Test for Internal Stability
===================================================
generating davidson guess vectors based on koopmans excitations
    1      4.93e-01     00000 Davidson Iteration
    2      3.95e-02     00000 Davidson Iteration
    3      1.55e-02     00000 Davidson Iteration
    4      2.59e-03     00000 Davidson Iteration
    5      7.67e-04     00000 Davidson Iteration
    6      2.91e-04     00000 Davidson Iteration
    7      5.02e-05     00000 Davidson Converged
converged_eigenvalues
   0.4622
   0.5159
Threshold for negative eigenvalues: -1.0e-05
solution was a local minimum (stable)
===================================================
End Test for Internal Stability
===================================================
Our SCF solution is stable!
Timing for Total SCF: 1635.00s (wall), 12993.87s (cpu)
 Total energy in the final basis set =      -76.4372102191
<S^2> =          0.000000000
    ==================================================
              The end of Object-Oriented SCFman       
    ==================================================
 
 --------------------------------------------------------------
 
                    Orbital Energies (a.u.)
 --------------------------------------------------------------
 
 Alpha MOs
 -- Occupied --
-19.132  -1.019  -0.538  -0.397  -0.321
 -- Virtual --
 -0.024   0.013   0.031   0.032   0.040   0.056   0.066   0.084
  0.092   0.093   0.096   0.129   0.130   0.149   0.166   0.166
  0.177   0.179   0.181   0.187   0.197   0.212   0.215   0.219
  0.242   0.250   0.256   0.258   0.275   0.277   0.293   0.310
  0.317   0.327   0.331   0.332   0.336   0.382   0.387   0.401
  0.417   0.419   0.421   0.427   0.429   0.430   0.455   0.461
  0.483   0.493   0.497   0.511   0.518   0.524   0.534   0.540
  0.552   0.554   0.555   0.561   0.568   0.572   0.584   0.585
  0.599   0.615   0.638   0.650   0.651   0.683   0.692   0.698
  0.704   0.715   0.730   0.734   0.752   0.767   0.768   0.781
  0.795   0.817   0.818   0.835   0.855   0.860   0.872   0.896
  0.909   0.918   0.921   0.960   0.963   0.989   1.000   1.020
  1.023   1.032   1.032   1.036   1.088   1.091   1.104   1.114
  1.114   1.133   1.145   1.168   1.176   1.227   1.254   1.274
  1.356   1.398   1.459   1.508   1.533   1.606   1.642   1.679
  1.685   1.696   1.742   1.746   1.787   1.865   1.898   1.917
  1.946   2.044   2.219   2.222   2.235   2.338   2.379   2.459
  2.552   2.571   2.674   2.717   2.763   2.924   2.988   3.064
  3.147   3.158   3.343   3.360   3.421   3.453   3.482   3.518
  3.566   3.621   3.624   3.701   3.702   3.713   3.860   3.900
  3.906   3.980   4.092   4.179   4.251   4.367   4.398   4.426
  4.477   4.500   4.615   4.689   4.759   4.762   4.973   5.126
  5.241   5.442   5.471   5.522   5.643   5.685   5.750   6.017
  6.100   6.129   6.324   6.392   6.405   6.820   6.917   7.007
  7.164   7.275   7.427   7.468   7.503   7.503   7.587   7.711
  7.892   8.449   8.518   8.626   8.832   8.888   9.125   9.135
  9.250   9.377   9.464   9.475   9.807   9.843  10.260  10.333
 10.512  10.720  10.763  10.819  11.277  11.517  11.517  11.603
 11.814  11.877  11.980  12.055  12.103  12.171  12.184  12.334
 12.441  12.456  12.697  12.724  12.732  12.801  12.845  12.900
 13.043  13.086  13.585  13.751  13.890  13.999  14.049  14.264
 14.329  14.346  14.816  14.881  15.561  15.828  16.551  16.725
 16.835  16.869  16.890  16.925  17.014  17.200  17.377  17.496
 17.520  17.566  17.686  17.717  17.766  17.891  18.005  18.024
 18.084  18.503  18.590  19.078  19.396  19.601  19.753  20.457
 20.627  20.757  20.929  21.024  21.302  21.643  22.183  23.658
 23.688  23.885  23.993  24.120  24.131  24.332  26.320  27.233
 27.281  28.289  31.418  32.476  34.308  34.904  41.345  41.479
 67.160  67.327  67.405  68.395  69.686  91.074  91.119  91.293
 91.310  93.679  93.777 144.747
 
 Beta MOs
 -- Occupied --
-19.132  -1.019  -0.538  -0.397  -0.321
 -- Virtual --
 -0.024   0.013   0.031   0.032   0.040   0.056   0.066   0.084
  0.092   0.093   0.096   0.129   0.130   0.149   0.166   0.166
  0.177   0.179   0.181   0.187   0.197   0.212   0.215   0.219
  0.242   0.250   0.256   0.258   0.275   0.277   0.293   0.310
  0.317   0.327   0.331   0.332   0.336   0.382   0.387   0.401
  0.417   0.419   0.421   0.427   0.429   0.430   0.455   0.461
  0.483   0.493   0.497   0.511   0.518   0.524   0.534   0.540
  0.552   0.554   0.555   0.561   0.568   0.572   0.584   0.585
  0.599   0.615   0.638   0.650   0.651   0.683   0.692   0.698
  0.704   0.715   0.730   0.734   0.752   0.767   0.768   0.781
  0.795   0.817   0.818   0.835   0.855   0.860   0.872   0.896
  0.909   0.918   0.921   0.960   0.963   0.989   1.000   1.020
  1.023   1.032   1.032   1.036   1.088   1.091   1.104   1.114
  1.114   1.133   1.145   1.168   1.176   1.227   1.254   1.274
  1.356   1.398   1.459   1.508   1.533   1.606   1.642   1.679
  1.685   1.696   1.742   1.746   1.787   1.865   1.898   1.917
  1.946   2.044   2.219   2.222   2.235   2.338   2.379   2.459
  2.552   2.571   2.674   2.717   2.763   2.924   2.988   3.064
  3.147   3.158   3.343   3.360   3.421   3.453   3.482   3.518
  3.566   3.621   3.624   3.701   3.702   3.713   3.860   3.900
  3.906   3.980   4.092   4.179   4.251   4.367   4.398   4.426
  4.477   4.500   4.615   4.689   4.759   4.762   4.973   5.126
  5.241   5.442   5.471   5.522   5.643   5.685   5.750   6.017
  6.100   6.129   6.324   6.392   6.405   6.820   6.917   7.007
  7.164   7.275   7.427   7.468   7.503   7.503   7.587   7.711
  7.892   8.449   8.518   8.626   8.832   8.888   9.125   9.135
  9.250   9.377   9.464   9.475   9.807   9.843  10.260  10.333
 10.512  10.720  10.763  10.819  11.277  11.517  11.517  11.603
 11.814  11.877  11.980  12.055  12.103  12.171  12.184  12.334
 12.441  12.456  12.697  12.724  12.732  12.801  12.845  12.900
 13.043  13.086  13.585  13.751  13.890  13.999  14.049  14.264
 14.329  14.346  14.816  14.881  15.561  15.828  16.551  16.725
 16.835  16.869  16.890  16.925  17.014  17.200  17.377  17.496
 17.520  17.566  17.686  17.717  17.766  17.891  18.005  18.024
 18.084  18.503  18.590  19.078  19.396  19.601  19.753  20.457
 20.627  20.757  20.929  21.024  21.302  21.643  22.183  23.658
 23.688  23.885  23.993  24.120  24.131  24.332  26.320  27.233
 27.281  28.289  31.418  32.476  34.308  34.904  41.345  41.479
 67.160  67.327  67.405  68.395  69.686  91.074  91.119  91.293
 91.310  93.679  93.777 144.747
 --------------------------------------------------------------
 
          Ground-State Mulliken Net Atomic Charges

     Atom                 Charge (a.u.)    Spin (a.u.)
  --------------------------------------------------------
      1 O                    -0.482559       0.000000
      2 H                     0.241279      -0.000000
      3 H                     0.241279       0.000000
  --------------------------------------------------------
  Sum of atomic charges =     0.000000
  Sum of spin   charges =    -0.000000

 -----------------------------------------------------------------
                    Cartesian Multipole Moments
 -----------------------------------------------------------------
    Charge (ESU x 10^10)
                 0.0000
    Dipole Moment (Debye)
         X      -0.0000      Y      -0.0000      Z      -1.8543
       Tot       1.8543
    Quadrupole Moments (Debye-Ang)
        XX      -7.7916     XY      -0.0000     YY      -4.4932
        XZ       0.0000     YZ      -0.0000     ZZ      -6.4810
    Octopole Moments (Debye-Ang^2)
       XXX      -0.0000    XXY      -0.0000    XYY       0.0000
       YYY      -0.0000    XXZ      -0.2029    XYZ       0.0000
       YYZ      -1.2766    XZZ      -0.0000    YZZ      -0.0000
       ZZZ      -0.9612
    Hexadecapole Moments (Debye-Ang^3)
      XXXX      -7.7770   XXXY       0.0000   XXYY      -2.7351
      XYYY      -0.0000   YYYY      -6.7064   XXXZ       0.0000
      XXYZ      -0.0000   XYYZ       0.0000   YYYZ      -0.0000
      XXZZ      -2.6959   XYZZ      -0.0000   YYZZ      -2.1601
      XZZZ       0.0000   YZZZ      -0.0000   ZZZZ      -8.0996
 -----------------------------------------------------------------
Archival summary:
1\1\n0031.mhg0\SP\ProcedureUnspecified\BasisUnspecified\12\yhljason\WedJul2919:49:172020WedJul2919:49:172020\0\\#,ProcedureUnspecified,BasisUnspecified,\\0,1\O\H,1,0.957776\H,1,0.957776,2,104.48\\\@

 Total job time:  1727.23s(wall), 13707.43s(cpu) 
 Wed Jul 29 19:49:17 2020

        *************************************************************
        *                                                           *
        *  Thank you very much for using Q-Chem.  Have a nice day.  *
        *                                                           *
        *************************************************************


