Q-Chem Developer Version!
                  Welcome to Q-Chem
     A Quantum Leap Into The Future Of Chemistry


 Q-Chem 5.1, Q-Chem, Inc., Pleasanton, CA (2018)

 Yihan Shao,  Zhengting Gan,  E. Epifanovsky,  A. T. B. Gilbert,  M. Wormit,  
 J. Kussmann,  A. W. Lange,  A. Behn,  Jia Deng,  Xintian Feng,  D. Ghosh,  
 M. Goldey,  P. R. Horn,  L. D. Jacobson,  I. Kaliman,  T. Kus,  A. Landau,  
 Jie Liu,  E. I. Proynov,  R. M. Richard,  R. P. Steele,  E. J. Sundstrom,  
 H. L. Woodcock III,  P. M. Zimmerman,  D. Zuev,  B. Albrecht,  E. Alguire,  
 S. A. Baeppler,  D. Barton,  Z. Benda,  Y. A. Bernard,  E. J. Berquist,  
 K. B. Bravaya,  H. Burton,  D. Casanova,  Chun-Min Chang,  Yunqing Chen,  
 A. Chien,  K. D. Closser,  M. P. Coons,  S. Coriani,  S. Dasgupta,  
 A. L. Dempwolff,  M. Diedenhofen,  Hainam Do,  R. G. Edgar,  Po-Tung Fang,  
 S. Faraji,  S. Fatehi,  Qingguo Feng,  K. D. Fenk,  J. Fosso-Tande,  
 Qinghui Ge,  A. Ghysels,  G. Gidofalvi,  J. Gomes,  J. Gonthier,  A. Gunina,  
 D. Hait,  M. W. D. Hanson-Heine,  P. H. P. Harbach,  A. W. Hauser,  
 J. E. Herr,  E. G. Hohenstein,  Z. C. Holden,  Kerwin Hui,  B. C. Huynh,  
 T.-C. Jagau,  Hyunjun Ji,  B. Kaduk,  K. Khistyaev,  Jaehoon Kim,  
 P. Klunzinger,  K. Koh,  D. Kosenkov,  L. Koulias,  T. Kowalczyk,  
 C. M. Krauter,  A. Kunitsa,  Ka Un Lao,  A. Laurent,  K. V. Lawler,  
 Joonho Lee,  D. Lefrancois,  S. Lehtola,  D. S. Levine,  Yi-Pei Li,  
 You-Sheng Lin,  Fenglai Liu,  E. Livshits,  A. Luenser,  P. Manohar,  
 E. Mansoor,  S. F. Manzer,  Shan-Ping Mao,  Yuezhi Mao,  N. Mardirossian,  
 A. V. Marenich,  T. Markovich,  L. A. Martinez-Martinez,  S. A. Maurer,  
 N. J. Mayhall,  S. C. McKenzie,  J.-M. Mewes,  A. F. Morrison,  
 J. W. Mullinax,  K. Nanda,  T. S. Nguyen-Beck,  R. Olivares-Amaya,  
 J. A. Parkhill,  T. M. Perrine,  F. Plasser,  P. Pokhilko,  S. Prager,  
 A. Prociuk,  E. Ramos,  D. R. Rehn,  F. Rob,  M. Schneider,  N. Sergueev,  
 S. M. Sharada,  S. Sharma,  D. W. Small,  T. Stauch,  T. Stein,  
 Yu-Chuan Su,  A. J. W. Thom,  A. Tkatchenko,  T. Tsuchimochi,  N. M. Tubman,  
 L. Vogt,  M. L. Vidal,  O. Vydrov,  M. A. Watson,  J. Wenzel,  
 M. de Wergifosse,  T. A. Wesolowski,  A. White,  J. Witte,  A. Yamada,  
 Jun Yang,  K. Yao,  S. Yeganeh,  S. R. Yost,  Zhi-Qiang You,  A. Zech,  
 Igor Ying Zhang,  Xing Zhang,  Yan Zhao,  Ying Zhu,  B. R. Brooks,  
 G. K. L. Chan,  C. J. Cramer,  M. S. Gordon,  W. J. Hehre,  A. Klamt,  
 M. W. Schmidt,  C. D. Sherrill,  D. G. Truhlar,  A. Aspuru-Guzik,  R. Baer,  
 A. T. Bell,  N. A. Besley,  Jeng-Da Chai,  A. E. DePrince, III,  
 R. A. DiStasio Jr.,  A. Dreuw,  B. D. Dunietz,  T. R. Furlani,  
 Chao-Ping Hsu,  Yousung Jung,  Jing Kong,  D. S. Lambrecht,  WanZhen Liang,  
 C. Ochsenfeld,  V. A. Rassolov,  L. V. Slipchenko,  J. E. Subotnik,  
 T. Van Voorhis,  J. M. Herbert,  A. I. Krylov,  P. M. W. Gill,  M. Head-Gordon

 Contributors to earlier versions of Q-Chem not listed above: 
 R. D. Adamson,  B. Austin,  J. Baker,  G. J. O. Beran,  K. Brandhorst,  
 S. T. Brown,  E. F. C. Byrd,  A. K. Chakraborty,  C.-L. Cheng,  
 Siu Hung Chien,  D. M. Chipman,  D. L. Crittenden,  H. Dachsel,  
 R. J. Doerksen,  A. D. Dutoi,  L. Fusti-Molnar,  W. A. Goddard III,  
 A. Golubeva-Zadorozhnaya,  S. R. Gwaltney,  G. Hawkins,  A. Heyden,  
 S. Hirata,  G. Kedziora,  F. J. Keil,  C. Kelley,  Jihan Kim,  R. A. King,  
 R. Z. Khaliullin,  P. P. Korambath,  W. Kurlancheek,  A. M. Lee,  M. S. Lee,  
 S. V. Levchenko,  Ching Yeh Lin,  D. Liotard,  R. C. Lochan,  I. Lotan,  
 P. E. Maslen,  N. Nair,  D. P. O'Neill,  D. Neuhauser,  E. Neuscamman,  
 C. M. Oana,  R. Olson,  B. Peters,  R. Peverati,  P. A. Pieniazek,  
 Y. M. Rhee,  J. Ritchie,  M. A. Rohrdanz,  E. Rosta,  N. J. Russ,  
 H. F. Schaefer III,  N. E. Schultz,  N. Shenvi,  A. C. Simmonett,  A. Sodt,  
 D. Stuck,  K. S. Thanthiriwatte,  V. Vanovschi,  Tao Wang,  A. Warshel,  
 C. F. Williams,  Q. Wu,  X. Xu,  W. Zhang

 Please cite Q-Chem as follows:
 Y. Shao et al., Mol. Phys. 113, 184-215 (2015)
 DOI: 10.1080/00268976.2014.952696

 Q-Chem 5.1.1 for Intel X86 EM64T Linux

 Parts of Q-Chem use Armadillo 8.300.2 (Tropical Shenanigans).
 http://arma.sourceforge.net/

 Q-Chem begins on Thu Jul 30 13:47:01 2020  

Host: n0087.mhg0
0

     Scratch files written to /local/scratch/users/yhljason/HCN_B97-D3_aug-pc-4.inp20200730134658//
Input Ideriv = 2
Curr. Ideriv = -1
Max.  Ideriv = 2

Checking the input file for inconsistencies... 	...done.

--------------------------------------------------------------
User input:
--------------------------------------------------------------
$molecule
0 1
C1      0.0000  0.0000  0.0000
H2      0.0000  0.0000  1.0640
N3      0.0000  0.0000  -1.1560
$end

$rem
jobtype sp
method B97-D3
xc_grid 000099000590
basis aug-pc-4
max_scf_cycles 200
thresh 14
scf_convergence 8
scf_algorithm gdm
symmetry false
sym_ignore true
unrestricted true
gen_scfman true
internal_stability_iter 15
internal_stability_davidson_iter 200
mem_total 64000
mem_static 1500
n_frozen_core 0
$end


--------------------------------------------------------------
 Adding empirical dispersion correction 
 ----------------------------------------------------------------
 Doing -D3(0) with
 s6  =   1.00000
 s8  =   0.90900
 rs6 =   0.89200
 rs8 =   1.00000
 -D3 energy without 3body term =     -0.0004550814 hartrees
 ----------------------------------------------------------------
             Standard Nuclear Orientation (Angstroms)
    I     Atom           X                Y                Z
 ----------------------------------------------------------------
    1      C       0.0000000000     0.0000000000     0.0000000000
    2      H       0.0000000000     0.0000000000     1.0640000000
    3      N       0.0000000000     0.0000000000    -1.1560000000
 ----------------------------------------------------------------
 Nuclear Repulsion Energy =    23.8783653633 hartrees
 There are        7 alpha and        7 beta electrons
 Requested basis set is aug-pc-4
 There are 90 shells and 378 basis functions

 Total QAlloc Memory Limit  64000 MB
 Mega-Array Size      1467 MB
 MEM_STATIC part      1500 MB

                       Distance Matrix (Angstroms)
             C (  1)   H (  2)
   H (  2)  1.064000
   N (  3)  1.156000  2.220000
 
 A cutoff of  1.0D-14 yielded   4065 shell pairs
 There are     72361 function pairs (    136048 Cartesian)
 
 -------------------------------------------------------
 OpenMP Integral Computing Module                       
 Release: version 1.0, May 2013, Q-Chem Inc. Pittsburgh 
 -------------------------------------------------------
 Integral Job Info:
 Integral job number is                      11
 Integral operator is                         1
 short-range coefficients                     0
 long-range coefficients              100000000
 Omega coefficients                           0
 if combine SR and LR in K                    0
 Integral screening is                        0
 Integral computing path is                   2
 max size of driver memory is           6400000
 size of driver memory is               5498286
 size of scratch memory is             29792225
 max col of scratch BK array             194481
 max len of scratch array in speh3         5572
 max len of scratch index in speh4           72
 max int batch size is                      520
 min int batch size is                       52
 fixed nKL is                                25
 max L of basis functions is                  5
 order of int derivative is                   0
 number of shells is                         90
 number of basis is                         517
 number of cartesian basis is               517
 number of contracted shell pairs          4065
 number of primitive shell pairs           8894
 maxK2 (contraction) of shell pair          121
 max number of K2 of shell pair               1
 max number of CS2 of shell pair            440
 max number of PS2 of shell pair            451
 mem total for path MDJ                  998666
 -------------------------------------------------------
 Smallest overlap matrix eigenvalue = 2.72E-07
 Linear dependence detected in AO basis
 Number of orthogonalized atomic orbitals = 376
 Maximum deviation from orthogonality = 5.202E-10

 Scale SEOQF with 1.000000e-01/1.000000e-01/1.000000e-01

 Standard Electronic Orientation quadrupole field applied
 Nucleus-field energy     =    -0.0000000011 hartrees
 Guess from superposition of atomic densities
 Warning:  Energy on first SCF cycle will be non-variational
 SAD guess density has 14.000000 electrons

 -----------------------------------------------------------------------
  General SCF calculation program by
  Eric Jon Sundstrom, Paul Horn, Yuezhi Mao, Dmitri Zuev, Alec White,
  David Stuck, Shaama M.S., Shane Yost, Joonho Lee, David Small,
  Daniel Levine, Susi Lehtola, Hugh Burton, Evgeny Epifanovsky
 -----------------------------------------------------------------------
 Exchange:  B97-D      Correlation:  B97-D
 Using Euler-Maclaurin-Lebedev (99,590) quadrature formula
 Dispersion:   Grimme D3
Running Object-Oriented UKS (UHF)
performing a single roothaan step with Fock from read density so that orbitals are available to all algorithms
energy of the guess density (C=0) -93.534718897775
We will preform up to 15 macro iterations over saddle points until a stable solution is found
Energy prior to optimization (guess energy) = -93.345725716424
Begin Timing: Total SCF Calculation
Begin Timing: SCF Single Stationary Point Calculation
begin iterations for algorithm: GDM          
the SCF tolerance is set to 1.00e-08
    1     -93.3457257164      1.79e-01     00000  Descent step
    2     -93.3326007113      2.29e-01     00000 Line search: overstep
    3     -93.3957867975      4.41e-02     00000  Normal BFGS step
    4     -93.3850998339      5.46e-02     00000 Line search: overstep
    5     -93.4053028730      4.03e-03     00000  Normal BFGS step
    6     -93.4056422970      1.61e-03     00000  Normal BFGS step
    7     -93.4056582990      1.73e-04     00000  Normal BFGS step
    8     -93.4056588699      3.30e-05     00000  Normal BFGS step
    9     -93.4056588894      3.09e-06     00000  Normal BFGS step
   10     -93.4056588895      6.30e-07     00000  Normal BFGS step
   11     -93.4056588895      5.93e-08     00000  Normal BFGS step
   12     -93.4056588895      1.00e-07     00000  Normal BFGS step
   13     -93.4056588895      2.07e-07     00000  Normal BFGS step
   14     -93.4056588895      1.39e-09     00000 Convergence criterion met
Timing for Single Stationary Point: 296.00s (wall), 2338.81s (cpu)
Begin Timing: Stability
===================================================
Beginning Test for Internal Stability
===================================================
generating davidson guess vectors based on koopmans excitations
    1      3.67e-01     00000 Davidson Iteration
    2      7.84e-02     00000 Davidson Iteration
    3      2.47e-02     00000 Davidson Iteration
    4      4.85e-03     00000 Davidson Iteration
    5      2.16e-03     00000 Davidson Iteration
    6      7.09e-04     00000 Davidson Iteration
    7      1.74e-04     00000 Davidson Iteration
    8      4.12e-05     00000 Davidson Iteration
    9      8.55e-03     00000 Davidson Iteration
   10      2.31e-03     00000 Davidson Iteration
   11      5.59e-04     00000 Davidson Iteration
   12      1.44e-04     00000 Davidson Iteration
   13      4.26e-05     00000 Davidson Converged
converged_eigenvalues
   0.4242
   0.2984
Threshold for negative eigenvalues: -1.0e-05
solution was a local minimum (stable)
===================================================
End Test for Internal Stability
===================================================
Our SCF solution is stable!
Timing for Total SCF: 5120.00s (wall), 40588.34s (cpu)
 Total energy in the final basis set =      -93.4056588895
<S^2> =          0.000000000
    ==================================================
              The end of Object-Oriented SCFman       
    ==================================================
 
 --------------------------------------------------------------
 
                    Orbital Energies (a.u.)
 --------------------------------------------------------------
 
 Alpha MOs
 -- Occupied --
-14.020  -9.957  -0.849  -0.560  -0.338  -0.329  -0.329
 -- Virtual --
 -0.038  -0.038  -0.012   0.007   0.020   0.020   0.040   0.043
  0.055   0.057   0.057   0.083   0.083   0.086   0.086   0.110
  0.114   0.116   0.116   0.144   0.156   0.164   0.164   0.168
  0.168   0.186   0.186   0.206   0.206   0.216   0.220   0.220
  0.226   0.226   0.251   0.258   0.259   0.259   0.298   0.300
  0.300   0.316   0.339   0.339   0.344   0.344   0.347   0.347
  0.348   0.348   0.359   0.386   0.386   0.400   0.400   0.418
  0.418   0.446   0.460   0.460   0.460   0.460   0.466   0.466
  0.484   0.492   0.492   0.497   0.497   0.498   0.522   0.522
  0.532   0.543   0.543   0.559   0.559   0.562   0.562   0.565
  0.565   0.576   0.588   0.641   0.641   0.650   0.650   0.683
  0.683   0.707   0.732   0.732   0.749   0.749   0.773   0.788
  0.788   0.790   0.790   0.807   0.835   0.835   0.839   0.839
  0.847   0.847   0.859   0.859   0.884   0.884   0.892   0.897
  0.897   0.902   0.902   0.902   0.932   0.932   0.943   0.943
  0.947   0.956   0.956   0.958   0.958   1.074   1.074   1.082
  1.097   1.097   1.113   1.168   1.168   1.191   1.218   1.255
  1.255   1.379   1.379   1.481   1.487   1.487   1.568   1.568
  1.587   1.620   1.620   1.694   1.696   1.696   1.755   1.755
  1.873   1.873   1.875   1.894   1.894   2.023   2.023   2.024
  2.089   2.089   2.142   2.205   2.205   2.332   2.378   2.378
  2.419   2.419   2.455   2.772   2.772   2.844   2.965   3.060
  3.060   3.103   3.103   3.140   3.140   3.323   3.480   3.480
  3.516   3.516   3.550   3.606   3.606   3.733   3.905   3.905
  3.935   4.035   4.035   4.083   4.083   4.126   4.126   4.206
  4.208   4.208   4.358   4.358   4.389   4.389   4.483   4.555
  4.555   4.630   4.630   4.701   4.701   4.765   4.765   4.841
  4.990   5.041   5.041   5.078   5.078   5.635   5.635   5.729
  5.729   5.755   5.921   5.956   5.956   6.302   6.302   6.444
  6.559   6.559   6.809   6.809   6.851   6.851   6.998   7.236
  7.310   7.310   7.484   7.484   7.508   8.094   8.381   8.586
  8.586   8.791   8.791   8.845   8.845   9.340   9.463   9.463
  9.915  10.022  10.022  10.138  10.138  10.340  10.340  10.363
 10.363  10.457  10.457  10.476  10.476  10.738  10.738  10.841
 11.054  11.173  11.173  11.173  11.173  11.402  11.402  11.512
 11.512  11.527  11.686  11.686  11.712  11.712  11.715  11.715
 11.759  11.759  11.812  11.812  11.866  12.004  12.004  12.048
 12.048  12.307  12.307  12.409  13.118  13.118  13.200  13.200
 13.217  13.657  13.657  13.717  13.717  14.076  14.265  14.265
 14.542  14.542  15.224  15.230  15.230  15.275  15.275  15.697
 15.697  15.810  16.210  16.210  16.494  16.656  16.656  16.989
 16.989  16.992  16.992  17.132  17.132  17.511  18.168  18.168
 18.205  19.019  19.019  19.524  19.524  19.678  20.592  21.134
 21.134  23.245  23.775  23.775  24.673  26.042  26.257  26.257
 28.275  31.902  31.902  33.179  33.179  35.308  41.240  47.729
 47.729  48.142  48.142  49.048  76.846  91.168  91.168  92.419
105.572
 
 Beta MOs
 -- Occupied --
-14.020  -9.957  -0.849  -0.560  -0.338  -0.329  -0.329
 -- Virtual --
 -0.038  -0.038  -0.012   0.007   0.020   0.020   0.040   0.043
  0.055   0.057   0.057   0.083   0.083   0.086   0.086   0.110
  0.114   0.116   0.116   0.144   0.156   0.164   0.164   0.168
  0.168   0.186   0.186   0.206   0.206   0.216   0.220   0.220
  0.226   0.226   0.251   0.258   0.259   0.259   0.298   0.300
  0.300   0.316   0.339   0.339   0.344   0.344   0.347   0.347
  0.348   0.348   0.359   0.386   0.386   0.400   0.400   0.418
  0.418   0.446   0.460   0.460   0.460   0.460   0.466   0.466
  0.484   0.492   0.492   0.497   0.497   0.498   0.522   0.522
  0.532   0.543   0.543   0.559   0.559   0.562   0.562   0.565
  0.565   0.576   0.588   0.641   0.641   0.650   0.650   0.683
  0.683   0.707   0.732   0.732   0.749   0.749   0.773   0.788
  0.788   0.790   0.790   0.807   0.835   0.835   0.839   0.839
  0.847   0.847   0.859   0.859   0.884   0.884   0.892   0.897
  0.897   0.902   0.902   0.902   0.932   0.932   0.943   0.943
  0.947   0.956   0.956   0.958   0.958   1.074   1.074   1.082
  1.097   1.097   1.113   1.168   1.168   1.191   1.218   1.255
  1.255   1.379   1.379   1.481   1.487   1.487   1.568   1.568
  1.587   1.620   1.620   1.694   1.696   1.696   1.755   1.755
  1.873   1.873   1.875   1.894   1.894   2.023   2.023   2.024
  2.089   2.089   2.142   2.205   2.205   2.332   2.378   2.378
  2.419   2.419   2.455   2.772   2.772   2.844   2.965   3.060
  3.060   3.103   3.103   3.140   3.140   3.323   3.480   3.480
  3.516   3.516   3.550   3.606   3.606   3.733   3.905   3.905
  3.935   4.035   4.035   4.083   4.083   4.126   4.126   4.206
  4.208   4.208   4.358   4.358   4.389   4.389   4.483   4.555
  4.555   4.630   4.630   4.701   4.701   4.765   4.765   4.841
  4.990   5.041   5.041   5.078   5.078   5.635   5.635   5.729
  5.729   5.755   5.921   5.956   5.956   6.302   6.302   6.444
  6.559   6.559   6.809   6.809   6.851   6.851   6.998   7.236
  7.310   7.310   7.484   7.484   7.508   8.094   8.381   8.586
  8.586   8.791   8.791   8.845   8.845   9.340   9.463   9.463
  9.915  10.022  10.022  10.138  10.138  10.340  10.340  10.363
 10.363  10.457  10.457  10.476  10.476  10.738  10.738  10.841
 11.054  11.173  11.173  11.173  11.173  11.402  11.402  11.512
 11.512  11.527  11.686  11.686  11.712  11.712  11.715  11.715
 11.759  11.759  11.812  11.812  11.866  12.004  12.004  12.048
 12.048  12.307  12.307  12.409  13.118  13.118  13.200  13.200
 13.217  13.657  13.657  13.717  13.717  14.076  14.265  14.265
 14.542  14.542  15.224  15.230  15.230  15.275  15.275  15.697
 15.697  15.810  16.210  16.210  16.494  16.656  16.656  16.989
 16.989  16.992  16.992  17.132  17.132  17.511  18.168  18.168
 18.205  19.019  19.019  19.524  19.524  19.678  20.592  21.134
 21.134  23.245  23.775  23.775  24.673  26.042  26.257  26.257
 28.275  31.902  31.902  33.179  33.179  35.308  41.240  47.729
 47.729  48.142  48.142  49.048  76.846  91.168  91.168  92.419
105.572
 --------------------------------------------------------------
 
          Ground-State Mulliken Net Atomic Charges

     Atom                 Charge (a.u.)    Spin (a.u.)
  --------------------------------------------------------
      1 C                    -0.331999       0.000000
      2 H                     0.324351      -0.000000
      3 N                     0.007648       0.000000
  --------------------------------------------------------
  Sum of atomic charges =     0.000000
  Sum of spin   charges =    -0.000000

 -----------------------------------------------------------------
                    Cartesian Multipole Moments
 -----------------------------------------------------------------
    Charge (ESU x 10^10)
                 0.0000
    Dipole Moment (Debye)
         X       0.0000      Y       0.0000      Z       2.9563
       Tot       2.9563
    Quadrupole Moments (Debye-Ang)
        XX     -11.7378     XY       0.0000     YY     -11.7378
        XZ       0.0000     YZ       0.0000     ZZ     -12.8359
    Octopole Moments (Debye-Ang^2)
       XXX      -0.0000    XXY       0.0000    XYY      -0.0000
       YYY       0.0000    XXZ       6.2216    XYZ      -0.0000
       YYZ       6.2216    XZZ       0.0000    YZZ      -0.0000
       ZZZ      24.5086
    Hexadecapole Moments (Debye-Ang^3)
      XXXX     -12.2481   XXXY       0.0000   XXYY      -4.0827
      XYYY       0.0000   YYYY     -12.2481   XXXZ       0.0000
      XXYZ       0.0000   XYYZ       0.0000   YYYZ       0.0000
      XXZZ     -12.6685   XYZZ      -0.0000   YYZZ     -12.6685
      XZZZ       0.0000   YZZZ       0.0000   ZZZZ     -68.2225
 -----------------------------------------------------------------
Archival summary:
1\1\n0087.mhg0\SP\ProcedureUnspecified\BasisUnspecified\111\yhljason\ThuJul3015:12:562020ThuJul3015:12:562020\0\\#,ProcedureUnspecified,BasisUnspecified,\\0,1\C\H,1,1.064\N,1,1.156,2,180\\\@

 Total job time:  5154.99s(wall), 40828.35s(cpu) 
 Thu Jul 30 15:12:56 2020

        *************************************************************
        *                                                           *
        *  Thank you very much for using Q-Chem.  Have a nice day.  *
        *                                                           *
        *************************************************************


