Q-Chem Developer Version!
                  Welcome to Q-Chem
     A Quantum Leap Into The Future Of Chemistry


 Q-Chem 5.1, Q-Chem, Inc., Pleasanton, CA (2018)

 Yihan Shao,  Zhengting Gan,  E. Epifanovsky,  A. T. B. Gilbert,  M. Wormit,  
 J. Kussmann,  A. W. Lange,  A. Behn,  Jia Deng,  Xintian Feng,  D. Ghosh,  
 M. Goldey,  P. R. Horn,  L. D. Jacobson,  I. Kaliman,  T. Kus,  A. Landau,  
 Jie Liu,  E. I. Proynov,  R. M. Richard,  R. P. Steele,  E. J. Sundstrom,  
 H. L. Woodcock III,  P. M. Zimmerman,  D. Zuev,  B. Albrecht,  E. Alguire,  
 S. A. Baeppler,  D. Barton,  Z. Benda,  Y. A. Bernard,  E. J. Berquist,  
 K. B. Bravaya,  H. Burton,  D. Casanova,  Chun-Min Chang,  Yunqing Chen,  
 A. Chien,  K. D. Closser,  M. P. Coons,  S. Coriani,  S. Dasgupta,  
 A. L. Dempwolff,  M. Diedenhofen,  Hainam Do,  R. G. Edgar,  Po-Tung Fang,  
 S. Faraji,  S. Fatehi,  Qingguo Feng,  K. D. Fenk,  J. Fosso-Tande,  
 Qinghui Ge,  A. Ghysels,  G. Gidofalvi,  J. Gomes,  J. Gonthier,  A. Gunina,  
 D. Hait,  M. W. D. Hanson-Heine,  P. H. P. Harbach,  A. W. Hauser,  
 J. E. Herr,  E. G. Hohenstein,  Z. C. Holden,  Kerwin Hui,  B. C. Huynh,  
 T.-C. Jagau,  Hyunjun Ji,  B. Kaduk,  K. Khistyaev,  Jaehoon Kim,  
 P. Klunzinger,  K. Koh,  D. Kosenkov,  L. Koulias,  T. Kowalczyk,  
 C. M. Krauter,  A. Kunitsa,  Ka Un Lao,  A. Laurent,  K. V. Lawler,  
 Joonho Lee,  D. Lefrancois,  S. Lehtola,  D. S. Levine,  Yi-Pei Li,  
 You-Sheng Lin,  Fenglai Liu,  E. Livshits,  A. Luenser,  P. Manohar,  
 E. Mansoor,  S. F. Manzer,  Shan-Ping Mao,  Yuezhi Mao,  N. Mardirossian,  
 A. V. Marenich,  T. Markovich,  L. A. Martinez-Martinez,  S. A. Maurer,  
 N. J. Mayhall,  S. C. McKenzie,  J.-M. Mewes,  A. F. Morrison,  
 J. W. Mullinax,  K. Nanda,  T. S. Nguyen-Beck,  R. Olivares-Amaya,  
 J. A. Parkhill,  T. M. Perrine,  F. Plasser,  P. Pokhilko,  S. Prager,  
 A. Prociuk,  E. Ramos,  D. R. Rehn,  F. Rob,  M. Schneider,  N. Sergueev,  
 S. M. Sharada,  S. Sharma,  D. W. Small,  T. Stauch,  T. Stein,  
 Yu-Chuan Su,  A. J. W. Thom,  A. Tkatchenko,  T. Tsuchimochi,  N. M. Tubman,  
 L. Vogt,  M. L. Vidal,  O. Vydrov,  M. A. Watson,  J. Wenzel,  
 M. de Wergifosse,  T. A. Wesolowski,  A. White,  J. Witte,  A. Yamada,  
 Jun Yang,  K. Yao,  S. Yeganeh,  S. R. Yost,  Zhi-Qiang You,  A. Zech,  
 Igor Ying Zhang,  Xing Zhang,  Yan Zhao,  Ying Zhu,  B. R. Brooks,  
 G. K. L. Chan,  C. J. Cramer,  M. S. Gordon,  W. J. Hehre,  A. Klamt,  
 M. W. Schmidt,  C. D. Sherrill,  D. G. Truhlar,  A. Aspuru-Guzik,  R. Baer,  
 A. T. Bell,  N. A. Besley,  Jeng-Da Chai,  A. E. DePrince, III,  
 R. A. DiStasio Jr.,  A. Dreuw,  B. D. Dunietz,  T. R. Furlani,  
 Chao-Ping Hsu,  Yousung Jung,  Jing Kong,  D. S. Lambrecht,  WanZhen Liang,  
 C. Ochsenfeld,  V. A. Rassolov,  L. V. Slipchenko,  J. E. Subotnik,  
 T. Van Voorhis,  J. M. Herbert,  A. I. Krylov,  P. M. W. Gill,  M. Head-Gordon

 Contributors to earlier versions of Q-Chem not listed above: 
 R. D. Adamson,  B. Austin,  J. Baker,  G. J. O. Beran,  K. Brandhorst,  
 S. T. Brown,  E. F. C. Byrd,  A. K. Chakraborty,  C.-L. Cheng,  
 Siu Hung Chien,  D. M. Chipman,  D. L. Crittenden,  H. Dachsel,  
 R. J. Doerksen,  A. D. Dutoi,  L. Fusti-Molnar,  W. A. Goddard III,  
 A. Golubeva-Zadorozhnaya,  S. R. Gwaltney,  G. Hawkins,  A. Heyden,  
 S. Hirata,  G. Kedziora,  F. J. Keil,  C. Kelley,  Jihan Kim,  R. A. King,  
 R. Z. Khaliullin,  P. P. Korambath,  W. Kurlancheek,  A. M. Lee,  M. S. Lee,  
 S. V. Levchenko,  Ching Yeh Lin,  D. Liotard,  R. C. Lochan,  I. Lotan,  
 P. E. Maslen,  N. Nair,  D. P. O'Neill,  D. Neuhauser,  E. Neuscamman,  
 C. M. Oana,  R. Olson,  B. Peters,  R. Peverati,  P. A. Pieniazek,  
 Y. M. Rhee,  J. Ritchie,  M. A. Rohrdanz,  E. Rosta,  N. J. Russ,  
 H. F. Schaefer III,  N. E. Schultz,  N. Shenvi,  A. C. Simmonett,  A. Sodt,  
 D. Stuck,  K. S. Thanthiriwatte,  V. Vanovschi,  Tao Wang,  A. Warshel,  
 C. F. Williams,  Q. Wu,  X. Xu,  W. Zhang

 Please cite Q-Chem as follows:
 Y. Shao et al., Mol. Phys. 113, 184-215 (2015)
 DOI: 10.1080/00268976.2014.952696

 Q-Chem 5.1.1 for Intel X86 EM64T Linux

 Parts of Q-Chem use Armadillo 8.300.2 (Tropical Shenanigans).
 http://arma.sourceforge.net/

 Q-Chem begins on Sat Aug  1 01:23:54 2020  

Host: n0056.mhg0
0

     Scratch files written to /local/scratch/users/yhljason/HCO_wB97X-V_aug-pc-4.inp20200801012110//
Input Ideriv = 2
Curr. Ideriv = -1
Max.  Ideriv = 2
Input Ideriv = 1
Curr. Ideriv = 2
Max.  Ideriv = 1

Checking the input file for inconsistencies... 	...done.

--------------------------------------------------------------
User input:
--------------------------------------------------------------
$molecule
0 2
C1	0.0000	0.0000	0.0000
H2	1.0800	0.0000	0.0000
O3	-0.5899	1.0427	0.0000
$end

$rem
jobtype sp
method wB97X-V
xc_grid 000099000590
basis aug-pc-4
max_scf_cycles 200
thresh 14
scf_convergence 8
scf_algorithm gdm
symmetry false
sym_ignore true
unrestricted true
gen_scfman true
internal_stability_iter 15
internal_stability_davidson_iter 200
mem_total 64000
mem_static 1500
n_frozen_core 0
$end


--------------------------------------------------------------
 ----------------------------------------------------------------
             Standard Nuclear Orientation (Angstroms)
    I     Atom           X                Y                Z
 ----------------------------------------------------------------
    1      C       0.0000000000     0.0000000000     0.0000000000
    2      H       1.0800000000     0.0000000000     0.0000000000
    3      O      -0.5899000000     1.0427000000     0.0000000000
 ----------------------------------------------------------------
 Nuclear Repulsion Energy =    26.2926489419 hartrees
 There are        8 alpha and        7 beta electrons
 Requested basis set is aug-pc-4
 There are 90 shells and 378 basis functions

 Total QAlloc Memory Limit  64000 MB
 Mega-Array Size      1467 MB
 MEM_STATIC part      1500 MB

                       Distance Matrix (Angstroms)
             C (  1)   H (  2)
   H (  2)  1.080000
   O (  3)  1.198001  1.968702
 
 A cutoff of  1.0D-14 yielded   4070 shell pairs
 There are     72478 function pairs (    136255 Cartesian)
 
 -------------------------------------------------------
 OpenMP Integral Computing Module                       
 Release: version 1.0, May 2013, Q-Chem Inc. Pittsburgh 
 -------------------------------------------------------
 Integral Job Info:
 Integral job number is                      11
 Integral operator is                         1
 short-range coefficients              16700000
 long-range coefficients              100000000
 Omega coefficients                         300
 if combine SR and LR in K                    1
 Integral screening is                        0
 Integral computing path is                   2
 max size of driver memory is           6400000
 size of driver memory is               5498286
 size of scratch memory is             28955960
 max col of scratch BK array             194481
 max len of scratch array in speh3         5572
 max len of scratch index in speh4           72
 max int batch size is                      520
 min int batch size is                       52
 fixed nKL is                                24
 max L of basis functions is                  5
 order of int derivative is                   0
 number of shells is                         90
 number of basis is                         517
 number of cartesian basis is               517
 number of contracted shell pairs          4070
 number of primitive shell pairs           8910
 maxK2 (contraction) of shell pair          121
 max number of K2 of shell pair               1
 max number of CS2 of shell pair            441
 max number of PS2 of shell pair            462
 mem total for path MDJ                  998666
 -------------------------------------------------------
 Smallest overlap matrix eigenvalue = 6.10E-07
 Linear dependence detected in AO basis
 Number of orthogonalized atomic orbitals = 377
 Maximum deviation from orthogonality = 1.011E-10

 Scale SEOQF with 1.000000e-01/1.000000e-01/1.000000e-01

 Standard Electronic Orientation quadrupole field applied
 Nucleus-field energy     =     0.0000000008 hartrees
 Guess from superposition of atomic densities
 Warning:  Energy on first SCF cycle will be non-variational
 SAD guess density has 15.000000 electrons

 -----------------------------------------------------------------------
  General SCF calculation program by
  Eric Jon Sundstrom, Paul Horn, Yuezhi Mao, Dmitri Zuev, Alec White,
  David Stuck, Shaama M.S., Shane Yost, Joonho Lee, David Small,
  Daniel Levine, Susi Lehtola, Hugh Burton, Evgeny Epifanovsky
 -----------------------------------------------------------------------
 Exchange:     0.1670 Hartree-Fock + 1.0000 wB97X-V + LR-HF
 Correlation:  1.0000 wB97X-V
 Using Euler-Maclaurin-Lebedev (99,590) quadrature formula
 Nonlocal Correlation:  VV10 with C = 0.0100 and b = 6.00 and scale = 1.00000
 Grid used for NLC:  SG-1 standard quadrature
Running Object-Oriented UKS (UHF)
performing a single roothaan step with Fock from read density so that orbitals are available to all algorithms
 Nonlocal correlation = 0.062451379115
energy of the guess density (C=0) -113.967389273490
 Nonlocal correlation = 0.062940671559
We will preform up to 15 macro iterations over saddle points until a stable solution is found
Energy prior to optimization (guess energy) = -113.816201011639
Begin Timing: Total SCF Calculation
Begin Timing: SCF Single Stationary Point Calculation
begin iterations for algorithm: GDM          
the SCF tolerance is set to 1.00e-08
 Nonlocal correlation = 6.264004467713e-02
    1    -113.8162010116      1.72e-01     00000  Descent step
 Nonlocal correlation = 6.280176924822e-02
    2    -113.8342841435      1.35e-01     00000  Normal BFGS step
 Nonlocal correlation = 6.279819052602e-02
    3    -113.8653300058      6.76e-03     00000  Normal BFGS step
 Nonlocal correlation = 6.279506331252e-02
    4    -113.8656441967      3.60e-03     00000  Normal BFGS step
 Nonlocal correlation = 6.279537127095e-02
    5    -113.8656819243      6.54e-04     00000  Normal BFGS step
 Nonlocal correlation = 6.279539846957e-02
    6    -113.8656839108      2.74e-04     00000  Normal BFGS step
 Nonlocal correlation = 6.279540855033e-02
    7    -113.8656842933      1.08e-04     00000  Normal BFGS step
 Nonlocal correlation = 6.279537253919e-02
    8    -113.8656843646      6.34e-05     00000  Normal BFGS step
 Nonlocal correlation = 6.279539022010e-02
    9    -113.8656843935      1.78e-05     00000  Normal BFGS step
 Nonlocal correlation = 6.279538101179e-02
   10    -113.8656843977      7.79e-06     00000  Normal BFGS step
 Nonlocal correlation = 6.279538797727e-02
   11    -113.8656843984      2.69e-06     00000  Normal BFGS step
 Nonlocal correlation = 6.279538698912e-02
   12    -113.8656843985      1.50e-06     00000  Normal BFGS step
 Nonlocal correlation = 6.279538749017e-02
   13    -113.8656843985      7.14e-07     00000  Normal BFGS step
 Nonlocal correlation = 6.279538695104e-02
   14    -113.8656843985      5.57e-07     00000  Normal BFGS step
 Nonlocal correlation = 6.279538715228e-02
   15    -113.8656843985      1.72e-07     00000  Normal BFGS step
 Nonlocal correlation = 6.279538715973e-02
   16    -113.8656843985      2.51e-08     00000  Normal BFGS step
 Nonlocal correlation = 6.279538715179e-02
   17    -113.8656843985      9.96e-09     00000 Convergence criterion met
Timing for Single Stationary Point: 5153.00s (wall), 41113.53s (cpu)
Begin Timing: Stability
===================================================
Beginning Test for Internal Stability
===================================================
generating davidson guess vectors based on koopmans excitations
computing hessian-vector products by finite difference
 Nonlocal correlation = 0.062795387147
 Nonlocal correlation = 0.062795387136
 Nonlocal correlation = 0.062795384412
 Nonlocal correlation = 0.062795390976
 Nonlocal correlation = 0.062795387152
    1      4.09e-01     00000 Davidson Iteration
computing hessian-vector products by finite difference
 Nonlocal correlation = 6.279538720262e-02
 Nonlocal correlation = 6.279538707217e-02
 Nonlocal correlation = 6.279540206672e-02
 Nonlocal correlation = 6.279537331534e-02
 Nonlocal correlation = 6.279538715179e-02
    2      3.26e-01     00000 Davidson Iteration
computing hessian-vector products by finite difference
 Nonlocal correlation = 6.279531366822e-02
 Nonlocal correlation = 6.279546062845e-02
 Nonlocal correlation = 6.279538635356e-02
 Nonlocal correlation = 6.279538793092e-02
 Nonlocal correlation = 6.279538715179e-02
    3      9.05e-02     00000 Davidson Iteration
computing hessian-vector products by finite difference
 Nonlocal correlation = 6.279547700713e-02
 Nonlocal correlation = 6.279529728405e-02
 Nonlocal correlation = 6.279538320175e-02
 Nonlocal correlation = 6.279539110216e-02
 Nonlocal correlation = 6.279538715179e-02
    4      5.12e-02     00000 Davidson Iteration
computing hessian-vector products by finite difference
 Nonlocal correlation = 6.279548242264e-02
 Nonlocal correlation = 6.279529187223e-02
 Nonlocal correlation = 6.279539220892e-02
 Nonlocal correlation = 6.279538208848e-02
 Nonlocal correlation = 6.279538715179e-02
    5      2.66e-02     00000 Davidson Iteration
computing hessian-vector products by finite difference
 Nonlocal correlation = 6.279550959848e-02
 Nonlocal correlation = 6.279526470150e-02
 Nonlocal correlation = 6.279539734544e-02
 Nonlocal correlation = 6.279537695226e-02
 Nonlocal correlation = 6.279538715179e-02
    6      7.10e-03     00000 Davidson Iteration
computing hessian-vector products by finite difference
 Nonlocal correlation = 6.279525204460e-02
 Nonlocal correlation = 6.279552224959e-02
 Nonlocal correlation = 6.279537331133e-02
 Nonlocal correlation = 6.279540099129e-02
 Nonlocal correlation = 6.279538715179e-02
    7      3.91e-03     00000 Davidson Iteration
computing hessian-vector products by finite difference
 Nonlocal correlation = 6.279537889882e-02
 Nonlocal correlation = 6.279539539684e-02
 Nonlocal correlation = 6.279539166584e-02
 Nonlocal correlation = 6.279538262747e-02
 Nonlocal correlation = 6.279538715179e-02
    8      5.63e-04     00000 Davidson Iteration
computing hessian-vector products by finite difference
 Nonlocal correlation = 6.279543081064e-02
 Nonlocal correlation = 6.279534348517e-02
 Nonlocal correlation = 6.279538676385e-02
 Nonlocal correlation = 6.279538753377e-02
 Nonlocal correlation = 6.279538715179e-02
    9      3.07e-02     00000 Davidson Iteration
computing hessian-vector products by finite difference
 Nonlocal correlation = 6.279542688732e-02
 Nonlocal correlation = 6.279534741216e-02
 Nonlocal correlation = 6.279538518443e-02
 Nonlocal correlation = 6.279538911331e-02
 Nonlocal correlation = 6.279538715179e-02
   10      2.09e-02     00000 Davidson Iteration
computing hessian-vector products by finite difference
 Nonlocal correlation = 6.279534853537e-02
 Nonlocal correlation = 6.279542576187e-02
 Nonlocal correlation = 6.279538531732e-02
 Nonlocal correlation = 6.279538898574e-02
 Nonlocal correlation = 6.279538715179e-02
   11      7.68e-03     00000 Davidson Iteration
computing hessian-vector products by finite difference
 Nonlocal correlation = 6.279540636608e-02
 Nonlocal correlation = 6.279536903811e-02
 Nonlocal correlation = 6.279539712340e-02
 Nonlocal correlation = 6.279537717916e-02
 Nonlocal correlation = 6.279538715179e-02
   12      3.83e-03     00000 Davidson Iteration
computing hessian-vector products by finite difference
 Nonlocal correlation = 6.279533519703e-02
 Nonlocal correlation = 6.279543910182e-02
 Nonlocal correlation = 6.279538193445e-02
 Nonlocal correlation = 6.279539236456e-02
 Nonlocal correlation = 6.279538715179e-02
   13      2.35e-03     00000 Davidson Iteration
computing hessian-vector products by finite difference
 Nonlocal correlation = 6.279534954675e-02
 Nonlocal correlation = 6.279542474748e-02
 Nonlocal correlation = 6.279536146006e-02
 Nonlocal correlation = 6.279541284157e-02
 Nonlocal correlation = 6.279538715179e-02
   14      7.93e-04     00000 Davidson Converged
converged_eigenvalues
   0.1654
   0.3917
Threshold for negative eigenvalues: -1.0e-05
solution was a local minimum (stable)
===================================================
End Test for Internal Stability
===================================================
Our SCF solution is stable!
Timing for Total SCF: 26326.00s (wall), 210069.38s (cpu)
 Total energy in the final basis set =     -113.8656843985
<S^2> =          0.753588807
    ==================================================
              The end of Object-Oriented SCFman       
    ==================================================
 
 --------------------------------------------------------------
 
                    Orbital Energies (a.u.)
 --------------------------------------------------------------
 
 Alpha MOs
 -- Occupied --
-19.283 -10.380  -1.234  -0.756  -0.620  -0.553  -0.544  -0.336
 -- Virtual --
  0.017   0.023   0.032   0.032   0.040   0.068   0.070   0.074
  0.074   0.100   0.106   0.110   0.115   0.124   0.143   0.154
  0.156   0.168   0.169   0.180   0.186   0.206   0.218   0.223
  0.232   0.233   0.249   0.255   0.260   0.268   0.281   0.285
  0.286   0.289   0.292   0.295   0.316   0.319   0.335   0.345
  0.348   0.367   0.372   0.377   0.386   0.391   0.397   0.410
  0.423   0.430   0.432   0.436   0.450   0.474   0.474   0.484
  0.487   0.500   0.506   0.526   0.526   0.541   0.544   0.555
  0.557   0.591   0.604   0.607   0.611   0.617   0.619   0.628
  0.628   0.642   0.647   0.652   0.653   0.661   0.680   0.687
  0.693   0.699   0.705   0.711   0.717   0.729   0.734   0.742
  0.744   0.750   0.774   0.784   0.794   0.800   0.824   0.832
  0.837   0.849   0.863   0.873   0.885   0.925   0.934   0.940
  0.945   0.950   0.962   0.966   0.973   1.007   1.014   1.016
  1.042   1.057   1.076   1.079   1.087   1.095   1.110   1.112
  1.143   1.155   1.166   1.182   1.199   1.199   1.213   1.250
  1.261   1.262   1.296   1.311   1.346   1.351   1.400   1.430
  1.521   1.548   1.554   1.599   1.651   1.675   1.741   1.769
  1.791   1.833   1.858   1.928   1.938   1.974   2.034   2.046
  2.104   2.104   2.149   2.168   2.198   2.260   2.276   2.287
  2.356   2.372   2.408   2.410   2.440   2.537   2.553   2.622
  2.666   2.669   2.760   2.853   2.929   3.017   3.171   3.225
  3.315   3.352   3.371   3.487   3.570   3.676   3.736   3.748
  3.878   3.918   4.009   4.041   4.141   4.171   4.248   4.267
  4.304   4.342   4.422   4.467   4.539   4.600   4.601   4.637
  4.691   4.737   4.759   4.786   4.796   4.906   4.943   4.967
  5.011   5.052   5.146   5.226   5.295   5.376   5.415   5.472
  5.492   5.537   5.542   5.699   5.853   5.966   6.023   6.056
  6.118   6.155   6.237   6.291   6.355   6.495   6.671   6.753
  6.769   6.800   6.924   7.017   7.227   7.685   7.715   7.849
  8.174   8.447   8.530   8.655   8.836   8.986   9.012   9.126
  9.266   9.405   9.584   9.585   9.732  10.072  10.270  10.406
 10.480  10.484  10.591  10.689  10.758  10.774  10.853  10.865
 10.960  10.982  11.033  11.281  11.329  11.378  11.451  11.480
 11.501  11.764  11.773  11.867  11.875  11.897  11.952  12.043
 12.171  12.229  12.229  12.257  12.312  12.411  12.418  12.449
 12.484  12.557  12.711  12.738  12.810  12.812  12.903  12.929
 12.996  13.016  13.203  13.235  13.300  13.451  13.526  13.618
 13.835  13.911  14.027  14.140  14.166  14.535  15.221  15.226
 15.568  15.616  16.017  16.366  16.467  16.889  16.896  17.191
 17.202  17.222  17.277  17.338  17.529  17.560  17.970  18.274
 18.324  18.511  18.642  18.844  18.860  19.056  19.110  19.154
 20.152  20.422  20.548  21.011  22.484  23.263  23.322  23.688
 23.828  24.229  24.441  25.709  26.765  30.501  32.255  32.326
 32.357  32.607  33.019  34.163  34.558  34.809  41.163  66.938
 66.975  67.464  67.593  69.036  75.447  91.258  91.348  92.550
143.946
 
 Beta MOs
 -- Occupied --
-19.275 -10.372  -1.217  -0.726  -0.594  -0.535  -0.494
 -- Virtual --
 -0.004   0.019   0.028   0.033   0.035   0.048   0.070   0.072
  0.075   0.076   0.104   0.108   0.113   0.122   0.128   0.145
  0.156   0.158   0.170   0.171   0.183   0.191   0.208   0.221
  0.226   0.234   0.238   0.255   0.258   0.263   0.272   0.287
  0.288   0.289   0.291   0.295   0.298   0.319   0.322   0.338
  0.349   0.350   0.371   0.375   0.381   0.391   0.393   0.403
  0.414   0.430   0.433   0.434   0.440   0.456   0.475   0.477
  0.486   0.492   0.504   0.508   0.530   0.532   0.544   0.546
  0.559   0.560   0.593   0.608   0.610   0.615   0.619   0.626
  0.630   0.634   0.644   0.649   0.653   0.656   0.664   0.684
  0.690   0.695   0.707   0.708   0.715   0.720   0.732   0.737
  0.745   0.747   0.755   0.778   0.789   0.796   0.805   0.828
  0.835   0.844   0.854   0.867   0.877   0.887   0.927   0.935
  0.944   0.948   0.954   0.964   0.968   0.976   1.008   1.018
  1.018   1.044   1.061   1.080   1.081   1.089   1.097   1.119
  1.120   1.145   1.157   1.170   1.186   1.202   1.209   1.215
  1.255   1.265   1.266   1.297   1.314   1.350   1.355   1.403
  1.442   1.525   1.551   1.559   1.606   1.656   1.679   1.747
  1.772   1.793   1.838   1.867   1.934   1.942   1.981   2.043
  2.052   2.108   2.113   2.163   2.179   2.208   2.273   2.291
  2.297   2.364   2.390   2.415   2.422   2.452   2.539   2.560
  2.630   2.671   2.678   2.774   2.859   2.939   3.031   3.177
  3.235   3.323   3.361   3.379   3.501   3.580   3.687   3.748
  3.760   3.885   3.933   4.020   4.051   4.147   4.185   4.260
  4.286   4.316   4.355   4.434   4.490   4.550   4.611   4.612
  4.648   4.710   4.760   4.774   4.809   4.813   4.927   4.958
  4.985   5.032   5.075   5.159   5.242   5.310   5.396   5.424
  5.497   5.509   5.552   5.554   5.710   5.864   5.979   6.040
  6.069   6.130   6.167   6.254   6.309   6.365   6.511   6.689
  6.764   6.789   6.811   6.931   7.040   7.241   7.699   7.727
  7.861   8.185   8.452   8.546   8.675   8.856   9.008   9.036
  9.148   9.291   9.429   9.610   9.612   9.757  10.079  10.297
 10.423  10.511  10.515  10.610  10.713  10.787  10.796  10.881
 10.892  10.982  11.002  11.050  11.296  11.354  11.387  11.487
 11.499  11.528  11.796  11.798  11.880  11.902  11.933  11.984
 12.075  12.206  12.246  12.247  12.286  12.330  12.429  12.442
 12.468  12.508  12.583  12.734  12.755  12.834  12.837  12.927
 12.959  13.015  13.039  13.223  13.261  13.322  13.471  13.539
 13.643  13.860  13.933  14.050  14.160  14.181  14.568  15.241
 15.247  15.582  15.635  16.046  16.393  16.490  16.912  16.919
 17.207  17.228  17.243  17.302  17.362  17.551  17.582  17.994
 18.291  18.334  18.532  18.654  18.865  18.879  19.072  19.133
 19.162  20.176  20.443  20.570  21.032  22.495  23.299  23.357
 23.725  23.865  24.237  24.474  25.746  26.781  30.516  32.264
 32.352  32.371  32.629  33.024  34.176  34.568  34.821  41.214
 66.955  66.992  67.466  67.610  69.044  75.458  91.311  91.401
 92.607 143.953
 --------------------------------------------------------------
 
          Ground-State Mulliken Net Atomic Charges

     Atom                 Charge (a.u.)    Spin (a.u.)
  --------------------------------------------------------
      1 C                     0.177646       0.532824
      2 H                     0.045955       0.149556
      3 O                    -0.223601       0.317620
  --------------------------------------------------------
  Sum of atomic charges =     0.000000
  Sum of spin   charges =     1.000000

 -----------------------------------------------------------------
                    Cartesian Multipole Moments
 -----------------------------------------------------------------
    Charge (ESU x 10^10)
                -0.0000
    Dipole Moment (Debye)
         X       1.6264      Y      -0.6904      Z       0.0000
       Tot       1.7668
    Quadrupole Moments (Debye-Ang)
        XX     -11.2372     XY       0.6078     YY     -13.4991
        XZ      -0.0000     YZ       0.0000     ZZ     -11.0686
    Octopole Moments (Debye-Ang^2)
       XXX       9.1034    XXY      -5.8873    XYY       3.4876
       YYY     -17.4349    XXZ      -0.0000    XYZ      -0.0000
       YYZ       0.0000    XZZ       2.5595    YZZ      -5.2947
       ZZZ       0.0000
    Hexadecapole Moments (Debye-Ang^3)
      XXXX     -26.7174   XXXY      10.1264   XXYY     -13.0262
      XYYY      10.3139   YYYY     -49.4875   XXXZ       0.0000
      XXYZ      -0.0000   XYYZ      -0.0000   YYYZ       0.0000
      XXZZ      -6.3203   XYZZ       3.1413   YYZZ      -9.5683
      XZZZ      -0.0000   YZZZ       0.0000   ZZZZ     -10.3328
 -----------------------------------------------------------------
Archival summary:
1\1\n0056.mhg0\SP\ProcedureUnspecified\BasisUnspecified\111(2)\yhljason\SatAug108:48:292020SatAug108:48:292020\0\\#,ProcedureUnspecified,BasisUnspecified,\\0,2\C\H,1,1.08\O,1,1.198,2,119.499\\\@

 Total job time:  26675.82s(wall), 212673.68s(cpu) 
 Sat Aug  1 08:48:29 2020

        *************************************************************
        *                                                           *
        *  Thank you very much for using Q-Chem.  Have a nice day.  *
        *                                                           *
        *************************************************************


