Q-Chem Developer Version!
                  Welcome to Q-Chem
     A Quantum Leap Into The Future Of Chemistry


 Q-Chem 5.1, Q-Chem, Inc., Pleasanton, CA (2018)

 Yihan Shao,  Zhengting Gan,  E. Epifanovsky,  A. T. B. Gilbert,  M. Wormit,  
 J. Kussmann,  A. W. Lange,  A. Behn,  Jia Deng,  Xintian Feng,  D. Ghosh,  
 M. Goldey,  P. R. Horn,  L. D. Jacobson,  I. Kaliman,  T. Kus,  A. Landau,  
 Jie Liu,  E. I. Proynov,  R. M. Richard,  R. P. Steele,  E. J. Sundstrom,  
 H. L. Woodcock III,  P. M. Zimmerman,  D. Zuev,  B. Albrecht,  E. Alguire,  
 S. A. Baeppler,  D. Barton,  Z. Benda,  Y. A. Bernard,  E. J. Berquist,  
 K. B. Bravaya,  H. Burton,  D. Casanova,  Chun-Min Chang,  Yunqing Chen,  
 A. Chien,  K. D. Closser,  M. P. Coons,  S. Coriani,  S. Dasgupta,  
 A. L. Dempwolff,  M. Diedenhofen,  Hainam Do,  R. G. Edgar,  Po-Tung Fang,  
 S. Faraji,  S. Fatehi,  Qingguo Feng,  K. D. Fenk,  J. Fosso-Tande,  
 Qinghui Ge,  A. Ghysels,  G. Gidofalvi,  J. Gomes,  J. Gonthier,  A. Gunina,  
 D. Hait,  M. W. D. Hanson-Heine,  P. H. P. Harbach,  A. W. Hauser,  
 J. E. Herr,  E. G. Hohenstein,  Z. C. Holden,  Kerwin Hui,  B. C. Huynh,  
 T.-C. Jagau,  Hyunjun Ji,  B. Kaduk,  K. Khistyaev,  Jaehoon Kim,  
 P. Klunzinger,  K. Koh,  D. Kosenkov,  L. Koulias,  T. Kowalczyk,  
 C. M. Krauter,  A. Kunitsa,  Ka Un Lao,  A. Laurent,  K. V. Lawler,  
 Joonho Lee,  D. Lefrancois,  S. Lehtola,  D. S. Levine,  Yi-Pei Li,  
 You-Sheng Lin,  Fenglai Liu,  E. Livshits,  A. Luenser,  P. Manohar,  
 E. Mansoor,  S. F. Manzer,  Shan-Ping Mao,  Yuezhi Mao,  N. Mardirossian,  
 A. V. Marenich,  T. Markovich,  L. A. Martinez-Martinez,  S. A. Maurer,  
 N. J. Mayhall,  S. C. McKenzie,  J.-M. Mewes,  A. F. Morrison,  
 J. W. Mullinax,  K. Nanda,  T. S. Nguyen-Beck,  R. Olivares-Amaya,  
 J. A. Parkhill,  T. M. Perrine,  F. Plasser,  P. Pokhilko,  S. Prager,  
 A. Prociuk,  E. Ramos,  D. R. Rehn,  F. Rob,  M. Schneider,  N. Sergueev,  
 S. M. Sharada,  S. Sharma,  D. W. Small,  T. Stauch,  T. Stein,  
 Yu-Chuan Su,  A. J. W. Thom,  A. Tkatchenko,  T. Tsuchimochi,  N. M. Tubman,  
 L. Vogt,  M. L. Vidal,  O. Vydrov,  M. A. Watson,  J. Wenzel,  
 M. de Wergifosse,  T. A. Wesolowski,  A. White,  J. Witte,  A. Yamada,  
 Jun Yang,  K. Yao,  S. Yeganeh,  S. R. Yost,  Zhi-Qiang You,  A. Zech,  
 Igor Ying Zhang,  Xing Zhang,  Yan Zhao,  Ying Zhu,  B. R. Brooks,  
 G. K. L. Chan,  C. J. Cramer,  M. S. Gordon,  W. J. Hehre,  A. Klamt,  
 M. W. Schmidt,  C. D. Sherrill,  D. G. Truhlar,  A. Aspuru-Guzik,  R. Baer,  
 A. T. Bell,  N. A. Besley,  Jeng-Da Chai,  A. E. DePrince, III,  
 R. A. DiStasio Jr.,  A. Dreuw,  B. D. Dunietz,  T. R. Furlani,  
 Chao-Ping Hsu,  Yousung Jung,  Jing Kong,  D. S. Lambrecht,  WanZhen Liang,  
 C. Ochsenfeld,  V. A. Rassolov,  L. V. Slipchenko,  J. E. Subotnik,  
 T. Van Voorhis,  J. M. Herbert,  A. I. Krylov,  P. M. W. Gill,  M. Head-Gordon

 Contributors to earlier versions of Q-Chem not listed above: 
 R. D. Adamson,  B. Austin,  J. Baker,  G. J. O. Beran,  K. Brandhorst,  
 S. T. Brown,  E. F. C. Byrd,  A. K. Chakraborty,  C.-L. Cheng,  
 Siu Hung Chien,  D. M. Chipman,  D. L. Crittenden,  H. Dachsel,  
 R. J. Doerksen,  A. D. Dutoi,  L. Fusti-Molnar,  W. A. Goddard III,  
 A. Golubeva-Zadorozhnaya,  S. R. Gwaltney,  G. Hawkins,  A. Heyden,  
 S. Hirata,  G. Kedziora,  F. J. Keil,  C. Kelley,  Jihan Kim,  R. A. King,  
 R. Z. Khaliullin,  P. P. Korambath,  W. Kurlancheek,  A. M. Lee,  M. S. Lee,  
 S. V. Levchenko,  Ching Yeh Lin,  D. Liotard,  R. C. Lochan,  I. Lotan,  
 P. E. Maslen,  N. Nair,  D. P. O'Neill,  D. Neuhauser,  E. Neuscamman,  
 C. M. Oana,  R. Olson,  B. Peters,  R. Peverati,  P. A. Pieniazek,  
 Y. M. Rhee,  J. Ritchie,  M. A. Rohrdanz,  E. Rosta,  N. J. Russ,  
 H. F. Schaefer III,  N. E. Schultz,  N. Shenvi,  A. C. Simmonett,  A. Sodt,  
 D. Stuck,  K. S. Thanthiriwatte,  V. Vanovschi,  Tao Wang,  A. Warshel,  
 C. F. Williams,  Q. Wu,  X. Xu,  W. Zhang

 Please cite Q-Chem as follows:
 Y. Shao et al., Mol. Phys. 113, 184-215 (2015)
 DOI: 10.1080/00268976.2014.952696

 Q-Chem 5.1.1 for Intel X86 EM64T Linux

 Parts of Q-Chem use Armadillo 8.300.2 (Tropical Shenanigans).
 http://arma.sourceforge.net/

 Q-Chem begins on Fri Jul 31 22:16:17 2020  

Host: n0054.mhg0
0

     Scratch files written to /local/scratch/users/yhljason/HF_mPW91_aug-pc-4.inp20200731215430//
Input Ideriv = 2
Curr. Ideriv = -1
Max.  Ideriv = 2

Checking the input file for inconsistencies... 	...done.

--------------------------------------------------------------
User input:
--------------------------------------------------------------
$molecule
0 1
F       0.0000  0.0000  0.0000
H       0.0000  0.0000  0.9168
$end

$rem
jobtype sp
method mPW91
xc_grid 000099000590
basis aug-pc-4
max_scf_cycles 200
thresh 14
scf_convergence 8
scf_algorithm gdm
symmetry false
sym_ignore true
unrestricted true
gen_scfman true
internal_stability_iter 15
internal_stability_davidson_iter 200
mem_total 64000
mem_static 1500
n_frozen_core 0
$end


--------------------------------------------------------------
 ----------------------------------------------------------------
             Standard Nuclear Orientation (Angstroms)
    I     Atom           X                Y                Z
 ----------------------------------------------------------------
    1      F       0.0000000000     0.0000000000     0.0000000000
    2      H       0.0000000000     0.0000000000     0.9168000000
 ----------------------------------------------------------------
 Nuclear Repulsion Energy =     5.1948024620 hartrees
 There are        5 alpha and        5 beta electrons
 Requested basis set is aug-pc-4
 There are 57 shells and 233 basis functions

 Total QAlloc Memory Limit  64000 MB
 Mega-Array Size      1467 MB
 MEM_STATIC part      1500 MB

                       Distance Matrix (Angstroms)
             F (  1)
   H (  2)  0.916800
 
 A cutoff of  1.0D-14 yielded   1652 shell pairs
 There are     27850 function pairs (     51237 Cartesian)
 
 -------------------------------------------------------
 OpenMP Integral Computing Module                       
 Release: version 1.0, May 2013, Q-Chem Inc. Pittsburgh 
 -------------------------------------------------------
 Integral Job Info:
 Integral job number is                      11
 Integral operator is                         1
 short-range coefficients                     0
 long-range coefficients              100000000
 Omega coefficients                           0
 if combine SR and LR in K                    0
 Integral screening is                        0
 Integral computing path is                   2
 max size of driver memory is           6400000
 size of driver memory is               5498286
 size of scratch memory is             29792225
 max col of scratch BK array             194481
 max len of scratch array in speh3         5572
 max len of scratch index in speh4           72
 max int batch size is                      520
 min int batch size is                       52
 fixed nKL is                                25
 max L of basis functions is                  5
 order of int derivative is                   0
 number of shells is                         57
 number of basis is                         315
 number of cartesian basis is               315
 number of contracted shell pairs          1652
 number of primitive shell pairs           3472
 maxK2 (contraction) of shell pair          121
 max number of K2 of shell pair               1
 max number of CS2 of shell pair            197
 max number of PS2 of shell pair            197
 mem total for path MDJ                  836120
 -------------------------------------------------------
 Smallest overlap matrix eigenvalue = 1.12E-05

 Scale SEOQF with 1.000000e-01/1.000000e-01/1.000000e-01

 Standard Electronic Orientation quadrupole field applied
 Guess from superposition of atomic densities
 Warning:  Energy on first SCF cycle will be non-variational
 SAD guess density has 10.000000 electrons

 -----------------------------------------------------------------------
  General SCF calculation program by
  Eric Jon Sundstrom, Paul Horn, Yuezhi Mao, Dmitri Zuev, Alec White,
  David Stuck, Shaama M.S., Shane Yost, Joonho Lee, David Small,
  Daniel Levine, Susi Lehtola, Hugh Burton, Evgeny Epifanovsky
 -----------------------------------------------------------------------
 Exchange:  mPW91      Correlation:  PW91
 Using Euler-Maclaurin-Lebedev (99,590) quadrature formula
Running Object-Oriented UKS (UHF)
performing a single roothaan step with Fock from read density so that orbitals are available to all algorithms
energy of the guess density (C=0) -100.458314960751
We will preform up to 15 macro iterations over saddle points until a stable solution is found
Energy prior to optimization (guess energy) = -100.458015944633
Begin Timing: Total SCF Calculation
Begin Timing: SCF Single Stationary Point Calculation
begin iterations for algorithm: GDM          
the SCF tolerance is set to 1.00e-08
    1    -100.4580159446      7.54e-02     00000  Descent step
    2    -100.4322956593      9.25e-02     00000 Line search: overstep
    3    -100.4901690829      4.76e-03     00000  Normal BFGS step
    4    -100.4904227421      1.80e-03     00000  Normal BFGS step
    5    -100.4904611051      3.13e-04     00000  Normal BFGS step
    6    -100.4904617892      5.02e-05     00000  Normal BFGS step
    7    -100.4904618219      4.44e-06     00000  Normal BFGS step
    8    -100.4904618221      5.98e-07     00000  Normal BFGS step
    9    -100.4904618221      6.65e-08     00000  Normal BFGS step
   10    -100.4904618221      8.60e-08     00000  Normal BFGS step
   11    -100.4904618221      1.20e-09     00000 Convergence criterion met
Timing for Single Stationary Point: 44.00s (wall), 347.94s (cpu)
Begin Timing: Stability
===================================================
Beginning Test for Internal Stability
===================================================
generating davidson guess vectors based on koopmans excitations
    1      5.86e-01     00000 Davidson Iteration
    2      1.44e-01     00000 Davidson Iteration
    3      8.58e-03     00000 Davidson Iteration
    4      3.94e-03     00000 Davidson Iteration
    5      3.97e-04     00000 Davidson Iteration
    6      9.57e-05     00000 Davidson Iteration
    7      6.95e-05     00000 Davidson Converged
converged_eigenvalues
   0.6010
   0.6499
Threshold for negative eigenvalues: -1.0e-05
solution was a local minimum (stable)
===================================================
End Test for Internal Stability
===================================================
Our SCF solution is stable!
Timing for Total SCF: 352.00s (wall), 2791.16s (cpu)
 Total energy in the final basis set =     -100.4904618221
<S^2> =         -0.000000000
    ==================================================
              The end of Object-Oriented SCFman       
    ==================================================
 
 --------------------------------------------------------------
 
                    Orbital Energies (a.u.)
 --------------------------------------------------------------
 
 Alpha MOs
 -- Occupied --
-24.270  -1.106  -0.497  -0.356  -0.356
 -- Virtual --
 -0.038   0.036   0.040   0.040   0.042   0.094   0.101   0.101
  0.135   0.135   0.153   0.181   0.181   0.185   0.240   0.261
  0.270   0.270   0.279   0.279   0.281   0.281   0.284   0.284
  0.364   0.379   0.379   0.379   0.386   0.386   0.467   0.467
  0.477   0.477   0.485   0.485   0.501   0.535   0.535   0.545
  0.583   0.583   0.625   0.644   0.644   0.650   0.650   0.715
  0.715   0.723   0.813   0.824   0.824   0.844   0.844   0.895
  0.895   0.908   0.908   0.912   0.934   0.934   0.948   0.948
  1.047   1.153   1.153   1.174   1.174   1.186   1.240   1.240
  1.246   1.246   1.255   1.269   1.269   1.270   1.270   1.441
  1.441   1.442   1.442   1.561   1.768   1.809   1.809   1.950
  2.135   2.179   2.179   2.183   2.183   2.315   2.315   2.420
  2.596   2.596   2.713   2.713   2.995   3.128   3.128   3.217
  3.217   3.349   3.349   3.356   3.653   3.837   3.837   3.911
  3.911   4.094   4.456   4.456   4.724   5.172   5.172   5.184
  5.184   5.402   5.402   5.555   5.616   6.033   6.111   6.111
  6.131   6.131   6.427   6.427   6.865   6.968   6.968   7.127
  7.127   7.392   7.392   7.635   8.191   8.191   8.292   8.292
  8.573   8.573   8.590   9.012   9.012  10.327  10.672  10.672
 11.386  11.576  11.972  11.972  12.005  12.005  12.248  12.248
 12.367  12.367  12.637  12.637  12.697  12.697  13.063  13.063
 13.542  13.634  13.634  14.141  14.369  14.369  14.682  14.682
 14.683  14.980  14.980  15.498  15.498  15.513  15.513  16.071
 16.747  16.747  17.011  17.880  17.880  18.275  18.275  18.591
 19.405  19.405  20.126  20.126  20.315  20.315  20.333  20.333
 20.925  20.925  21.435  22.779  22.779  22.968  24.172  24.172
 28.749  30.307  30.307  30.902  30.902  34.476  40.645  41.679
 41.679  42.165  45.438  91.025  91.025  91.248  91.248  91.654
 91.654  93.089  95.247 202.566
 
 Beta MOs
 -- Occupied --
-24.270  -1.106  -0.497  -0.356  -0.356
 -- Virtual --
 -0.038   0.036   0.040   0.040   0.042   0.094   0.101   0.101
  0.135   0.135   0.153   0.181   0.181   0.185   0.240   0.261
  0.270   0.270   0.279   0.279   0.281   0.281   0.284   0.284
  0.364   0.379   0.379   0.379   0.386   0.386   0.467   0.467
  0.477   0.477   0.485   0.485   0.501   0.535   0.535   0.545
  0.583   0.583   0.625   0.644   0.644   0.650   0.650   0.715
  0.715   0.723   0.813   0.824   0.824   0.844   0.844   0.895
  0.895   0.908   0.908   0.912   0.934   0.934   0.948   0.948
  1.047   1.153   1.153   1.174   1.174   1.186   1.240   1.240
  1.246   1.246   1.255   1.269   1.269   1.270   1.270   1.441
  1.441   1.442   1.442   1.561   1.768   1.809   1.809   1.950
  2.135   2.179   2.179   2.183   2.183   2.315   2.315   2.420
  2.596   2.596   2.713   2.713   2.995   3.128   3.128   3.217
  3.217   3.349   3.349   3.356   3.653   3.837   3.837   3.911
  3.911   4.094   4.456   4.456   4.724   5.172   5.172   5.184
  5.184   5.402   5.402   5.555   5.616   6.033   6.111   6.111
  6.131   6.131   6.427   6.427   6.865   6.968   6.968   7.127
  7.127   7.392   7.392   7.635   8.191   8.191   8.292   8.292
  8.573   8.573   8.590   9.012   9.012  10.327  10.672  10.672
 11.386  11.576  11.972  11.972  12.005  12.005  12.248  12.248
 12.367  12.367  12.637  12.637  12.697  12.697  13.063  13.063
 13.542  13.634  13.634  14.141  14.369  14.369  14.682  14.682
 14.683  14.980  14.980  15.498  15.498  15.513  15.513  16.071
 16.747  16.747  17.011  17.880  17.880  18.275  18.275  18.591
 19.405  19.405  20.126  20.126  20.315  20.315  20.333  20.333
 20.925  20.925  21.435  22.779  22.779  22.968  24.172  24.172
 28.749  30.307  30.307  30.902  30.902  34.476  40.645  41.679
 41.679  42.165  45.438  91.025  91.025  91.248  91.248  91.654
 91.654  93.089  95.247 202.566
 --------------------------------------------------------------
 
          Ground-State Mulliken Net Atomic Charges

     Atom                 Charge (a.u.)    Spin (a.u.)
  --------------------------------------------------------
      1 F                    -0.317913       0.000000
      2 H                     0.317913      -0.000000
  --------------------------------------------------------
  Sum of atomic charges =    -0.000000
  Sum of spin   charges =     0.000000

 -----------------------------------------------------------------
                    Cartesian Multipole Moments
 -----------------------------------------------------------------
    Charge (ESU x 10^10)
                 0.0000
    Dipole Moment (Debye)
         X      -0.0000      Y       0.0000      Z       1.7486
       Tot       1.7486
    Quadrupole Moments (Debye-Ang)
        XX      -5.9288     XY       0.0000     YY      -5.9288
        XZ       0.0000     YZ       0.0000     ZZ      -3.5161
    Octopole Moments (Debye-Ang^2)
       XXX      -0.0000    XXY      -0.0000    XYY      -0.0000
       YYY       0.0000    XXZ      -0.4511    XYZ       0.0000
       YYZ      -0.4511    XZZ      -0.0000    YZZ       0.0000
       ZZZ       0.6736
    Hexadecapole Moments (Debye-Ang^3)
      XXXX      -4.5417   XXXY       0.0000   XXYY      -1.5139
      XYYY       0.0000   YYYY      -4.5417   XXXZ       0.0000
      XXYZ       0.0000   XYYZ       0.0000   YYYZ       0.0000
      XXZZ      -1.6959   XYZZ       0.0000   YYZZ      -1.6959
      XZZZ       0.0000   YZZZ       0.0000   ZZZZ      -3.5593
 -----------------------------------------------------------------
Archival summary:
1\1\n0054.mhg0\SP\ProcedureUnspecified\BasisUnspecified\11\yhljason\FriJul3122:22:192020FriJul3122:22:192020\0\\#,ProcedureUnspecified,BasisUnspecified,\\0,1\F\H,1,0.9168\\\@

 Total job time:  361.49s(wall), 2850.55s(cpu) 
 Fri Jul 31 22:22:19 2020

        *************************************************************
        *                                                           *
        *  Thank you very much for using Q-Chem.  Have a nice day.  *
        *                                                           *
        *************************************************************


