Q-Chem Developer Version!
                  Welcome to Q-Chem
     A Quantum Leap Into The Future Of Chemistry


 Q-Chem 5.1, Q-Chem, Inc., Pleasanton, CA (2018)

 Yihan Shao,  Zhengting Gan,  E. Epifanovsky,  A. T. B. Gilbert,  M. Wormit,  
 J. Kussmann,  A. W. Lange,  A. Behn,  Jia Deng,  Xintian Feng,  D. Ghosh,  
 M. Goldey,  P. R. Horn,  L. D. Jacobson,  I. Kaliman,  T. Kus,  A. Landau,  
 Jie Liu,  E. I. Proynov,  R. M. Richard,  R. P. Steele,  E. J. Sundstrom,  
 H. L. Woodcock III,  P. M. Zimmerman,  D. Zuev,  B. Albrecht,  E. Alguire,  
 S. A. Baeppler,  D. Barton,  Z. Benda,  Y. A. Bernard,  E. J. Berquist,  
 K. B. Bravaya,  H. Burton,  D. Casanova,  Chun-Min Chang,  Yunqing Chen,  
 A. Chien,  K. D. Closser,  M. P. Coons,  S. Coriani,  S. Dasgupta,  
 A. L. Dempwolff,  M. Diedenhofen,  Hainam Do,  R. G. Edgar,  Po-Tung Fang,  
 S. Faraji,  S. Fatehi,  Qingguo Feng,  K. D. Fenk,  J. Fosso-Tande,  
 Qinghui Ge,  A. Ghysels,  G. Gidofalvi,  J. Gomes,  J. Gonthier,  A. Gunina,  
 D. Hait,  M. W. D. Hanson-Heine,  P. H. P. Harbach,  A. W. Hauser,  
 J. E. Herr,  E. G. Hohenstein,  Z. C. Holden,  Kerwin Hui,  B. C. Huynh,  
 T.-C. Jagau,  Hyunjun Ji,  B. Kaduk,  K. Khistyaev,  Jaehoon Kim,  
 P. Klunzinger,  K. Koh,  D. Kosenkov,  L. Koulias,  T. Kowalczyk,  
 C. M. Krauter,  A. Kunitsa,  Ka Un Lao,  A. Laurent,  K. V. Lawler,  
 Joonho Lee,  D. Lefrancois,  S. Lehtola,  D. S. Levine,  Yi-Pei Li,  
 You-Sheng Lin,  Fenglai Liu,  E. Livshits,  A. Luenser,  P. Manohar,  
 E. Mansoor,  S. F. Manzer,  Shan-Ping Mao,  Yuezhi Mao,  N. Mardirossian,  
 A. V. Marenich,  T. Markovich,  L. A. Martinez-Martinez,  S. A. Maurer,  
 N. J. Mayhall,  S. C. McKenzie,  J.-M. Mewes,  A. F. Morrison,  
 J. W. Mullinax,  K. Nanda,  T. S. Nguyen-Beck,  R. Olivares-Amaya,  
 J. A. Parkhill,  T. M. Perrine,  F. Plasser,  P. Pokhilko,  S. Prager,  
 A. Prociuk,  E. Ramos,  D. R. Rehn,  F. Rob,  M. Schneider,  N. Sergueev,  
 S. M. Sharada,  S. Sharma,  D. W. Small,  T. Stauch,  T. Stein,  
 Yu-Chuan Su,  A. J. W. Thom,  A. Tkatchenko,  T. Tsuchimochi,  N. M. Tubman,  
 L. Vogt,  M. L. Vidal,  O. Vydrov,  M. A. Watson,  J. Wenzel,  
 M. de Wergifosse,  T. A. Wesolowski,  A. White,  J. Witte,  A. Yamada,  
 Jun Yang,  K. Yao,  S. Yeganeh,  S. R. Yost,  Zhi-Qiang You,  A. Zech,  
 Igor Ying Zhang,  Xing Zhang,  Yan Zhao,  Ying Zhu,  B. R. Brooks,  
 G. K. L. Chan,  C. J. Cramer,  M. S. Gordon,  W. J. Hehre,  A. Klamt,  
 M. W. Schmidt,  C. D. Sherrill,  D. G. Truhlar,  A. Aspuru-Guzik,  R. Baer,  
 A. T. Bell,  N. A. Besley,  Jeng-Da Chai,  A. E. DePrince, III,  
 R. A. DiStasio Jr.,  A. Dreuw,  B. D. Dunietz,  T. R. Furlani,  
 Chao-Ping Hsu,  Yousung Jung,  Jing Kong,  D. S. Lambrecht,  WanZhen Liang,  
 C. Ochsenfeld,  V. A. Rassolov,  L. V. Slipchenko,  J. E. Subotnik,  
 T. Van Voorhis,  J. M. Herbert,  A. I. Krylov,  P. M. W. Gill,  M. Head-Gordon

 Contributors to earlier versions of Q-Chem not listed above: 
 R. D. Adamson,  B. Austin,  J. Baker,  G. J. O. Beran,  K. Brandhorst,  
 S. T. Brown,  E. F. C. Byrd,  A. K. Chakraborty,  C.-L. Cheng,  
 Siu Hung Chien,  D. M. Chipman,  D. L. Crittenden,  H. Dachsel,  
 R. J. Doerksen,  A. D. Dutoi,  L. Fusti-Molnar,  W. A. Goddard III,  
 A. Golubeva-Zadorozhnaya,  S. R. Gwaltney,  G. Hawkins,  A. Heyden,  
 S. Hirata,  G. Kedziora,  F. J. Keil,  C. Kelley,  Jihan Kim,  R. A. King,  
 R. Z. Khaliullin,  P. P. Korambath,  W. Kurlancheek,  A. M. Lee,  M. S. Lee,  
 S. V. Levchenko,  Ching Yeh Lin,  D. Liotard,  R. C. Lochan,  I. Lotan,  
 P. E. Maslen,  N. Nair,  D. P. O'Neill,  D. Neuhauser,  E. Neuscamman,  
 C. M. Oana,  R. Olson,  B. Peters,  R. Peverati,  P. A. Pieniazek,  
 Y. M. Rhee,  J. Ritchie,  M. A. Rohrdanz,  E. Rosta,  N. J. Russ,  
 H. F. Schaefer III,  N. E. Schultz,  N. Shenvi,  A. C. Simmonett,  A. Sodt,  
 D. Stuck,  K. S. Thanthiriwatte,  V. Vanovschi,  Tao Wang,  A. Warshel,  
 C. F. Williams,  Q. Wu,  X. Xu,  W. Zhang

 Please cite Q-Chem as follows:
 Y. Shao et al., Mol. Phys. 113, 184-215 (2015)
 DOI: 10.1080/00268976.2014.952696

 Q-Chem 5.1.1 for Intel X86 EM64T Linux

 Parts of Q-Chem use Armadillo 8.300.2 (Tropical Shenanigans).
 http://arma.sourceforge.net/

 Q-Chem begins on Sat Aug  1 01:26:52 2020  

Host: n0057.mhg0
0

     Scratch files written to /local/scratch/users/yhljason/HNO_B97-D3_aug-pc-4.inp20200801012112//
Input Ideriv = 2
Curr. Ideriv = -1
Max.  Ideriv = 2

Checking the input file for inconsistencies... 	...done.

--------------------------------------------------------------
User input:
--------------------------------------------------------------
$molecule
0 1
H1      0.0000  -0.9718 0.9211
N2      0.0000  0.0648  0.5834
O3      0.0000  0.0648  -0.6256
$end

$rem
jobtype sp
method B97-D3
xc_grid 000099000590
basis aug-pc-4
max_scf_cycles 200
thresh 14
scf_convergence 8
scf_algorithm gdm
symmetry false
sym_ignore true
unrestricted true
gen_scfman true
internal_stability_iter 15
internal_stability_davidson_iter 200
mem_total 64000
mem_static 1500
n_frozen_core 0
$end


--------------------------------------------------------------
 Adding empirical dispersion correction 
 ----------------------------------------------------------------
 Doing -D3(0) with
 s6  =   1.00000
 s8  =   0.90900
 rs6 =   0.89200
 rs8 =   1.00000
 -D3 energy without 3body term =     -0.0003295590 hartrees
 ----------------------------------------------------------------
             Standard Nuclear Orientation (Angstroms)
    I     Atom           X                Y                Z
 ----------------------------------------------------------------
    1      H       0.0000000000    -0.9718000000     0.9211000000
    2      N       0.0000000000     0.0648000000     0.5834000000
    3      O       0.0000000000     0.0648000000    -0.6256000000
 ----------------------------------------------------------------
 Nuclear Repulsion Energy =    30.1821315365 hartrees
 There are        8 alpha and        8 beta electrons
 Requested basis set is aug-pc-4
 There are 90 shells and 378 basis functions

 Total QAlloc Memory Limit  64000 MB
 Mega-Array Size      1467 MB
 MEM_STATIC part      1500 MB

                       Distance Matrix (Angstroms)
             H (  1)   N (  2)
   N (  2)  1.090221
   O (  3)  1.861940  1.209000
 
 A cutoff of  1.0D-14 yielded   4070 shell pairs
 There are     72482 function pairs (    136264 Cartesian)
 
 -------------------------------------------------------
 OpenMP Integral Computing Module                       
 Release: version 1.0, May 2013, Q-Chem Inc. Pittsburgh 
 -------------------------------------------------------
 Integral Job Info:
 Integral job number is                      11
 Integral operator is                         1
 short-range coefficients                     0
 long-range coefficients              100000000
 Omega coefficients                           0
 if combine SR and LR in K                    0
 Integral screening is                        0
 Integral computing path is                   2
 max size of driver memory is           6400000
 size of driver memory is               5498286
 size of scratch memory is             29792225
 max col of scratch BK array             194481
 max len of scratch array in speh3         5572
 max len of scratch index in speh4           72
 max int batch size is                      520
 min int batch size is                       52
 fixed nKL is                                25
 max L of basis functions is                  5
 order of int derivative is                   0
 number of shells is                         90
 number of basis is                         517
 number of cartesian basis is               517
 number of contracted shell pairs          4070
 number of primitive shell pairs           8764
 maxK2 (contraction) of shell pair          121
 max number of K2 of shell pair               1
 max number of CS2 of shell pair            442
 max number of PS2 of shell pair            451
 mem total for path MDJ                  998666
 -------------------------------------------------------
 Smallest overlap matrix eigenvalue = 1.79E-06

 Scale SEOQF with 1.000000e-01/1.000000e-01/1.000000e-01

 Standard Electronic Orientation quadrupole field applied
 Nucleus-field energy     =    -0.0000000006 hartrees
 Guess from superposition of atomic densities
 Warning:  Energy on first SCF cycle will be non-variational
 SAD guess density has 16.000000 electrons

 -----------------------------------------------------------------------
  General SCF calculation program by
  Eric Jon Sundstrom, Paul Horn, Yuezhi Mao, Dmitri Zuev, Alec White,
  David Stuck, Shaama M.S., Shane Yost, Joonho Lee, David Small,
  Daniel Levine, Susi Lehtola, Hugh Burton, Evgeny Epifanovsky
 -----------------------------------------------------------------------
 Exchange:  B97-D      Correlation:  B97-D
 Using Euler-Maclaurin-Lebedev (99,590) quadrature formula
 Dispersion:   Grimme D3
Running Object-Oriented UKS (UHF)
performing a single roothaan step with Fock from read density so that orbitals are available to all algorithms
energy of the guess density (C=0) -130.675160236792
We will preform up to 15 macro iterations over saddle points until a stable solution is found
Energy prior to optimization (guess energy) = -130.440269128115
Begin Timing: Total SCF Calculation
Begin Timing: SCF Single Stationary Point Calculation
begin iterations for algorithm: GDM          
the SCF tolerance is set to 1.00e-08
    1    -130.4402691281      2.11e-01     00000  Descent step
    2    -130.3451622277      6.75e-01     00000 Line search: overstep
    3    -130.4634207569      2.42e-02     00000  Normal BFGS step
    4    -130.4630593099      3.38e-02     00000 Line search: overstep
    5    -130.4665289237      7.06e-03     00000  Normal BFGS step
    6    -130.4666946135      4.25e-03     00000  Normal BFGS step
    7    -130.4668908778      2.72e-04     00000  Normal BFGS step
    8    -130.4668922063      7.10e-05     00000  Normal BFGS step
    9    -130.4668923666      8.07e-06     00000  Normal BFGS step
   10    -130.4668923675      2.77e-06     00000  Normal BFGS step
   11    -130.4668923676      5.09e-07     00000  Normal BFGS step
   12    -130.4668923676      1.85e-07     00000  Normal BFGS step
   13    -130.4668923676      2.13e-08     00000  Normal BFGS step
   14    -130.4668923676      8.38e-08     00000  Normal BFGS step
   15    -130.4668923676      7.12e-08     00000  Normal BFGS step
   16    -130.4668923676      3.76e-09     00000 Convergence criterion met
Timing for Single Stationary Point: 301.00s (wall), 2404.62s (cpu)
Begin Timing: Stability
===================================================
Beginning Test for Internal Stability
===================================================
generating davidson guess vectors based on koopmans excitations
    1      5.23e-01     00000 Davidson Iteration
    2      6.49e-02     00000 Davidson Iteration
    3      1.08e-02     00000 Davidson Iteration
    4      6.55e-03     00000 Davidson Iteration
    5      2.26e-03     00000 Davidson Iteration
    6      1.06e-04     00000 Davidson Iteration
    7      2.32e-05     00000 Davidson Converged
converged_eigenvalues
  -0.0009
   0.1525
Threshold for negative eigenvalues: -1.0e-05
solution was a saddle point (unstable)
displacing from saddle point as requested
performing a line search along the lowest hessian eigenvector after a small displacement (1E-3) to give a non-zero gradient along this direction 
===================================================
End Test for Internal Stability
===================================================
Timing for Internal Stability: 2506.00s (wall), 20007.33s (cpu)
completed scf stability macro iteration 1
beginning next scf after displacing from saddle point
Begin Timing: SCF Single Stationary Point Calculation
begin iterations for algorithm: GDM          
the SCF tolerance is set to 1.00e-08
    1    -130.4668934615      3.13e-04     00000  Normal BFGS step
    2    -130.4668929864      1.25e-03     00000 Line search: overstep
    3    -130.4668935662      1.52e-04     00000  Normal BFGS step
    4    -130.4668935804      1.33e-04     00000  Normal BFGS step
    5    -130.4668936062      2.30e-05     00000  Normal BFGS step
    6    -130.4668936092      1.53e-05     00000  Normal BFGS step
    7    -130.4668936111      1.47e-05     00000  Normal BFGS step
    8    -130.4668936117      1.45e-05     00000  Normal BFGS step
    9    -130.4668936163      1.23e-05     00000  Normal BFGS step
   10    -130.4668936232      1.71e-05     00000  Normal BFGS step
   11    -130.4668936300      1.43e-05     00000  Normal BFGS step
   12    -130.4668936326      5.79e-06     00000  Normal BFGS step
   13    -130.4668936330      6.02e-07     00000  Normal BFGS step
   14    -130.4668936330      1.51e-07     00000  Normal BFGS step
   15    -130.4668936330      3.61e-08     00000  Normal BFGS step
   16    -130.4668936330      2.23e-08     00000  Normal BFGS step
   17    -130.4668936330      1.81e-08     00000  Normal BFGS step
   18    -130.4668936330      1.57e-09     00000 Convergence criterion met
Timing for Single Stationary Point: 338.00s (wall), 2695.23s (cpu)
Begin Timing: Stability
===================================================
Beginning Test for Internal Stability
===================================================
generating davidson guess vectors based on koopmans excitations
    1      5.29e-01     00000 Davidson Iteration
    2      1.18e-01     00000 Davidson Iteration
    3      3.19e-02     00000 Davidson Iteration
    4      6.35e-03     00000 Davidson Iteration
    5      4.09e-03     00000 Davidson Iteration
    6      1.06e-03     00000 Davidson Iteration
    7      3.13e-04     00000 Davidson Iteration
    8      4.26e-05     00000 Davidson Converged
converged_eigenvalues
   0.0018
   0.1515
Threshold for negative eigenvalues: -1.0e-05
solution was a local minimum (stable)
===================================================
End Test for Internal Stability
===================================================
Our SCF solution is stable!
Timing for Total SCF: 5872.00s (wall), 46897.49s (cpu)
 Total energy in the final basis set =     -130.4668936330
<S^2> =          0.011207096
    ==================================================
              The end of Object-Oriented SCFman       
    ==================================================
 
 --------------------------------------------------------------
 
                    Orbital Energies (a.u.)
 --------------------------------------------------------------
 
 Alpha MOs
 -- Occupied --
-18.840 -14.128  -1.096  -0.663  -0.485  -0.432  -0.405  -0.209
 -- Virtual --
 -0.161  -0.023   0.017   0.023   0.025   0.041   0.055   0.058
  0.063   0.070   0.083   0.088   0.115   0.119   0.127   0.140
  0.161   0.171   0.174   0.178   0.181   0.181   0.188   0.188
  0.194   0.199   0.223   0.226   0.239   0.251   0.254   0.284
  0.290   0.301   0.305   0.310   0.321   0.330   0.337   0.345
  0.358   0.367   0.372   0.394   0.406   0.412   0.417   0.428
  0.432   0.435   0.440   0.441   0.443   0.447   0.450   0.479
  0.485   0.487   0.518   0.519   0.523   0.533   0.536   0.554
  0.568   0.578   0.580   0.610   0.616   0.623   0.634   0.644
  0.663   0.665   0.678   0.684   0.686   0.694   0.709   0.717
  0.727   0.732   0.755   0.762   0.768   0.774   0.801   0.819
  0.823   0.840   0.841   0.855   0.859   0.869   0.870   0.879
  0.896   0.898   0.903   0.915   0.918   0.934   0.934   0.939
  0.947   0.948   0.960   0.976   0.979   0.999   1.025   1.033
  1.036   1.052   1.067   1.068   1.082   1.106   1.170   1.171
  1.180   1.181   1.198   1.223   1.243   1.256   1.272   1.286
  1.314   1.344   1.365   1.386   1.424   1.450   1.498   1.530
  1.556   1.561   1.567   1.600   1.662   1.711   1.744   1.773
  1.789   1.827   1.851   1.894   1.917   1.983   2.036   2.066
  2.075   2.124   2.136   2.180   2.184   2.307   2.368   2.374
  2.448   2.461   2.525   2.547   2.676   2.703   2.726   2.911
  2.924   2.943   2.967   3.024   3.101   3.170   3.287   3.293
  3.348   3.429   3.511   3.522   3.631   3.654   3.729   3.766
  3.856   3.874   4.032   4.085   4.122   4.144   4.151   4.209
  4.285   4.353   4.370   4.467   4.477   4.560   4.564   4.605
  4.797   4.800   4.918   4.998   5.115   5.155   5.174   5.212
  5.327   5.374   5.403   5.552   5.581   5.625   5.683   5.886
  5.967   5.973   6.023   6.075   6.175   6.291   6.361   6.405
  6.433   6.577   6.590   6.740   6.759   6.967   7.222   7.268
  7.433   7.493   7.556   7.623   7.785   7.842   8.237   8.376
  8.407   8.491   8.732   8.901   8.912   9.021   9.117   9.248
  9.265   9.379   9.450   9.523   9.726  10.036  10.060  10.256
 10.700  10.885  10.946  10.983  11.113  11.122  11.130  11.150
 11.198  11.236  11.276  11.364  11.366  11.479  11.538  11.624
 11.672  11.987  11.989  12.055  12.091  12.137  12.275  12.290
 12.322  12.450  12.656  12.669  12.672  12.738  12.825  12.842
 12.949  12.951  13.036  13.435  13.555  13.590  13.681  13.761
 14.070  14.609  14.795  14.801  14.928  14.982  15.132  15.138
 15.290  15.311  15.459  15.608  15.687  15.844  16.052  16.397
 16.698  16.705  16.887  16.945  16.963  17.084  17.103  17.156
 17.204  17.210  17.272  17.278  17.413  17.898  17.916  17.938
 18.016  18.604  18.699  18.759  18.907  19.136  19.956  20.006
 20.350  21.083  22.980  23.041  23.323  23.457  23.653  24.192
 24.431  25.381  25.840  26.021  27.272  28.877  30.751  31.830
 32.025  34.130  40.864  47.737  47.854  47.885  48.355  49.206
 66.533  66.580  67.159  67.304  68.911  90.893  90.990  92.309
105.801 143.722
 
 Beta MOs
 -- Occupied --
-18.840 -14.128  -1.096  -0.663  -0.485  -0.432  -0.405  -0.209
 -- Virtual --
 -0.161  -0.023   0.017   0.023   0.025   0.041   0.055   0.058
  0.063   0.070   0.083   0.088   0.115   0.119   0.127   0.140
  0.161   0.171   0.174   0.178   0.181   0.181   0.188   0.188
  0.194   0.199   0.223   0.226   0.239   0.251   0.254   0.284
  0.290   0.301   0.305   0.310   0.321   0.330   0.337   0.345
  0.358   0.367   0.372   0.394   0.406   0.412   0.417   0.428
  0.432   0.435   0.440   0.441   0.443   0.447   0.450   0.479
  0.485   0.487   0.518   0.519   0.523   0.533   0.536   0.554
  0.568   0.578   0.580   0.610   0.616   0.623   0.634   0.644
  0.663   0.665   0.678   0.684   0.686   0.694   0.709   0.717
  0.727   0.732   0.755   0.762   0.768   0.774   0.801   0.819
  0.823   0.840   0.841   0.855   0.859   0.869   0.870   0.879
  0.896   0.898   0.903   0.915   0.918   0.934   0.934   0.939
  0.947   0.948   0.960   0.976   0.979   0.999   1.025   1.033
  1.036   1.052   1.067   1.068   1.082   1.106   1.170   1.171
  1.180   1.181   1.198   1.223   1.243   1.256   1.272   1.286
  1.314   1.344   1.365   1.386   1.424   1.450   1.498   1.530
  1.556   1.561   1.567   1.600   1.662   1.711   1.744   1.773
  1.789   1.827   1.851   1.894   1.917   1.983   2.036   2.066
  2.075   2.124   2.136   2.180   2.184   2.307   2.368   2.374
  2.448   2.461   2.525   2.547   2.676   2.703   2.726   2.911
  2.924   2.943   2.967   3.024   3.101   3.170   3.287   3.293
  3.348   3.429   3.511   3.522   3.631   3.654   3.729   3.766
  3.856   3.874   4.032   4.085   4.122   4.144   4.151   4.209
  4.285   4.353   4.370   4.467   4.477   4.560   4.564   4.605
  4.797   4.800   4.918   4.998   5.115   5.155   5.174   5.212
  5.327   5.374   5.403   5.552   5.581   5.625   5.683   5.886
  5.967   5.973   6.023   6.075   6.175   6.291   6.361   6.405
  6.433   6.577   6.590   6.740   6.759   6.967   7.222   7.268
  7.433   7.493   7.556   7.623   7.785   7.842   8.237   8.376
  8.407   8.491   8.732   8.901   8.912   9.021   9.117   9.248
  9.265   9.379   9.450   9.523   9.726  10.036  10.060  10.256
 10.700  10.885  10.946  10.983  11.113  11.122  11.130  11.150
 11.198  11.236  11.276  11.364  11.366  11.479  11.538  11.624
 11.672  11.987  11.989  12.055  12.091  12.137  12.275  12.290
 12.322  12.450  12.656  12.669  12.672  12.738  12.825  12.842
 12.949  12.951  13.036  13.435  13.555  13.590  13.681  13.761
 14.070  14.609  14.795  14.801  14.928  14.982  15.132  15.138
 15.290  15.311  15.459  15.608  15.687  15.844  16.052  16.397
 16.698  16.705  16.887  16.945  16.963  17.084  17.103  17.156
 17.204  17.210  17.272  17.278  17.413  17.898  17.916  17.938
 18.016  18.604  18.699  18.759  18.907  19.136  19.956  20.006
 20.350  21.083  22.980  23.041  23.323  23.457  23.653  24.192
 24.431  25.381  25.840  26.021  27.272  28.877  30.751  31.830
 32.025  34.130  40.864  47.737  47.854  47.885  48.355  49.206
 66.533  66.580  67.159  67.304  68.911  90.893  90.990  92.309
105.801 143.722
 --------------------------------------------------------------
 
          Ground-State Mulliken Net Atomic Charges

     Atom                 Charge (a.u.)    Spin (a.u.)
  --------------------------------------------------------
      1 H                     0.028573       0.000000
      2 N                     0.193977       0.000000
      3 O                    -0.222550      -0.000000
  --------------------------------------------------------
  Sum of atomic charges =    -0.000000
  Sum of spin   charges =    -0.000000

 -----------------------------------------------------------------
                    Cartesian Multipole Moments
 -----------------------------------------------------------------
    Charge (ESU x 10^10)
                -0.0000
    Dipole Moment (Debye)
         X       0.0000      Y      -1.2638      Z       0.7887
       Tot       1.4897
    Quadrupole Moments (Debye-Ang)
        XX     -10.6188     XY      -0.0000     YY     -11.2972
        XZ       0.0000     YZ      -1.2795     ZZ     -12.0420
    Octopole Moments (Debye-Ang^2)
       XXX       0.0000    XXY      -0.0996    XYY      -0.0000
       YYY      -1.0559    XXZ      -0.6182    XYZ       0.0000
       YYZ      -0.1729    XZZ       0.0000    YZZ      -1.3396
       ZZZ      -1.7732
    Hexadecapole Moments (Debye-Ang^3)
      XXXX      -8.7261   XXXY      -0.0000   XXYY      -4.1096
      XYYY      -0.0000   YYYY     -15.1633   XXXZ       0.0000
      XXYZ       0.4581   XYYZ       0.0000   YYYZ       1.1705
      XXZZ      -7.5401   XYZZ      -0.0000   YYZZ      -9.5033
      XZZZ       0.0000   YZZZ       0.2626   ZZZZ     -38.1020
 -----------------------------------------------------------------
Archival summary:
1\1\n0057.mhg0\SP\ProcedureUnspecified\BasisUnspecified\111\yhljason\SatAug103:05:182020SatAug103:05:182020\0\\#,ProcedureUnspecified,BasisUnspecified,\\0,1\N\H,1,1.09022\O,1,1.209,2,108.044\\\@

 Total job time:  5905.62s(wall), 47113.01s(cpu) 
 Sat Aug  1 03:05:18 2020

        *************************************************************
        *                                                           *
        *  Thank you very much for using Q-Chem.  Have a nice day.  *
        *                                                           *
        *************************************************************


