Q-Chem Developer Version!
                  Welcome to Q-Chem
     A Quantum Leap Into The Future Of Chemistry


 Q-Chem 5.1, Q-Chem, Inc., Pleasanton, CA (2018)

 Yihan Shao,  Zhengting Gan,  E. Epifanovsky,  A. T. B. Gilbert,  M. Wormit,  
 J. Kussmann,  A. W. Lange,  A. Behn,  Jia Deng,  Xintian Feng,  D. Ghosh,  
 M. Goldey,  P. R. Horn,  L. D. Jacobson,  I. Kaliman,  T. Kus,  A. Landau,  
 Jie Liu,  E. I. Proynov,  R. M. Richard,  R. P. Steele,  E. J. Sundstrom,  
 H. L. Woodcock III,  P. M. Zimmerman,  D. Zuev,  B. Albrecht,  E. Alguire,  
 S. A. Baeppler,  D. Barton,  Z. Benda,  Y. A. Bernard,  E. J. Berquist,  
 K. B. Bravaya,  H. Burton,  D. Casanova,  Chun-Min Chang,  Yunqing Chen,  
 A. Chien,  K. D. Closser,  M. P. Coons,  S. Coriani,  S. Dasgupta,  
 A. L. Dempwolff,  M. Diedenhofen,  Hainam Do,  R. G. Edgar,  Po-Tung Fang,  
 S. Faraji,  S. Fatehi,  Qingguo Feng,  K. D. Fenk,  J. Fosso-Tande,  
 Qinghui Ge,  A. Ghysels,  G. Gidofalvi,  J. Gomes,  J. Gonthier,  A. Gunina,  
 D. Hait,  M. W. D. Hanson-Heine,  P. H. P. Harbach,  A. W. Hauser,  
 J. E. Herr,  E. G. Hohenstein,  Z. C. Holden,  Kerwin Hui,  B. C. Huynh,  
 T.-C. Jagau,  Hyunjun Ji,  B. Kaduk,  K. Khistyaev,  Jaehoon Kim,  
 P. Klunzinger,  K. Koh,  D. Kosenkov,  L. Koulias,  T. Kowalczyk,  
 C. M. Krauter,  A. Kunitsa,  Ka Un Lao,  A. Laurent,  K. V. Lawler,  
 Joonho Lee,  D. Lefrancois,  S. Lehtola,  D. S. Levine,  Yi-Pei Li,  
 You-Sheng Lin,  Fenglai Liu,  E. Livshits,  A. Luenser,  P. Manohar,  
 E. Mansoor,  S. F. Manzer,  Shan-Ping Mao,  Yuezhi Mao,  N. Mardirossian,  
 A. V. Marenich,  T. Markovich,  L. A. Martinez-Martinez,  S. A. Maurer,  
 N. J. Mayhall,  S. C. McKenzie,  J.-M. Mewes,  A. F. Morrison,  
 J. W. Mullinax,  K. Nanda,  T. S. Nguyen-Beck,  R. Olivares-Amaya,  
 J. A. Parkhill,  T. M. Perrine,  F. Plasser,  P. Pokhilko,  S. Prager,  
 A. Prociuk,  E. Ramos,  D. R. Rehn,  F. Rob,  M. Schneider,  N. Sergueev,  
 S. M. Sharada,  S. Sharma,  D. W. Small,  T. Stauch,  T. Stein,  
 Yu-Chuan Su,  A. J. W. Thom,  A. Tkatchenko,  T. Tsuchimochi,  N. M. Tubman,  
 L. Vogt,  M. L. Vidal,  O. Vydrov,  M. A. Watson,  J. Wenzel,  
 M. de Wergifosse,  T. A. Wesolowski,  A. White,  J. Witte,  A. Yamada,  
 Jun Yang,  K. Yao,  S. Yeganeh,  S. R. Yost,  Zhi-Qiang You,  A. Zech,  
 Igor Ying Zhang,  Xing Zhang,  Yan Zhao,  Ying Zhu,  B. R. Brooks,  
 G. K. L. Chan,  C. J. Cramer,  M. S. Gordon,  W. J. Hehre,  A. Klamt,  
 M. W. Schmidt,  C. D. Sherrill,  D. G. Truhlar,  A. Aspuru-Guzik,  R. Baer,  
 A. T. Bell,  N. A. Besley,  Jeng-Da Chai,  A. E. DePrince, III,  
 R. A. DiStasio Jr.,  A. Dreuw,  B. D. Dunietz,  T. R. Furlani,  
 Chao-Ping Hsu,  Yousung Jung,  Jing Kong,  D. S. Lambrecht,  WanZhen Liang,  
 C. Ochsenfeld,  V. A. Rassolov,  L. V. Slipchenko,  J. E. Subotnik,  
 T. Van Voorhis,  J. M. Herbert,  A. I. Krylov,  P. M. W. Gill,  M. Head-Gordon

 Contributors to earlier versions of Q-Chem not listed above: 
 R. D. Adamson,  B. Austin,  J. Baker,  G. J. O. Beran,  K. Brandhorst,  
 S. T. Brown,  E. F. C. Byrd,  A. K. Chakraborty,  C.-L. Cheng,  
 Siu Hung Chien,  D. M. Chipman,  D. L. Crittenden,  H. Dachsel,  
 R. J. Doerksen,  A. D. Dutoi,  L. Fusti-Molnar,  W. A. Goddard III,  
 A. Golubeva-Zadorozhnaya,  S. R. Gwaltney,  G. Hawkins,  A. Heyden,  
 S. Hirata,  G. Kedziora,  F. J. Keil,  C. Kelley,  Jihan Kim,  R. A. King,  
 R. Z. Khaliullin,  P. P. Korambath,  W. Kurlancheek,  A. M. Lee,  M. S. Lee,  
 S. V. Levchenko,  Ching Yeh Lin,  D. Liotard,  R. C. Lochan,  I. Lotan,  
 P. E. Maslen,  N. Nair,  D. P. O'Neill,  D. Neuhauser,  E. Neuscamman,  
 C. M. Oana,  R. Olson,  B. Peters,  R. Peverati,  P. A. Pieniazek,  
 Y. M. Rhee,  J. Ritchie,  M. A. Rohrdanz,  E. Rosta,  N. J. Russ,  
 H. F. Schaefer III,  N. E. Schultz,  N. Shenvi,  A. C. Simmonett,  A. Sodt,  
 D. Stuck,  K. S. Thanthiriwatte,  V. Vanovschi,  Tao Wang,  A. Warshel,  
 C. F. Williams,  Q. Wu,  X. Xu,  W. Zhang

 Please cite Q-Chem as follows:
 Y. Shao et al., Mol. Phys. 113, 184-215 (2015)
 DOI: 10.1080/00268976.2014.952696

 Q-Chem 5.1.1 for Intel X86 EM64T Linux

 Parts of Q-Chem use Armadillo 8.300.2 (Tropical Shenanigans).
 http://arma.sourceforge.net/

 Q-Chem begins on Thu Jul 16 01:38:53 2020  

Host: n0070.mhg0
0

     Scratch files written to /local/scratch/users/yhljason/HNS_Slater_aug-pc-4.inp20200716013827//
Input Ideriv = 2
Curr. Ideriv = -1
Max.  Ideriv = 2

Checking the input file for inconsistencies... 	...done.

--------------------------------------------------------------
User input:
--------------------------------------------------------------
$molecule
0 1
N         1.0375899124    0.1438382012    0.0000000000
S        -0.5437813358   -0.0126986493    0.0000000000
H         1.4373719861   -0.8036890193    0.0000000000
$end

$rem
jobtype sp
exchange slater
xc_grid 000099000590
basis aug-pc-4
max_scf_cycles 200
thresh 14
scf_convergence 8
scf_algorithm gdm
symmetry false
sym_ignore true
unrestricted true
gen_scfman true
internal_stability_iter 15
internal_stability_davidson_iter 200
mem_total 64000
mem_static 1500
n_frozen_core 0
$end


--------------------------------------------------------------
 ----------------------------------------------------------------
             Standard Nuclear Orientation (Angstroms)
    I     Atom           X                Y                Z
 ----------------------------------------------------------------
    1      N       1.0375899124     0.1438382012     0.0000000000
    2      S      -0.5437813358    -0.0126986493     0.0000000000
    3      H       1.4373719861    -0.8036890193     0.0000000000
 ----------------------------------------------------------------
 Nuclear Repulsion Energy =    44.8674233833 hartrees
 There are       12 alpha and       12 beta electrons
 Requested basis set is aug-pc-4
 There are 88 shells and 374 basis functions

 Total QAlloc Memory Limit  64000 MB
 Mega-Array Size      1467 MB
 MEM_STATIC part      1500 MB

                       Distance Matrix (Angstroms)
             N (  1)   S (  2)
   S (  2)  1.589100
   H (  3)  1.028413  2.133222
 
 A cutoff of  1.0D-14 yielded   3888 shell pairs
 There are     70868 function pairs (    134013 Cartesian)
 
 -------------------------------------------------------
 OpenMP Integral Computing Module                       
 Release: version 1.0, May 2013, Q-Chem Inc. Pittsburgh 
 -------------------------------------------------------
 Integral Job Info:
 Integral job number is                      11
 Integral operator is                         1
 short-range coefficients                     0
 long-range coefficients              100000000
 Omega coefficients                           0
 if combine SR and LR in K                    0
 Integral screening is                        0
 Integral computing path is                   2
 max size of driver memory is           6400000
 size of driver memory is               5498286
 size of scratch memory is             27847117
 max col of scratch BK array             194481
 max len of scratch array in speh3         5572
 max len of scratch index in speh4           72
 max int batch size is                      520
 min int batch size is                       52
 fixed nKL is                                 7
 max L of basis functions is                  5
 order of int derivative is                   0
 number of shells is                         88
 number of basis is                         513
 number of cartesian basis is               513
 number of contracted shell pairs          3888
 number of primitive shell pairs          12706
 maxK2 (contraction) of shell pair          225
 max number of K2 of shell pair               1
 max number of CS2 of shell pair            365
 max number of PS2 of shell pair            583
 mem total for path MDJ                  998666
 -------------------------------------------------------
 Smallest overlap matrix eigenvalue = 2.51E-06

 Scale SEOQF with 1.000000e-01/1.000000e-01/1.000000e-01

 Standard Electronic Orientation quadrupole field applied
 Nucleus-field energy     =     0.0000000006 hartrees
 Guess from superposition of atomic densities
 Warning:  Energy on first SCF cycle will be non-variational
 SAD guess density has 24.000000 electrons

 -----------------------------------------------------------------------
  General SCF calculation program by
  Eric Jon Sundstrom, Paul Horn, Yuezhi Mao, Dmitri Zuev, Alec White,
  David Stuck, Shaama M.S., Shane Yost, Joonho Lee, David Small,
  Daniel Levine, Susi Lehtola, Hugh Burton, Evgeny Epifanovsky
 -----------------------------------------------------------------------
 Exchange:  Slater     
 Using Euler-Maclaurin-Lebedev (99,590) quadrature formula
Running Object-Oriented UKS (UHF)
performing a single roothaan step with Fock from read density so that orbitals are available to all algorithms
energy of the guess density (C=0) -450.117097547566
We will preform up to 15 macro iterations over saddle points until a stable solution is found
Energy prior to optimization (guess energy) = -449.902136260027
Begin Timing: Total SCF Calculation
Begin Timing: SCF Single Stationary Point Calculation
begin iterations for algorithm: GDM          
the SCF tolerance is set to 1.00e-08
    1    -449.9021362600      4.27e-01     00000  Descent step
    2    -449.7773228298      1.15e+00     00000 Line search: overstep
    3    -449.9473420858      2.27e-02     00000  Normal BFGS step
    4    -449.9489110655      2.53e-02     00000  Normal BFGS step
    5    -449.9521237724      2.77e-03     00000  Normal BFGS step
    6    -449.9522273414      1.62e-03     00000  Normal BFGS step
    7    -449.9522682764      4.13e-04     00000  Normal BFGS step
    8    -449.9522698233      1.69e-04     00000  Normal BFGS step
    9    -449.9522704467      1.90e-05     00000  Normal BFGS step
   10    -449.9522704488      1.73e-05     00000  Normal BFGS step
   11    -449.9522704530      1.48e-06     00000  Normal BFGS step
   12    -449.9522704531      8.19e-07     00000  Normal BFGS step
   13    -449.9522704531      5.13e-08     00000  Normal BFGS step
   14    -449.9522704531      2.51e-08     00000  Normal BFGS step
   15    -449.9522704531      1.56e-08     00000  Normal BFGS step
   16    -449.9522704531      6.93e-08     00000  Normal BFGS step
   17    -449.9522704531      7.54e-09     00000 Convergence criterion met
Timing for Single Stationary Point: 508.00s (wall), 4015.68s (cpu)
Begin Timing: Stability
===================================================
Beginning Test for Internal Stability
===================================================
generating davidson guess vectors based on koopmans excitations
    1      6.71e-01     00000 Davidson Iteration
    2      1.06e-01     00000 Davidson Iteration
    3      9.52e-03     00000 Davidson Iteration
    4      2.56e-03     00000 Davidson Iteration
    5      6.88e-04     00000 Davidson Iteration
    6      1.05e-04     00000 Davidson Iteration
    7      2.89e-05     00000 Davidson Converged
converged_eigenvalues
  -0.0441
   0.0834
Threshold for negative eigenvalues: -1.0e-05
solution was a saddle point (unstable)
displacing from saddle point as requested
performing a line search along the lowest hessian eigenvector after a small displacement (1E-3) to give a non-zero gradient along this direction 
===================================================
End Test for Internal Stability
===================================================
Timing for Internal Stability: 3145.00s (wall), 24942.66s (cpu)
completed scf stability macro iteration 1
beginning next scf after displacing from saddle point
Begin Timing: SCF Single Stationary Point Calculation
begin iterations for algorithm: GDM          
the SCF tolerance is set to 1.00e-08
    1    -449.9552709808      1.75e-02     00000  Normal BFGS step
    2    -449.9516574554      7.86e-02     00000 Line search: overstep
    3    -449.9556393682      6.20e-03     00000  Normal BFGS step
    4    -449.9558348716      5.17e-03     00000  Normal BFGS step
    5    -449.9558976845      1.64e-03     00000  Normal BFGS step
    6    -449.9559064819      4.47e-04     00000  Normal BFGS step
    7    -449.9559092694      1.24e-04     00000  Normal BFGS step
    8    -449.9559093958      5.81e-05     00000  Normal BFGS step
    9    -449.9559094368      1.51e-05     00000  Normal BFGS step
   10    -449.9559094407      6.43e-06     00000  Normal BFGS step
   11    -449.9559094416      2.43e-06     00000  Normal BFGS step
   12    -449.9559094417      1.01e-06     00000  Normal BFGS step
   13    -449.9559094417      1.57e-07     00000  Normal BFGS step
   14    -449.9559094417      3.59e-08     00000  Normal BFGS step
   15    -449.9559094417      8.23e-09     00000 Convergence criterion met
Timing for Single Stationary Point: 442.00s (wall), 3499.49s (cpu)
Begin Timing: Stability
===================================================
Beginning Test for Internal Stability
===================================================
generating davidson guess vectors based on koopmans excitations
    1      6.87e-01     00000 Davidson Iteration
    2      5.29e-01     00000 Davidson Iteration
    3      3.50e-02     00000 Davidson Iteration
    4      2.99e-02     00000 Davidson Iteration
    5      8.14e-03     00000 Davidson Iteration
    6      7.13e-03     00000 Davidson Iteration
    7      3.65e-04     00000 Davidson Iteration
    8      7.12e-05     00000 Davidson Iteration
    9      1.11e-04     00000 Davidson Iteration
   10      2.91e-05     00000 Davidson Converged
converged_eigenvalues
   0.0531
   0.0732
Threshold for negative eigenvalues: -1.0e-05
solution was a local minimum (stable)
===================================================
End Test for Internal Stability
===================================================
Our SCF solution is stable!
Timing for Total SCF: 8080.00s (wall), 64212.87s (cpu)
 Total energy in the final basis set =     -449.9559094417
<S^2> =          0.552140104
    ==================================================
              The end of Object-Oriented SCFman       
    ==================================================
 
 --------------------------------------------------------------
 
                    Orbital Energies (a.u.)
 --------------------------------------------------------------
 
 Alpha MOs
 -- Occupied --
-87.668 -13.856  -7.624  -5.678  -5.676  -5.668  -0.801  -0.544
 -0.380  -0.303  -0.284  -0.163
 -- Virtual --
 -0.129  -0.012   0.008   0.024   0.026   0.035   0.048   0.053
  0.056   0.062   0.070   0.080   0.096   0.106   0.110   0.120
  0.129   0.136   0.143   0.148   0.150   0.165   0.169   0.181
  0.183   0.189   0.200   0.200   0.218   0.221   0.227   0.238
  0.239   0.253   0.256   0.264   0.271   0.274   0.284   0.289
  0.291   0.299   0.338   0.339   0.354   0.357   0.360   0.363
  0.374   0.377   0.397   0.404   0.413   0.424   0.432   0.435
  0.442   0.446   0.456   0.462   0.464   0.466   0.469   0.479
  0.481   0.481   0.517   0.519   0.526   0.528   0.529   0.539
  0.545   0.555   0.565   0.572   0.577   0.589   0.596   0.605
  0.606   0.614   0.626   0.654   0.657   0.671   0.690   0.694
  0.710   0.716   0.717   0.744   0.760   0.762   0.772   0.773
  0.775   0.787   0.790   0.799   0.801   0.804   0.812   0.814
  0.824   0.833   0.847   0.858   0.865   0.871   0.879   0.891
  0.895   0.902   0.922   0.931   0.950   0.952   0.957   0.971
  0.981   0.984   0.987   0.999   1.013   1.039   1.042   1.048
  1.053   1.059   1.084   1.114   1.120   1.135   1.186   1.244
  1.252   1.292   1.310   1.401   1.404   1.429   1.471   1.478
  1.499   1.524   1.559   1.561   1.579   1.593   1.628   1.656
  1.689   1.717   1.745   1.817   1.830   1.850   1.867   1.900
  1.986   2.062   2.123   2.172   2.216   2.245   2.255   2.321
  2.373   2.395   2.405   2.536   2.581   2.613   2.617   2.692
  2.703   2.706   2.778   2.863   2.898   3.001   3.046   3.079
  3.126   3.154   3.169   3.210   3.267   3.326   3.346   3.360
  3.368   3.439   3.457   3.512   3.527   3.556   3.559   3.584
  3.627   3.645   3.729   3.780   3.847   3.900   3.903   3.971
  3.984   4.043   4.200   4.298   4.338   4.376   4.616   4.655
  4.676   4.815   4.909   4.958   5.001   5.072   5.166   5.173
  5.193   5.195   5.234   5.343   5.414   5.484   5.606   5.634
  5.653   5.664   5.756   5.764   5.860   5.940   6.019   6.114
  6.127   6.230   6.275   6.323   6.416   6.424   6.559   6.753
  6.788   6.813   7.080   7.433   7.437   7.596   7.634   7.859
  7.942   8.219   8.224   8.258   8.319   8.371   8.469   8.485
  8.525   8.654   8.727   8.828   8.895   8.967   9.093   9.121
  9.458   9.645   9.804   9.954  10.125  11.299  11.351  11.362
 11.398  11.440  11.460  11.474  11.483  11.489  11.524  11.538
 11.553  11.561  11.634  11.636  11.724  11.804  11.904  11.955
 11.997  12.475  12.476  12.603  12.726  12.760  12.849  12.934
 13.680  13.728  13.970  14.165  14.721  14.825  15.060  15.181
 15.247  15.333  15.435  15.807  15.889  16.137  16.174  16.648
 16.755  16.758  16.877  16.946  16.946  17.015  17.078  17.203
 17.312  17.353  17.438  17.553  18.002  19.044  19.103  19.158
 20.485  20.652  21.009  23.454  23.512  23.617  25.664  26.107
 27.052  28.017  30.410  41.335  47.826  47.961  47.994  48.273
 48.865  62.394  62.397  62.470  62.531  63.071  91.067  91.180
 92.815 104.529
 
 Beta MOs
 -- Occupied --
-87.668 -13.856  -7.624  -5.678  -5.676  -5.668  -0.801  -0.544
 -0.380  -0.303  -0.284  -0.163
 -- Virtual --
 -0.129  -0.012   0.008   0.024   0.026   0.035   0.048   0.053
  0.056   0.062   0.070   0.080   0.096   0.106   0.110   0.120
  0.129   0.136   0.143   0.148   0.150   0.165   0.169   0.181
  0.183   0.189   0.200   0.200   0.218   0.221   0.227   0.238
  0.239   0.253   0.256   0.264   0.271   0.274   0.284   0.289
  0.291   0.299   0.338   0.339   0.354   0.357   0.360   0.363
  0.374   0.377   0.397   0.404   0.413   0.424   0.432   0.435
  0.442   0.446   0.456   0.462   0.464   0.466   0.469   0.479
  0.481   0.481   0.517   0.519   0.526   0.528   0.529   0.539
  0.545   0.555   0.565   0.572   0.577   0.589   0.596   0.605
  0.606   0.614   0.626   0.654   0.657   0.671   0.690   0.694
  0.710   0.716   0.717   0.744   0.760   0.762   0.772   0.773
  0.775   0.787   0.790   0.799   0.801   0.804   0.812   0.814
  0.824   0.833   0.847   0.858   0.865   0.871   0.879   0.891
  0.895   0.902   0.922   0.931   0.950   0.952   0.957   0.971
  0.981   0.984   0.987   0.999   1.013   1.039   1.042   1.048
  1.053   1.059   1.084   1.114   1.120   1.135   1.186   1.244
  1.252   1.292   1.310   1.401   1.404   1.429   1.471   1.478
  1.499   1.524   1.559   1.561   1.579   1.593   1.628   1.656
  1.689   1.717   1.745   1.817   1.830   1.850   1.867   1.900
  1.986   2.062   2.123   2.172   2.216   2.245   2.255   2.321
  2.373   2.395   2.405   2.536   2.581   2.613   2.617   2.692
  2.703   2.706   2.778   2.863   2.898   3.001   3.046   3.079
  3.126   3.154   3.169   3.210   3.267   3.326   3.346   3.360
  3.368   3.439   3.457   3.512   3.527   3.556   3.559   3.584
  3.627   3.645   3.729   3.780   3.847   3.900   3.903   3.971
  3.984   4.043   4.200   4.298   4.338   4.376   4.616   4.655
  4.676   4.815   4.909   4.958   5.001   5.072   5.166   5.173
  5.193   5.195   5.234   5.343   5.414   5.484   5.606   5.634
  5.653   5.664   5.756   5.764   5.860   5.940   6.019   6.114
  6.127   6.230   6.275   6.323   6.416   6.424   6.559   6.753
  6.788   6.813   7.080   7.433   7.437   7.596   7.634   7.859
  7.942   8.219   8.224   8.258   8.319   8.371   8.469   8.485
  8.525   8.654   8.727   8.828   8.895   8.967   9.093   9.121
  9.458   9.645   9.804   9.954  10.125  11.299  11.351  11.362
 11.398  11.440  11.460  11.474  11.483  11.489  11.524  11.538
 11.553  11.561  11.634  11.636  11.724  11.804  11.904  11.955
 11.997  12.475  12.476  12.603  12.726  12.760  12.849  12.934
 13.680  13.728  13.970  14.165  14.721  14.825  15.060  15.181
 15.247  15.333  15.435  15.807  15.889  16.137  16.174  16.648
 16.755  16.758  16.877  16.946  16.946  17.015  17.078  17.203
 17.312  17.353  17.438  17.553  18.002  19.044  19.103  19.158
 20.485  20.652  21.009  23.454  23.512  23.617  25.664  26.107
 27.052  28.017  30.410  41.335  47.826  47.961  47.994  48.273
 48.865  62.394  62.397  62.470  62.531  63.071  91.067  91.180
 92.815 104.529
 --------------------------------------------------------------
 
          Ground-State Mulliken Net Atomic Charges

     Atom                 Charge (a.u.)    Spin (a.u.)
  --------------------------------------------------------
      1 N                    -0.269395       0.000000
      2 S                     0.043072      -0.000000
      3 H                     0.226324      -0.000000
  --------------------------------------------------------
  Sum of atomic charges =    -0.000000
  Sum of spin   charges =     0.000000

 -----------------------------------------------------------------
                    Cartesian Multipole Moments
 -----------------------------------------------------------------
    Charge (ESU x 10^10)
                 0.0000
    Dipole Moment (Debye)
         X       0.0198      Y      -1.3542      Z      -0.0000
       Tot       1.3544
    Quadrupole Moments (Debye-Ang)
        XX     -18.9045     XY      -2.3738     YY     -20.2077
        XZ      -0.0000     YZ      -0.0000     ZZ     -19.1867
    Octopole Moments (Debye-Ang^2)
       XXX      -0.2176    XXY      -4.0279    XYY       2.3176
       YYY      -1.3559    XXZ      -0.0000    XYZ       0.0000
       YYZ       0.0000    XZZ      -0.4031    YZZ      -0.1868
       ZZZ      -0.0000
    Hexadecapole Moments (Debye-Ang^3)
      XXXX     -91.2420   XXXY      -6.6010   XXYY     -21.1834
      XYYY      -3.4356   YYYY     -32.0856   XXXZ      -0.0000
      XXYZ      -0.0000   XYYZ      -0.0000   YYYZ      -0.0000
      XXZZ     -19.8837   XYZZ      -0.6260   YYZZ      -9.5928
      XZZZ      -0.0000   YZZZ      -0.0000   ZZZZ     -24.1848
 -----------------------------------------------------------------
Archival summary:
1\1\n0070.mhg0\SP\ProcedureUnspecified\BasisUnspecified\111\yhljason\ThuJul1603:54:222020ThuJul1603:54:222020\0\\#,ProcedureUnspecified,BasisUnspecified,\\0,1\S\N,1,1.5891\H,2,1.02841,1,107.223\\\@

 Total job time:  8129.30s(wall), 64552.74s(cpu) 
 Thu Jul 16 03:54:22 2020

        *************************************************************
        *                                                           *
        *  Thank you very much for using Q-Chem.  Have a nice day.  *
        *                                                           *
        *************************************************************


