Q-Chem Developer Version!
                  Welcome to Q-Chem
     A Quantum Leap Into The Future Of Chemistry


 Q-Chem 5.1, Q-Chem, Inc., Pleasanton, CA (2018)

 Yihan Shao,  Zhengting Gan,  E. Epifanovsky,  A. T. B. Gilbert,  M. Wormit,  
 J. Kussmann,  A. W. Lange,  A. Behn,  Jia Deng,  Xintian Feng,  D. Ghosh,  
 M. Goldey,  P. R. Horn,  L. D. Jacobson,  I. Kaliman,  T. Kus,  A. Landau,  
 Jie Liu,  E. I. Proynov,  R. M. Richard,  R. P. Steele,  E. J. Sundstrom,  
 H. L. Woodcock III,  P. M. Zimmerman,  D. Zuev,  B. Albrecht,  E. Alguire,  
 S. A. Baeppler,  D. Barton,  Z. Benda,  Y. A. Bernard,  E. J. Berquist,  
 K. B. Bravaya,  H. Burton,  D. Casanova,  Chun-Min Chang,  Yunqing Chen,  
 A. Chien,  K. D. Closser,  M. P. Coons,  S. Coriani,  S. Dasgupta,  
 A. L. Dempwolff,  M. Diedenhofen,  Hainam Do,  R. G. Edgar,  Po-Tung Fang,  
 S. Faraji,  S. Fatehi,  Qingguo Feng,  K. D. Fenk,  J. Fosso-Tande,  
 Qinghui Ge,  A. Ghysels,  G. Gidofalvi,  J. Gomes,  J. Gonthier,  A. Gunina,  
 D. Hait,  M. W. D. Hanson-Heine,  P. H. P. Harbach,  A. W. Hauser,  
 J. E. Herr,  E. G. Hohenstein,  Z. C. Holden,  Kerwin Hui,  B. C. Huynh,  
 T.-C. Jagau,  Hyunjun Ji,  B. Kaduk,  K. Khistyaev,  Jaehoon Kim,  
 P. Klunzinger,  K. Koh,  D. Kosenkov,  L. Koulias,  T. Kowalczyk,  
 C. M. Krauter,  A. Kunitsa,  Ka Un Lao,  A. Laurent,  K. V. Lawler,  
 Joonho Lee,  D. Lefrancois,  S. Lehtola,  D. S. Levine,  Yi-Pei Li,  
 You-Sheng Lin,  Fenglai Liu,  E. Livshits,  A. Luenser,  P. Manohar,  
 E. Mansoor,  S. F. Manzer,  Shan-Ping Mao,  Yuezhi Mao,  N. Mardirossian,  
 A. V. Marenich,  T. Markovich,  L. A. Martinez-Martinez,  S. A. Maurer,  
 N. J. Mayhall,  S. C. McKenzie,  J.-M. Mewes,  A. F. Morrison,  
 J. W. Mullinax,  K. Nanda,  T. S. Nguyen-Beck,  R. Olivares-Amaya,  
 J. A. Parkhill,  T. M. Perrine,  F. Plasser,  P. Pokhilko,  S. Prager,  
 A. Prociuk,  E. Ramos,  D. R. Rehn,  F. Rob,  M. Schneider,  N. Sergueev,  
 S. M. Sharada,  S. Sharma,  D. W. Small,  T. Stauch,  T. Stein,  
 Yu-Chuan Su,  A. J. W. Thom,  A. Tkatchenko,  T. Tsuchimochi,  N. M. Tubman,  
 L. Vogt,  M. L. Vidal,  O. Vydrov,  M. A. Watson,  J. Wenzel,  
 M. de Wergifosse,  T. A. Wesolowski,  A. White,  J. Witte,  A. Yamada,  
 Jun Yang,  K. Yao,  S. Yeganeh,  S. R. Yost,  Zhi-Qiang You,  A. Zech,  
 Igor Ying Zhang,  Xing Zhang,  Yan Zhao,  Ying Zhu,  B. R. Brooks,  
 G. K. L. Chan,  C. J. Cramer,  M. S. Gordon,  W. J. Hehre,  A. Klamt,  
 M. W. Schmidt,  C. D. Sherrill,  D. G. Truhlar,  A. Aspuru-Guzik,  R. Baer,  
 A. T. Bell,  N. A. Besley,  Jeng-Da Chai,  A. E. DePrince, III,  
 R. A. DiStasio Jr.,  A. Dreuw,  B. D. Dunietz,  T. R. Furlani,  
 Chao-Ping Hsu,  Yousung Jung,  Jing Kong,  D. S. Lambrecht,  WanZhen Liang,  
 C. Ochsenfeld,  V. A. Rassolov,  L. V. Slipchenko,  J. E. Subotnik,  
 T. Van Voorhis,  J. M. Herbert,  A. I. Krylov,  P. M. W. Gill,  M. Head-Gordon

 Contributors to earlier versions of Q-Chem not listed above: 
 R. D. Adamson,  B. Austin,  J. Baker,  G. J. O. Beran,  K. Brandhorst,  
 S. T. Brown,  E. F. C. Byrd,  A. K. Chakraborty,  C.-L. Cheng,  
 Siu Hung Chien,  D. M. Chipman,  D. L. Crittenden,  H. Dachsel,  
 R. J. Doerksen,  A. D. Dutoi,  L. Fusti-Molnar,  W. A. Goddard III,  
 A. Golubeva-Zadorozhnaya,  S. R. Gwaltney,  G. Hawkins,  A. Heyden,  
 S. Hirata,  G. Kedziora,  F. J. Keil,  C. Kelley,  Jihan Kim,  R. A. King,  
 R. Z. Khaliullin,  P. P. Korambath,  W. Kurlancheek,  A. M. Lee,  M. S. Lee,  
 S. V. Levchenko,  Ching Yeh Lin,  D. Liotard,  R. C. Lochan,  I. Lotan,  
 P. E. Maslen,  N. Nair,  D. P. O'Neill,  D. Neuhauser,  E. Neuscamman,  
 C. M. Oana,  R. Olson,  B. Peters,  R. Peverati,  P. A. Pieniazek,  
 Y. M. Rhee,  J. Ritchie,  M. A. Rohrdanz,  E. Rosta,  N. J. Russ,  
 H. F. Schaefer III,  N. E. Schultz,  N. Shenvi,  A. C. Simmonett,  A. Sodt,  
 D. Stuck,  K. S. Thanthiriwatte,  V. Vanovschi,  Tao Wang,  A. Warshel,  
 C. F. Williams,  Q. Wu,  X. Xu,  W. Zhang

 Please cite Q-Chem as follows:
 Y. Shao et al., Mol. Phys. 113, 184-215 (2015)
 DOI: 10.1080/00268976.2014.952696

 Q-Chem 5.1.1 for Intel X86 EM64T Linux

 Parts of Q-Chem use Armadillo 8.300.2 (Tropical Shenanigans).
 http://arma.sourceforge.net/

 Q-Chem begins on Thu Jul 23 03:44:40 2020  

Host: n0030.mhg0
0

     Scratch files written to /local/scratch/users/yhljason/N2H2_BLYP_aug-pc-4.inp20200723033853//
Input Ideriv = 2
Curr. Ideriv = -1
Max.  Ideriv = 2

Checking the input file for inconsistencies... 	...done.

--------------------------------------------------------------
User input:
--------------------------------------------------------------
$molecule
0 1
          N       0.0000000000     0.0000000000     0.0000000000
          H       0.0000000000     0.0000000000     1.0337770000
          N       1.1649590602     0.0000000000    -0.4597566182
          H       1.8709666930     0.0000000000     0.2953911212
$end

$rem
jobtype sp
method BLYP
xc_grid 000099000590
basis aug-pc-4
max_scf_cycles 200
thresh 14
scf_convergence 8
scf_algorithm gdm
symmetry false
sym_ignore true
unrestricted true
gen_scfman true
internal_stability_iter 15
internal_stability_davidson_iter 200
mem_total 64000
mem_static 1500
n_frozen_core 0
$end


--------------------------------------------------------------
 ----------------------------------------------------------------
             Standard Nuclear Orientation (Angstroms)
    I     Atom           X                Y                Z
 ----------------------------------------------------------------
    1      N       0.0000000000     0.0000000000     0.0000000000
    2      H       0.0000000000     0.0000000000     1.0337770000
    3      N       1.1649590602     0.0000000000    -0.4597566182
    4      H       1.8709666930     0.0000000000     0.2953911212
 ----------------------------------------------------------------
 Nuclear Repulsion Energy =    32.0447651677 hartrees
 There are        8 alpha and        8 beta electrons
 Requested basis set is aug-pc-4
 There are 114 shells and 466 basis functions

 Total QAlloc Memory Limit  64000 MB
 Mega-Array Size      1467 MB
 MEM_STATIC part      1500 MB

                       Distance Matrix (Angstroms)
             N (  1)   H (  2)   N (  3)
   H (  2)  1.033777
   N (  3)  1.252400  1.894142
   H (  4)  1.894142  2.011400  1.033777
 
 A cutoff of  1.0D-14 yielded   6501 shell pairs
 There are    109677 function pairs (    201327 Cartesian)
 
 -------------------------------------------------------
 OpenMP Integral Computing Module                       
 Release: version 1.0, May 2013, Q-Chem Inc. Pittsburgh 
 -------------------------------------------------------
 Integral Job Info:
 Integral job number is                      11
 Integral operator is                         1
 short-range coefficients                     0
 long-range coefficients              100000000
 Omega coefficients                           0
 if combine SR and LR in K                    0
 Integral screening is                        0
 Integral computing path is                   2
 max size of driver memory is           6400000
 size of driver memory is               5498286
 size of scratch memory is             29792225
 max col of scratch BK array             194481
 max len of scratch array in speh3         5572
 max len of scratch index in speh4           72
 max int batch size is                      520
 min int batch size is                       52
 fixed nKL is                                25
 max L of basis functions is                  5
 order of int derivative is                   0
 number of shells is                        114
 number of basis is                         630
 number of cartesian basis is               630
 number of contracted shell pairs          6501
 number of primitive shell pairs          12611
 maxK2 (contraction) of shell pair          121
 max number of K2 of shell pair               1
 max number of CS2 of shell pair            786
 max number of PS2 of shell pair            786
 mem total for path MDJ                 1105572
 -------------------------------------------------------
 Smallest overlap matrix eigenvalue = 1.23E-07
 Linear dependence detected in AO basis
 Number of orthogonalized atomic orbitals = 464
 Maximum deviation from orthogonality = 4.370E-10

 Scale SEOQF with 1.000000e-01/1.000000e-01/1.000000e-01

 Standard Electronic Orientation quadrupole field applied
 Nucleus-field energy     =     0.0000000002 hartrees
 Guess from superposition of atomic densities
 Warning:  Energy on first SCF cycle will be non-variational
 SAD guess density has 16.000000 electrons

 -----------------------------------------------------------------------
  General SCF calculation program by
  Eric Jon Sundstrom, Paul Horn, Yuezhi Mao, Dmitri Zuev, Alec White,
  David Stuck, Shaama M.S., Shane Yost, Joonho Lee, David Small,
  Daniel Levine, Susi Lehtola, Hugh Burton, Evgeny Epifanovsky
 -----------------------------------------------------------------------
 Exchange:  B88      Correlation:  LYP
 Using Euler-Maclaurin-Lebedev (99,590) quadrature formula
Running Object-Oriented UKS (UHF)
performing a single roothaan step with Fock from read density so that orbitals are available to all algorithms
energy of the guess density (C=0) -110.860119784656
We will preform up to 15 macro iterations over saddle points until a stable solution is found
Energy prior to optimization (guess energy) = -110.632746430742
Begin Timing: Total SCF Calculation
Begin Timing: SCF Single Stationary Point Calculation
begin iterations for algorithm: GDM          
the SCF tolerance is set to 1.00e-08
    1    -110.6327464307      7.93e-02     00000  Descent step
    2    -110.6277108803      8.03e-02     00000 Line search: overstep
    3    -110.6683321456      8.72e-03     00000  Normal BFGS step
    4    -110.6691649527      5.29e-03     00000  Normal BFGS step
    5    -110.6694117874      3.02e-04     00000  Normal BFGS step
    6    -110.6694134772      6.31e-05     00000  Normal BFGS step
    7    -110.6694135622      1.29e-05     00000  Normal BFGS step
    8    -110.6694135622      4.19e-05     00000  Normal BFGS step
    9    -110.6694135624      3.18e-05     00000  Normal BFGS step
   10    -110.6694135629      4.88e-06     00000  Normal BFGS step
   11    -110.6694135631      2.88e-06     00000  Normal BFGS step
   12    -110.6694135631      3.98e-07     00000  Normal BFGS step
   13    -110.6694135631      1.28e-08     00000  Normal BFGS step
   14    -110.6694135631      9.82e-09     00000 Convergence criterion met
Timing for Single Stationary Point: 440.00s (wall), 3507.22s (cpu)
Begin Timing: Stability
===================================================
Beginning Test for Internal Stability
===================================================
generating davidson guess vectors based on koopmans excitations
    1      4.70e-01     00000 Davidson Iteration
    2      6.98e-02     00000 Davidson Iteration
    3      4.97e-03     00000 Davidson Iteration
    4      3.32e-03     00000 Davidson Iteration
    5      3.37e-04     00000 Davidson Iteration
    6      8.34e-05     00000 Davidson Iteration
    7      6.92e-05     00000 Davidson Converged
converged_eigenvalues
   0.1091
   0.2778
Threshold for negative eigenvalues: -1.0e-05
solution was a local minimum (stable)
===================================================
End Test for Internal Stability
===================================================
Our SCF solution is stable!
Timing for Total SCF: 4502.00s (wall), 35114.84s (cpu)
 Total energy in the final basis set =     -110.6694135631
<S^2> =          0.000000000
    ==================================================
              The end of Object-Oriented SCFman       
    ==================================================
 
 --------------------------------------------------------------
 
                    Orbital Energies (a.u.)
 --------------------------------------------------------------
 
 Alpha MOs
 -- Occupied --
-14.073 -14.073  -0.947  -0.623  -0.515  -0.362  -0.334  -0.214
 -- Virtual --
 -0.112  -0.041  -0.002   0.015   0.018   0.030   0.036   0.041
  0.044   0.046   0.062   0.069   0.090   0.099   0.103   0.107
  0.110   0.119   0.125   0.131   0.138   0.145   0.150   0.160
  0.167   0.180   0.184   0.191   0.206   0.207   0.214   0.219
  0.222   0.223   0.225   0.226   0.241   0.246   0.250   0.256
  0.265   0.282   0.300   0.308   0.323   0.329   0.330   0.337
  0.346   0.366   0.367   0.373   0.373   0.376   0.386   0.387
  0.397   0.404   0.406   0.412   0.418   0.429   0.436   0.436
  0.453   0.458   0.466   0.466   0.468   0.473   0.482   0.487
  0.489   0.492   0.498   0.527   0.528   0.535   0.540   0.562
  0.569   0.571   0.588   0.589   0.606   0.607   0.624   0.629
  0.659   0.660   0.662   0.663   0.667   0.668   0.677   0.697
  0.697   0.707   0.710   0.718   0.725   0.740   0.742   0.759
  0.763   0.766   0.776   0.777   0.791   0.796   0.805   0.810
  0.828   0.831   0.842   0.843   0.852   0.857   0.869   0.878
  0.884   0.885   0.886   0.888   0.890   0.909   0.909   0.919
  0.920   0.931   0.936   0.974   0.980   0.982   0.990   0.998
  0.998   1.000   1.005   1.021   1.029   1.039   1.050   1.104
  1.152   1.155   1.161   1.188   1.194   1.199   1.204   1.225
  1.234   1.235   1.263   1.268   1.270   1.289   1.310   1.323
  1.336   1.340   1.379   1.439   1.460   1.482   1.510   1.535
  1.540   1.546   1.564   1.605   1.644   1.658   1.666   1.677
  1.710   1.730   1.758   1.773   1.815   1.832   1.857   1.900
  1.936   1.941   2.005   2.067   2.069   2.094   2.098   2.212
  2.215   2.230   2.320   2.323   2.359   2.435   2.497   2.581
  2.636   2.654   2.662   2.692   2.793   2.849   2.849   2.923
  2.954   3.022   3.057   3.079   3.167   3.171   3.172   3.189
  3.275   3.321   3.339   3.359   3.412   3.422   3.482   3.517
  3.526   3.564   3.604   3.627   3.636   3.705   3.708   3.749
  3.790   3.898   3.912   3.941   4.039   4.065   4.072   4.075
  4.156   4.190   4.247   4.288   4.400   4.441   4.491   4.571
  4.575   4.604   4.742   4.832   4.877   4.905   4.977   5.013
  5.048   5.078   5.259   5.274   5.341   5.396   5.432   5.481
  5.656   5.710   5.802   5.851   5.940   5.955   6.120   6.140
  6.224   6.249   6.283   6.306   6.364   6.441   6.500   6.565
  6.567   6.735   6.761   6.772   6.952   7.043   7.064   7.129
  7.242   7.395   7.454   7.455   7.695   7.708   7.793   7.888
  8.021   8.104   8.326   8.422   8.465   8.479   8.651   8.687
  8.893   8.906   8.936   9.057   9.223   9.253   9.290   9.445
  9.464   9.512   9.661   9.740   9.779  10.099  10.196  10.233
 10.302  10.669  10.821  10.843  10.943  11.034  11.059  11.096
 11.183  11.280  11.362  11.392  11.402  11.443  11.453  11.525
 11.566  11.643  11.687  11.693  11.815  11.908  12.061  12.264
 12.269  12.271  12.300  12.369  12.449  12.543  12.594  12.610
 12.735  12.741  12.840  12.953  13.030  13.036  13.423  13.485
 13.510  13.963  14.054  14.094  14.392  14.451  14.458  14.780
 14.858  15.065  15.075  15.101  15.146  15.218  15.240  15.245
 15.306  15.371  15.479  15.504  15.510  15.601  15.709  15.760
 15.975  15.977  16.185  16.284  16.336  16.535  16.692  16.721
 16.732  16.748  16.761  16.992  17.168  17.183  17.187  17.190
 17.313  17.493  17.559  17.648  17.656  17.818  17.863  18.015
 18.047  18.372  18.610  18.914  18.930  19.240  19.648  20.251
 20.362  20.506  20.569  21.039  21.112  21.917  23.339  23.369
 23.484  23.586  23.764  25.011  25.556  25.933  25.962  26.337
 27.395  27.955  28.506  28.575  40.953  41.408  47.744  47.874
 47.899  47.924  48.099  48.176  48.442  48.721  49.033  49.254
 90.862  90.939  91.003  91.099  92.516  92.743 104.009 108.231
 
 Beta MOs
 -- Occupied --
-14.073 -14.073  -0.947  -0.623  -0.515  -0.362  -0.334  -0.214
 -- Virtual --
 -0.112  -0.041  -0.002   0.015   0.018   0.030   0.036   0.041
  0.044   0.046   0.062   0.069   0.090   0.099   0.103   0.107
  0.110   0.119   0.125   0.131   0.138   0.145   0.150   0.160
  0.167   0.180   0.184   0.191   0.206   0.207   0.214   0.219
  0.222   0.223   0.225   0.226   0.241   0.246   0.250   0.256
  0.265   0.282   0.300   0.308   0.323   0.329   0.330   0.337
  0.346   0.366   0.367   0.373   0.373   0.376   0.386   0.387
  0.397   0.404   0.406   0.412   0.418   0.429   0.436   0.436
  0.453   0.458   0.466   0.466   0.468   0.473   0.482   0.487
  0.489   0.492   0.498   0.527   0.528   0.535   0.540   0.562
  0.569   0.571   0.588   0.589   0.606   0.607   0.624   0.629
  0.659   0.660   0.662   0.663   0.667   0.668   0.677   0.697
  0.697   0.707   0.710   0.718   0.725   0.740   0.742   0.759
  0.763   0.766   0.776   0.777   0.791   0.796   0.805   0.810
  0.828   0.831   0.842   0.843   0.852   0.857   0.869   0.878
  0.884   0.885   0.886   0.888   0.890   0.909   0.909   0.919
  0.920   0.931   0.936   0.974   0.980   0.982   0.990   0.998
  0.998   1.000   1.005   1.021   1.029   1.039   1.050   1.104
  1.152   1.155   1.161   1.188   1.194   1.199   1.204   1.225
  1.234   1.235   1.263   1.268   1.270   1.289   1.310   1.323
  1.336   1.340   1.379   1.439   1.460   1.482   1.510   1.535
  1.540   1.546   1.564   1.605   1.644   1.658   1.666   1.677
  1.710   1.730   1.758   1.773   1.815   1.832   1.857   1.900
  1.936   1.941   2.005   2.067   2.069   2.094   2.098   2.212
  2.215   2.230   2.320   2.323   2.359   2.435   2.497   2.581
  2.636   2.654   2.662   2.692   2.793   2.849   2.849   2.923
  2.954   3.022   3.057   3.079   3.167   3.171   3.172   3.189
  3.275   3.321   3.339   3.359   3.412   3.422   3.482   3.517
  3.526   3.564   3.604   3.627   3.636   3.705   3.708   3.749
  3.790   3.898   3.912   3.941   4.039   4.065   4.072   4.075
  4.156   4.190   4.247   4.288   4.400   4.441   4.491   4.571
  4.575   4.604   4.742   4.832   4.877   4.905   4.977   5.013
  5.048   5.078   5.259   5.274   5.341   5.396   5.432   5.481
  5.656   5.710   5.802   5.851   5.940   5.955   6.120   6.140
  6.224   6.249   6.283   6.306   6.364   6.441   6.500   6.565
  6.567   6.735   6.761   6.772   6.952   7.043   7.064   7.129
  7.242   7.395   7.454   7.455   7.695   7.708   7.793   7.888
  8.021   8.104   8.326   8.422   8.465   8.479   8.651   8.687
  8.893   8.906   8.936   9.057   9.223   9.253   9.290   9.445
  9.464   9.512   9.661   9.740   9.779  10.099  10.196  10.233
 10.302  10.669  10.821  10.843  10.943  11.034  11.059  11.096
 11.183  11.280  11.362  11.392  11.402  11.443  11.453  11.525
 11.566  11.643  11.687  11.693  11.815  11.908  12.061  12.264
 12.269  12.271  12.300  12.369  12.449  12.543  12.594  12.610
 12.735  12.741  12.840  12.953  13.030  13.036  13.423  13.485
 13.510  13.963  14.054  14.094  14.392  14.451  14.458  14.780
 14.858  15.065  15.075  15.101  15.146  15.218  15.240  15.245
 15.306  15.371  15.479  15.504  15.510  15.601  15.709  15.760
 15.975  15.977  16.185  16.284  16.336  16.535  16.692  16.721
 16.732  16.748  16.761  16.992  17.168  17.183  17.187  17.190
 17.313  17.493  17.559  17.648  17.656  17.818  17.863  18.015
 18.047  18.372  18.610  18.914  18.930  19.240  19.648  20.251
 20.362  20.506  20.569  21.039  21.112  21.917  23.339  23.369
 23.484  23.586  23.764  25.011  25.556  25.933  25.962  26.337
 27.395  27.955  28.506  28.575  40.953  41.408  47.744  47.874
 47.899  47.924  48.099  48.176  48.442  48.721  49.033  49.254
 90.862  90.939  91.003  91.099  92.516  92.743 104.009 108.231
 --------------------------------------------------------------
 
          Ground-State Mulliken Net Atomic Charges

     Atom                 Charge (a.u.)    Spin (a.u.)
  --------------------------------------------------------
      1 N                    -0.124989      -0.000000
      2 H                     0.124993       0.000000
      3 N                    -0.125009       0.000000
      4 H                     0.125005       0.000000
  --------------------------------------------------------
  Sum of atomic charges =     0.000000
  Sum of spin   charges =     0.000000

 -----------------------------------------------------------------
                    Cartesian Multipole Moments
 -----------------------------------------------------------------
    Charge (ESU x 10^10)
                 0.0000
    Dipole Moment (Debye)
         X       1.0145      Y      -0.0000      Z       2.5706
       Tot       2.7636
    Quadrupole Moments (Debye-Ang)
        XX     -11.5726     XY       0.0000     YY     -12.3972
        XZ       1.7949     YZ      -0.0000     ZZ     -12.8010
    Octopole Moments (Debye-Ang^2)
       XXX     -19.0196    XXY       0.0000    XYY      -7.5503
       YYY      -0.0000    XXZ       5.3482    XYZ      -0.0000
       YYZ       2.0157    XZZ      -9.3903    YZZ       0.0000
       ZZZ       8.4693
    Hexadecapole Moments (Debye-Ang^3)
      XXXX     -64.7290   XXXY       0.0000   XXYY     -14.1040
      XYYY      -0.0000   YYYY     -12.0745   XXXZ      12.9875
      XXYZ      -0.0000   XYYZ       2.8062   YYYZ       0.0000
      XXZZ     -19.0594   XYZZ       0.0000   YYZZ      -6.4565
      XZZZ      10.9844   YZZZ      -0.0000   ZZZZ     -26.6990
 -----------------------------------------------------------------
Archival summary:
1\1\n0030.mhg0\SP\ProcedureUnspecified\BasisUnspecified\22\yhljason\ThuJul2305:00:312020ThuJul2305:00:312020\0\\#,ProcedureUnspecified,BasisUnspecified,\\0,1\N\H,1,1.03378\N,1,1.2524,2,111.537\H,3,1.03378,1,111.537,2,-0,0\\\@

 Total job time:  4551.09s(wall), 35446.09s(cpu) 
 Thu Jul 23 05:00:31 2020

        *************************************************************
        *                                                           *
        *  Thank you very much for using Q-Chem.  Have a nice day.  *
        *                                                           *
        *************************************************************


