Q-Chem Developer Version!
                  Welcome to Q-Chem
     A Quantum Leap Into The Future Of Chemistry


 Q-Chem 5.1, Q-Chem, Inc., Pleasanton, CA (2018)

 Yihan Shao,  Zhengting Gan,  E. Epifanovsky,  A. T. B. Gilbert,  M. Wormit,  
 J. Kussmann,  A. W. Lange,  A. Behn,  Jia Deng,  Xintian Feng,  D. Ghosh,  
 M. Goldey,  P. R. Horn,  L. D. Jacobson,  I. Kaliman,  T. Kus,  A. Landau,  
 Jie Liu,  E. I. Proynov,  R. M. Richard,  R. P. Steele,  E. J. Sundstrom,  
 H. L. Woodcock III,  P. M. Zimmerman,  D. Zuev,  B. Albrecht,  E. Alguire,  
 S. A. Baeppler,  D. Barton,  Z. Benda,  Y. A. Bernard,  E. J. Berquist,  
 K. B. Bravaya,  H. Burton,  D. Casanova,  Chun-Min Chang,  Yunqing Chen,  
 A. Chien,  K. D. Closser,  M. P. Coons,  S. Coriani,  S. Dasgupta,  
 A. L. Dempwolff,  M. Diedenhofen,  Hainam Do,  R. G. Edgar,  Po-Tung Fang,  
 S. Faraji,  S. Fatehi,  Qingguo Feng,  K. D. Fenk,  J. Fosso-Tande,  
 Qinghui Ge,  A. Ghysels,  G. Gidofalvi,  J. Gomes,  J. Gonthier,  A. Gunina,  
 D. Hait,  M. W. D. Hanson-Heine,  P. H. P. Harbach,  A. W. Hauser,  
 J. E. Herr,  E. G. Hohenstein,  Z. C. Holden,  Kerwin Hui,  B. C. Huynh,  
 T.-C. Jagau,  Hyunjun Ji,  B. Kaduk,  K. Khistyaev,  Jaehoon Kim,  
 P. Klunzinger,  K. Koh,  D. Kosenkov,  L. Koulias,  T. Kowalczyk,  
 C. M. Krauter,  A. Kunitsa,  Ka Un Lao,  A. Laurent,  K. V. Lawler,  
 Joonho Lee,  D. Lefrancois,  S. Lehtola,  D. S. Levine,  Yi-Pei Li,  
 You-Sheng Lin,  Fenglai Liu,  E. Livshits,  A. Luenser,  P. Manohar,  
 E. Mansoor,  S. F. Manzer,  Shan-Ping Mao,  Yuezhi Mao,  N. Mardirossian,  
 A. V. Marenich,  T. Markovich,  L. A. Martinez-Martinez,  S. A. Maurer,  
 N. J. Mayhall,  S. C. McKenzie,  J.-M. Mewes,  A. F. Morrison,  
 J. W. Mullinax,  K. Nanda,  T. S. Nguyen-Beck,  R. Olivares-Amaya,  
 J. A. Parkhill,  T. M. Perrine,  F. Plasser,  P. Pokhilko,  S. Prager,  
 A. Prociuk,  E. Ramos,  D. R. Rehn,  F. Rob,  M. Schneider,  N. Sergueev,  
 S. M. Sharada,  S. Sharma,  D. W. Small,  T. Stauch,  T. Stein,  
 Yu-Chuan Su,  A. J. W. Thom,  A. Tkatchenko,  T. Tsuchimochi,  N. M. Tubman,  
 L. Vogt,  M. L. Vidal,  O. Vydrov,  M. A. Watson,  J. Wenzel,  
 M. de Wergifosse,  T. A. Wesolowski,  A. White,  J. Witte,  A. Yamada,  
 Jun Yang,  K. Yao,  S. Yeganeh,  S. R. Yost,  Zhi-Qiang You,  A. Zech,  
 Igor Ying Zhang,  Xing Zhang,  Yan Zhao,  Ying Zhu,  B. R. Brooks,  
 G. K. L. Chan,  C. J. Cramer,  M. S. Gordon,  W. J. Hehre,  A. Klamt,  
 M. W. Schmidt,  C. D. Sherrill,  D. G. Truhlar,  A. Aspuru-Guzik,  R. Baer,  
 A. T. Bell,  N. A. Besley,  Jeng-Da Chai,  A. E. DePrince, III,  
 R. A. DiStasio Jr.,  A. Dreuw,  B. D. Dunietz,  T. R. Furlani,  
 Chao-Ping Hsu,  Yousung Jung,  Jing Kong,  D. S. Lambrecht,  WanZhen Liang,  
 C. Ochsenfeld,  V. A. Rassolov,  L. V. Slipchenko,  J. E. Subotnik,  
 T. Van Voorhis,  J. M. Herbert,  A. I. Krylov,  P. M. W. Gill,  M. Head-Gordon

 Contributors to earlier versions of Q-Chem not listed above: 
 R. D. Adamson,  B. Austin,  J. Baker,  G. J. O. Beran,  K. Brandhorst,  
 S. T. Brown,  E. F. C. Byrd,  A. K. Chakraborty,  C.-L. Cheng,  
 Siu Hung Chien,  D. M. Chipman,  D. L. Crittenden,  H. Dachsel,  
 R. J. Doerksen,  A. D. Dutoi,  L. Fusti-Molnar,  W. A. Goddard III,  
 A. Golubeva-Zadorozhnaya,  S. R. Gwaltney,  G. Hawkins,  A. Heyden,  
 S. Hirata,  G. Kedziora,  F. J. Keil,  C. Kelley,  Jihan Kim,  R. A. King,  
 R. Z. Khaliullin,  P. P. Korambath,  W. Kurlancheek,  A. M. Lee,  M. S. Lee,  
 S. V. Levchenko,  Ching Yeh Lin,  D. Liotard,  R. C. Lochan,  I. Lotan,  
 P. E. Maslen,  N. Nair,  D. P. O'Neill,  D. Neuhauser,  E. Neuscamman,  
 C. M. Oana,  R. Olson,  B. Peters,  R. Peverati,  P. A. Pieniazek,  
 Y. M. Rhee,  J. Ritchie,  M. A. Rohrdanz,  E. Rosta,  N. J. Russ,  
 H. F. Schaefer III,  N. E. Schultz,  N. Shenvi,  A. C. Simmonett,  A. Sodt,  
 D. Stuck,  K. S. Thanthiriwatte,  V. Vanovschi,  Tao Wang,  A. Warshel,  
 C. F. Williams,  Q. Wu,  X. Xu,  W. Zhang

 Please cite Q-Chem as follows:
 Y. Shao et al., Mol. Phys. 113, 184-215 (2015)
 DOI: 10.1080/00268976.2014.952696

 Q-Chem 5.1.1 for Intel X86 EM64T Linux

 Parts of Q-Chem use Armadillo 8.300.2 (Tropical Shenanigans).
 http://arma.sourceforge.net/

 Q-Chem begins on Thu Jul 23 03:44:40 2020  

Host: n0101.mhg0
0

     Scratch files written to /local/scratch/users/yhljason/N2H2_MN15_aug-pc-4.inp20200723033855//
Input Ideriv = 2
Curr. Ideriv = -1
Max.  Ideriv = 2
Input Ideriv = 1
Curr. Ideriv = 2
Max.  Ideriv = 1

Checking the input file for inconsistencies... 	...done.

--------------------------------------------------------------
User input:
--------------------------------------------------------------
$molecule
0 1
          N       0.0000000000     0.0000000000     0.0000000000
          H       0.0000000000     0.0000000000     1.0337770000
          N       1.1649590602     0.0000000000    -0.4597566182
          H       1.8709666930     0.0000000000     0.2953911212
$end

$rem
jobtype sp
method MN15
xc_grid 000099000590
basis aug-pc-4
max_scf_cycles 200
thresh 14
scf_convergence 8
scf_algorithm gdm
symmetry false
sym_ignore true
unrestricted true
gen_scfman true
internal_stability_iter 15
internal_stability_davidson_iter 200
mem_total 64000
mem_static 1500
n_frozen_core 0
$end


--------------------------------------------------------------
 ----------------------------------------------------------------
             Standard Nuclear Orientation (Angstroms)
    I     Atom           X                Y                Z
 ----------------------------------------------------------------
    1      N       0.0000000000     0.0000000000     0.0000000000
    2      H       0.0000000000     0.0000000000     1.0337770000
    3      N       1.1649590602     0.0000000000    -0.4597566182
    4      H       1.8709666930     0.0000000000     0.2953911212
 ----------------------------------------------------------------
 Nuclear Repulsion Energy =    32.0447651677 hartrees
 There are        8 alpha and        8 beta electrons
 Requested basis set is aug-pc-4
 There are 114 shells and 466 basis functions

 Total QAlloc Memory Limit  64000 MB
 Mega-Array Size      1467 MB
 MEM_STATIC part      1500 MB

                       Distance Matrix (Angstroms)
             N (  1)   H (  2)   N (  3)
   H (  2)  1.033777
   N (  3)  1.252400  1.894142
   H (  4)  1.894142  2.011400  1.033777
 
 A cutoff of  1.0D-14 yielded   6501 shell pairs
 There are    109677 function pairs (    201327 Cartesian)
 
 -------------------------------------------------------
 OpenMP Integral Computing Module                       
 Release: version 1.0, May 2013, Q-Chem Inc. Pittsburgh 
 -------------------------------------------------------
 Integral Job Info:
 Integral job number is                      11
 Integral operator is                         1
 short-range coefficients                     0
 long-range coefficients              100000000
 Omega coefficients                           0
 if combine SR and LR in K                    0
 Integral screening is                        0
 Integral computing path is                   2
 max size of driver memory is           6400000
 size of driver memory is               5498286
 size of scratch memory is             29792225
 max col of scratch BK array             194481
 max len of scratch array in speh3         5572
 max len of scratch index in speh4           72
 max int batch size is                      520
 min int batch size is                       52
 fixed nKL is                                25
 max L of basis functions is                  5
 order of int derivative is                   0
 number of shells is                        114
 number of basis is                         630
 number of cartesian basis is               630
 number of contracted shell pairs          6501
 number of primitive shell pairs          12611
 maxK2 (contraction) of shell pair          121
 max number of K2 of shell pair               1
 max number of CS2 of shell pair            786
 max number of PS2 of shell pair            786
 mem total for path MDJ                 1105572
 -------------------------------------------------------
 Smallest overlap matrix eigenvalue = 1.23E-07
 Linear dependence detected in AO basis
 Number of orthogonalized atomic orbitals = 464
 Maximum deviation from orthogonality = 4.370E-10

 Scale SEOQF with 1.000000e-01/1.000000e-01/1.000000e-01

 Standard Electronic Orientation quadrupole field applied
 Nucleus-field energy     =     0.0000000002 hartrees
 Guess from superposition of atomic densities
 Warning:  Energy on first SCF cycle will be non-variational
 SAD guess density has 16.000000 electrons

 -----------------------------------------------------------------------
  General SCF calculation program by
  Eric Jon Sundstrom, Paul Horn, Yuezhi Mao, Dmitri Zuev, Alec White,
  David Stuck, Shaama M.S., Shane Yost, Joonho Lee, David Small,
  Daniel Levine, Susi Lehtola, Hugh Burton, Evgeny Epifanovsky
 -----------------------------------------------------------------------
 Exchange:     0.4400 Hartree-Fock + 1.0000 MN15
 Correlation:  1.0000 MN15
 Using Euler-Maclaurin-Lebedev (99,590) quadrature formula
Running Object-Oriented UKS (UHF)
performing a single roothaan step with Fock from read density so that orbitals are available to all algorithms
 LTot/LBra/LKet=          12           2          10

 Q-Chem warning:

 in GenH1, ket side, handled with new code

 LTot/LBra/LKet=          12           2          10

 Q-Chem warning:

 in GenH1, ket side, handled with new code

energy of the guess density (C=0) -110.748240827571
 LTot/LBra/LBra=          20          10          10

 Q-Chem warning:

 in GenH1, bra side, handled with new code

We will preform up to 15 macro iterations over saddle points until a stable solution is found
Energy prior to optimization (guess energy) = -110.574038638147
Begin Timing: Total SCF Calculation
Begin Timing: SCF Single Stationary Point Calculation
begin iterations for algorithm: GDM          
the SCF tolerance is set to 1.00e-08
    1    -110.5740386381      3.10e-02     00000  Normal BFGS step
    2    -110.5822807941      2.63e-02     00000  Normal BFGS step
    3    -110.5911635021      3.36e-03     00000  Normal BFGS step
    4    -110.5913260401      1.29e-03     00000  Normal BFGS step
    5    -110.5913640173      1.34e-04     00000  Normal BFGS step
    6    -110.5913642161      4.05e-05     00000  Normal BFGS step
    7    -110.5913642324      2.24e-05     00000  Normal BFGS step
    8    -110.5913642323      3.41e-05     00000  Normal BFGS step
    9    -110.5913642332      1.57e-06     00000  Normal BFGS step
   10    -110.5913642332      3.74e-07     00000  Normal BFGS step
   11    -110.5913642332      3.28e-08     00000  Normal BFGS step
   12    -110.5913642332      4.05e-09     00000 Convergence criterion met
Timing for Single Stationary Point: 5522.00s (wall), 43915.03s (cpu)
Begin Timing: Stability
===================================================
Beginning Test for Internal Stability
===================================================
generating davidson guess vectors based on koopmans excitations
    1      5.35e-01     00000 Davidson Iteration
    2      1.30e-01     00000 Davidson Iteration
    3      2.18e-02     00000 Davidson Iteration
    4      6.89e-03     00000 Davidson Iteration
    5      3.97e-03     00000 Davidson Iteration
    6      7.25e-04     00000 Davidson Iteration
    7      1.40e-04     00000 Davidson Iteration
    8      4.80e-05     00000 Davidson Converged
converged_eigenvalues
   0.1518
   0.2747
Threshold for negative eigenvalues: -1.0e-05
solution was a local minimum (stable)
===================================================
End Test for Internal Stability
===================================================
Our SCF solution is stable!
Timing for Total SCF: 11149.00s (wall), 88581.60s (cpu)
 Total energy in the final basis set =     -110.5913642332
<S^2> =          0.000000000
    ==================================================
              The end of Object-Oriented SCFman       
    ==================================================
 
 --------------------------------------------------------------
 
                    Orbital Energies (a.u.)
 --------------------------------------------------------------
 
 Alpha MOs
 -- Occupied --
-14.204 -14.204  -1.076  -0.733  -0.611  -0.442  -0.438  -0.303
 -- Virtual --
 -0.035   0.011   0.026   0.045   0.052   0.059   0.061   0.067
  0.067   0.074   0.099   0.108   0.117   0.134   0.138   0.143
  0.145   0.152   0.172   0.177   0.181   0.191   0.198   0.199
  0.209   0.225   0.230   0.233   0.250   0.250   0.251   0.257
  0.258   0.262   0.267   0.267   0.284   0.294   0.299   0.301
  0.312   0.332   0.353   0.360   0.373   0.380   0.384   0.391
  0.410   0.417   0.422   0.423   0.427   0.432   0.434   0.447
  0.455   0.457   0.459   0.461   0.474   0.477   0.483   0.492
  0.504   0.513   0.524   0.525   0.525   0.537   0.542   0.546
  0.547   0.547   0.557   0.586   0.589   0.606   0.607   0.624
  0.633   0.634   0.640   0.651   0.666   0.669   0.690   0.694
  0.723   0.725   0.727   0.727   0.731   0.736   0.742   0.764
  0.767   0.778   0.786   0.787   0.796   0.805   0.814   0.827
  0.833   0.836   0.845   0.854   0.861   0.864   0.885   0.894
  0.899   0.902   0.920   0.921   0.929   0.932   0.946   0.950
  0.960   0.961   0.966   0.970   0.977   0.985   0.987   0.996
  1.001   1.011   1.019   1.065   1.066   1.070   1.076   1.082
  1.087   1.090   1.094   1.111   1.119   1.130   1.137   1.195
  1.242   1.248   1.253   1.283   1.287   1.292   1.297   1.318
  1.328   1.332   1.356   1.364   1.364   1.385   1.407   1.418
  1.435   1.440   1.470   1.536   1.559   1.583   1.612   1.637
  1.644   1.647   1.667   1.707   1.750   1.765   1.772   1.783
  1.815   1.831   1.866   1.886   1.932   1.947   1.955   2.014
  2.041   2.054   2.111   2.162   2.168   2.201   2.213   2.314
  2.316   2.321   2.425   2.434   2.459   2.548   2.597   2.679
  2.725   2.759   2.767   2.798   2.898   2.915   2.955   3.008
  3.016   3.117   3.138   3.182   3.236   3.245   3.247   3.270
  3.360   3.402   3.433   3.446   3.485   3.486   3.569   3.594
  3.621   3.643   3.703   3.706   3.712   3.785   3.793   3.800
  3.880   3.985   3.994   4.029   4.112   4.131   4.140   4.144
  4.208   4.261   4.309   4.370   4.459   4.498   4.517   4.609
  4.640   4.648   4.770   4.867   4.918   4.948   4.992   5.029
  5.092   5.104   5.258   5.317   5.318   5.428   5.432   5.489
  5.672   5.675   5.820   5.853   5.945   5.962   6.072   6.090
  6.181   6.213   6.255   6.276   6.292   6.386   6.435   6.509
  6.583   6.659   6.672   6.696   6.888   6.947   6.961   7.025
  7.131   7.308   7.379   7.396   7.593   7.614   7.691   7.769
  7.930   7.992   8.172   8.307   8.312   8.333   8.473   8.524
  8.727   8.769   8.770   8.892   9.056   9.077   9.121   9.272
  9.276   9.330   9.468   9.541   9.565   9.903   9.958   9.997
 10.083  10.349  10.526  10.538  10.673  10.719  10.728  10.777
 10.867  10.960  11.058  11.080  11.080  11.119  11.130  11.201
 11.245  11.304  11.338  11.390  11.512  11.587  11.705  11.902
 11.938  11.954  11.960  12.069  12.096  12.182  12.221  12.275
 12.345  12.369  12.515  12.599  12.653  12.676  13.016  13.073
 13.084  13.478  13.601  13.614  13.936  13.955  14.005  14.311
 14.387  14.572  14.580  14.621  14.642  14.717  14.722  14.745
 14.798  14.844  14.973  14.974  14.982  15.105  15.160  15.234
 15.423  15.456  15.627  15.754  15.783  15.964  16.115  16.189
 16.196  16.218  16.226  16.503  16.606  16.620  16.623  16.653
 16.796  16.914  16.980  17.026  17.075  17.197  17.204  17.395
 17.475  17.779  17.964  18.162  18.183  18.473  18.871  19.469
 19.489  19.629  19.717  20.209  20.211  20.930  22.627  22.738
 22.835  22.925  22.999  24.355  24.550  25.288  25.655  26.019
 26.948  27.407  28.000  28.068  38.762  39.196  46.850  46.964
 47.000  47.022  47.192  47.253  47.507  47.769  48.060  48.261
 86.598  86.672  86.725  86.833  87.074  87.266  97.850 101.752
 
 Beta MOs
 -- Occupied --
-14.204 -14.204  -1.076  -0.733  -0.611  -0.442  -0.438  -0.303
 -- Virtual --
 -0.035   0.011   0.026   0.045   0.052   0.059   0.061   0.067
  0.067   0.074   0.099   0.108   0.117   0.134   0.138   0.143
  0.145   0.152   0.172   0.177   0.181   0.191   0.198   0.199
  0.209   0.225   0.230   0.233   0.250   0.250   0.251   0.257
  0.258   0.262   0.267   0.267   0.284   0.294   0.299   0.301
  0.312   0.332   0.353   0.360   0.373   0.380   0.384   0.391
  0.410   0.417   0.422   0.423   0.427   0.432   0.434   0.447
  0.455   0.457   0.459   0.461   0.474   0.477   0.483   0.492
  0.504   0.513   0.524   0.525   0.525   0.537   0.542   0.546
  0.547   0.547   0.557   0.586   0.589   0.606   0.607   0.624
  0.633   0.634   0.640   0.651   0.666   0.669   0.690   0.694
  0.723   0.725   0.727   0.727   0.731   0.736   0.742   0.764
  0.767   0.778   0.786   0.787   0.796   0.805   0.814   0.827
  0.833   0.836   0.845   0.854   0.861   0.864   0.885   0.894
  0.899   0.902   0.920   0.921   0.929   0.932   0.946   0.950
  0.960   0.961   0.966   0.970   0.977   0.985   0.987   0.996
  1.001   1.011   1.019   1.065   1.066   1.070   1.076   1.082
  1.087   1.090   1.094   1.111   1.119   1.130   1.137   1.195
  1.242   1.248   1.253   1.283   1.287   1.292   1.297   1.318
  1.328   1.332   1.356   1.364   1.364   1.385   1.407   1.418
  1.435   1.440   1.470   1.536   1.559   1.583   1.612   1.637
  1.644   1.647   1.667   1.707   1.750   1.765   1.772   1.783
  1.815   1.831   1.866   1.886   1.932   1.947   1.955   2.014
  2.041   2.054   2.111   2.162   2.168   2.201   2.213   2.314
  2.316   2.321   2.425   2.434   2.459   2.548   2.597   2.679
  2.725   2.759   2.767   2.798   2.898   2.915   2.955   3.008
  3.016   3.117   3.138   3.182   3.236   3.245   3.247   3.270
  3.360   3.402   3.433   3.446   3.485   3.486   3.569   3.594
  3.621   3.643   3.703   3.706   3.712   3.785   3.793   3.800
  3.880   3.985   3.994   4.029   4.112   4.131   4.140   4.144
  4.208   4.261   4.309   4.370   4.459   4.498   4.517   4.609
  4.640   4.648   4.770   4.867   4.918   4.948   4.992   5.029
  5.092   5.104   5.258   5.317   5.318   5.428   5.432   5.489
  5.672   5.675   5.820   5.853   5.945   5.962   6.072   6.090
  6.181   6.213   6.255   6.276   6.292   6.386   6.435   6.509
  6.583   6.659   6.672   6.696   6.888   6.947   6.961   7.025
  7.131   7.308   7.379   7.396   7.593   7.614   7.691   7.769
  7.930   7.992   8.172   8.307   8.312   8.333   8.473   8.524
  8.727   8.769   8.770   8.892   9.056   9.077   9.121   9.272
  9.276   9.330   9.468   9.541   9.565   9.903   9.958   9.997
 10.083  10.349  10.526  10.538  10.673  10.719  10.728  10.777
 10.867  10.960  11.058  11.080  11.080  11.119  11.130  11.201
 11.245  11.304  11.338  11.390  11.512  11.587  11.705  11.902
 11.938  11.954  11.960  12.069  12.096  12.182  12.221  12.275
 12.345  12.369  12.515  12.599  12.653  12.676  13.016  13.073
 13.084  13.478  13.601  13.614  13.936  13.955  14.005  14.311
 14.387  14.572  14.580  14.621  14.642  14.717  14.722  14.745
 14.798  14.844  14.973  14.974  14.982  15.105  15.160  15.234
 15.423  15.456  15.627  15.754  15.783  15.964  16.115  16.189
 16.196  16.218  16.226  16.503  16.606  16.620  16.623  16.653
 16.796  16.914  16.980  17.026  17.075  17.197  17.204  17.395
 17.475  17.779  17.964  18.162  18.183  18.473  18.871  19.469
 19.489  19.629  19.717  20.209  20.211  20.930  22.627  22.738
 22.835  22.925  22.999  24.355  24.550  25.288  25.655  26.019
 26.948  27.407  28.000  28.068  38.762  39.196  46.850  46.964
 47.000  47.022  47.192  47.253  47.507  47.769  48.060  48.261
 86.598  86.672  86.725  86.833  87.074  87.266  97.850 101.752
 --------------------------------------------------------------
 
          Ground-State Mulliken Net Atomic Charges

     Atom                 Charge (a.u.)    Spin (a.u.)
  --------------------------------------------------------
      1 N                     0.524571      -0.000000
      2 H                    -0.524554       0.000000
      3 N                     0.524459       0.000000
      4 H                    -0.524476       0.000000
  --------------------------------------------------------
  Sum of atomic charges =     0.000000
  Sum of spin   charges =    -0.000000

 -----------------------------------------------------------------
                    Cartesian Multipole Moments
 -----------------------------------------------------------------
    Charge (ESU x 10^10)
                 0.0000
    Dipole Moment (Debye)
         X       1.0587      Y      -0.0000      Z       2.6827
       Tot       2.8840
    Quadrupole Moments (Debye-Ang)
        XX     -11.1367     XY       0.0000     YY     -12.3082
        XZ       1.8582     YZ      -0.0000     ZZ     -12.4505
    Octopole Moments (Debye-Ang^2)
       XXX     -17.9781    XXY       0.0000    XYY      -7.4940
       YYY      -0.0000    XXZ       5.5327    XYZ      -0.0000
       YYZ       2.0066    XZZ      -9.2132    YZZ      -0.0000
       ZZZ       8.7307
    Hexadecapole Moments (Debye-Ang^3)
      XXXX     -60.6924   XXXY       0.0000   XXYY     -13.6313
      XYYY       0.0000   YYYY     -11.5399   XXXZ      13.5073
      XXYZ      -0.0000   XYYZ       2.7677   YYYZ      -0.0000
      XXZZ     -18.2153   XYZZ       0.0000   YYZZ      -6.0886
      XZZZ      10.8293   YZZZ      -0.0000   ZZZZ     -24.6179
 -----------------------------------------------------------------
Archival summary:
1\1\n0101.mhg0\SP\ProcedureUnspecified\BasisUnspecified\22\yhljason\ThuJul2306:58:542020ThuJul2306:58:542020\0\\#,ProcedureUnspecified,BasisUnspecified,\\0,1\N\H,1,1.03378\N,1,1.2524,2,111.537\H,3,1.03378,1,111.537,2,-0,0\\\@

 Total job time:  11653.47s(wall), 92528.41s(cpu) 
 Thu Jul 23 06:58:54 2020

        *************************************************************
        *                                                           *
        *  Thank you very much for using Q-Chem.  Have a nice day.  *
        *                                                           *
        *************************************************************


