Q-Chem Developer Version!
                  Welcome to Q-Chem
     A Quantum Leap Into The Future Of Chemistry


 Q-Chem 5.1, Q-Chem, Inc., Pleasanton, CA (2018)

 Yihan Shao,  Zhengting Gan,  E. Epifanovsky,  A. T. B. Gilbert,  M. Wormit,  
 J. Kussmann,  A. W. Lange,  A. Behn,  Jia Deng,  Xintian Feng,  D. Ghosh,  
 M. Goldey,  P. R. Horn,  L. D. Jacobson,  I. Kaliman,  T. Kus,  A. Landau,  
 Jie Liu,  E. I. Proynov,  R. M. Richard,  R. P. Steele,  E. J. Sundstrom,  
 H. L. Woodcock III,  P. M. Zimmerman,  D. Zuev,  B. Albrecht,  E. Alguire,  
 S. A. Baeppler,  D. Barton,  Z. Benda,  Y. A. Bernard,  E. J. Berquist,  
 K. B. Bravaya,  H. Burton,  D. Casanova,  Chun-Min Chang,  Yunqing Chen,  
 A. Chien,  K. D. Closser,  M. P. Coons,  S. Coriani,  S. Dasgupta,  
 A. L. Dempwolff,  M. Diedenhofen,  Hainam Do,  R. G. Edgar,  Po-Tung Fang,  
 S. Faraji,  S. Fatehi,  Qingguo Feng,  K. D. Fenk,  J. Fosso-Tande,  
 Qinghui Ge,  A. Ghysels,  G. Gidofalvi,  J. Gomes,  J. Gonthier,  A. Gunina,  
 D. Hait,  M. W. D. Hanson-Heine,  P. H. P. Harbach,  A. W. Hauser,  
 J. E. Herr,  E. G. Hohenstein,  Z. C. Holden,  Kerwin Hui,  B. C. Huynh,  
 T.-C. Jagau,  Hyunjun Ji,  B. Kaduk,  K. Khistyaev,  Jaehoon Kim,  
 P. Klunzinger,  K. Koh,  D. Kosenkov,  L. Koulias,  T. Kowalczyk,  
 C. M. Krauter,  A. Kunitsa,  Ka Un Lao,  A. Laurent,  K. V. Lawler,  
 Joonho Lee,  D. Lefrancois,  S. Lehtola,  D. S. Levine,  Yi-Pei Li,  
 You-Sheng Lin,  Fenglai Liu,  E. Livshits,  A. Luenser,  P. Manohar,  
 E. Mansoor,  S. F. Manzer,  Shan-Ping Mao,  Yuezhi Mao,  N. Mardirossian,  
 A. V. Marenich,  T. Markovich,  L. A. Martinez-Martinez,  S. A. Maurer,  
 N. J. Mayhall,  S. C. McKenzie,  J.-M. Mewes,  A. F. Morrison,  
 J. W. Mullinax,  K. Nanda,  T. S. Nguyen-Beck,  R. Olivares-Amaya,  
 J. A. Parkhill,  T. M. Perrine,  F. Plasser,  P. Pokhilko,  S. Prager,  
 A. Prociuk,  E. Ramos,  D. R. Rehn,  F. Rob,  M. Schneider,  N. Sergueev,  
 S. M. Sharada,  S. Sharma,  D. W. Small,  T. Stauch,  T. Stein,  
 Yu-Chuan Su,  A. J. W. Thom,  A. Tkatchenko,  T. Tsuchimochi,  N. M. Tubman,  
 L. Vogt,  M. L. Vidal,  O. Vydrov,  M. A. Watson,  J. Wenzel,  
 M. de Wergifosse,  T. A. Wesolowski,  A. White,  J. Witte,  A. Yamada,  
 Jun Yang,  K. Yao,  S. Yeganeh,  S. R. Yost,  Zhi-Qiang You,  A. Zech,  
 Igor Ying Zhang,  Xing Zhang,  Yan Zhao,  Ying Zhu,  B. R. Brooks,  
 G. K. L. Chan,  C. J. Cramer,  M. S. Gordon,  W. J. Hehre,  A. Klamt,  
 M. W. Schmidt,  C. D. Sherrill,  D. G. Truhlar,  A. Aspuru-Guzik,  R. Baer,  
 A. T. Bell,  N. A. Besley,  Jeng-Da Chai,  A. E. DePrince, III,  
 R. A. DiStasio Jr.,  A. Dreuw,  B. D. Dunietz,  T. R. Furlani,  
 Chao-Ping Hsu,  Yousung Jung,  Jing Kong,  D. S. Lambrecht,  WanZhen Liang,  
 C. Ochsenfeld,  V. A. Rassolov,  L. V. Slipchenko,  J. E. Subotnik,  
 T. Van Voorhis,  J. M. Herbert,  A. I. Krylov,  P. M. W. Gill,  M. Head-Gordon

 Contributors to earlier versions of Q-Chem not listed above: 
 R. D. Adamson,  B. Austin,  J. Baker,  G. J. O. Beran,  K. Brandhorst,  
 S. T. Brown,  E. F. C. Byrd,  A. K. Chakraborty,  C.-L. Cheng,  
 Siu Hung Chien,  D. M. Chipman,  D. L. Crittenden,  H. Dachsel,  
 R. J. Doerksen,  A. D. Dutoi,  L. Fusti-Molnar,  W. A. Goddard III,  
 A. Golubeva-Zadorozhnaya,  S. R. Gwaltney,  G. Hawkins,  A. Heyden,  
 S. Hirata,  G. Kedziora,  F. J. Keil,  C. Kelley,  Jihan Kim,  R. A. King,  
 R. Z. Khaliullin,  P. P. Korambath,  W. Kurlancheek,  A. M. Lee,  M. S. Lee,  
 S. V. Levchenko,  Ching Yeh Lin,  D. Liotard,  R. C. Lochan,  I. Lotan,  
 P. E. Maslen,  N. Nair,  D. P. O'Neill,  D. Neuhauser,  E. Neuscamman,  
 C. M. Oana,  R. Olson,  B. Peters,  R. Peverati,  P. A. Pieniazek,  
 Y. M. Rhee,  J. Ritchie,  M. A. Rohrdanz,  E. Rosta,  N. J. Russ,  
 H. F. Schaefer III,  N. E. Schultz,  N. Shenvi,  A. C. Simmonett,  A. Sodt,  
 D. Stuck,  K. S. Thanthiriwatte,  V. Vanovschi,  Tao Wang,  A. Warshel,  
 C. F. Williams,  Q. Wu,  X. Xu,  W. Zhang

 Please cite Q-Chem as follows:
 Y. Shao et al., Mol. Phys. 113, 184-215 (2015)
 DOI: 10.1080/00268976.2014.952696

 Q-Chem 5.1.1 for Intel X86 EM64T Linux

 Parts of Q-Chem use Armadillo 8.300.2 (Tropical Shenanigans).
 http://arma.sourceforge.net/

 Q-Chem begins on Sun Aug  2 23:11:15 2020  

Host: n0057.mhg0
0

     Scratch files written to /local/scratch/users/yhljason/N2H4_CAM-B3LYP_aug-pc-4.inp20200802231113//
Input Ideriv = 2
Curr. Ideriv = -1
Max.  Ideriv = 2

Checking the input file for inconsistencies... 	...done.

--------------------------------------------------------------
User input:
--------------------------------------------------------------
$molecule
0 1
N1      0.0000  0.7230  -0.1123
N2      0.0000  -0.7230 -0.1123
H3      -0.4470 1.0031  0.7562
H4      0.4470  -1.0031 0.7562
H5      0.9663  1.0031  0.0301
H6      -0.9663 -1.0031 0.0301
$end

$rem
jobtype sp
method CAM-B3LYP
xc_grid 000099000590
basis aug-pc-4
max_scf_cycles 200
thresh 14
scf_convergence 8
scf_algorithm gdm
symmetry false
sym_ignore true
unrestricted true
gen_scfman true
internal_stability_iter 15
internal_stability_davidson_iter 200
mem_total 64000
mem_static 1500
n_frozen_core 0
$end


--------------------------------------------------------------
 ----------------------------------------------------------------
             Standard Nuclear Orientation (Angstroms)
    I     Atom           X                Y                Z
 ----------------------------------------------------------------
    1      N       0.0000000000     0.7230000000    -0.1123000000
    2      N       0.0000000000    -0.7230000000    -0.1123000000
    3      H      -0.4470000000     1.0031000000     0.7562000000
    4      H       0.4470000000    -1.0031000000     0.7562000000
    5      H       0.9663000000     1.0031000000     0.0301000000
    6      H      -0.9663000000    -1.0031000000     0.0301000000
 ----------------------------------------------------------------
 Nuclear Repulsion Energy =    41.5636436839 hartrees
 There are        9 alpha and        9 beta electrons
 Requested basis set is aug-pc-4
 There are 162 shells and 642 basis functions

 Total QAlloc Memory Limit  64000 MB
 Mega-Array Size      1467 MB
 MEM_STATIC part      1500 MB

                       Distance Matrix (Angstroms)
             N (  1)   N (  2)   H (  3)   H (  4)   H (  5)
   N (  2)  1.446000
   H (  3)  1.016148  1.983311
   H (  4)  1.983311  1.016148  2.196378
   H (  5)  1.016105  1.983289  1.588911  2.195844
   H (  6)  1.983289  1.016105  2.195844  1.588911  2.785638
 
 A cutoff of  1.0D-14 yielded  12985 shell pairs
 There are    206233 function pairs (    368081 Cartesian)
 
 -------------------------------------------------------
 OpenMP Integral Computing Module                       
 Release: version 1.0, May 2013, Q-Chem Inc. Pittsburgh 
 -------------------------------------------------------
 Integral Job Info:
 Integral job number is                      11
 Integral operator is                         1
 short-range coefficients              19000000
 long-range coefficients               65000000
 Omega coefficients                         330
 if combine SR and LR in K                    1
 Integral screening is                        0
 Integral computing path is                   2
 max size of driver memory is           6400000
 size of driver memory is               5498286
 size of scratch memory is             28955960
 max col of scratch BK array             194481
 max len of scratch array in speh3         5572
 max len of scratch index in speh4           72
 max int batch size is                      520
 min int batch size is                       52
 fixed nKL is                                24
 max L of basis functions is                  5
 order of int derivative is                   0
 number of shells is                        162
 number of basis is                         856
 number of cartesian basis is               856
 number of contracted shell pairs         12985
 number of primitive shell pairs          22219
 maxK2 (contraction) of shell pair          121
 max number of K2 of shell pair               1
 max number of CS2 of shell pair           1760
 max number of PS2 of shell pair           1760
 mem total for path MDJ                 1567648
 -------------------------------------------------------
 Smallest overlap matrix eigenvalue = 2.07E-07
 Linear dependence detected in AO basis
 Number of orthogonalized atomic orbitals = 634
 Maximum deviation from orthogonality = 4.761E-10

 Scale SEOQF with 1.000000e-01/1.000000e-01/1.000000e-01

 Standard Electronic Orientation quadrupole field applied
 Nucleus-field energy     =     0.0000000007 hartrees
 Guess from superposition of atomic densities
 Warning:  Energy on first SCF cycle will be non-variational
 SAD guess density has 18.000000 electrons

 -----------------------------------------------------------------------
  General SCF calculation program by
  Eric Jon Sundstrom, Paul Horn, Yuezhi Mao, Dmitri Zuev, Alec White,
  David Stuck, Shaama M.S., Shane Yost, Joonho Lee, David Small,
  Daniel Levine, Susi Lehtola, Hugh Burton, Evgeny Epifanovsky
 -----------------------------------------------------------------------
 Exchange:     0.1900 Hartree-Fock + 0.3500 B88 + 0.4600 muB88 + LR-HF
 Correlation:  0.1900 VWN5 + 0.8100 LYP
 Using Euler-Maclaurin-Lebedev (99,590) quadrature formula
Running Object-Oriented UKS (UHF)
performing a single roothaan step with Fock from read density so that orbitals are available to all algorithms
energy of the guess density (C=0) -112.072290607445
We will preform up to 15 macro iterations over saddle points until a stable solution is found
Energy prior to optimization (guess energy) = -111.821764064944
Begin Timing: Total SCF Calculation
Begin Timing: SCF Single Stationary Point Calculation
begin iterations for algorithm: GDM          
the SCF tolerance is set to 1.00e-08
    1    -111.8217640649      4.85e-02     00000  Descent step
    2    -111.8557222789      2.84e-02     00000  Normal BFGS step
    3    -111.8711718299      3.10e-03     00000  Normal BFGS step
    4    -111.8714407485      7.29e-04     00000  Normal BFGS step
    5    -111.8714708014      1.33e-04     00000  Normal BFGS step
    6    -111.8714711864      3.60e-05     00000  Normal BFGS step
    7    -111.8714712117      7.29e-06     00000  Normal BFGS step
    8    -111.8714712128      1.64e-06     00000  Normal BFGS step
    9    -111.8714712129      3.71e-07     00000  Normal BFGS step
   10    -111.8714712129      8.46e-08     00000  Normal BFGS step
   11    -111.8714712129      2.16e-08     00000  Normal BFGS step
   12    -111.8714712129      4.07e-09     00000 Convergence criterion met
Timing for Single Stationary Point: 15915.00s (wall), 126447.22s (cpu)
Begin Timing: Stability
===================================================
Beginning Test for Internal Stability
===================================================
generating davidson guess vectors based on koopmans excitations
    1      4.28e-01     00000 Davidson Iteration
    2      2.28e-01     00000 Davidson Iteration
    3      9.15e-02     00000 Davidson Iteration
    4      1.34e-02     00000 Davidson Iteration
    5      1.14e-02     00000 Davidson Iteration
    6      2.22e-03     00000 Davidson Iteration
    7      1.64e-03     00000 Davidson Iteration
    8      3.43e-04     00000 Davidson Iteration
    9      1.38e-04     00000 Davidson Iteration
   10      4.38e-05     00000 Davidson Iteration
   11      7.13e-05     00000 Davidson Converged
converged_eigenvalues
   0.3897
   0.3559
Threshold for negative eigenvalues: -1.0e-05
solution was a local minimum (stable)
===================================================
End Test for Internal Stability
===================================================
Our SCF solution is stable!
Timing for Total SCF: 55127.00s (wall), 439857.99s (cpu)
 Total energy in the final basis set =     -111.8714712129
<S^2> =         -0.000000000
    ==================================================
              The end of Object-Oriented SCFman       
    ==================================================
 
 --------------------------------------------------------------
 
                    Orbital Energies (a.u.)
 --------------------------------------------------------------
 
 Alpha MOs
 -- Occupied --
-14.401 -14.401  -1.042  -0.833  -0.584  -0.559  -0.505  -0.367
 -0.307
 -- Virtual --
 -0.004   0.014   0.018   0.025   0.043   0.048   0.051   0.053
  0.055   0.061   0.062   0.077   0.085   0.102   0.113   0.115
  0.117   0.119   0.123   0.129   0.133   0.134   0.144   0.151
  0.163   0.168   0.174   0.188   0.198   0.198   0.202   0.212
  0.215   0.219   0.219   0.224   0.225   0.237   0.239   0.246
  0.251   0.253   0.255   0.268   0.271   0.274   0.281   0.282
  0.285   0.286   0.287   0.296   0.298   0.305   0.308   0.317
  0.320   0.336   0.354   0.367   0.374   0.375   0.376   0.386
  0.391   0.402   0.403   0.414   0.416   0.421   0.428   0.429
  0.440   0.441   0.444   0.446   0.449   0.465   0.469   0.470
  0.472   0.478   0.483   0.486   0.487   0.497   0.500   0.504
  0.507   0.515   0.525   0.526   0.534   0.537   0.541   0.544
  0.551   0.553   0.568   0.571   0.574   0.574   0.582   0.588
  0.589   0.594   0.602   0.618   0.627   0.628   0.650   0.658
  0.663   0.673   0.675   0.683   0.698   0.702   0.704   0.717
  0.726   0.737   0.737   0.741   0.751   0.757   0.767   0.771
  0.781   0.786   0.793   0.798   0.802   0.805   0.809   0.810
  0.822   0.822   0.829   0.832   0.834   0.843   0.844   0.859
  0.860   0.863   0.872   0.875   0.878   0.880   0.890   0.897
  0.898   0.904   0.911   0.912   0.919   0.921   0.934   0.935
  0.942   0.946   0.953   0.954   0.955   0.956   0.963   0.978
  0.984   0.989   0.997   1.000   1.008   1.012   1.012   1.021
  1.037   1.040   1.050   1.059   1.066   1.080   1.083   1.090
  1.091   1.107   1.122   1.129   1.143   1.153   1.161   1.163
  1.183   1.197   1.230   1.254   1.257   1.268   1.289   1.300
  1.307   1.323   1.332   1.337   1.352   1.361   1.363   1.368
  1.382   1.387   1.395   1.402   1.415   1.430   1.469   1.501
  1.523   1.533   1.543   1.590   1.591   1.619   1.623   1.660
  1.665   1.692   1.692   1.701   1.737   1.743   1.744   1.748
  1.776   1.789   1.809   1.816   1.830   1.859   1.885   1.890
  1.902   1.932   1.973   1.974   1.997   2.013   2.021   2.054
  2.055   2.076   2.100   2.119   2.142   2.179   2.197   2.212
  2.239   2.317   2.317   2.394   2.446   2.461   2.488   2.551
  2.560   2.580   2.597   2.677   2.683   2.733   2.781   2.832
  2.855   2.866   2.908   2.929   2.993   3.000   3.038   3.079
  3.109   3.279   3.327   3.357   3.363   3.375   3.417   3.435
  3.480   3.500   3.504   3.562   3.575   3.582   3.585   3.605
  3.611   3.637   3.652   3.691   3.698   3.716   3.781   3.789
  3.825   3.875   3.888   3.907   3.924   3.949   3.949   4.017
  4.033   4.062   4.077   4.088   4.105   4.142   4.158   4.178
  4.230   4.256   4.294   4.352   4.355   4.385   4.391   4.417
  4.444   4.495   4.543   4.575   4.593   4.616   4.640   4.724
  4.782   4.835   4.874   4.906   4.914   5.005   5.033   5.057
  5.122   5.141   5.201   5.221   5.272   5.289   5.411   5.454
  5.497   5.536   5.541   5.632   5.691   5.804   5.908   5.940
  5.947   5.984   6.032   6.051   6.128   6.221   6.232   6.276
  6.334   6.408   6.434   6.456   6.465   6.515   6.618   6.648
  6.698   6.713   6.808   6.819   6.855   6.865   6.998   7.013
  7.202   7.239   7.247   7.302   7.461   7.500   7.570   7.582
  7.773   7.778   7.866   7.866   7.939   7.965   8.109   8.151
  8.216   8.313   8.390   8.408   8.829   8.831   8.858   8.867
  8.957   8.973   9.005   9.025   9.141   9.183   9.201   9.251
  9.314   9.343   9.345   9.500   9.540   9.561   9.572   9.788
  9.807   9.867   9.878   9.934  10.040  10.185  10.206  10.231
 10.283  10.302  10.362  10.389  10.397  10.487  10.666  10.710
 11.259  11.340  11.373  11.405  11.540  11.585  11.658  11.668
 11.726  11.754  11.800  11.806  11.893  11.944  11.967  11.987
 11.989  12.108  12.125  12.134  12.198  12.241  12.372  12.541
 12.561  12.642  12.696  12.700  12.751  12.761  12.861  12.877
 12.920  12.941  13.024  13.042  13.080  13.084  13.132  13.138
 13.163  13.248  13.318  13.328  13.375  13.397  13.788  13.844
 13.905  13.926  14.054  14.190  14.242  14.349  14.426  14.444
 14.566  14.614  14.839  14.885  15.374  15.492  15.504  15.609
 15.618  15.634  15.671  15.701  15.793  15.799  15.860  16.043
 16.097  16.135  16.167  16.182  16.191  16.241  16.322  16.354
 16.510  16.552  16.659  16.812  16.853  16.877  16.945  16.945
 16.969  16.995  16.996  17.026  17.045  17.140  17.174  17.237
 17.320  17.347  17.464  17.466  17.544  17.587  17.592  17.833
 17.860  17.916  17.966  17.982  18.050  18.068  18.168  18.322
 18.478  18.813  18.976  19.003  19.152  19.152  19.468  19.472
 19.739  19.797  19.860  19.918  20.133  20.932  21.044  21.148
 21.149  21.212  21.234  21.381  21.430  21.433  21.924  22.294
 22.363  23.840  23.903  23.948  23.988  23.999  24.004  24.070
 24.087  24.629  24.766  25.849  25.904  26.229  26.233  27.940
 28.140  28.624  29.057  29.167  29.388  41.615  41.658  41.855
 41.874  48.510  48.531  48.668  48.683  48.732  48.750  49.247
 49.649  49.706  49.720  91.295  91.348  91.374  91.420  91.434
 91.434  91.495  91.507  93.090  93.112  93.210  93.269 106.398
106.749
 
 Beta MOs
 -- Occupied --
-14.401 -14.401  -1.042  -0.833  -0.584  -0.559  -0.505  -0.367
 -0.307
 -- Virtual --
 -0.004   0.014   0.018   0.025   0.043   0.048   0.051   0.053
  0.055   0.061   0.062   0.077   0.085   0.102   0.113   0.115
  0.117   0.119   0.123   0.129   0.133   0.134   0.144   0.151
  0.163   0.168   0.174   0.188   0.198   0.198   0.202   0.212
  0.215   0.219   0.219   0.224   0.225   0.237   0.239   0.246
  0.251   0.253   0.255   0.268   0.271   0.274   0.281   0.282
  0.285   0.286   0.287   0.296   0.298   0.305   0.308   0.317
  0.320   0.336   0.354   0.367   0.374   0.375   0.376   0.386
  0.391   0.402   0.403   0.414   0.416   0.421   0.428   0.429
  0.440   0.441   0.444   0.446   0.449   0.465   0.469   0.470
  0.472   0.478   0.483   0.486   0.487   0.497   0.500   0.504
  0.507   0.515   0.525   0.526   0.534   0.537   0.541   0.544
  0.551   0.553   0.568   0.571   0.574   0.574   0.582   0.588
  0.589   0.594   0.602   0.618   0.627   0.628   0.650   0.658
  0.663   0.673   0.675   0.683   0.698   0.702   0.704   0.717
  0.726   0.737   0.737   0.741   0.751   0.757   0.767   0.771
  0.781   0.786   0.793   0.798   0.802   0.805   0.809   0.810
  0.822   0.822   0.829   0.832   0.834   0.843   0.844   0.859
  0.860   0.863   0.872   0.875   0.878   0.880   0.890   0.897
  0.898   0.904   0.911   0.912   0.919   0.921   0.934   0.935
  0.942   0.946   0.953   0.954   0.955   0.956   0.963   0.978
  0.984   0.989   0.997   1.000   1.008   1.012   1.012   1.021
  1.037   1.040   1.050   1.059   1.066   1.080   1.083   1.090
  1.091   1.107   1.122   1.129   1.143   1.153   1.161   1.163
  1.183   1.197   1.230   1.254   1.257   1.268   1.289   1.300
  1.307   1.323   1.332   1.337   1.352   1.361   1.363   1.368
  1.382   1.387   1.395   1.402   1.415   1.430   1.469   1.501
  1.523   1.533   1.543   1.590   1.591   1.619   1.623   1.660
  1.665   1.692   1.692   1.701   1.737   1.743   1.744   1.748
  1.776   1.789   1.809   1.816   1.830   1.859   1.885   1.890
  1.902   1.932   1.973   1.974   1.997   2.013   2.021   2.054
  2.055   2.076   2.100   2.119   2.142   2.179   2.197   2.212
  2.239   2.317   2.317   2.394   2.446   2.461   2.488   2.551
  2.560   2.580   2.597   2.677   2.683   2.733   2.781   2.832
  2.855   2.866   2.908   2.929   2.993   3.000   3.038   3.079
  3.109   3.279   3.327   3.357   3.363   3.375   3.417   3.435
  3.480   3.500   3.504   3.562   3.575   3.582   3.585   3.605
  3.611   3.637   3.652   3.691   3.698   3.716   3.781   3.789
  3.825   3.875   3.888   3.907   3.924   3.949   3.949   4.017
  4.033   4.062   4.077   4.088   4.105   4.142   4.158   4.178
  4.230   4.256   4.294   4.352   4.355   4.385   4.391   4.417
  4.444   4.495   4.543   4.575   4.593   4.616   4.640   4.724
  4.782   4.835   4.874   4.906   4.914   5.005   5.033   5.057
  5.122   5.141   5.201   5.221   5.272   5.289   5.411   5.454
  5.497   5.536   5.541   5.632   5.691   5.804   5.908   5.940
  5.947   5.984   6.032   6.051   6.128   6.221   6.232   6.276
  6.334   6.408   6.434   6.456   6.465   6.515   6.618   6.648
  6.698   6.713   6.808   6.819   6.855   6.865   6.998   7.013
  7.202   7.239   7.247   7.302   7.461   7.500   7.570   7.582
  7.773   7.778   7.866   7.866   7.939   7.965   8.109   8.151
  8.216   8.313   8.390   8.408   8.829   8.831   8.858   8.867
  8.957   8.973   9.005   9.025   9.141   9.183   9.201   9.251
  9.314   9.343   9.345   9.500   9.540   9.561   9.572   9.788
  9.807   9.867   9.878   9.934  10.040  10.185  10.206  10.231
 10.283  10.302  10.362  10.389  10.397  10.487  10.666  10.710
 11.259  11.340  11.373  11.405  11.540  11.585  11.658  11.668
 11.726  11.754  11.800  11.806  11.893  11.944  11.967  11.987
 11.989  12.108  12.125  12.134  12.198  12.241  12.372  12.541
 12.561  12.642  12.696  12.700  12.751  12.761  12.861  12.877
 12.920  12.941  13.024  13.042  13.080  13.084  13.132  13.138
 13.163  13.248  13.318  13.328  13.375  13.397  13.788  13.844
 13.905  13.926  14.054  14.190  14.242  14.349  14.426  14.444
 14.566  14.614  14.839  14.885  15.374  15.492  15.504  15.609
 15.618  15.634  15.671  15.701  15.793  15.799  15.860  16.043
 16.097  16.135  16.167  16.182  16.191  16.241  16.322  16.354
 16.510  16.552  16.659  16.812  16.853  16.877  16.945  16.945
 16.969  16.995  16.996  17.026  17.045  17.140  17.174  17.237
 17.320  17.347  17.464  17.466  17.544  17.587  17.592  17.833
 17.860  17.916  17.966  17.982  18.050  18.068  18.168  18.322
 18.478  18.813  18.976  19.003  19.152  19.152  19.468  19.472
 19.739  19.797  19.860  19.918  20.133  20.932  21.044  21.148
 21.149  21.212  21.234  21.381  21.430  21.433  21.924  22.294
 22.363  23.840  23.903  23.948  23.988  23.999  24.004  24.070
 24.087  24.629  24.766  25.849  25.904  26.229  26.233  27.940
 28.140  28.624  29.057  29.167  29.388  41.615  41.658  41.855
 41.874  48.510  48.531  48.668  48.683  48.732  48.750  49.247
 49.649  49.706  49.720  91.295  91.348  91.374  91.420  91.434
 91.434  91.495  91.507  93.090  93.112  93.210  93.269 106.398
106.749
 --------------------------------------------------------------
 
          Ground-State Mulliken Net Atomic Charges

     Atom                 Charge (a.u.)    Spin (a.u.)
  --------------------------------------------------------
      1 N                    -0.319232      -0.000000
      2 N                    -0.319232       0.000000
      3 H                     0.147499      -0.000000
      4 H                     0.147499      -0.000000
      5 H                     0.171733       0.000000
      6 H                     0.171733       0.000000
  --------------------------------------------------------
  Sum of atomic charges =    -0.000000
  Sum of spin   charges =     0.000000

 -----------------------------------------------------------------
                    Cartesian Multipole Moments
 -----------------------------------------------------------------
    Charge (ESU x 10^10)
                -0.0000
    Dipole Moment (Debye)
         X       0.0000      Y      -0.0000      Z       2.7745
       Tot       2.7745
    Quadrupole Moments (Debye-Ang)
        XX     -11.6310     XY       2.0279     YY     -14.2266
        XZ      -0.0000     YZ       0.0000     ZZ     -14.4656
    Octopole Moments (Debye-Ang^2)
       XXX       0.0000    XXY      -0.0000    XYY      -0.0000
       YYY       0.0000    XXZ       1.1287    XYZ      -1.4980
       YYZ       4.2847    XZZ       0.0000    YZZ      -0.0000
       ZZZ       3.2137
    Hexadecapole Moments (Debye-Ang^3)
      XXXX     -18.7315   XXXY       1.6490   XXYY     -12.6946
      XYYY       1.5182   YYYY     -67.7721   XXXZ      -0.0000
      XXYZ       0.0000   XYYZ      -0.0000   YYYZ       0.0000
      XXZZ      -6.9772   XYZZ      -1.0488   YYZZ     -15.7490
      XZZZ      -0.0000   YZZZ       0.0000   ZZZZ     -21.2874
 -----------------------------------------------------------------
Archival summary:
1\1\n0057.mhg0\SP\ProcedureUnspecified\BasisUnspecified\24\yhljason\MonAug314:52:522020MonAug314:52:522020\0\\#,ProcedureUnspecified,BasisUnspecified,\\0,1\N\H,1,1.01611\H,1,1.01615,2,102.86\N,1,1.446,2,106.001,3,-111.076,0\H,4,1.01611,1,106.001,2,163.234,0\H,4,1.01615,1,106.001,2,54.3829,0\\\@

 Total job time:  56497.09s(wall), 450678.93s(cpu) 
 Mon Aug  3 14:52:52 2020

        *************************************************************
        *                                                           *
        *  Thank you very much for using Q-Chem.  Have a nice day.  *
        *                                                           *
        *************************************************************


