Q-Chem Developer Version!
                  Welcome to Q-Chem
     A Quantum Leap Into The Future Of Chemistry


 Q-Chem 5.1, Q-Chem, Inc., Pleasanton, CA (2018)

 Yihan Shao,  Zhengting Gan,  E. Epifanovsky,  A. T. B. Gilbert,  M. Wormit,  
 J. Kussmann,  A. W. Lange,  A. Behn,  Jia Deng,  Xintian Feng,  D. Ghosh,  
 M. Goldey,  P. R. Horn,  L. D. Jacobson,  I. Kaliman,  T. Kus,  A. Landau,  
 Jie Liu,  E. I. Proynov,  R. M. Richard,  R. P. Steele,  E. J. Sundstrom,  
 H. L. Woodcock III,  P. M. Zimmerman,  D. Zuev,  B. Albrecht,  E. Alguire,  
 S. A. Baeppler,  D. Barton,  Z. Benda,  Y. A. Bernard,  E. J. Berquist,  
 K. B. Bravaya,  H. Burton,  D. Casanova,  Chun-Min Chang,  Yunqing Chen,  
 A. Chien,  K. D. Closser,  M. P. Coons,  S. Coriani,  S. Dasgupta,  
 A. L. Dempwolff,  M. Diedenhofen,  Hainam Do,  R. G. Edgar,  Po-Tung Fang,  
 S. Faraji,  S. Fatehi,  Qingguo Feng,  K. D. Fenk,  J. Fosso-Tande,  
 Qinghui Ge,  A. Ghysels,  G. Gidofalvi,  J. Gomes,  J. Gonthier,  A. Gunina,  
 D. Hait,  M. W. D. Hanson-Heine,  P. H. P. Harbach,  A. W. Hauser,  
 J. E. Herr,  E. G. Hohenstein,  Z. C. Holden,  Kerwin Hui,  B. C. Huynh,  
 T.-C. Jagau,  Hyunjun Ji,  B. Kaduk,  K. Khistyaev,  Jaehoon Kim,  
 P. Klunzinger,  K. Koh,  D. Kosenkov,  L. Koulias,  T. Kowalczyk,  
 C. M. Krauter,  A. Kunitsa,  Ka Un Lao,  A. Laurent,  K. V. Lawler,  
 Joonho Lee,  D. Lefrancois,  S. Lehtola,  D. S. Levine,  Yi-Pei Li,  
 You-Sheng Lin,  Fenglai Liu,  E. Livshits,  A. Luenser,  P. Manohar,  
 E. Mansoor,  S. F. Manzer,  Shan-Ping Mao,  Yuezhi Mao,  N. Mardirossian,  
 A. V. Marenich,  T. Markovich,  L. A. Martinez-Martinez,  S. A. Maurer,  
 N. J. Mayhall,  S. C. McKenzie,  J.-M. Mewes,  A. F. Morrison,  
 J. W. Mullinax,  K. Nanda,  T. S. Nguyen-Beck,  R. Olivares-Amaya,  
 J. A. Parkhill,  T. M. Perrine,  F. Plasser,  P. Pokhilko,  S. Prager,  
 A. Prociuk,  E. Ramos,  D. R. Rehn,  F. Rob,  M. Schneider,  N. Sergueev,  
 S. M. Sharada,  S. Sharma,  D. W. Small,  T. Stauch,  T. Stein,  
 Yu-Chuan Su,  A. J. W. Thom,  A. Tkatchenko,  T. Tsuchimochi,  N. M. Tubman,  
 L. Vogt,  M. L. Vidal,  O. Vydrov,  M. A. Watson,  J. Wenzel,  
 M. de Wergifosse,  T. A. Wesolowski,  A. White,  J. Witte,  A. Yamada,  
 Jun Yang,  K. Yao,  S. Yeganeh,  S. R. Yost,  Zhi-Qiang You,  A. Zech,  
 Igor Ying Zhang,  Xing Zhang,  Yan Zhao,  Ying Zhu,  B. R. Brooks,  
 G. K. L. Chan,  C. J. Cramer,  M. S. Gordon,  W. J. Hehre,  A. Klamt,  
 M. W. Schmidt,  C. D. Sherrill,  D. G. Truhlar,  A. Aspuru-Guzik,  R. Baer,  
 A. T. Bell,  N. A. Besley,  Jeng-Da Chai,  A. E. DePrince, III,  
 R. A. DiStasio Jr.,  A. Dreuw,  B. D. Dunietz,  T. R. Furlani,  
 Chao-Ping Hsu,  Yousung Jung,  Jing Kong,  D. S. Lambrecht,  WanZhen Liang,  
 C. Ochsenfeld,  V. A. Rassolov,  L. V. Slipchenko,  J. E. Subotnik,  
 T. Van Voorhis,  J. M. Herbert,  A. I. Krylov,  P. M. W. Gill,  M. Head-Gordon

 Contributors to earlier versions of Q-Chem not listed above: 
 R. D. Adamson,  B. Austin,  J. Baker,  G. J. O. Beran,  K. Brandhorst,  
 S. T. Brown,  E. F. C. Byrd,  A. K. Chakraborty,  C.-L. Cheng,  
 Siu Hung Chien,  D. M. Chipman,  D. L. Crittenden,  H. Dachsel,  
 R. J. Doerksen,  A. D. Dutoi,  L. Fusti-Molnar,  W. A. Goddard III,  
 A. Golubeva-Zadorozhnaya,  S. R. Gwaltney,  G. Hawkins,  A. Heyden,  
 S. Hirata,  G. Kedziora,  F. J. Keil,  C. Kelley,  Jihan Kim,  R. A. King,  
 R. Z. Khaliullin,  P. P. Korambath,  W. Kurlancheek,  A. M. Lee,  M. S. Lee,  
 S. V. Levchenko,  Ching Yeh Lin,  D. Liotard,  R. C. Lochan,  I. Lotan,  
 P. E. Maslen,  N. Nair,  D. P. O'Neill,  D. Neuhauser,  E. Neuscamman,  
 C. M. Oana,  R. Olson,  B. Peters,  R. Peverati,  P. A. Pieniazek,  
 Y. M. Rhee,  J. Ritchie,  M. A. Rohrdanz,  E. Rosta,  N. J. Russ,  
 H. F. Schaefer III,  N. E. Schultz,  N. Shenvi,  A. C. Simmonett,  A. Sodt,  
 D. Stuck,  K. S. Thanthiriwatte,  V. Vanovschi,  Tao Wang,  A. Warshel,  
 C. F. Williams,  Q. Wu,  X. Xu,  W. Zhang

 Please cite Q-Chem as follows:
 Y. Shao et al., Mol. Phys. 113, 184-215 (2015)
 DOI: 10.1080/00268976.2014.952696

 Q-Chem 5.1.1 for Intel X86 EM64T Linux

 Parts of Q-Chem use Armadillo 8.300.2 (Tropical Shenanigans).
 http://arma.sourceforge.net/

 Q-Chem begins on Thu Jul 23 04:15:20 2020  

Host: n0096.mhg0
0

     Scratch files written to /local/scratch/users/yhljason/Na2_CAM-B3LYP_aug-pc-4.inp20200723033916//
Input Ideriv = 2
Curr. Ideriv = -1
Max.  Ideriv = 2

Checking the input file for inconsistencies... 	...done.

--------------------------------------------------------------
User input:
--------------------------------------------------------------
$molecule
0 1
Na1	0.0000	0.0000	0.0000
Na2	0.0000	0.0000	3.0789
$end

$rem
jobtype sp
method CAM-B3LYP
xc_grid 000099000590
basis aug-pc-4
max_scf_cycles 200
thresh 14
scf_convergence 8
scf_algorithm gdm
symmetry false
sym_ignore true
unrestricted true
gen_scfman true
internal_stability_iter 15
internal_stability_davidson_iter 200
mem_total 64000
mem_static 1500
n_frozen_core 0
$end


--------------------------------------------------------------
 ----------------------------------------------------------------
             Standard Nuclear Orientation (Angstroms)
    I     Atom           X                Y                Z
 ----------------------------------------------------------------
    1      Na      0.0000000000     0.0000000000     0.0000000000
    2      Na      0.0000000000     0.0000000000     3.0789000000
 ----------------------------------------------------------------
 Nuclear Repulsion Energy =    20.7965320429 hartrees
 There are       11 alpha and       11 beta electrons
 Requested basis set is aug-pc-4
 There are 46 shells and 170 basis functions

 Total QAlloc Memory Limit  64000 MB
 Mega-Array Size      1467 MB
 MEM_STATIC part      1500 MB

                       Distance Matrix (Angstroms)
             Na(  1)
   Na(  2)  3.078900
 
 A cutoff of  1.0D-14 yielded   1077 shell pairs
 There are     14885 function pairs (     25107 Cartesian)
 
 -------------------------------------------------------
 OpenMP Integral Computing Module                       
 Release: version 1.0, May 2013, Q-Chem Inc. Pittsburgh 
 -------------------------------------------------------
 Integral Job Info:
 Integral job number is                      11
 Integral operator is                         1
 short-range coefficients              19000000
 long-range coefficients               65000000
 Omega coefficients                         330
 if combine SR and LR in K                    1
 Integral screening is                        0
 Integral computing path is                   2
 max size of driver memory is           3200000
 size of driver memory is               1704330
 size of scratch memory is             27411850
 max col of scratch BK array              50625
 max len of scratch array in speh3         2114
 max len of scratch index in speh4           50
 max int batch size is                      520
 min int batch size is                       52
 fixed nKL is                                 7
 max L of basis functions is                  4
 order of int derivative is                   0
 number of shells is                         46
 number of basis is                         220
 number of cartesian basis is               220
 number of contracted shell pairs          1077
 number of primitive shell pairs           7966
 maxK2 (contraction) of shell pair          225
 max number of K2 of shell pair               1
 max number of CS2 of shell pair            100
 max number of PS2 of shell pair            450
 mem total for path MDJ                  660646
 -------------------------------------------------------
 Smallest overlap matrix eigenvalue = 1.16E-05

 Scale SEOQF with 1.000000e-02/1.000000e-02/1.000000e-02

 Standard Electronic Orientation quadrupole field applied
 Nucleus-field energy     =    -0.0000000011 hartrees
 Guess from superposition of atomic densities
 Warning:  Energy on first SCF cycle will be non-variational
 SAD guess density has 22.000000 electrons

 -----------------------------------------------------------------------
  General SCF calculation program by
  Eric Jon Sundstrom, Paul Horn, Yuezhi Mao, Dmitri Zuev, Alec White,
  David Stuck, Shaama M.S., Shane Yost, Joonho Lee, David Small,
  Daniel Levine, Susi Lehtola, Hugh Burton, Evgeny Epifanovsky
 -----------------------------------------------------------------------
 Exchange:     0.1900 Hartree-Fock + 0.3500 B88 + 0.4600 muB88 + LR-HF
 Correlation:  0.1900 VWN5 + 0.8100 LYP
 Using Euler-Maclaurin-Lebedev (99,590) quadrature formula
Running Object-Oriented UKS (UHF)
performing a single roothaan step with Fock from read density so that orbitals are available to all algorithms
energy of the guess density (C=0) -324.544467015328
We will preform up to 15 macro iterations over saddle points until a stable solution is found
Energy prior to optimization (guess energy) = -324.581703630211
Begin Timing: Total SCF Calculation
Begin Timing: SCF Single Stationary Point Calculation
begin iterations for algorithm: GDM          
the SCF tolerance is set to 1.00e-08
    1    -324.5817036302      1.02e-02     00000  Normal BFGS step
    2    -324.5827512492      4.10e-03     00000  Normal BFGS step
    3    -324.5829160847      7.80e-04     00000  Normal BFGS step
    4    -324.5829194737      1.92e-04     00000  Normal BFGS step
    5    -324.5829197918      3.80e-05     00000  Normal BFGS step
    6    -324.5829198021      7.96e-06     00000  Normal BFGS step
    7    -324.5829198025      8.73e-07     00000  Normal BFGS step
    8    -324.5829198025      1.85e-07     00000  Normal BFGS step
    9    -324.5829198025      1.46e-08     00000  Normal BFGS step
   10    -324.5829198025      3.60e-09     00000 Convergence criterion met
Timing for Single Stationary Point: 164.00s (wall), 907.16s (cpu)
Begin Timing: Stability
===================================================
Beginning Test for Internal Stability
===================================================
generating davidson guess vectors based on koopmans excitations
    1      3.48e-01     00000 Davidson Iteration
    2      1.01e-01     00000 Davidson Iteration
    3      1.17e-02     00000 Davidson Iteration
    4      1.09e-03     00000 Davidson Iteration
    5      2.67e-04     00000 Davidson Iteration
    6      6.29e-05     00000 Davidson Iteration
    7      2.10e-03     00000 Davidson Iteration
    8      3.68e-04     00000 Davidson Iteration
    9      8.82e-04     00000 Davidson Iteration
   10      2.73e-04     00000 Davidson Iteration
   11      4.72e-05     00000 Davidson Converged
converged_eigenvalues
   0.0362
   0.2068
Threshold for negative eigenvalues: -1.0e-05
solution was a local minimum (stable)
===================================================
End Test for Internal Stability
===================================================
Our SCF solution is stable!
Timing for Total SCF: 444.00s (wall), 2937.57s (cpu)
 Total energy in the final basis set =     -324.5829198025
<S^2> =         -0.000000000
    ==================================================
              The end of Object-Oriented SCFman       
    ==================================================
 
 --------------------------------------------------------------
 
                    Orbital Energies (a.u.)
 --------------------------------------------------------------
 
 Alpha MOs
 -- Occupied --
-38.499 -38.499  -2.282  -2.282  -1.212  -1.211  -1.211  -1.211
 -1.211  -1.210  -0.162
 -- Virtual --
 -0.028  -0.002  -0.002   0.002   0.007   0.013   0.014   0.014
  0.021   0.021   0.023   0.024   0.038   0.038   0.040   0.040
  0.043   0.043   0.053   0.053   0.056   0.056   0.061   0.071
  0.076   0.076   0.083   0.083   0.088   0.088   0.090   0.093
  0.105   0.105   0.108   0.109   0.109   0.111   0.111   0.119
  0.123   0.123   0.128   0.128   0.141   0.141   0.141   0.141
  0.148   0.152   0.152   0.158   0.158   0.163   0.163   0.168
  0.168   0.169   0.169   0.169   0.184   0.197   0.197   0.200
  0.201   0.201   0.217   0.233   0.255   0.255   0.293   0.293
  0.318   0.318   0.363   0.385   0.395   0.395   0.412   0.412
  0.415   0.425   0.486   0.486   0.657   0.693   0.724   0.724
  0.741   0.741   0.770   0.817   0.817   0.842   0.842   0.876
  0.876   0.904   0.904   0.972   0.972   1.013   1.121   1.121
  1.228   1.374   1.374   1.401   1.401   1.403   1.405   1.405
  1.458   1.458   1.475   1.475   1.476   1.476   1.480   1.480
  1.514   1.514   1.529   1.529   1.536   1.536   1.618   1.703
  1.703   1.722   1.751   1.942   1.942   2.523   3.006   4.058
  4.058   4.069   4.069   4.073   4.073   4.082   4.082   4.123
  4.123   4.155   4.280   4.280   4.360   5.761   5.761   5.767
  5.767   5.775   5.775   5.820   5.820   5.860   5.872
 
 Beta MOs
 -- Occupied --
-38.499 -38.499  -2.282  -2.282  -1.212  -1.211  -1.211  -1.211
 -1.211  -1.210  -0.162
 -- Virtual --
 -0.028  -0.002  -0.002   0.002   0.007   0.013   0.014   0.014
  0.021   0.021   0.023   0.024   0.038   0.038   0.040   0.040
  0.043   0.043   0.053   0.053   0.056   0.056   0.061   0.071
  0.076   0.076   0.083   0.083   0.088   0.088   0.090   0.093
  0.105   0.105   0.108   0.109   0.109   0.111   0.111   0.119
  0.123   0.123   0.128   0.128   0.141   0.141   0.141   0.141
  0.148   0.152   0.152   0.158   0.158   0.163   0.163   0.168
  0.168   0.169   0.169   0.169   0.184   0.197   0.197   0.200
  0.201   0.201   0.217   0.233   0.255   0.255   0.293   0.293
  0.318   0.318   0.363   0.385   0.395   0.395   0.412   0.412
  0.415   0.425   0.486   0.486   0.657   0.693   0.724   0.724
  0.741   0.741   0.770   0.817   0.817   0.842   0.842   0.876
  0.876   0.904   0.904   0.972   0.972   1.013   1.121   1.121
  1.228   1.374   1.374   1.401   1.401   1.403   1.405   1.405
  1.458   1.458   1.475   1.475   1.476   1.476   1.480   1.480
  1.514   1.514   1.529   1.529   1.536   1.536   1.618   1.703
  1.703   1.722   1.751   1.942   1.942   2.523   3.006   4.058
  4.058   4.069   4.069   4.073   4.073   4.082   4.082   4.123
  4.123   4.155   4.280   4.280   4.360   5.761   5.761   5.767
  5.767   5.775   5.775   5.820   5.820   5.860   5.872
 --------------------------------------------------------------
 
          Ground-State Mulliken Net Atomic Charges

     Atom                 Charge (a.u.)    Spin (a.u.)
  --------------------------------------------------------
      1 Na                   -0.000000       0.000000
      2 Na                    0.000000      -0.000000
  --------------------------------------------------------
  Sum of atomic charges =    -0.000000
  Sum of spin   charges =     0.000000

 -----------------------------------------------------------------
                    Cartesian Multipole Moments
 -----------------------------------------------------------------
    Charge (ESU x 10^10)
                -0.0000
    Dipole Moment (Debye)
         X       0.0000      Y       0.0000      Z       0.0000
       Tot       0.0000
    Quadrupole Moments (Debye-Ang)
        XX     -22.7351     XY       0.0000     YY     -22.7351
        XZ       0.0000     YZ       0.0000     ZZ      -9.5237
    Octopole Moments (Debye-Ang^2)
       XXX      -0.0000    XXY      -0.0000    XYY      -0.0000
       YYY       0.0000    XXZ     -34.9995    XYZ       0.0000
       YYZ     -34.9995    XZZ       0.0000    YZZ       0.0000
       ZZZ     -43.9838
    Hexadecapole Moments (Debye-Ang^3)
      XXXX     -97.5462   XXXY       0.0000   XXYY     -32.5154
      XYYY      -0.0000   YYYY     -97.5462   XXXZ      -0.0000
      XXYZ       0.0000   XYYZ      -0.0000   YYYZ       0.0000
      XXZZ    -117.7994   XYZZ       0.0000   YYZZ    -117.7994
      XZZZ       0.0000   YZZZ       0.0000   ZZZZ    -385.5504
 -----------------------------------------------------------------
Archival summary:
1\1\n0096.mhg0\SP\ProcedureUnspecified\BasisUnspecified\a2\yhljason\ThuJul2304:22:592020ThuJul2304:22:592020\0\\#,ProcedureUnspecified,BasisUnspecified,\\0,1\Na\Na,1,3.0789\\\@

 Total job time:  458.89s(wall), 3055.14s(cpu) 
 Thu Jul 23 04:22:59 2020

        *************************************************************
        *                                                           *
        *  Thank you very much for using Q-Chem.  Have a nice day.  *
        *                                                           *
        *************************************************************


