Q-Chem Developer Version!
                  Welcome to Q-Chem
     A Quantum Leap Into The Future Of Chemistry


 Q-Chem 5.1, Q-Chem, Inc., Pleasanton, CA (2018)

 Yihan Shao,  Zhengting Gan,  E. Epifanovsky,  A. T. B. Gilbert,  M. Wormit,  
 J. Kussmann,  A. W. Lange,  A. Behn,  Jia Deng,  Xintian Feng,  D. Ghosh,  
 M. Goldey,  P. R. Horn,  L. D. Jacobson,  I. Kaliman,  T. Kus,  A. Landau,  
 Jie Liu,  E. I. Proynov,  R. M. Richard,  R. P. Steele,  E. J. Sundstrom,  
 H. L. Woodcock III,  P. M. Zimmerman,  D. Zuev,  B. Albrecht,  E. Alguire,  
 S. A. Baeppler,  D. Barton,  Z. Benda,  Y. A. Bernard,  E. J. Berquist,  
 K. B. Bravaya,  H. Burton,  D. Casanova,  Chun-Min Chang,  Yunqing Chen,  
 A. Chien,  K. D. Closser,  M. P. Coons,  S. Coriani,  S. Dasgupta,  
 A. L. Dempwolff,  M. Diedenhofen,  Hainam Do,  R. G. Edgar,  Po-Tung Fang,  
 S. Faraji,  S. Fatehi,  Qingguo Feng,  K. D. Fenk,  J. Fosso-Tande,  
 Qinghui Ge,  A. Ghysels,  G. Gidofalvi,  J. Gomes,  J. Gonthier,  A. Gunina,  
 D. Hait,  M. W. D. Hanson-Heine,  P. H. P. Harbach,  A. W. Hauser,  
 J. E. Herr,  E. G. Hohenstein,  Z. C. Holden,  Kerwin Hui,  B. C. Huynh,  
 T.-C. Jagau,  Hyunjun Ji,  B. Kaduk,  K. Khistyaev,  Jaehoon Kim,  
 P. Klunzinger,  K. Koh,  D. Kosenkov,  L. Koulias,  T. Kowalczyk,  
 C. M. Krauter,  A. Kunitsa,  Ka Un Lao,  A. Laurent,  K. V. Lawler,  
 Joonho Lee,  D. Lefrancois,  S. Lehtola,  D. S. Levine,  Yi-Pei Li,  
 You-Sheng Lin,  Fenglai Liu,  E. Livshits,  A. Luenser,  P. Manohar,  
 E. Mansoor,  S. F. Manzer,  Shan-Ping Mao,  Yuezhi Mao,  N. Mardirossian,  
 A. V. Marenich,  T. Markovich,  L. A. Martinez-Martinez,  S. A. Maurer,  
 N. J. Mayhall,  S. C. McKenzie,  J.-M. Mewes,  A. F. Morrison,  
 J. W. Mullinax,  K. Nanda,  T. S. Nguyen-Beck,  R. Olivares-Amaya,  
 J. A. Parkhill,  T. M. Perrine,  F. Plasser,  P. Pokhilko,  S. Prager,  
 A. Prociuk,  E. Ramos,  D. R. Rehn,  F. Rob,  M. Schneider,  N. Sergueev,  
 S. M. Sharada,  S. Sharma,  D. W. Small,  T. Stauch,  T. Stein,  
 Yu-Chuan Su,  A. J. W. Thom,  A. Tkatchenko,  T. Tsuchimochi,  N. M. Tubman,  
 L. Vogt,  M. L. Vidal,  O. Vydrov,  M. A. Watson,  J. Wenzel,  
 M. de Wergifosse,  T. A. Wesolowski,  A. White,  J. Witte,  A. Yamada,  
 Jun Yang,  K. Yao,  S. Yeganeh,  S. R. Yost,  Zhi-Qiang You,  A. Zech,  
 Igor Ying Zhang,  Xing Zhang,  Yan Zhao,  Ying Zhu,  B. R. Brooks,  
 G. K. L. Chan,  C. J. Cramer,  M. S. Gordon,  W. J. Hehre,  A. Klamt,  
 M. W. Schmidt,  C. D. Sherrill,  D. G. Truhlar,  A. Aspuru-Guzik,  R. Baer,  
 A. T. Bell,  N. A. Besley,  Jeng-Da Chai,  A. E. DePrince, III,  
 R. A. DiStasio Jr.,  A. Dreuw,  B. D. Dunietz,  T. R. Furlani,  
 Chao-Ping Hsu,  Yousung Jung,  Jing Kong,  D. S. Lambrecht,  WanZhen Liang,  
 C. Ochsenfeld,  V. A. Rassolov,  L. V. Slipchenko,  J. E. Subotnik,  
 T. Van Voorhis,  J. M. Herbert,  A. I. Krylov,  P. M. W. Gill,  M. Head-Gordon

 Contributors to earlier versions of Q-Chem not listed above: 
 R. D. Adamson,  B. Austin,  J. Baker,  G. J. O. Beran,  K. Brandhorst,  
 S. T. Brown,  E. F. C. Byrd,  A. K. Chakraborty,  C.-L. Cheng,  
 Siu Hung Chien,  D. M. Chipman,  D. L. Crittenden,  H. Dachsel,  
 R. J. Doerksen,  A. D. Dutoi,  L. Fusti-Molnar,  W. A. Goddard III,  
 A. Golubeva-Zadorozhnaya,  S. R. Gwaltney,  G. Hawkins,  A. Heyden,  
 S. Hirata,  G. Kedziora,  F. J. Keil,  C. Kelley,  Jihan Kim,  R. A. King,  
 R. Z. Khaliullin,  P. P. Korambath,  W. Kurlancheek,  A. M. Lee,  M. S. Lee,  
 S. V. Levchenko,  Ching Yeh Lin,  D. Liotard,  R. C. Lochan,  I. Lotan,  
 P. E. Maslen,  N. Nair,  D. P. O'Neill,  D. Neuhauser,  E. Neuscamman,  
 C. M. Oana,  R. Olson,  B. Peters,  R. Peverati,  P. A. Pieniazek,  
 Y. M. Rhee,  J. Ritchie,  M. A. Rohrdanz,  E. Rosta,  N. J. Russ,  
 H. F. Schaefer III,  N. E. Schultz,  N. Shenvi,  A. C. Simmonett,  A. Sodt,  
 D. Stuck,  K. S. Thanthiriwatte,  V. Vanovschi,  Tao Wang,  A. Warshel,  
 C. F. Williams,  Q. Wu,  X. Xu,  W. Zhang

 Please cite Q-Chem as follows:
 Y. Shao et al., Mol. Phys. 113, 184-215 (2015)
 DOI: 10.1080/00268976.2014.952696

 Q-Chem 5.1.1 for Intel X86 EM64T Linux

 Parts of Q-Chem use Armadillo 8.300.2 (Tropical Shenanigans).
 http://arma.sourceforge.net/

 Q-Chem begins on Sun Aug  2 23:11:35 2020  

Host: n0059.mhg0
0

     Scratch files written to /local/scratch/users/yhljason/NH2F_MN15-L_aug-pc-4.inp20200802231132//
Input Ideriv = 2
Curr. Ideriv = -1
Max.  Ideriv = 2
Input Ideriv = 1
Curr. Ideriv = 2
Max.  Ideriv = 1

Checking the input file for inconsistencies... 	...done.

--------------------------------------------------------------
User input:
--------------------------------------------------------------
$molecule
0 1
          N       0.0000000000     0.0000000000     0.0000000000
          H       0.0000000000     0.0000000000     1.0171780000
          H       0.9838480958     0.0000000000    -0.2582518307
          F      -0.3678444665     1.3400564697    -0.2837498835
$end

$rem
jobtype sp
method MN15-L
xc_grid 000099000590
basis aug-pc-4
max_scf_cycles 200
thresh 14
scf_convergence 8
scf_algorithm gdm
symmetry false
sym_ignore true
unrestricted true
gen_scfman true
internal_stability_iter 15
internal_stability_davidson_iter 200
mem_total 64000
mem_static 1500
n_frozen_core 0
$end


--------------------------------------------------------------
 ----------------------------------------------------------------
             Standard Nuclear Orientation (Angstroms)
    I     Atom           X                Y                Z
 ----------------------------------------------------------------
    1      N       0.0000000000     0.0000000000     0.0000000000
    2      H       0.0000000000     0.0000000000     1.0171780000
    3      H       0.9838480958     0.0000000000    -0.2582518307
    4      F      -0.3678444665     1.3400564697    -0.2837498835
 ----------------------------------------------------------------
 Nuclear Repulsion Energy =    36.1215344980 hartrees
 There are        9 alpha and        9 beta electrons
 Requested basis set is aug-pc-4
 There are 114 shells and 466 basis functions

 Total QAlloc Memory Limit  64000 MB
 Mega-Array Size      1467 MB
 MEM_STATIC part      1500 MB

                       Distance Matrix (Angstroms)
             N (  1)   H (  2)   H (  3)
   H (  2)  1.017178
   H (  3)  1.017178  1.610801
   F (  4)  1.418300  1.903543  1.903543
 
 A cutoff of  1.0D-14 yielded   6477 shell pairs
 There are    109531 function pairs (    201144 Cartesian)
 
 -------------------------------------------------------
 OpenMP Integral Computing Module                       
 Release: version 1.0, May 2013, Q-Chem Inc. Pittsburgh 
 -------------------------------------------------------
 Integral Job Info:
 Integral job number is                      11
 Integral operator is                         1
 short-range coefficients                     0
 long-range coefficients              100000000
 Omega coefficients                           0
 if combine SR and LR in K                    0
 Integral screening is                        0
 Integral computing path is                   2
 max size of driver memory is           6400000
 size of driver memory is               5498286
 size of scratch memory is             29792225
 max col of scratch BK array             194481
 max len of scratch array in speh3         5572
 max len of scratch index in speh4           72
 max int batch size is                      520
 min int batch size is                       52
 fixed nKL is                                25
 max L of basis functions is                  5
 order of int derivative is                   0
 number of shells is                        114
 number of basis is                         630
 number of cartesian basis is               630
 number of contracted shell pairs          6477
 number of primitive shell pairs          12490
 maxK2 (contraction) of shell pair          121
 max number of K2 of shell pair               1
 max number of CS2 of shell pair            785
 max number of PS2 of shell pair            785
 mem total for path MDJ                 1105572
 -------------------------------------------------------
 Smallest overlap matrix eigenvalue = 1.50E-06

 Scale SEOQF with 1.000000e-01/1.000000e-01/1.000000e-01

 Standard Electronic Orientation quadrupole field applied
 Nucleus-field energy     =     0.0000000010 hartrees
 Guess from superposition of atomic densities
 Warning:  Energy on first SCF cycle will be non-variational
 SAD guess density has 18.000000 electrons

 -----------------------------------------------------------------------
  General SCF calculation program by
  Eric Jon Sundstrom, Paul Horn, Yuezhi Mao, Dmitri Zuev, Alec White,
  David Stuck, Shaama M.S., Shane Yost, Joonho Lee, David Small,
  Daniel Levine, Susi Lehtola, Hugh Burton, Evgeny Epifanovsky
 -----------------------------------------------------------------------
 Exchange:  MN15-L      Correlation:  MN15-L
 Using Euler-Maclaurin-Lebedev (99,590) quadrature formula
Running Object-Oriented UKS (UHF)
performing a single roothaan step with Fock from read density so that orbitals are available to all algorithms
energy of the guess density (C=0) -155.715025650431
We will preform up to 15 macro iterations over saddle points until a stable solution is found
Energy prior to optimization (guess energy) = -155.663924189919
Begin Timing: Total SCF Calculation
Begin Timing: SCF Single Stationary Point Calculation
begin iterations for algorithm: GDM          
the SCF tolerance is set to 1.00e-08
    1    -155.6639241899      2.04e-02     00000  Normal BFGS step
    2    -155.6691776845      2.76e-02     00000  Normal BFGS step
    3    -155.6755600608      8.26e-03     00000  Normal BFGS step
    4    -155.6756253304      1.03e-02     00000  Normal BFGS step
    5    -155.6759967484      2.13e-03     00000  Normal BFGS step
    6    -155.6760143491      1.56e-03     00000  Normal BFGS step
    7    -155.6760382666      6.06e-05     00000  Normal BFGS step
    8    -155.6760382883      6.29e-06     00000  Normal BFGS step
    9    -155.6760382886      9.41e-07     00000  Normal BFGS step
   10    -155.6760382887      2.22e-07     00000  Normal BFGS step
   11    -155.6760382887      4.30e-08     00000  Normal BFGS step
   12    -155.6760382887      1.28e-08     00000  Normal BFGS step
   13    -155.6760382887      6.20e-09     00000 Convergence criterion met
Timing for Single Stationary Point: 714.00s (wall), 5668.87s (cpu)
Begin Timing: Stability
===================================================
Beginning Test for Internal Stability
===================================================
generating davidson guess vectors based on koopmans excitations
    1      5.47e-01     00000 Davidson Iteration
    2      4.46e-01     00000 Davidson Iteration
    3      7.15e-02     00000 Davidson Iteration
    4      7.06e-02     00000 Davidson Iteration
    5      4.64e-02     00000 Davidson Iteration
    6      1.38e-02     00000 Davidson Iteration
    7      3.09e-03     00000 Davidson Iteration
    8      8.68e-04     00000 Davidson Iteration
    9      1.70e-04     00000 Davidson Iteration
   10      4.07e-05     00000 Davidson Iteration
   11      6.66e-05     00000 Davidson Converged
converged_eigenvalues
   0.4009
   0.4449
Threshold for negative eigenvalues: -1.0e-05
solution was a local minimum (stable)
===================================================
End Test for Internal Stability
===================================================
Our SCF solution is stable!
Timing for Total SCF: 8879.00s (wall), 70435.89s (cpu)
 Total energy in the final basis set =     -155.6760382887
<S^2> =          0.000000000
    ==================================================
              The end of Object-Oriented SCFman       
    ==================================================
 
 --------------------------------------------------------------
 
                    Orbital Energies (a.u.)
 --------------------------------------------------------------
 
 Alpha MOs
 -- Occupied --
-24.613 -14.368  -1.237  -0.851  -0.514  -0.496  -0.421  -0.349
 -0.263
 -- Virtual --
 -0.026  -0.006   0.007   0.017   0.038   0.044   0.047   0.055
  0.058   0.062   0.063   0.068   0.089   0.111   0.111   0.118
  0.130   0.136   0.148   0.157   0.159   0.160   0.164   0.166
  0.183   0.193   0.202   0.207   0.225   0.229   0.229   0.236
  0.254   0.256   0.259   0.266   0.275   0.277   0.281   0.289
  0.295   0.297   0.331   0.342   0.353   0.361   0.363   0.381
  0.382   0.388   0.399   0.400   0.401   0.410   0.411   0.414
  0.427   0.429   0.438   0.447   0.454   0.461   0.471   0.478
  0.478   0.486   0.498   0.505   0.513   0.524   0.536   0.549
  0.557   0.573   0.585   0.600   0.628   0.637   0.645   0.649
  0.653   0.659   0.664   0.671   0.675   0.681   0.683   0.689
  0.693   0.704   0.711   0.719   0.728   0.730   0.739   0.749
  0.759   0.774   0.784   0.794   0.804   0.809   0.817   0.819
  0.823   0.828   0.844   0.863   0.880   0.882   0.885   0.899
  0.907   0.915   0.942   0.943   0.960   0.961   0.971   0.988
  0.989   1.008   1.012   1.017   1.019   1.029   1.048   1.057
  1.084   1.091   1.122   1.144   1.145   1.155   1.196   1.212
  1.242   1.265   1.270   1.282   1.302   1.341   1.343   1.355
  1.358   1.362   1.391   1.417   1.427   1.433   1.451   1.457
  1.475   1.506   1.506   1.515   1.528   1.546   1.559   1.565
  1.593   1.593   1.637   1.652   1.668   1.727   1.739   1.758
  1.777   1.810   1.832   1.840   1.886   1.901   1.907   1.939
  1.997   2.020   2.049   2.078   2.182   2.278   2.333   2.367
  2.426   2.451   2.541   2.556   2.592   2.595   2.615   2.654
  2.679   2.692   2.756   2.808   2.877   2.923   2.971   2.993
  2.999   3.060   3.076   3.107   3.252   3.322   3.381   3.412
  3.467   3.504   3.536   3.580   3.628   3.684   3.739   3.838
  3.860   3.888   3.965   3.984   4.017   4.140   4.178   4.178
  4.246   4.275   4.329   4.355   4.404   4.485   4.510   4.629
  4.668   4.694   4.754   4.790   4.984   5.092   5.161   5.219
  5.349   5.373   5.400   5.506   5.523   5.637   5.742   5.822
  5.904   5.939   5.969   6.160   6.192   6.244   6.265   6.334
  6.378   6.408   6.467   6.547   6.561   6.672   6.695   6.744
  6.753   6.821   6.837   6.862   6.898   6.948   6.969   7.184
  7.247   7.334   7.379   7.560   7.619   7.839   7.866   7.938
  7.939   7.993   8.019   8.133   8.227   8.239   8.449   8.552
  8.643   8.674   8.811   8.872   8.928   9.424   9.462   9.531
  9.563   9.649   9.975  10.064  10.151  10.153  10.216  10.271
 10.580  10.651  10.663  10.861  10.967  11.026  11.061  11.150
 11.353  11.548  12.290  12.382  12.448  12.459  12.531  12.534
 12.634  12.787  12.800  12.939  12.980  13.139  13.285  13.333
 13.433  13.527  13.695  13.726  13.735  13.893  13.951  13.959
 13.967  13.990  13.990  14.032  14.077  14.154  14.206  14.215
 14.224  14.280  14.310  14.416  14.613  14.727  14.772  14.896
 14.920  15.115  15.216  15.405  15.548  15.557  15.632  15.695
 15.821  15.960  16.096  16.223  16.243  16.253  16.343  16.590
 16.594  16.667  16.799  16.946  16.966  17.002  17.014  17.315
 17.379  17.611  17.707  17.876  18.009  18.213  18.289  18.578
 18.676  18.694  18.757  18.982  19.029  19.075  19.088  19.190
 19.390  19.451  19.693  19.815  19.831  20.044  21.051  21.206
 21.429  21.670  21.815  21.854  21.854  21.931  21.935  22.265
 22.366  22.524  22.771  22.842  22.869  23.063  23.618  23.646
 23.881  24.469  26.008  26.154  26.254  26.264  26.432  27.234
 27.559  28.510  29.566  30.033  32.180  32.256  32.518  32.606
 33.664  43.020  43.127  43.175  43.202  43.811  45.768  49.966
 50.030  50.289  50.846  51.287  94.281  94.327  94.443  94.506
 95.119  95.199  95.373  95.736  95.796  95.829  95.969 103.329
196.825
 
 Beta MOs
 -- Occupied --
-24.613 -14.368  -1.237  -0.851  -0.514  -0.496  -0.421  -0.349
 -0.263
 -- Virtual --
 -0.026  -0.006   0.007   0.017   0.038   0.044   0.047   0.055
  0.058   0.062   0.063   0.068   0.089   0.111   0.111   0.118
  0.130   0.136   0.148   0.157   0.159   0.160   0.164   0.166
  0.183   0.193   0.202   0.207   0.225   0.229   0.229   0.236
  0.254   0.256   0.259   0.266   0.275   0.277   0.281   0.289
  0.295   0.297   0.331   0.342   0.353   0.361   0.363   0.381
  0.382   0.388   0.399   0.400   0.401   0.410   0.411   0.414
  0.427   0.429   0.438   0.447   0.454   0.461   0.471   0.478
  0.478   0.486   0.498   0.505   0.513   0.524   0.536   0.549
  0.557   0.573   0.585   0.600   0.628   0.637   0.645   0.649
  0.653   0.659   0.664   0.671   0.675   0.681   0.683   0.689
  0.693   0.704   0.711   0.719   0.728   0.730   0.739   0.749
  0.759   0.774   0.784   0.794   0.804   0.809   0.817   0.819
  0.823   0.828   0.844   0.863   0.880   0.882   0.885   0.899
  0.907   0.915   0.942   0.943   0.960   0.961   0.971   0.988
  0.989   1.008   1.012   1.017   1.019   1.029   1.048   1.057
  1.084   1.091   1.122   1.144   1.145   1.155   1.196   1.212
  1.242   1.265   1.270   1.282   1.302   1.341   1.343   1.355
  1.358   1.362   1.391   1.417   1.427   1.433   1.451   1.457
  1.475   1.506   1.506   1.515   1.528   1.546   1.559   1.565
  1.593   1.593   1.637   1.652   1.668   1.727   1.739   1.758
  1.777   1.810   1.832   1.840   1.886   1.901   1.907   1.939
  1.997   2.020   2.049   2.078   2.182   2.278   2.333   2.367
  2.426   2.451   2.541   2.556   2.592   2.595   2.615   2.654
  2.679   2.692   2.756   2.808   2.877   2.923   2.971   2.993
  2.999   3.060   3.076   3.107   3.252   3.322   3.381   3.412
  3.467   3.504   3.536   3.580   3.628   3.684   3.739   3.838
  3.860   3.888   3.965   3.984   4.017   4.140   4.178   4.178
  4.246   4.275   4.329   4.355   4.404   4.485   4.510   4.629
  4.668   4.694   4.754   4.790   4.984   5.092   5.161   5.219
  5.349   5.373   5.400   5.506   5.523   5.637   5.742   5.822
  5.904   5.939   5.969   6.160   6.192   6.244   6.265   6.334
  6.378   6.408   6.467   6.547   6.561   6.672   6.695   6.744
  6.753   6.821   6.837   6.862   6.898   6.948   6.969   7.184
  7.247   7.334   7.379   7.560   7.619   7.839   7.866   7.938
  7.939   7.993   8.019   8.133   8.227   8.239   8.449   8.552
  8.643   8.674   8.811   8.872   8.928   9.424   9.462   9.531
  9.563   9.649   9.975  10.064  10.151  10.153  10.216  10.271
 10.580  10.651  10.663  10.861  10.967  11.026  11.061  11.150
 11.353  11.548  12.290  12.382  12.448  12.459  12.531  12.534
 12.634  12.787  12.800  12.939  12.980  13.139  13.285  13.333
 13.433  13.527  13.695  13.726  13.735  13.893  13.951  13.959
 13.967  13.990  13.990  14.032  14.077  14.154  14.206  14.215
 14.224  14.280  14.310  14.416  14.613  14.727  14.772  14.896
 14.920  15.115  15.216  15.405  15.548  15.557  15.632  15.695
 15.821  15.960  16.096  16.223  16.243  16.253  16.343  16.590
 16.594  16.667  16.799  16.946  16.966  17.002  17.014  17.315
 17.379  17.611  17.707  17.876  18.009  18.213  18.289  18.578
 18.676  18.694  18.757  18.982  19.029  19.075  19.088  19.190
 19.390  19.451  19.693  19.815  19.831  20.044  21.051  21.206
 21.429  21.670  21.815  21.854  21.854  21.931  21.935  22.265
 22.366  22.524  22.771  22.842  22.869  23.063  23.618  23.646
 23.881  24.469  26.008  26.154  26.254  26.264  26.432  27.234
 27.559  28.510  29.566  30.033  32.180  32.256  32.518  32.606
 33.664  43.020  43.127  43.175  43.202  43.811  45.768  49.966
 50.030  50.289  50.846  51.287  94.281  94.327  94.443  94.506
 95.119  95.199  95.373  95.736  95.796  95.829  95.969 103.329
196.825
 --------------------------------------------------------------
 
          Ground-State Mulliken Net Atomic Charges

     Atom                 Charge (a.u.)    Spin (a.u.)
  --------------------------------------------------------
      1 N                     1.202691      -0.000000
      2 H                    -0.394813       0.000000
      3 H                    -0.394801      -0.000000
      4 F                    -0.413076       0.000000
  --------------------------------------------------------
  Sum of atomic charges =     0.000000
  Sum of spin   charges =    -0.000000

 -----------------------------------------------------------------
                    Cartesian Multipole Moments
 -----------------------------------------------------------------
    Charge (ESU x 10^10)
                 0.0000
    Dipole Moment (Debye)
         X       1.6263      Y      -0.7325      Z       1.2545
       Tot       2.1807
    Quadrupole Moments (Debye-Ang)
        XX     -11.0576     XY      -0.0082     YY     -13.8834
        XZ      -0.7576     YZ      -0.0063     ZZ     -10.6598
    Octopole Moments (Debye-Ang^2)
       XXX       5.2058    XXY      -6.6801    XYY       1.9300
       YYY     -21.8198    XXZ       0.5169    XYZ      -0.1160
       YYZ       1.4888    XZZ       1.3171    YZZ      -6.6192
       ZZZ       4.5148
    Hexadecapole Moments (Debye-Ang^3)
      XXXX     -16.0931   XXXY       7.0834   XXYY     -13.7278
      XYYY       6.9318   YYYY     -65.3818   XXXZ      -2.0723
      XXYZ       1.7727   XYYZ      -0.4237   YYYZ       5.3471
      XXZZ      -5.4765   XYZZ       2.3364   YYZZ     -13.5054
      XZZZ      -1.6984   YZZZ       5.4936   ZZZZ     -14.1136
 -----------------------------------------------------------------
Archival summary:
1\1\n0059.mhg0\SP\ProcedureUnspecified\BasisUnspecified\112\yhljason\MonAug301:41:032020MonAug301:41:032020\0\\#,ProcedureUnspecified,BasisUnspecified,\\0,1\N\H,1,1.01718\H,1,1.01718,2,104.708\F,1,1.4183,2,101.541,3,105.35,0\\\@

 Total job time:  8967.82s(wall), 71100.45s(cpu) 
 Mon Aug  3 01:41:03 2020

        *************************************************************
        *                                                           *
        *  Thank you very much for using Q-Chem.  Have a nice day.  *
        *                                                           *
        *************************************************************


