Q-Chem Developer Version!
                  Welcome to Q-Chem
     A Quantum Leap Into The Future Of Chemistry


 Q-Chem 5.1, Q-Chem, Inc., Pleasanton, CA (2018)

 Yihan Shao,  Zhengting Gan,  E. Epifanovsky,  A. T. B. Gilbert,  M. Wormit,  
 J. Kussmann,  A. W. Lange,  A. Behn,  Jia Deng,  Xintian Feng,  D. Ghosh,  
 M. Goldey,  P. R. Horn,  L. D. Jacobson,  I. Kaliman,  T. Kus,  A. Landau,  
 Jie Liu,  E. I. Proynov,  R. M. Richard,  R. P. Steele,  E. J. Sundstrom,  
 H. L. Woodcock III,  P. M. Zimmerman,  D. Zuev,  B. Albrecht,  E. Alguire,  
 S. A. Baeppler,  D. Barton,  Z. Benda,  Y. A. Bernard,  E. J. Berquist,  
 K. B. Bravaya,  H. Burton,  D. Casanova,  Chun-Min Chang,  Yunqing Chen,  
 A. Chien,  K. D. Closser,  M. P. Coons,  S. Coriani,  S. Dasgupta,  
 A. L. Dempwolff,  M. Diedenhofen,  Hainam Do,  R. G. Edgar,  Po-Tung Fang,  
 S. Faraji,  S. Fatehi,  Qingguo Feng,  K. D. Fenk,  J. Fosso-Tande,  
 Qinghui Ge,  A. Ghysels,  G. Gidofalvi,  J. Gomes,  J. Gonthier,  A. Gunina,  
 D. Hait,  M. W. D. Hanson-Heine,  P. H. P. Harbach,  A. W. Hauser,  
 J. E. Herr,  E. G. Hohenstein,  Z. C. Holden,  Kerwin Hui,  B. C. Huynh,  
 T.-C. Jagau,  Hyunjun Ji,  B. Kaduk,  K. Khistyaev,  Jaehoon Kim,  
 P. Klunzinger,  K. Koh,  D. Kosenkov,  L. Koulias,  T. Kowalczyk,  
 C. M. Krauter,  A. Kunitsa,  Ka Un Lao,  A. Laurent,  K. V. Lawler,  
 Joonho Lee,  D. Lefrancois,  S. Lehtola,  D. S. Levine,  Yi-Pei Li,  
 You-Sheng Lin,  Fenglai Liu,  E. Livshits,  A. Luenser,  P. Manohar,  
 E. Mansoor,  S. F. Manzer,  Shan-Ping Mao,  Yuezhi Mao,  N. Mardirossian,  
 A. V. Marenich,  T. Markovich,  L. A. Martinez-Martinez,  S. A. Maurer,  
 N. J. Mayhall,  S. C. McKenzie,  J.-M. Mewes,  A. F. Morrison,  
 J. W. Mullinax,  K. Nanda,  T. S. Nguyen-Beck,  R. Olivares-Amaya,  
 J. A. Parkhill,  T. M. Perrine,  F. Plasser,  P. Pokhilko,  S. Prager,  
 A. Prociuk,  E. Ramos,  D. R. Rehn,  F. Rob,  M. Schneider,  N. Sergueev,  
 S. M. Sharada,  S. Sharma,  D. W. Small,  T. Stauch,  T. Stein,  
 Yu-Chuan Su,  A. J. W. Thom,  A. Tkatchenko,  T. Tsuchimochi,  N. M. Tubman,  
 L. Vogt,  M. L. Vidal,  O. Vydrov,  M. A. Watson,  J. Wenzel,  
 M. de Wergifosse,  T. A. Wesolowski,  A. White,  J. Witte,  A. Yamada,  
 Jun Yang,  K. Yao,  S. Yeganeh,  S. R. Yost,  Zhi-Qiang You,  A. Zech,  
 Igor Ying Zhang,  Xing Zhang,  Yan Zhao,  Ying Zhu,  B. R. Brooks,  
 G. K. L. Chan,  C. J. Cramer,  M. S. Gordon,  W. J. Hehre,  A. Klamt,  
 M. W. Schmidt,  C. D. Sherrill,  D. G. Truhlar,  A. Aspuru-Guzik,  R. Baer,  
 A. T. Bell,  N. A. Besley,  Jeng-Da Chai,  A. E. DePrince, III,  
 R. A. DiStasio Jr.,  A. Dreuw,  B. D. Dunietz,  T. R. Furlani,  
 Chao-Ping Hsu,  Yousung Jung,  Jing Kong,  D. S. Lambrecht,  WanZhen Liang,  
 C. Ochsenfeld,  V. A. Rassolov,  L. V. Slipchenko,  J. E. Subotnik,  
 T. Van Voorhis,  J. M. Herbert,  A. I. Krylov,  P. M. W. Gill,  M. Head-Gordon

 Contributors to earlier versions of Q-Chem not listed above: 
 R. D. Adamson,  B. Austin,  J. Baker,  G. J. O. Beran,  K. Brandhorst,  
 S. T. Brown,  E. F. C. Byrd,  A. K. Chakraborty,  C.-L. Cheng,  
 Siu Hung Chien,  D. M. Chipman,  D. L. Crittenden,  H. Dachsel,  
 R. J. Doerksen,  A. D. Dutoi,  L. Fusti-Molnar,  W. A. Goddard III,  
 A. Golubeva-Zadorozhnaya,  S. R. Gwaltney,  G. Hawkins,  A. Heyden,  
 S. Hirata,  G. Kedziora,  F. J. Keil,  C. Kelley,  Jihan Kim,  R. A. King,  
 R. Z. Khaliullin,  P. P. Korambath,  W. Kurlancheek,  A. M. Lee,  M. S. Lee,  
 S. V. Levchenko,  Ching Yeh Lin,  D. Liotard,  R. C. Lochan,  I. Lotan,  
 P. E. Maslen,  N. Nair,  D. P. O'Neill,  D. Neuhauser,  E. Neuscamman,  
 C. M. Oana,  R. Olson,  B. Peters,  R. Peverati,  P. A. Pieniazek,  
 Y. M. Rhee,  J. Ritchie,  M. A. Rohrdanz,  E. Rosta,  N. J. Russ,  
 H. F. Schaefer III,  N. E. Schultz,  N. Shenvi,  A. C. Simmonett,  A. Sodt,  
 D. Stuck,  K. S. Thanthiriwatte,  V. Vanovschi,  Tao Wang,  A. Warshel,  
 C. F. Williams,  Q. Wu,  X. Xu,  W. Zhang

 Please cite Q-Chem as follows:
 Y. Shao et al., Mol. Phys. 113, 184-215 (2015)
 DOI: 10.1080/00268976.2014.952696

 Q-Chem 5.1.1 for Intel X86 EM64T Linux

 Parts of Q-Chem use Armadillo 8.300.2 (Tropical Shenanigans).
 http://arma.sourceforge.net/

 Q-Chem begins on Wed Jul 22 14:11:21 2020  

Host: n0094.mhg0
0

     Scratch files written to /local/scratch/users/yhljason/NH_B97-D3_aug-pc-4.inp20200722141116//
Input Ideriv = 2
Curr. Ideriv = -1
Max.  Ideriv = 2

Checking the input file for inconsistencies... 	...done.

--------------------------------------------------------------
User input:
--------------------------------------------------------------
$molecule
0 3
N 0 0 0
H 0 0 1.0362
$end

$rem
jobtype sp
method B97-D3
xc_grid 000099000590
basis aug-pc-4
max_scf_cycles 200
thresh 14
scf_convergence 8
scf_algorithm gdm
symmetry false
sym_ignore true
unrestricted true
gen_scfman true
internal_stability_iter 15
internal_stability_davidson_iter 200
mem_total 64000
mem_static 1500
n_frozen_core 0
$end


--------------------------------------------------------------
 Adding empirical dispersion correction 
 ----------------------------------------------------------------
 Doing -D3(0) with
 s6  =   1.00000
 s8  =   0.90900
 rs6 =   0.89200
 rs8 =   1.00000
 -D3 energy without 3body term =     -0.0000013182 hartrees
 ----------------------------------------------------------------
             Standard Nuclear Orientation (Angstroms)
    I     Atom           X                Y                Z
 ----------------------------------------------------------------
    1      N       0.0000000000     0.0000000000     0.0000000000
    2      H       0.0000000000     0.0000000000     1.0362000000
 ----------------------------------------------------------------
 Nuclear Repulsion Energy =     3.5748302545 hartrees
 There are        5 alpha and        3 beta electrons
 Requested basis set is aug-pc-4
 There are 57 shells and 233 basis functions

 Total QAlloc Memory Limit  64000 MB
 Mega-Array Size      1467 MB
 MEM_STATIC part      1500 MB

                       Distance Matrix (Angstroms)
             N (  1)
   H (  2)  1.036200
 
 A cutoff of  1.0D-14 yielded   1652 shell pairs
 There are     27850 function pairs (     51237 Cartesian)
 
 -------------------------------------------------------
 OpenMP Integral Computing Module                       
 Release: version 1.0, May 2013, Q-Chem Inc. Pittsburgh 
 -------------------------------------------------------
 Integral Job Info:
 Integral job number is                      11
 Integral operator is                         1
 short-range coefficients                     0
 long-range coefficients              100000000
 Omega coefficients                           0
 if combine SR and LR in K                    0
 Integral screening is                        0
 Integral computing path is                   2
 max size of driver memory is           6400000
 size of driver memory is               5498286
 size of scratch memory is             29792225
 max col of scratch BK array             194481
 max len of scratch array in speh3         5572
 max len of scratch index in speh4           72
 max int batch size is                      520
 min int batch size is                       52
 fixed nKL is                                25
 max L of basis functions is                  5
 order of int derivative is                   0
 number of shells is                         57
 number of basis is                         315
 number of cartesian basis is               315
 number of contracted shell pairs          1652
 number of primitive shell pairs           3464
 maxK2 (contraction) of shell pair          121
 max number of K2 of shell pair               1
 max number of CS2 of shell pair            197
 max number of PS2 of shell pair            197
 mem total for path MDJ                  836120
 -------------------------------------------------------
 Smallest overlap matrix eigenvalue = 5.02E-06

 Scale SEOQF with 1.000000e-01/1.000000e-01/1.000000e-01

 Standard Electronic Orientation quadrupole field applied
 Nucleus-field energy     =    -0.0000000001 hartrees
 Guess from superposition of atomic densities
 Warning:  Energy on first SCF cycle will be non-variational
 SAD guess density has 8.000000 electrons

 -----------------------------------------------------------------------
  General SCF calculation program by
  Eric Jon Sundstrom, Paul Horn, Yuezhi Mao, Dmitri Zuev, Alec White,
  David Stuck, Shaama M.S., Shane Yost, Joonho Lee, David Small,
  Daniel Levine, Susi Lehtola, Hugh Burton, Evgeny Epifanovsky
 -----------------------------------------------------------------------
 Exchange:  B97-D      Correlation:  B97-D
 Using Euler-Maclaurin-Lebedev (99,590) quadrature formula
 Dispersion:   Grimme D3
Running Object-Oriented UKS (UHF)
performing a single roothaan step with Fock from read density so that orbitals are available to all algorithms
energy of the guess density (C=0) -55.112053674472
We will preform up to 15 macro iterations over saddle points until a stable solution is found
Energy prior to optimization (guess energy) = -55.203867956940
Begin Timing: Total SCF Calculation
Begin Timing: SCF Single Stationary Point Calculation
begin iterations for algorithm: GDM          
the SCF tolerance is set to 1.00e-08
    1     -55.2038679569      4.26e-02     00000  Normal BFGS step
    2     -55.2108780646      2.73e-02     00000  Normal BFGS step
    3     -55.2143652647      1.00e-02     00000  Normal BFGS step
    4     -55.2147880708      2.40e-03     00000  Normal BFGS step
    5     -55.2148230164      5.37e-04     00000  Normal BFGS step
    6     -55.2148241111      1.07e-04     00000  Normal BFGS step
    7     -55.2148241959      1.98e-05     00000  Normal BFGS step
    8     -55.2148241977      2.64e-06     00000  Normal BFGS step
    9     -55.2148241977      4.03e-07     00000  Normal BFGS step
   10     -55.2148241977      5.99e-08     00000  Normal BFGS step
   11     -55.2148241977      2.61e-08     00000  Normal BFGS step
   12     -55.2148241977      9.25e-09     00000 Convergence criterion met
Timing for Single Stationary Point: 49.00s (wall), 392.89s (cpu)
Begin Timing: Stability
===================================================
Beginning Test for Internal Stability
===================================================
generating davidson guess vectors based on koopmans excitations
    1      6.08e-01     00000 Davidson Iteration
    2      2.25e-01     00000 Davidson Iteration
    3      2.81e-02     00000 Davidson Iteration
    4      6.62e-03     00000 Davidson Iteration
    5      1.50e-03     00000 Davidson Iteration
    6      1.38e-04     00000 Davidson Iteration
    7      3.49e-05     00000 Davidson Converged
converged_eigenvalues
   0.2681
   0.2681
Threshold for negative eigenvalues: -1.0e-05
solution was a local minimum (stable)
===================================================
End Test for Internal Stability
===================================================
Our SCF solution is stable!
Timing for Total SCF: 388.00s (wall), 3087.91s (cpu)
 Total energy in the final basis set =      -55.2148241977
<S^2> =          2.010337358
    ==================================================
              The end of Object-Oriented SCFman       
    ==================================================
 
 --------------------------------------------------------------
 
                    Orbital Energies (a.u.)
 --------------------------------------------------------------
 
 Alpha MOs
 -- Occupied --
-14.063  -0.775  -0.364  -0.291  -0.291
 -- Virtual --
 -0.023   0.018   0.018   0.026   0.046   0.065   0.082   0.082
  0.124   0.124   0.127   0.138   0.138   0.161   0.178   0.184
  0.184   0.197   0.201   0.201   0.238   0.238   0.268   0.268
  0.319   0.338   0.338   0.345   0.349   0.349   0.370   0.370
  0.388   0.407   0.407   0.436   0.453   0.453   0.463   0.470
  0.470   0.489   0.489   0.515   0.515   0.558   0.558   0.595
  0.599   0.599   0.602   0.602   0.613   0.613   0.641   0.641
  0.683   0.736   0.736   0.748   0.748   0.751   0.756   0.756
  0.788   0.805   0.805   0.856   0.856   0.897   0.902   0.902
  0.918   0.918   0.920   0.920   0.935   0.972   0.972   1.079
  1.163   1.163   1.205   1.205   1.318   1.318   1.355   1.389
  1.389   1.537   1.537   1.544   1.597   1.597   1.641   1.787
  1.787   1.883   1.959   1.959   2.294   2.400   2.400   2.548
  2.701   2.815   2.815   2.876   2.876   3.027   3.027   3.129
  3.404   3.404   3.475   3.475   3.537   3.599   3.599   3.782
  3.782   3.912   4.124   4.124   4.281   4.372   4.372   4.742
  4.742   4.894   4.894   4.896   4.896   5.042   5.196   5.196
  5.577   5.665   5.665   5.928   6.137   6.137   6.223   6.366
  6.366   6.737   6.737   7.396   7.396   7.625   8.163   8.266
  8.266   8.689   8.689   8.869   8.869   9.245   9.515   9.515
  9.816  10.989  10.989  11.102  11.102  11.257  11.287  11.287
 11.287  11.287  11.287  11.287  11.323  11.323  11.448  11.448
 11.643  12.300  12.333  12.333  12.603  12.603  13.588  13.588
 13.955  14.113  14.113  14.238  14.238  14.781  14.781  15.170
 15.170  15.386  15.983  15.983  16.404  16.667  16.667  16.706
 16.706  17.017  17.017  17.245  17.245  17.765  18.969  18.969
 20.333  20.333  20.828  23.211  23.335  23.335  25.501  25.780
 25.780  27.594  40.995  47.554  47.554  47.878  47.878  48.615
 90.893  90.893  92.572 103.768
 
 Beta MOs
 -- Occupied --
-14.044  -0.668  -0.312
 -- Virtual --
 -0.158  -0.158  -0.001   0.032   0.054   0.066   0.066   0.101
  0.107   0.107   0.132   0.171   0.171   0.177   0.192   0.192
  0.203   0.223   0.232   0.232   0.239   0.239   0.254   0.254
  0.329   0.353   0.361   0.361   0.368   0.368   0.374   0.374
  0.409   0.423   0.423   0.438   0.438   0.476   0.487   0.487
  0.490   0.513   0.513   0.533   0.533   0.549   0.549   0.575
  0.575   0.622   0.641   0.641   0.642   0.642   0.656   0.656
  0.691   0.691   0.695   0.743   0.743   0.754   0.756   0.756
  0.760   0.760   0.800   0.865   0.865   0.893   0.893   0.916
  0.923   0.923   0.943   0.943   0.944   0.944   0.945   1.007
  1.007   1.119   1.188   1.188   1.227   1.227   1.369   1.369
  1.371   1.452   1.452   1.553   1.553   1.566   1.622   1.622
  1.641   1.811   1.811   1.918   1.990   1.990   2.303   2.408
  2.408   2.560   2.725   2.852   2.852   2.932   2.932   3.086
  3.086   3.173   3.453   3.453   3.494   3.494   3.558   3.628
  3.628   3.870   3.870   3.951   4.151   4.151   4.304   4.514
  4.514   4.834   4.834   4.935   4.935   5.057   5.057   5.088
  5.306   5.306   5.619   5.713   5.713   5.955   6.219   6.219
  6.293   6.441   6.441   6.938   6.938   7.472   7.472   7.719
  8.241   8.278   8.278   8.685   8.685   9.011   9.011   9.277
  9.555   9.555   9.886  11.187  11.187  11.239  11.239  11.324
 11.398  11.398  11.446  11.446  11.458  11.458  11.500  11.500
 11.533  11.533  11.665  12.336  12.336  12.336  12.671  12.671
 13.625  13.625  14.011  14.362  14.362  14.409  14.409  14.916
 14.916  15.270  15.270  15.464  16.035  16.035  16.515  16.698
 16.698  16.919  16.919  17.164  17.164  17.245  17.245  17.824
 18.980  18.980  20.354  20.354  20.876  23.283  23.324  23.324
 25.509  25.891  25.891  27.642  40.997  47.654  47.654  47.923
 47.923  48.660  90.886  90.886  92.565 103.811
 --------------------------------------------------------------
 
          Ground-State Mulliken Net Atomic Charges

     Atom                 Charge (a.u.)    Spin (a.u.)
  --------------------------------------------------------
      1 N                    -0.293348       1.737237
      2 H                     0.293348       0.262763
  --------------------------------------------------------
  Sum of atomic charges =    -0.000000
  Sum of spin   charges =     2.000000

 -----------------------------------------------------------------
                    Cartesian Multipole Moments
 -----------------------------------------------------------------
    Charge (ESU x 10^10)
                -0.0000
    Dipole Moment (Debye)
         X      -0.0000      Y      -0.0000      Z       1.4879
       Tot       1.4879
    Quadrupole Moments (Debye-Ang)
        XX      -6.3784     XY      -0.0000     YY      -6.3784
        XZ      -0.0000     YZ      -0.0000     ZZ      -5.6159
    Octopole Moments (Debye-Ang^2)
       XXX      -0.0000    XXY      -0.0000    XYY      -0.0000
       YYY      -0.0000    XXZ      -0.4988    XYZ      -0.0000
       YYZ      -0.4988    XZZ      -0.0000    YZZ      -0.0000
       ZZZ      -0.2859
    Hexadecapole Moments (Debye-Ang^3)
      XXXX      -6.2680   XXXY      -0.0000   XXYY      -2.0893
      XYYY      -0.0000   YYYY      -6.2680   XXXZ      -0.0000
      XXYZ      -0.0000   XYYZ      -0.0000   YYYZ      -0.0000
      XXZZ      -2.9080   XYZZ      -0.0000   YYZZ      -2.9080
      XZZZ      -0.0000   YZZZ      -0.0000   ZZZZ      -9.4972
 -----------------------------------------------------------------
Archival summary:
1\1\n0094.mhg0\SP\ProcedureUnspecified\BasisUnspecified\11(3)\yhljason\WedJul2214:18:342020WedJul2214:18:342020\0\\#,ProcedureUnspecified,BasisUnspecified,\\0,3\N\H,1,1.0362\\\@

 Total job time:  433.16s(wall), 3149.50s(cpu) 
 Wed Jul 22 14:18:34 2020

        *************************************************************
        *                                                           *
        *  Thank you very much for using Q-Chem.  Have a nice day.  *
        *                                                           *
        *************************************************************


