Q-Chem Developer Version!
                  Welcome to Q-Chem
     A Quantum Leap Into The Future Of Chemistry


 Q-Chem 5.1, Q-Chem, Inc., Pleasanton, CA (2018)

 Yihan Shao,  Zhengting Gan,  E. Epifanovsky,  A. T. B. Gilbert,  M. Wormit,  
 J. Kussmann,  A. W. Lange,  A. Behn,  Jia Deng,  Xintian Feng,  D. Ghosh,  
 M. Goldey,  P. R. Horn,  L. D. Jacobson,  I. Kaliman,  T. Kus,  A. Landau,  
 Jie Liu,  E. I. Proynov,  R. M. Richard,  R. P. Steele,  E. J. Sundstrom,  
 H. L. Woodcock III,  P. M. Zimmerman,  D. Zuev,  B. Albrecht,  E. Alguire,  
 S. A. Baeppler,  D. Barton,  Z. Benda,  Y. A. Bernard,  E. J. Berquist,  
 K. B. Bravaya,  H. Burton,  D. Casanova,  Chun-Min Chang,  Yunqing Chen,  
 A. Chien,  K. D. Closser,  M. P. Coons,  S. Coriani,  S. Dasgupta,  
 A. L. Dempwolff,  M. Diedenhofen,  Hainam Do,  R. G. Edgar,  Po-Tung Fang,  
 S. Faraji,  S. Fatehi,  Qingguo Feng,  K. D. Fenk,  J. Fosso-Tande,  
 Qinghui Ge,  A. Ghysels,  G. Gidofalvi,  J. Gomes,  J. Gonthier,  A. Gunina,  
 D. Hait,  M. W. D. Hanson-Heine,  P. H. P. Harbach,  A. W. Hauser,  
 J. E. Herr,  E. G. Hohenstein,  Z. C. Holden,  Kerwin Hui,  B. C. Huynh,  
 T.-C. Jagau,  Hyunjun Ji,  B. Kaduk,  K. Khistyaev,  Jaehoon Kim,  
 P. Klunzinger,  K. Koh,  D. Kosenkov,  L. Koulias,  T. Kowalczyk,  
 C. M. Krauter,  A. Kunitsa,  Ka Un Lao,  A. Laurent,  K. V. Lawler,  
 Joonho Lee,  D. Lefrancois,  S. Lehtola,  D. S. Levine,  Yi-Pei Li,  
 You-Sheng Lin,  Fenglai Liu,  E. Livshits,  A. Luenser,  P. Manohar,  
 E. Mansoor,  S. F. Manzer,  Shan-Ping Mao,  Yuezhi Mao,  N. Mardirossian,  
 A. V. Marenich,  T. Markovich,  L. A. Martinez-Martinez,  S. A. Maurer,  
 N. J. Mayhall,  S. C. McKenzie,  J.-M. Mewes,  A. F. Morrison,  
 J. W. Mullinax,  K. Nanda,  T. S. Nguyen-Beck,  R. Olivares-Amaya,  
 J. A. Parkhill,  T. M. Perrine,  F. Plasser,  P. Pokhilko,  S. Prager,  
 A. Prociuk,  E. Ramos,  D. R. Rehn,  F. Rob,  M. Schneider,  N. Sergueev,  
 S. M. Sharada,  S. Sharma,  D. W. Small,  T. Stauch,  T. Stein,  
 Yu-Chuan Su,  A. J. W. Thom,  A. Tkatchenko,  T. Tsuchimochi,  N. M. Tubman,  
 L. Vogt,  M. L. Vidal,  O. Vydrov,  M. A. Watson,  J. Wenzel,  
 M. de Wergifosse,  T. A. Wesolowski,  A. White,  J. Witte,  A. Yamada,  
 Jun Yang,  K. Yao,  S. Yeganeh,  S. R. Yost,  Zhi-Qiang You,  A. Zech,  
 Igor Ying Zhang,  Xing Zhang,  Yan Zhao,  Ying Zhu,  B. R. Brooks,  
 G. K. L. Chan,  C. J. Cramer,  M. S. Gordon,  W. J. Hehre,  A. Klamt,  
 M. W. Schmidt,  C. D. Sherrill,  D. G. Truhlar,  A. Aspuru-Guzik,  R. Baer,  
 A. T. Bell,  N. A. Besley,  Jeng-Da Chai,  A. E. DePrince, III,  
 R. A. DiStasio Jr.,  A. Dreuw,  B. D. Dunietz,  T. R. Furlani,  
 Chao-Ping Hsu,  Yousung Jung,  Jing Kong,  D. S. Lambrecht,  WanZhen Liang,  
 C. Ochsenfeld,  V. A. Rassolov,  L. V. Slipchenko,  J. E. Subotnik,  
 T. Van Voorhis,  J. M. Herbert,  A. I. Krylov,  P. M. W. Gill,  M. Head-Gordon

 Contributors to earlier versions of Q-Chem not listed above: 
 R. D. Adamson,  B. Austin,  J. Baker,  G. J. O. Beran,  K. Brandhorst,  
 S. T. Brown,  E. F. C. Byrd,  A. K. Chakraborty,  C.-L. Cheng,  
 Siu Hung Chien,  D. M. Chipman,  D. L. Crittenden,  H. Dachsel,  
 R. J. Doerksen,  A. D. Dutoi,  L. Fusti-Molnar,  W. A. Goddard III,  
 A. Golubeva-Zadorozhnaya,  S. R. Gwaltney,  G. Hawkins,  A. Heyden,  
 S. Hirata,  G. Kedziora,  F. J. Keil,  C. Kelley,  Jihan Kim,  R. A. King,  
 R. Z. Khaliullin,  P. P. Korambath,  W. Kurlancheek,  A. M. Lee,  M. S. Lee,  
 S. V. Levchenko,  Ching Yeh Lin,  D. Liotard,  R. C. Lochan,  I. Lotan,  
 P. E. Maslen,  N. Nair,  D. P. O'Neill,  D. Neuhauser,  E. Neuscamman,  
 C. M. Oana,  R. Olson,  B. Peters,  R. Peverati,  P. A. Pieniazek,  
 Y. M. Rhee,  J. Ritchie,  M. A. Rohrdanz,  E. Rosta,  N. J. Russ,  
 H. F. Schaefer III,  N. E. Schultz,  N. Shenvi,  A. C. Simmonett,  A. Sodt,  
 D. Stuck,  K. S. Thanthiriwatte,  V. Vanovschi,  Tao Wang,  A. Warshel,  
 C. F. Williams,  Q. Wu,  X. Xu,  W. Zhang

 Please cite Q-Chem as follows:
 Y. Shao et al., Mol. Phys. 113, 184-215 (2015)
 DOI: 10.1080/00268976.2014.952696

 Q-Chem 5.1.1 for Intel X86 EM64T Linux

 Parts of Q-Chem use Armadillo 8.300.2 (Tropical Shenanigans).
 http://arma.sourceforge.net/

 Q-Chem begins on Thu Jul 16 01:38:54 2020  

Host: n0101.mhg0
0

     Scratch files written to /local/scratch/users/yhljason/O2_SPW92_aug-pc-4.inp20200716013842//
Input Ideriv = 2
Curr. Ideriv = -1
Max.  Ideriv = 2

Checking the input file for inconsistencies... 	...done.

--------------------------------------------------------------
User input:
--------------------------------------------------------------
$molecule
0 3
O1	0.0000	0.0000	0.0000
O2	0.0000	0.0000	1.2075
$end

$rem
jobtype sp
method SPW92
xc_grid 000099000590
basis aug-pc-4
max_scf_cycles 200
thresh 14
scf_convergence 8
scf_algorithm gdm
symmetry false
sym_ignore true
unrestricted true
gen_scfman true
internal_stability_iter 15
internal_stability_davidson_iter 200
mem_total 64000
mem_static 1500
n_frozen_core 0
$end


--------------------------------------------------------------
 ----------------------------------------------------------------
             Standard Nuclear Orientation (Angstroms)
    I     Atom           X                Y                Z
 ----------------------------------------------------------------
    1      O       0.0000000000     0.0000000000     0.0000000000
    2      O       0.0000000000     0.0000000000     1.2075000000
 ----------------------------------------------------------------
 Nuclear Repulsion Energy =    28.0474877774 hartrees
 There are        9 alpha and        7 beta electrons
 Requested basis set is aug-pc-4
 There are 66 shells and 290 basis functions

 Total QAlloc Memory Limit  64000 MB
 Mega-Array Size      1467 MB
 MEM_STATIC part      1500 MB

                       Distance Matrix (Angstroms)
             O (  1)
   O (  2)  1.207500
 
 A cutoff of  1.0D-14 yielded   2205 shell pairs
 There are     42949 function pairs (     83847 Cartesian)
 
 -------------------------------------------------------
 OpenMP Integral Computing Module                       
 Release: version 1.0, May 2013, Q-Chem Inc. Pittsburgh 
 -------------------------------------------------------
 Integral Job Info:
 Integral job number is                      11
 Integral operator is                         1
 short-range coefficients                     0
 long-range coefficients              100000000
 Omega coefficients                           0
 if combine SR and LR in K                    0
 Integral screening is                        0
 Integral computing path is                   2
 max size of driver memory is           6400000
 size of driver memory is               5498286
 size of scratch memory is             29792225
 max col of scratch BK array             194481
 max len of scratch array in speh3         5572
 max len of scratch index in speh4           72
 max int batch size is                      520
 min int batch size is                       52
 fixed nKL is                                25
 max L of basis functions is                  5
 order of int derivative is                   0
 number of shells is                         66
 number of basis is                         404
 number of cartesian basis is               404
 number of contracted shell pairs          2205
 number of primitive shell pairs           5633
 maxK2 (contraction) of shell pair          121
 max number of K2 of shell pair               1
 max number of CS2 of shell pair            198
 max number of PS2 of shell pair            308
 mem total for path MDJ                  956866
 -------------------------------------------------------
 Smallest overlap matrix eigenvalue = 2.27E-06

 Scale SEOQF with 1.000000e-01/1.000000e-01/1.000000e-01

 Standard Electronic Orientation quadrupole field applied
 Nucleus-field energy     =    -0.0000000012 hartrees
 Guess from superposition of atomic densities
 Warning:  Energy on first SCF cycle will be non-variational
 SAD guess density has 16.000000 electrons

 -----------------------------------------------------------------------
  General SCF calculation program by
  Eric Jon Sundstrom, Paul Horn, Yuezhi Mao, Dmitri Zuev, Alec White,
  David Stuck, Shaama M.S., Shane Yost, Joonho Lee, David Small,
  Daniel Levine, Susi Lehtola, Hugh Burton, Evgeny Epifanovsky
 -----------------------------------------------------------------------
 Exchange:  Slater      Correlation:  PW92
 Using Euler-Maclaurin-Lebedev (99,590) quadrature formula
Running Object-Oriented UKS (UHF)
performing a single roothaan step with Fock from read density so that orbitals are available to all algorithms
energy of the guess density (C=0) -149.525815423780
We will preform up to 15 macro iterations over saddle points until a stable solution is found
Energy prior to optimization (guess energy) = -149.328182322752
Begin Timing: Total SCF Calculation
Begin Timing: SCF Single Stationary Point Calculation
begin iterations for algorithm: GDM          
the SCF tolerance is set to 1.00e-08
    1    -149.3281823228      3.90e-02     00000  Normal BFGS step
    2    -149.3334664935      2.56e-02     00000  Normal BFGS step
    3    -149.3362909917      3.42e-03     00000  Normal BFGS step
    4    -149.3363228855      2.81e-03     00000  Normal BFGS step
    5    -149.3363861581      3.03e-05     00000  Normal BFGS step
    6    -149.3363861658      2.43e-06     00000  Normal BFGS step
    7    -149.3363861658      5.41e-07     00000  Normal BFGS step
    8    -149.3363861658      2.09e-06     00000  Normal BFGS step
    9    -149.3363861658      1.32e-07     00000  Normal BFGS step
   10    -149.3363861658      3.29e-08     00000  Normal BFGS step
   11    -149.3363861658      5.83e-09     00000 Convergence criterion met
Timing for Single Stationary Point: 95.00s (wall), 756.09s (cpu)
Begin Timing: Stability
===================================================
Beginning Test for Internal Stability
===================================================
generating davidson guess vectors based on koopmans excitations
    1      5.66e-01     00000 Davidson Iteration
    2      3.38e-01     00000 Davidson Iteration
    3      5.14e-02     00000 Davidson Iteration
    4      4.32e-03     00000 Davidson Iteration
    5      1.52e-03     00000 Davidson Iteration
    6      3.25e-04     00000 Davidson Iteration
    7      2.09e-04     00000 Davidson Iteration
    8      3.43e-05     00000 Davidson Iteration
    9      5.70e-04     00000 Davidson Iteration
   10      1.41e-04     00000 Davidson Iteration
   11      4.59e-05     00000 Davidson Converged
converged_eigenvalues
   0.5017
   0.5017
Threshold for negative eigenvalues: -1.0e-05
solution was a local minimum (stable)
===================================================
End Test for Internal Stability
===================================================
Our SCF solution is stable!
Timing for Total SCF: 1950.00s (wall), 15498.80s (cpu)
 Total energy in the final basis set =     -149.3363861658
<S^2> =          2.003861025
    ==================================================
              The end of Object-Oriented SCFman       
    ==================================================
 
 --------------------------------------------------------------
 
                    Orbital Energies (a.u.)
 --------------------------------------------------------------
 
 Alpha MOs
 -- Occupied --
-18.768 -18.768  -1.212  -0.747  -0.510  -0.505  -0.505  -0.255
 -0.255
 -- Virtual --
  0.016   0.021   0.033   0.033   0.062   0.062   0.062   0.084
  0.146   0.146   0.152   0.152   0.152   0.178   0.178   0.178
  0.210   0.211   0.211   0.220   0.220   0.267   0.281   0.328
  0.328   0.331   0.331   0.379   0.379   0.389   0.389   0.409
  0.425   0.425   0.438   0.444   0.444   0.464   0.484   0.484
  0.530   0.530   0.546   0.546   0.575   0.583   0.583   0.666
  0.666   0.672   0.677   0.677   0.688   0.688   0.709   0.709
  0.720   0.720   0.723   0.768   0.810   0.810   0.833   0.833
  0.852   0.852   0.877   0.877   0.888   0.888   0.898   0.898
  0.939   0.971   0.971   0.971   0.971   0.972   0.972   0.981
  0.995   0.995   1.031   1.031   1.031   1.031   1.098   1.169
  1.169   1.193   1.193   1.196   1.196   1.206   1.216   1.330
  1.330   1.388   1.559   1.559   1.630   1.630   1.666   1.671
  1.671   1.748   1.875   1.875   1.928   1.928   1.979   1.979
  1.997   2.000   2.000   2.204   2.204   2.281   2.351   2.351
  2.429   2.433   2.433   2.480   2.480   3.071   3.136   3.235
  3.235   3.677   3.717   3.717   3.837   3.837   3.919   4.096
  4.096   4.161   4.161   4.338   4.338   4.390   4.440   4.550
  4.550   4.745   4.745   4.934   5.095   5.095   5.153   5.153
  5.277   5.277   5.458   5.458   5.483   5.584   5.584   5.698
  5.698   5.836   6.006   6.006   6.115   6.115   6.372   6.372
  6.642   6.642   7.188   7.315   7.315   7.709   7.847   7.847
  8.602   8.602   8.774   9.054   9.054   9.191   9.191   9.334
  9.334   9.480  10.360  10.360  10.410  10.519  10.519  10.778
 11.182  11.182  11.251  11.251  11.381  11.545  11.552  11.552
 11.638  11.638  11.677  11.677  11.876  11.876  11.977  11.977
 12.283  12.333  12.333  12.575  12.575  12.585  12.585  12.607
 12.607  12.727  12.727  12.957  13.396  13.396  13.448  13.448
 14.011  14.011  14.864  15.562  15.562  16.071  16.754  16.754
 16.783  16.783  16.929  16.929  17.051  17.302  17.302  17.304
 17.304  18.011  18.011  18.067  18.067  18.397  18.397  18.724
 18.724  19.026  19.474  22.614  22.614  22.863  22.863  23.015
 23.015  24.751  24.751  25.501  26.909  29.382  31.557  31.557
 31.892  31.892  31.899  33.611  34.074  66.305  66.305  66.461
 66.461  66.514  66.514  67.369  67.369  68.024  69.833 142.256
144.836
 
 Beta MOs
 -- Occupied --
-18.738 -18.738  -1.165  -0.684  -0.468  -0.442  -0.442
 -- Virtual --
 -0.179  -0.179   0.020   0.024   0.034   0.034   0.063   0.063
  0.063   0.094   0.152   0.152   0.154   0.154   0.173   0.180
  0.182   0.182   0.212   0.212   0.221   0.221   0.222   0.273
  0.290   0.330   0.330   0.332   0.332   0.382   0.382   0.390
  0.390   0.413   0.434   0.434   0.441   0.450   0.450   0.470
  0.490   0.490   0.538   0.538   0.558   0.558   0.583   0.584
  0.584   0.668   0.668   0.675   0.680   0.680   0.691   0.691
  0.713   0.713   0.722   0.722   0.727   0.773   0.817   0.817
  0.839   0.839   0.866   0.866   0.878   0.878   0.899   0.899
  0.903   0.903   0.947   0.974   0.974   0.978   0.978   0.985
  0.987   0.987   0.998   0.998   1.033   1.033   1.033   1.033
  1.110   1.175   1.175   1.198   1.198   1.198   1.198   1.209
  1.231   1.338   1.338   1.396   1.584   1.584   1.658   1.658
  1.682   1.693   1.693   1.762   1.908   1.908   1.963   1.963
  1.997   1.997   2.015   2.018   2.018   2.229   2.229   2.305
  2.374   2.374   2.447   2.449   2.449   2.499   2.499   3.092
  3.158   3.253   3.253   3.708   3.741   3.741   3.890   3.890
  3.952   4.154   4.154   4.213   4.213   4.384   4.384   4.416
  4.476   4.599   4.599   4.775   4.775   4.970   5.138   5.138
  5.191   5.191   5.332   5.332   5.500   5.500   5.516   5.627
  5.627   5.746   5.746   5.866   6.058   6.058   6.152   6.152
  6.407   6.407   6.684   6.684   7.222   7.348   7.348   7.741
  7.886   7.886   8.649   8.649   8.818   9.143   9.143   9.247
  9.247   9.420   9.420   9.519  10.418  10.418  10.469  10.588
 10.588  10.836  11.253  11.253  11.297  11.297  11.427  11.588
 11.606  11.606  11.680  11.680  11.713  11.713  11.947  11.947
 12.049  12.049  12.327  12.390  12.390  12.659  12.659  12.672
 12.672  12.699  12.699  12.792  12.792  13.015  13.443  13.443
 13.503  13.503  14.070  14.070  14.903  15.615  15.615  16.125
 16.833  16.833  16.885  16.885  17.031  17.031  17.093  17.367
 17.367  17.383  17.383  18.068  18.068  18.129  18.129  18.448
 18.448  18.780  18.780  19.078  19.526  22.723  22.723  22.972
 22.972  23.086  23.086  24.818  24.818  25.544  26.987  29.449
 31.621  31.621  31.945  31.956  31.956  33.647  34.115  66.378
 66.378  66.534  66.534  66.563  66.563  67.418  67.418  68.064
 69.876 142.285 144.862
 --------------------------------------------------------------
 
          Ground-State Mulliken Net Atomic Charges

     Atom                 Charge (a.u.)    Spin (a.u.)
  --------------------------------------------------------
      1 O                    -0.000000       1.000000
      2 O                     0.000000       1.000000
  --------------------------------------------------------
  Sum of atomic charges =    -0.000000
  Sum of spin   charges =     2.000000

 -----------------------------------------------------------------
                    Cartesian Multipole Moments
 -----------------------------------------------------------------
    Charge (ESU x 10^10)
                 0.0000
    Dipole Moment (Debye)
         X       0.0000      Y      -0.0000      Z       0.0000
       Tot       0.0000
    Quadrupole Moments (Debye-Ang)
        XX     -10.1732     XY      -0.0000     YY     -10.1732
        XZ      -0.0000     YZ      -0.0000     ZZ     -10.6505
    Octopole Moments (Debye-Ang^2)
       XXX       0.0000    XXY      -0.0000    XYY       0.0000
       YYY       0.0000    XXZ      -6.1420    XYZ      -0.0000
       YYZ      -6.1420    XZZ       0.0000    YZZ       0.0000
       ZZZ     -19.2908
    Hexadecapole Moments (Debye-Ang^3)
      XXXX      -7.7914   XXXY      -0.0000   XXYY      -2.5971
      XYYY      -0.0000   YYYY      -7.7914   XXXZ      -0.0000
      XXYZ       0.0000   XYYZ      -0.0000   YYYZ       0.0000
      XXZZ     -10.2657   XYZZ      -0.0000   YYZZ     -10.2657
      XZZZ       0.0000   YZZZ       0.0000   ZZZZ     -53.0222
 -----------------------------------------------------------------
Archival summary:
1\1\n0101.mhg0\SP\ProcedureUnspecified\BasisUnspecified\2(3)\yhljason\ThuJul1602:11:412020ThuJul1602:11:412020\0\\#,ProcedureUnspecified,BasisUnspecified,\\0,3\O\O,1,1.2075\\\@

 Total job time:  1967.08s(wall), 15598.48s(cpu) 
 Thu Jul 16 02:11:41 2020

        *************************************************************
        *                                                           *
        *  Thank you very much for using Q-Chem.  Have a nice day.  *
        *                                                           *
        *************************************************************


