Q-Chem Developer Version!
                  Welcome to Q-Chem
     A Quantum Leap Into The Future Of Chemistry


 Q-Chem 5.1, Q-Chem, Inc., Pleasanton, CA (2018)

 Yihan Shao,  Zhengting Gan,  E. Epifanovsky,  A. T. B. Gilbert,  M. Wormit,  
 J. Kussmann,  A. W. Lange,  A. Behn,  Jia Deng,  Xintian Feng,  D. Ghosh,  
 M. Goldey,  P. R. Horn,  L. D. Jacobson,  I. Kaliman,  T. Kus,  A. Landau,  
 Jie Liu,  E. I. Proynov,  R. M. Richard,  R. P. Steele,  E. J. Sundstrom,  
 H. L. Woodcock III,  P. M. Zimmerman,  D. Zuev,  B. Albrecht,  E. Alguire,  
 S. A. Baeppler,  D. Barton,  Z. Benda,  Y. A. Bernard,  E. J. Berquist,  
 K. B. Bravaya,  H. Burton,  D. Casanova,  Chun-Min Chang,  Yunqing Chen,  
 A. Chien,  K. D. Closser,  M. P. Coons,  S. Coriani,  S. Dasgupta,  
 A. L. Dempwolff,  M. Diedenhofen,  Hainam Do,  R. G. Edgar,  Po-Tung Fang,  
 S. Faraji,  S. Fatehi,  Qingguo Feng,  K. D. Fenk,  J. Fosso-Tande,  
 Qinghui Ge,  A. Ghysels,  G. Gidofalvi,  J. Gomes,  J. Gonthier,  A. Gunina,  
 D. Hait,  M. W. D. Hanson-Heine,  P. H. P. Harbach,  A. W. Hauser,  
 J. E. Herr,  E. G. Hohenstein,  Z. C. Holden,  Kerwin Hui,  B. C. Huynh,  
 T.-C. Jagau,  Hyunjun Ji,  B. Kaduk,  K. Khistyaev,  Jaehoon Kim,  
 P. Klunzinger,  K. Koh,  D. Kosenkov,  L. Koulias,  T. Kowalczyk,  
 C. M. Krauter,  A. Kunitsa,  Ka Un Lao,  A. Laurent,  K. V. Lawler,  
 Joonho Lee,  D. Lefrancois,  S. Lehtola,  D. S. Levine,  Yi-Pei Li,  
 You-Sheng Lin,  Fenglai Liu,  E. Livshits,  A. Luenser,  P. Manohar,  
 E. Mansoor,  S. F. Manzer,  Shan-Ping Mao,  Yuezhi Mao,  N. Mardirossian,  
 A. V. Marenich,  T. Markovich,  L. A. Martinez-Martinez,  S. A. Maurer,  
 N. J. Mayhall,  S. C. McKenzie,  J.-M. Mewes,  A. F. Morrison,  
 J. W. Mullinax,  K. Nanda,  T. S. Nguyen-Beck,  R. Olivares-Amaya,  
 J. A. Parkhill,  T. M. Perrine,  F. Plasser,  P. Pokhilko,  S. Prager,  
 A. Prociuk,  E. Ramos,  D. R. Rehn,  F. Rob,  M. Schneider,  N. Sergueev,  
 S. M. Sharada,  S. Sharma,  D. W. Small,  T. Stauch,  T. Stein,  
 Yu-Chuan Su,  A. J. W. Thom,  A. Tkatchenko,  T. Tsuchimochi,  N. M. Tubman,  
 L. Vogt,  M. L. Vidal,  O. Vydrov,  M. A. Watson,  J. Wenzel,  
 M. de Wergifosse,  T. A. Wesolowski,  A. White,  J. Witte,  A. Yamada,  
 Jun Yang,  K. Yao,  S. Yeganeh,  S. R. Yost,  Zhi-Qiang You,  A. Zech,  
 Igor Ying Zhang,  Xing Zhang,  Yan Zhao,  Ying Zhu,  B. R. Brooks,  
 G. K. L. Chan,  C. J. Cramer,  M. S. Gordon,  W. J. Hehre,  A. Klamt,  
 M. W. Schmidt,  C. D. Sherrill,  D. G. Truhlar,  A. Aspuru-Guzik,  R. Baer,  
 A. T. Bell,  N. A. Besley,  Jeng-Da Chai,  A. E. DePrince, III,  
 R. A. DiStasio Jr.,  A. Dreuw,  B. D. Dunietz,  T. R. Furlani,  
 Chao-Ping Hsu,  Yousung Jung,  Jing Kong,  D. S. Lambrecht,  WanZhen Liang,  
 C. Ochsenfeld,  V. A. Rassolov,  L. V. Slipchenko,  J. E. Subotnik,  
 T. Van Voorhis,  J. M. Herbert,  A. I. Krylov,  P. M. W. Gill,  M. Head-Gordon

 Contributors to earlier versions of Q-Chem not listed above: 
 R. D. Adamson,  B. Austin,  J. Baker,  G. J. O. Beran,  K. Brandhorst,  
 S. T. Brown,  E. F. C. Byrd,  A. K. Chakraborty,  C.-L. Cheng,  
 Siu Hung Chien,  D. M. Chipman,  D. L. Crittenden,  H. Dachsel,  
 R. J. Doerksen,  A. D. Dutoi,  L. Fusti-Molnar,  W. A. Goddard III,  
 A. Golubeva-Zadorozhnaya,  S. R. Gwaltney,  G. Hawkins,  A. Heyden,  
 S. Hirata,  G. Kedziora,  F. J. Keil,  C. Kelley,  Jihan Kim,  R. A. King,  
 R. Z. Khaliullin,  P. P. Korambath,  W. Kurlancheek,  A. M. Lee,  M. S. Lee,  
 S. V. Levchenko,  Ching Yeh Lin,  D. Liotard,  R. C. Lochan,  I. Lotan,  
 P. E. Maslen,  N. Nair,  D. P. O'Neill,  D. Neuhauser,  E. Neuscamman,  
 C. M. Oana,  R. Olson,  B. Peters,  R. Peverati,  P. A. Pieniazek,  
 Y. M. Rhee,  J. Ritchie,  M. A. Rohrdanz,  E. Rosta,  N. J. Russ,  
 H. F. Schaefer III,  N. E. Schultz,  N. Shenvi,  A. C. Simmonett,  A. Sodt,  
 D. Stuck,  K. S. Thanthiriwatte,  V. Vanovschi,  Tao Wang,  A. Warshel,  
 C. F. Williams,  Q. Wu,  X. Xu,  W. Zhang

 Please cite Q-Chem as follows:
 Y. Shao et al., Mol. Phys. 113, 184-215 (2015)
 DOI: 10.1080/00268976.2014.952696

 Q-Chem 5.1.1 for Intel X86 EM64T Linux

 Parts of Q-Chem use Armadillo 8.300.2 (Tropical Shenanigans).
 http://arma.sourceforge.net/

 Q-Chem begins on Fri Oct  2 23:56:37 2020  

Host: n0052.mhg0
0

     Scratch files written to /local/scratch/users/yhljason/BH2F_B2PLYP_aug-cc-pcVTZ.inp20201002235632//
Input Ideriv = 0
Curr. Ideriv = -1
Max.  Ideriv = 0
Analytic post-HF gradients are not available with non-HF exchange
Input Ideriv = 0
Curr. Ideriv = 0
Max.  Ideriv = 0

Checking the input file for inconsistencies... 	...done.

--------------------------------------------------------------
User input:
--------------------------------------------------------------
$molecule
0 1
B        0.0000000000      0.0000000000      0.0000000000
F        0.0000000000      0.0000000000      1.3157000000
H        0.0000000000      1.0599000000     -0.5569000000
H        0.0000000000     -1.0599000000     -0.5569000000
$end

$rem
jobtype sp
method B2PLYP
xc_grid 000099000590
basis aug-cc-pcVTZ
max_scf_cycles 200
thresh 14
scf_convergence 8
scf_algorithm gdm
symmetry false
sym_ignore true
unrestricted false
gen_scfman true
internal_stability_iter 15
internal_stability_davidson_iter 200
mem_total 128000
cc_memory 96000
cc_backend xm
mem_static 1500
n_frozen_core 0
$end



--------------------------------------------------------------
 ----------------------------------------------------------------
             Standard Nuclear Orientation (Angstroms)
    I     Atom           X                Y                Z
 ----------------------------------------------------------------
    1      B       0.0000000000     0.0000000000     0.0000000000
    2      F       0.0000000000     0.0000000000     1.3157000000
    3      H       0.0000000000     1.0599000000    -0.5569000000
    4      H       0.0000000000    -1.0599000000    -0.5569000000
 ----------------------------------------------------------------
 Nuclear Repulsion Energy =    27.1952060366 hartrees
 There are        8 alpha and        8 beta electrons
 Requested basis set is aug-cc-pCVTZ
 There are 56 shells and 164 basis functions

 Total QAlloc Memory Limit 128000 MB
 Mega-Array Size      1467 MB
 MEM_STATIC part      1500 MB

                       Distance Matrix (Angstroms)
             B (  1)   F (  2)   H (  3)
   F (  2)  1.315700
   H (  3)  1.197299  2.151748
   H (  4)  1.197299  2.151748  2.119800
 
 A cutoff of  1.0D-14 yielded   1585 shell pairs
 There are     13685 function pairs (     18056 Cartesian)
 
 -------------------------------------------------------
 OpenMP Integral Computing Module                       
 Release: version 1.0, May 2013, Q-Chem Inc. Pittsburgh 
 -------------------------------------------------------
 Integral Job Info:
 Integral job number is                      11
 Integral operator is                         1
 short-range coefficients                     0
 long-range coefficients              100000000
 Omega coefficients                           0
 if combine SR and LR in K                    0
 Integral screening is                        0
 Integral computing path is                   2
 max size of driver memory is            800000
 size of driver memory is                776718
 size of scratch memory is              6691272
 max col of scratch BK array              10000
 max len of scratch array in speh3          662
 max len of scratch index in speh4           32
 max int batch size is                      520
 min int batch size is                       52
 fixed nKL is                                52
 max L of basis functions is                  3
 order of int derivative is                   0
 number of shells is                         56
 number of basis is                         188
 number of cartesian basis is               188
 number of contracted shell pairs          1585
 number of primitive shell pairs           3974
 maxK2 (contraction) of shell pair           64
 max number of K2 of shell pair               1
 max number of CS2 of shell pair            257
 max number of PS2 of shell pair            464
 mem total for path MDJ                  562704
 -------------------------------------------------------
 Smallest overlap matrix eigenvalue = 9.30E-05

 Scale SEOQF with 1.000000e-01/1.000000e-01/1.000000e-01

 Standard Electronic Orientation quadrupole field applied
 Nucleus-field energy     =    -0.0000000016 hartrees
 Guess from superposition of atomic densities
 Warning:  Energy on first SCF cycle will be non-variational
 SAD guess density has 16.000000 electrons

 -----------------------------------------------------------------------
  General SCF calculation program by
  Eric Jon Sundstrom, Paul Horn, Yuezhi Mao, Dmitri Zuev, Alec White,
  David Stuck, Shaama M.S., Shane Yost, Joonho Lee, David Small,
  Daniel Levine, Susi Lehtola, Hugh Burton, Evgeny Epifanovsky
 -----------------------------------------------------------------------
 Exchange:     0.5300 Hartree-Fock + 0.4700 B88
 Correlation:  0.7300 LYP
 Using Euler-Maclaurin-Lebedev (99,590) quadrature formula
Running Object-Oriented RKS (RHF)
We will preform up to 15 macro iterations over saddle points until a stable solution is found
Energy prior to optimization (guess energy) = -125.760741993790
Begin Timing: Total SCF Calculation
Begin Timing: SCF Single Stationary Point Calculation
begin iterations for algorithm: GDM          
the SCF tolerance is set to 1.00e-08
    1    -125.7607419938      6.18e-02     00000  Normal BFGS step
    2    -125.7594094943      7.94e-02     00000 Line search: overstep
    3    -125.7799405381      1.07e-02     00000  Normal BFGS step
    4    -125.7818903069      1.69e-03     00000  Normal BFGS step
    5    -125.7819295135      4.65e-04     00000  Normal BFGS step
    6    -125.7819318253      7.11e-05     00000  Normal BFGS step
    7    -125.7819318817      9.95e-06     00000  Normal BFGS step
    8    -125.7819318830      1.41e-06     00000  Normal BFGS step
    9    -125.7819318830      2.84e-07     00000  Normal BFGS step
   10    -125.7819318830      4.22e-08     00000  Normal BFGS step
   11    -125.7819318830      1.42e-08     00000  Normal BFGS step
   12    -125.7819318830      9.90e-09     00000 Convergence criterion met
Timing for Single Stationary Point: 30.00s (wall), 242.08s (cpu)
Begin Timing: Stability
===================================================
Beginning Test for Internal Stability
===================================================
generating davidson guess vectors based on koopmans excitations
    1      1.43e+00     00000 Davidson Iteration
    2      7.10e-01     00000 Davidson Iteration
    3      5.01e-02     00000 Davidson Iteration
    4      1.07e-02     00000 Davidson Iteration
    5      3.42e-03     00000 Davidson Iteration
    6      9.19e-04     00000 Davidson Iteration
    7      1.51e-04     00000 Davidson Iteration
    8      7.22e-05     00000 Davidson Iteration
    9      1.18e-03     00000 Davidson Iteration
   10      2.63e-04     00000 Davidson Iteration
   11      5.74e-05     00000 Davidson Converged
converged_eigenvalues
   0.9884
   1.3405
Threshold for negative eigenvalues: -1.0e-05
solution was a local minimum (stable)
===================================================
End Test for Internal Stability
===================================================
Our SCF solution is stable!
Timing for Total SCF: 74.00s (wall), 592.74s (cpu)
 Total energy in the final basis set =     -125.7819318830
    ==================================================
              The end of Object-Oriented SCFman       
    ==================================================
 
 Components of the MP2 correlation energy:
        aaaa  correlation energy =        -0.0153465631 au
        abab  correlation energy =        -0.1159219463 au
        bbbb  correlation energy =        -0.0153465631 au
        non-Brillouin singles    =        -0.0000000000 au

 Total  MP2   correlation energy =                    -0.14661507 au
        MP2         total energy =                  -125.92854696 au
 
 --------------------------------------------------------------
 
                    Orbital Energies (a.u.)
 --------------------------------------------------------------
 
 Alpha MOs
 -- Occupied --
-25.375  -7.171  -1.393  -0.666  -0.580  -0.557  -0.529  -0.400
 -- Virtual --
 -0.004   0.017   0.031   0.033   0.057   0.068   0.092   0.114
  0.134   0.134   0.150   0.164   0.174   0.201   0.230   0.243
  0.252   0.267   0.285   0.302   0.307   0.310   0.328   0.352
  0.371   0.406   0.481   0.494   0.544   0.545   0.600   0.617
  0.650   0.676   0.680   0.681   0.705   0.726   0.747   0.747
  0.914   0.918   0.941   0.945   0.970   0.984   0.998   1.011
  1.028   1.030   1.034   1.080   1.171   1.177   1.224   1.240
  1.280   1.281   1.286   1.353   1.471   1.526   1.548   1.550
  1.619   1.743   1.799   1.865   1.870   1.965   1.965   1.966
  1.990   2.172   2.254   2.293   2.314   2.439   2.446   2.570
  2.615   2.661   2.702   2.893   2.897   2.918   2.928   3.086
  3.142   3.292   3.310   3.321   3.366   3.441   3.606   3.852
  3.877   3.980   3.998   4.047   4.175   4.257   4.402   4.434
  4.487   4.503   4.602   4.622   4.799   4.914   5.032   5.145
  5.244   5.249   5.356   5.929   6.028   7.515   8.559   8.568
  8.709   8.783   8.877   8.970   9.034   9.074   9.077   9.172
  9.363   9.439  10.395  11.499  11.762  12.281  31.588  31.875
 32.293  35.289  36.672  36.702  36.815  36.823  36.850  52.482
 52.484  52.535  52.614  52.627  55.421  56.299  56.619  59.959
169.246 169.451 169.782 182.528
 --------------------------------------------------------------
 
          Ground-State Mulliken Net Atomic Charges

     Atom                 Charge (a.u.)
  ----------------------------------------
      1 B                     0.568126
      2 F                    -0.491864
      3 H                    -0.038131
      4 H                    -0.038131
  ----------------------------------------
  Sum of atomic charges =    -0.000000

 -----------------------------------------------------------------
                    Cartesian Multipole Moments
 -----------------------------------------------------------------
    Charge (ESU x 10^10)
                -0.0000
    Dipole Moment (Debye)
         X       0.0000      Y      -0.0000      Z      -0.8875
       Tot       0.8875
    Quadrupole Moments (Debye-Ang)
        XX     -10.8585     XY       0.0000     YY     -12.6956
        XZ      -0.0000     YZ       0.0000     ZZ     -14.4000
    Octopole Moments (Debye-Ang^2)
       XXX       0.0000    XXY      -0.0000    XYY      -0.0000
       YYY      -0.0000    XXZ      -5.1130    XYZ      -0.0000
       YYZ      -4.9637    XZZ      -0.0000    YZZ      -0.0000
       ZZZ     -18.3547
    Hexadecapole Moments (Debye-Ang^3)
      XXXX      -9.4239   XXXY       0.0000   XXYY      -6.2594
      XYYY       0.0000   YYYY     -26.1768   XXXZ       0.0000
      XXYZ       0.0000   XYYZ       0.0000   YYYZ       0.0000
      XXZZ     -12.8834   XYZZ       0.0000   YYZZ     -15.5876
      XZZZ      -0.0000   YZZZ       0.0000   ZZZZ     -70.0866
 -----------------------------------------------------------------
Archival summary:
1\1\n0052.mhg0\SP\ProcedureUnspecified\BasisUnspecified\112\yhljason\FriOct223:58:182020FriOct223:58:182020\0\\#,ProcedureUnspecified,BasisUnspecified,\\0,1\F\B,1,1.3157\H,2,1.1973,1,117.719\H,2,1.1973,1,117.719,3,-180,0\\\@

 Total job time:  100.96s(wall), 801.85s(cpu) 
 Fri Oct  2 23:58:18 2020

        *************************************************************
        *                                                           *
        *  Thank you very much for using Q-Chem.  Have a nice day.  *
        *                                                           *
        *************************************************************


 
User input: 2 of 8 
 
Q-Chem Developer Version!
                  Welcome to Q-Chem
     A Quantum Leap Into The Future Of Chemistry


 Q-Chem 5.1, Q-Chem, Inc., Pleasanton, CA (2018)

 Yihan Shao,  Zhengting Gan,  E. Epifanovsky,  A. T. B. Gilbert,  M. Wormit,  
 J. Kussmann,  A. W. Lange,  A. Behn,  Jia Deng,  Xintian Feng,  D. Ghosh,  
 M. Goldey,  P. R. Horn,  L. D. Jacobson,  I. Kaliman,  T. Kus,  A. Landau,  
 Jie Liu,  E. I. Proynov,  R. M. Richard,  R. P. Steele,  E. J. Sundstrom,  
 H. L. Woodcock III,  P. M. Zimmerman,  D. Zuev,  B. Albrecht,  E. Alguire,  
 S. A. Baeppler,  D. Barton,  Z. Benda,  Y. A. Bernard,  E. J. Berquist,  
 K. B. Bravaya,  H. Burton,  D. Casanova,  Chun-Min Chang,  Yunqing Chen,  
 A. Chien,  K. D. Closser,  M. P. Coons,  S. Coriani,  S. Dasgupta,  
 A. L. Dempwolff,  M. Diedenhofen,  Hainam Do,  R. G. Edgar,  Po-Tung Fang,  
 S. Faraji,  S. Fatehi,  Qingguo Feng,  K. D. Fenk,  J. Fosso-Tande,  
 Qinghui Ge,  A. Ghysels,  G. Gidofalvi,  J. Gomes,  J. Gonthier,  A. Gunina,  
 D. Hait,  M. W. D. Hanson-Heine,  P. H. P. Harbach,  A. W. Hauser,  
 J. E. Herr,  E. G. Hohenstein,  Z. C. Holden,  Kerwin Hui,  B. C. Huynh,  
 T.-C. Jagau,  Hyunjun Ji,  B. Kaduk,  K. Khistyaev,  Jaehoon Kim,  
 P. Klunzinger,  K. Koh,  D. Kosenkov,  L. Koulias,  T. Kowalczyk,  
 C. M. Krauter,  A. Kunitsa,  Ka Un Lao,  A. Laurent,  K. V. Lawler,  
 Joonho Lee,  D. Lefrancois,  S. Lehtola,  D. S. Levine,  Yi-Pei Li,  
 You-Sheng Lin,  Fenglai Liu,  E. Livshits,  A. Luenser,  P. Manohar,  
 E. Mansoor,  S. F. Manzer,  Shan-Ping Mao,  Yuezhi Mao,  N. Mardirossian,  
 A. V. Marenich,  T. Markovich,  L. A. Martinez-Martinez,  S. A. Maurer,  
 N. J. Mayhall,  S. C. McKenzie,  J.-M. Mewes,  A. F. Morrison,  
 J. W. Mullinax,  K. Nanda,  T. S. Nguyen-Beck,  R. Olivares-Amaya,  
 J. A. Parkhill,  T. M. Perrine,  F. Plasser,  P. Pokhilko,  S. Prager,  
 A. Prociuk,  E. Ramos,  D. R. Rehn,  F. Rob,  M. Schneider,  N. Sergueev,  
 S. M. Sharada,  S. Sharma,  D. W. Small,  T. Stauch,  T. Stein,  
 Yu-Chuan Su,  A. J. W. Thom,  A. Tkatchenko,  T. Tsuchimochi,  N. M. Tubman,  
 L. Vogt,  M. L. Vidal,  O. Vydrov,  M. A. Watson,  J. Wenzel,  
 M. de Wergifosse,  T. A. Wesolowski,  A. White,  J. Witte,  A. Yamada,  
 Jun Yang,  K. Yao,  S. Yeganeh,  S. R. Yost,  Zhi-Qiang You,  A. Zech,  
 Igor Ying Zhang,  Xing Zhang,  Yan Zhao,  Ying Zhu,  B. R. Brooks,  
 G. K. L. Chan,  C. J. Cramer,  M. S. Gordon,  W. J. Hehre,  A. Klamt,  
 M. W. Schmidt,  C. D. Sherrill,  D. G. Truhlar,  A. Aspuru-Guzik,  R. Baer,  
 A. T. Bell,  N. A. Besley,  Jeng-Da Chai,  A. E. DePrince, III,  
 R. A. DiStasio Jr.,  A. Dreuw,  B. D. Dunietz,  T. R. Furlani,  
 Chao-Ping Hsu,  Yousung Jung,  Jing Kong,  D. S. Lambrecht,  WanZhen Liang,  
 C. Ochsenfeld,  V. A. Rassolov,  L. V. Slipchenko,  J. E. Subotnik,  
 T. Van Voorhis,  J. M. Herbert,  A. I. Krylov,  P. M. W. Gill,  M. Head-Gordon

 Contributors to earlier versions of Q-Chem not listed above: 
 R. D. Adamson,  B. Austin,  J. Baker,  G. J. O. Beran,  K. Brandhorst,  
 S. T. Brown,  E. F. C. Byrd,  A. K. Chakraborty,  C.-L. Cheng,  
 Siu Hung Chien,  D. M. Chipman,  D. L. Crittenden,  H. Dachsel,  
 R. J. Doerksen,  A. D. Dutoi,  L. Fusti-Molnar,  W. A. Goddard III,  
 A. Golubeva-Zadorozhnaya,  S. R. Gwaltney,  G. Hawkins,  A. Heyden,  
 S. Hirata,  G. Kedziora,  F. J. Keil,  C. Kelley,  Jihan Kim,  R. A. King,  
 R. Z. Khaliullin,  P. P. Korambath,  W. Kurlancheek,  A. M. Lee,  M. S. Lee,  
 S. V. Levchenko,  Ching Yeh Lin,  D. Liotard,  R. C. Lochan,  I. Lotan,  
 P. E. Maslen,  N. Nair,  D. P. O'Neill,  D. Neuhauser,  E. Neuscamman,  
 C. M. Oana,  R. Olson,  B. Peters,  R. Peverati,  P. A. Pieniazek,  
 Y. M. Rhee,  J. Ritchie,  M. A. Rohrdanz,  E. Rosta,  N. J. Russ,  
 H. F. Schaefer III,  N. E. Schultz,  N. Shenvi,  A. C. Simmonett,  A. Sodt,  
 D. Stuck,  K. S. Thanthiriwatte,  V. Vanovschi,  Tao Wang,  A. Warshel,  
 C. F. Williams,  Q. Wu,  X. Xu,  W. Zhang

 Please cite Q-Chem as follows:
 Y. Shao et al., Mol. Phys. 113, 184-215 (2015)
 DOI: 10.1080/00268976.2014.952696

 Q-Chem 5.1.1 for Intel X86 EM64T Linux

 Parts of Q-Chem use Armadillo 8.300.2 (Tropical Shenanigans).
 http://arma.sourceforge.net/

 Q-Chem begins on Fri Oct  2 23:58:18 2020  

Host: n0052.mhg0
0

     Scratch files written to /local/scratch/users/yhljason/BH2F_B2PLYP_aug-cc-pcVTZ.inp20201002235632//
The previous job contains 0 fragments, simply inherited here
Input Ideriv = 2
Curr. Ideriv = -1
Max.  Ideriv = 2

Checking the input file for inconsistencies... 	...done.

--------------------------------------------------------------
User input:
--------------------------------------------------------------
$molecule
read
$end

$rem

jobtype sp
method HF
xc_grid 000099000590
basis aug-cc-pcVTZ
max_scf_cycles 0
scf_guess read
thresh 14
scf_convergence 8
mem_total 128000
cc_memory 96000
cc_backend xm
mem_static 1500
symmetry false
sym_ignore true
scf_guess read
unrestricted false
scf_algorithm gdm
n_frozen_core 0
$end



--------------------------------------------------------------
 ----------------------------------------------------------------
             Standard Nuclear Orientation (Angstroms)
    I     Atom           X                Y                Z
 ----------------------------------------------------------------
    1      B       0.0000000000     0.0000000000     0.0000000000
    2      F       0.0000000000     0.0000000000     1.3157000000
    3      H       0.0000000000     1.0599000000    -0.5569000000
    4      H       0.0000000000    -1.0599000000    -0.5569000000
 ----------------------------------------------------------------
 Nuclear Repulsion Energy =    27.1952060366 hartrees
 There are        8 alpha and        8 beta electrons
 Requested basis set is aug-cc-pCVTZ
 There are 56 shells and 164 basis functions

 Total QAlloc Memory Limit 128000 MB
 Mega-Array Size      1467 MB
 MEM_STATIC part      1500 MB

                       Distance Matrix (Angstroms)
             B (  1)   F (  2)   H (  3)
   F (  2)  1.315700
   H (  3)  1.197299  2.151748
   H (  4)  1.197299  2.151748  2.119800
 
 A cutoff of  1.0D-14 yielded   1585 shell pairs
 There are     13685 function pairs (     18056 Cartesian)
 
 -------------------------------------------------------
 OpenMP Integral Computing Module                       
 Release: version 1.0, May 2013, Q-Chem Inc. Pittsburgh 
 -------------------------------------------------------
 Integral Job Info:
 Integral job number is                      11
 Integral operator is                         1
 short-range coefficients                     0
 long-range coefficients              100000000
 Omega coefficients                           0
 if combine SR and LR in K                    0
 Integral screening is                        0
 Integral computing path is                   2
 max size of driver memory is            800000
 size of driver memory is                776718
 size of scratch memory is              6691272
 max col of scratch BK array              10000
 max len of scratch array in speh3          662
 max len of scratch index in speh4           32
 max int batch size is                      520
 min int batch size is                       52
 fixed nKL is                                52
 max L of basis functions is                  3
 order of int derivative is                   0
 number of shells is                         56
 number of basis is                         188
 number of cartesian basis is               188
 number of contracted shell pairs          1585
 number of primitive shell pairs           3974
 maxK2 (contraction) of shell pair           64
 max number of K2 of shell pair               1
 max number of CS2 of shell pair            257
 max number of PS2 of shell pair            464
 mem total for path MDJ                  562704
 -------------------------------------------------------
 Smallest overlap matrix eigenvalue = 9.30E-05

 Scale SEOQF with 1.000000e-01/1.000000e-01/1.000000e-01

 Standard Electronic Orientation quadrupole field applied
 Nucleus-field energy     =    -0.0000000016 hartrees
 Guess MOs from SCF MO coefficient file
 Reading MOs from coefficient file
 Reading MOs from coefficient file
 The restricted Hartree-Fock energy will be evaluated
 The orbitals will not be altered
Using Q-Chem read-in guess as SCF_GUESS READ specified.

 using 8 threads for integral computing
 -------------------------------------------------------
 OpenMP Integral computing Module                
 Release: version 2.0, May 2017, Q-Chem Inc. Pleasanton 
 -------------------------------------------------------
TIMEINFO->: J/JK contribution 14.62 sec.
Avoiding writing the new MOs to disk !!! 
 ---------------------------------------
  Cycle       Energy        RMS Gradient
 ---------------------------------------
    1    -125.3696732432      1.90E-02 Convergence criterion met
 ---------------------------------------
 SCF time:  CPU 15.05 s  wall 1.89 s
 SCF   energy in the final basis set = -125.36967324
 Total energy in the final basis set = -125.36967324
 
 --------------------------------------------------------------
 
                    Orbital Energies (a.u.)
 --------------------------------------------------------------
 
 Alpha MOs
 -- Occupied --
-25.375  -7.171  -1.393  -0.666  -0.580  -0.557  -0.529  -0.400
 -- Virtual --
 -0.004   0.017   0.031   0.033   0.057   0.068   0.092   0.114
  0.134   0.134   0.150   0.164   0.174   0.201   0.230   0.243
  0.252   0.267   0.285   0.302   0.307   0.310   0.328   0.352
  0.371   0.406   0.481   0.494   0.544   0.545   0.600   0.617
  0.650   0.676   0.680   0.681   0.705   0.726   0.747   0.747
  0.914   0.918   0.941   0.945   0.970   0.984   0.998   1.011
  1.028   1.030   1.034   1.080   1.171   1.177   1.224   1.240
  1.280   1.281   1.286   1.353   1.471   1.526   1.548   1.550
  1.619   1.743   1.799   1.865   1.870   1.965   1.965   1.966
  1.990   2.172   2.254   2.293   2.314   2.439   2.446   2.570
  2.615   2.661   2.702   2.893   2.897   2.918   2.928   3.086
  3.142   3.292   3.310   3.321   3.366   3.441   3.606   3.852
  3.877   3.980   3.998   4.047   4.175   4.257   4.402   4.434
  4.487   4.503   4.602   4.622   4.799   4.914   5.032   5.145
  5.244   5.249   5.356   5.929   6.028   7.515   8.559   8.568
  8.709   8.783   8.877   8.970   9.034   9.074   9.077   9.172
  9.363   9.439  10.395  11.499  11.762  12.281  31.588  31.875
 32.293  35.289  36.672  36.702  36.815  36.823  36.850  52.482
 52.484  52.535  52.614  52.627  55.421  56.299  56.619  59.959
169.246 169.451 169.782 182.528
 --------------------------------------------------------------
 
          Ground-State Mulliken Net Atomic Charges

     Atom                 Charge (a.u.)
  ----------------------------------------
      1 B                     0.568126
      2 F                    -0.491864
      3 H                    -0.038131
      4 H                    -0.038131
  ----------------------------------------
  Sum of atomic charges =    -0.000000

 -----------------------------------------------------------------
                    Cartesian Multipole Moments
 -----------------------------------------------------------------
    Charge (ESU x 10^10)
                -0.0000
    Dipole Moment (Debye)
         X      -0.0000      Y       0.0000      Z      -0.8875
       Tot       0.8875
    Quadrupole Moments (Debye-Ang)
        XX     -10.8585     XY       0.0000     YY     -12.6956
        XZ       0.0000     YZ       0.0000     ZZ     -14.4000
    Octopole Moments (Debye-Ang^2)
       XXX       0.0000    XXY       0.0000    XYY      -0.0000
       YYY       0.0000    XXZ      -5.1130    XYZ      -0.0000
       YYZ      -4.9637    XZZ       0.0000    YZZ       0.0000
       ZZZ     -18.3547
    Hexadecapole Moments (Debye-Ang^3)
      XXXX      -9.4239   XXXY       0.0000   XXYY      -6.2594
      XYYY       0.0000   YYYY     -26.1768   XXXZ       0.0000
      XXYZ      -0.0000   XYYZ       0.0000   YYYZ       0.0000
      XXZZ     -12.8834   XYZZ       0.0000   YYZZ     -15.5876
      XZZZ      -0.0000   YZZZ       0.0000   ZZZZ     -70.0866
 -----------------------------------------------------------------
Archival summary:
1\1\n0052.mhg0\SP\HF\BasisUnspecified\112\yhljason\FriOct223:58:212020FriOct223:58:212020\0\\#,HF,BasisUnspecified,\\0,1\F\B,1,1.3157\H,2,1.1973,1,117.719\H,2,1.1973,1,117.719,3,-180,0\\HF=-125.369673\\@

 Total job time:  2.57s(wall), 20.13s(cpu) 
 Fri Oct  2 23:58:21 2020

        *************************************************************
        *                                                           *
        *  Thank you very much for using Q-Chem.  Have a nice day.  *
        *                                                           *
        *************************************************************


 
User input: 3 of 8 
 
Q-Chem Developer Version!
                  Welcome to Q-Chem
     A Quantum Leap Into The Future Of Chemistry


 Q-Chem 5.1, Q-Chem, Inc., Pleasanton, CA (2018)

 Yihan Shao,  Zhengting Gan,  E. Epifanovsky,  A. T. B. Gilbert,  M. Wormit,  
 J. Kussmann,  A. W. Lange,  A. Behn,  Jia Deng,  Xintian Feng,  D. Ghosh,  
 M. Goldey,  P. R. Horn,  L. D. Jacobson,  I. Kaliman,  T. Kus,  A. Landau,  
 Jie Liu,  E. I. Proynov,  R. M. Richard,  R. P. Steele,  E. J. Sundstrom,  
 H. L. Woodcock III,  P. M. Zimmerman,  D. Zuev,  B. Albrecht,  E. Alguire,  
 S. A. Baeppler,  D. Barton,  Z. Benda,  Y. A. Bernard,  E. J. Berquist,  
 K. B. Bravaya,  H. Burton,  D. Casanova,  Chun-Min Chang,  Yunqing Chen,  
 A. Chien,  K. D. Closser,  M. P. Coons,  S. Coriani,  S. Dasgupta,  
 A. L. Dempwolff,  M. Diedenhofen,  Hainam Do,  R. G. Edgar,  Po-Tung Fang,  
 S. Faraji,  S. Fatehi,  Qingguo Feng,  K. D. Fenk,  J. Fosso-Tande,  
 Qinghui Ge,  A. Ghysels,  G. Gidofalvi,  J. Gomes,  J. Gonthier,  A. Gunina,  
 D. Hait,  M. W. D. Hanson-Heine,  P. H. P. Harbach,  A. W. Hauser,  
 J. E. Herr,  E. G. Hohenstein,  Z. C. Holden,  Kerwin Hui,  B. C. Huynh,  
 T.-C. Jagau,  Hyunjun Ji,  B. Kaduk,  K. Khistyaev,  Jaehoon Kim,  
 P. Klunzinger,  K. Koh,  D. Kosenkov,  L. Koulias,  T. Kowalczyk,  
 C. M. Krauter,  A. Kunitsa,  Ka Un Lao,  A. Laurent,  K. V. Lawler,  
 Joonho Lee,  D. Lefrancois,  S. Lehtola,  D. S. Levine,  Yi-Pei Li,  
 You-Sheng Lin,  Fenglai Liu,  E. Livshits,  A. Luenser,  P. Manohar,  
 E. Mansoor,  S. F. Manzer,  Shan-Ping Mao,  Yuezhi Mao,  N. Mardirossian,  
 A. V. Marenich,  T. Markovich,  L. A. Martinez-Martinez,  S. A. Maurer,  
 N. J. Mayhall,  S. C. McKenzie,  J.-M. Mewes,  A. F. Morrison,  
 J. W. Mullinax,  K. Nanda,  T. S. Nguyen-Beck,  R. Olivares-Amaya,  
 J. A. Parkhill,  T. M. Perrine,  F. Plasser,  P. Pokhilko,  S. Prager,  
 A. Prociuk,  E. Ramos,  D. R. Rehn,  F. Rob,  M. Schneider,  N. Sergueev,  
 S. M. Sharada,  S. Sharma,  D. W. Small,  T. Stauch,  T. Stein,  
 Yu-Chuan Su,  A. J. W. Thom,  A. Tkatchenko,  T. Tsuchimochi,  N. M. Tubman,  
 L. Vogt,  M. L. Vidal,  O. Vydrov,  M. A. Watson,  J. Wenzel,  
 M. de Wergifosse,  T. A. Wesolowski,  A. White,  J. Witte,  A. Yamada,  
 Jun Yang,  K. Yao,  S. Yeganeh,  S. R. Yost,  Zhi-Qiang You,  A. Zech,  
 Igor Ying Zhang,  Xing Zhang,  Yan Zhao,  Ying Zhu,  B. R. Brooks,  
 G. K. L. Chan,  C. J. Cramer,  M. S. Gordon,  W. J. Hehre,  A. Klamt,  
 M. W. Schmidt,  C. D. Sherrill,  D. G. Truhlar,  A. Aspuru-Guzik,  R. Baer,  
 A. T. Bell,  N. A. Besley,  Jeng-Da Chai,  A. E. DePrince, III,  
 R. A. DiStasio Jr.,  A. Dreuw,  B. D. Dunietz,  T. R. Furlani,  
 Chao-Ping Hsu,  Yousung Jung,  Jing Kong,  D. S. Lambrecht,  WanZhen Liang,  
 C. Ochsenfeld,  V. A. Rassolov,  L. V. Slipchenko,  J. E. Subotnik,  
 T. Van Voorhis,  J. M. Herbert,  A. I. Krylov,  P. M. W. Gill,  M. Head-Gordon

 Contributors to earlier versions of Q-Chem not listed above: 
 R. D. Adamson,  B. Austin,  J. Baker,  G. J. O. Beran,  K. Brandhorst,  
 S. T. Brown,  E. F. C. Byrd,  A. K. Chakraborty,  C.-L. Cheng,  
 Siu Hung Chien,  D. M. Chipman,  D. L. Crittenden,  H. Dachsel,  
 R. J. Doerksen,  A. D. Dutoi,  L. Fusti-Molnar,  W. A. Goddard III,  
 A. Golubeva-Zadorozhnaya,  S. R. Gwaltney,  G. Hawkins,  A. Heyden,  
 S. Hirata,  G. Kedziora,  F. J. Keil,  C. Kelley,  Jihan Kim,  R. A. King,  
 R. Z. Khaliullin,  P. P. Korambath,  W. Kurlancheek,  A. M. Lee,  M. S. Lee,  
 S. V. Levchenko,  Ching Yeh Lin,  D. Liotard,  R. C. Lochan,  I. Lotan,  
 P. E. Maslen,  N. Nair,  D. P. O'Neill,  D. Neuhauser,  E. Neuscamman,  
 C. M. Oana,  R. Olson,  B. Peters,  R. Peverati,  P. A. Pieniazek,  
 Y. M. Rhee,  J. Ritchie,  M. A. Rohrdanz,  E. Rosta,  N. J. Russ,  
 H. F. Schaefer III,  N. E. Schultz,  N. Shenvi,  A. C. Simmonett,  A. Sodt,  
 D. Stuck,  K. S. Thanthiriwatte,  V. Vanovschi,  Tao Wang,  A. Warshel,  
 C. F. Williams,  Q. Wu,  X. Xu,  W. Zhang

 Please cite Q-Chem as follows:
 Y. Shao et al., Mol. Phys. 113, 184-215 (2015)
 DOI: 10.1080/00268976.2014.952696

 Q-Chem 5.1.1 for Intel X86 EM64T Linux

 Parts of Q-Chem use Armadillo 8.300.2 (Tropical Shenanigans).
 http://arma.sourceforge.net/

 Q-Chem begins on Fri Oct  2 23:58:21 2020  

Host: n0052.mhg0
0

     Scratch files written to /local/scratch/users/yhljason/BH2F_B2PLYP_aug-cc-pcVTZ.inp20201002235632//
The previous job contains 0 fragments, simply inherited here
Input Ideriv = 0
Curr. Ideriv = -1
Max.  Ideriv = 0
Analytic post-HF gradients are not available with non-HF exchange
Input Ideriv = 0
Curr. Ideriv = 0
Max.  Ideriv = 0

Checking the input file for inconsistencies... 	...done.

--------------------------------------------------------------
User input:
--------------------------------------------------------------
$molecule
read
$end

$rem

jobtype sp
method B2PLYP
xc_grid 000099000590
basis aug-cc-pcVTZ
max_scf_cycles 200
thresh 14
scf_convergence 8
mem_total 128000
cc_memory 96000
cc_backend xm
mem_static 1500
symmetry false
sym_ignore true
scf_guess read
unrestricted false
scf_algorithm gdm
n_frozen_core 0
$end

$multipole_field
XX 0.0001
$end


--------------------------------------------------------------
 ----------------------------------------------------------------
             Standard Nuclear Orientation (Angstroms)
    I     Atom           X                Y                Z
 ----------------------------------------------------------------
    1      B       0.0000000000     0.0000000000     0.0000000000
    2      F       0.0000000000     0.0000000000     1.3157000000
    3      H       0.0000000000     1.0599000000    -0.5569000000
    4      H       0.0000000000    -1.0599000000    -0.5569000000
 ----------------------------------------------------------------
 Nuclear Repulsion Energy =    27.1952060366 hartrees
 There are        8 alpha and        8 beta electrons
 Requested basis set is aug-cc-pCVTZ
 There are 56 shells and 164 basis functions

 Total QAlloc Memory Limit 128000 MB
 Mega-Array Size      1467 MB
 MEM_STATIC part      1500 MB

                       Distance Matrix (Angstroms)
             B (  1)   F (  2)   H (  3)
   F (  2)  1.315700
   H (  3)  1.197299  2.151748
   H (  4)  1.197299  2.151748  2.119800
 
 Applying Cartesian multipole field
    Component          Value
    ---------          -----
     (2,0,0)        1.00000E-04
 A cutoff of  1.0D-14 yielded   1585 shell pairs
 There are     13685 function pairs (     18056 Cartesian)
 
 -------------------------------------------------------
 OpenMP Integral Computing Module                       
 Release: version 1.0, May 2013, Q-Chem Inc. Pittsburgh 
 -------------------------------------------------------
 Integral Job Info:
 Integral job number is                      11
 Integral operator is                         1
 short-range coefficients                     0
 long-range coefficients              100000000
 Omega coefficients                           0
 if combine SR and LR in K                    0
 Integral screening is                        0
 Integral computing path is                   2
 max size of driver memory is            800000
 size of driver memory is                776718
 size of scratch memory is              6691272
 max col of scratch BK array              10000
 max len of scratch array in speh3          662
 max len of scratch index in speh4           32
 max int batch size is                      520
 min int batch size is                       52
 fixed nKL is                                52
 max L of basis functions is                  3
 order of int derivative is                   0
 number of shells is                         56
 number of basis is                         188
 number of cartesian basis is               188
 number of contracted shell pairs          1585
 number of primitive shell pairs           3974
 maxK2 (contraction) of shell pair           64
 max number of K2 of shell pair               1
 max number of CS2 of shell pair            257
 max number of PS2 of shell pair            464
 mem total for path MDJ                  562704
 -------------------------------------------------------
 Smallest overlap matrix eigenvalue = 9.30E-05
 Guess MOs from SCF MO coefficient file

 -----------------------------------------------------------------------
  General SCF calculation program by
  Eric Jon Sundstrom, Paul Horn, Yuezhi Mao, Dmitri Zuev, Alec White,
  David Stuck, Shaama M.S., Shane Yost, Joonho Lee, David Small,
  Daniel Levine, Susi Lehtola, Hugh Burton, Evgeny Epifanovsky
 -----------------------------------------------------------------------
 Exchange:     0.5300 Hartree-Fock + 0.4700 B88
 Correlation:  0.7300 LYP
 Using Euler-Maclaurin-Lebedev (99,590) quadrature formula
 using 8 threads for integral computing
 -------------------------------------------------------
 OpenMP Integral computing Module                
 Release: version 2.0, May 2017, Q-Chem Inc. Pleasanton 
 -------------------------------------------------------
 -------------------------------------------------------
 OpenMP BLAS3 based DFT computing Module                
 Release: version 1.0, May 2013, Q-Chem Inc. Pittsburgh 
 -------------------------------------------------------
 A restricted SCF calculation will be
 performed using GDM
 SCF converges when RMS gradient is below 1.0e-08
 ---------------------------------------
  Cycle       Energy        RMS Gradient
 ---------------------------------------
    1    -125.7827391846      1.46e-04   Normal BFGS step
    2    -125.7827393836      3.59e-05   Normal BFGS step
    3    -125.7827393928      3.65e-05   Normal BFGS step
    4    -125.7827394022      3.06e-06   Normal BFGS step
    5    -125.7827394023      1.13e-06   Normal BFGS step
    6    -125.7827394023      3.01e-07   Normal BFGS step
    7    -125.7827394023      5.36e-08   Normal BFGS step
    8    -125.7827394023      2.56e-09  Convergence criterion met
 ---------------------------------------
 SCF time:   CPU 185.05s  wall 24.00s 
 SCF   energy in the final basis set =     -125.7827394023
 Total energy in the final basis set =     -125.7827394023
 
 Components of the MP2 correlation energy:
        aaaa  correlation energy =        -0.0153480230 au
        abab  correlation energy =        -0.1159273192 au
        bbbb  correlation energy =        -0.0153480230 au
        non-Brillouin singles    =        -0.0000000000 au

 Total  MP2   correlation energy =                    -0.14662337 au
        MP2         total energy =                  -125.92936277 au
 
 --------------------------------------------------------------
 
                    Orbital Energies (a.u.)
 --------------------------------------------------------------
 
 Alpha MOs
 -- Occupied --
-25.375  -7.171  -1.393  -0.667  -0.580  -0.557  -0.529  -0.400
 -- Virtual --
 -0.005   0.015   0.029   0.032   0.054   0.067   0.090   0.114
  0.132   0.133   0.149   0.162   0.173   0.200   0.228   0.242
  0.251   0.266   0.284   0.300   0.305   0.309   0.327   0.352
  0.370   0.405   0.480   0.494   0.544   0.544   0.599   0.616
  0.649   0.676   0.680   0.680   0.704   0.725   0.746   0.747
  0.913   0.917   0.941   0.945   0.970   0.984   0.997   1.011
  1.028   1.030   1.034   1.080   1.171   1.177   1.223   1.239
  1.280   1.280   1.286   1.353   1.471   1.525   1.548   1.550
  1.619   1.743   1.799   1.865   1.870   1.965   1.965   1.966
  1.990   2.172   2.254   2.293   2.314   2.438   2.446   2.570
  2.615   2.661   2.702   2.892   2.897   2.918   2.928   3.085
  3.142   3.292   3.310   3.321   3.366   3.441   3.606   3.852
  3.877   3.980   3.998   4.047   4.175   4.256   4.401   4.434
  4.487   4.502   4.602   4.622   4.799   4.914   5.032   5.144
  5.243   5.249   5.355   5.929   6.028   7.515   8.559   8.568
  8.709   8.783   8.877   8.970   9.034   9.074   9.076   9.172
  9.363   9.439  10.395  11.499  11.762  12.281  31.588  31.875
 32.293  35.289  36.671  36.702  36.815  36.823  36.850  52.482
 52.484  52.534  52.614  52.627  55.421  56.299  56.619  59.959
169.246 169.451 169.782 182.527
 --------------------------------------------------------------
 
          Ground-State Mulliken Net Atomic Charges

     Atom                 Charge (a.u.)
  ----------------------------------------
      1 B                     0.564287
      2 F                    -0.491557
      3 H                    -0.036365
      4 H                    -0.036365
  ----------------------------------------
  Sum of atomic charges =     0.000000

 -----------------------------------------------------------------
                    Cartesian Multipole Moments
 -----------------------------------------------------------------
    Charge (ESU x 10^10)
                 0.0000
    Dipole Moment (Debye)
         X       0.0000      Y      -0.0000      Z      -0.8872
       Tot       0.8872
    Quadrupole Moments (Debye-Ang)
        XX     -10.8643     XY       0.0000     YY     -12.6968
        XZ       0.0000     YZ       0.0000     ZZ     -14.4003
    Octopole Moments (Debye-Ang^2)
       XXX       0.0000    XXY       0.0000    XYY      -0.0000
       YYY      -0.0000    XXZ      -5.1132    XYZ      -0.0000
       YYZ      -4.9638    XZZ       0.0000    YZZ      -0.0000
       ZZZ     -18.3535
    Hexadecapole Moments (Debye-Ang^3)
      XXXX      -9.4426   XXXY       0.0000   XXYY      -6.2661
      XYYY       0.0000   YYYY     -26.1853   XXXZ       0.0000
      XXYZ       0.0000   XYYZ      -0.0000   YYYZ       0.0000
      XXZZ     -12.8897   XYZZ       0.0000   YYZZ     -15.5904
      XZZZ       0.0000   YZZZ       0.0000   ZZZZ     -70.0919
 -----------------------------------------------------------------
Archival summary:
1\1\n0052.mhg0\SP\ProcedureUnspecified\BasisUnspecified\112\yhljason\FriOct223:59:072020FriOct223:59:072020\0\\#,ProcedureUnspecified,BasisUnspecified,\\0,1\F\B,1,1.3157\H,2,1.1973,1,117.719\H,2,1.1973,1,117.719,3,-180,0\\\@

 Total job time:  45.95s(wall), 364.60s(cpu) 
 Fri Oct  2 23:59:07 2020

        *************************************************************
        *                                                           *
        *  Thank you very much for using Q-Chem.  Have a nice day.  *
        *                                                           *
        *************************************************************


 
User input: 4 of 8 
 
Q-Chem Developer Version!
                  Welcome to Q-Chem
     A Quantum Leap Into The Future Of Chemistry


 Q-Chem 5.1, Q-Chem, Inc., Pleasanton, CA (2018)

 Yihan Shao,  Zhengting Gan,  E. Epifanovsky,  A. T. B. Gilbert,  M. Wormit,  
 J. Kussmann,  A. W. Lange,  A. Behn,  Jia Deng,  Xintian Feng,  D. Ghosh,  
 M. Goldey,  P. R. Horn,  L. D. Jacobson,  I. Kaliman,  T. Kus,  A. Landau,  
 Jie Liu,  E. I. Proynov,  R. M. Richard,  R. P. Steele,  E. J. Sundstrom,  
 H. L. Woodcock III,  P. M. Zimmerman,  D. Zuev,  B. Albrecht,  E. Alguire,  
 S. A. Baeppler,  D. Barton,  Z. Benda,  Y. A. Bernard,  E. J. Berquist,  
 K. B. Bravaya,  H. Burton,  D. Casanova,  Chun-Min Chang,  Yunqing Chen,  
 A. Chien,  K. D. Closser,  M. P. Coons,  S. Coriani,  S. Dasgupta,  
 A. L. Dempwolff,  M. Diedenhofen,  Hainam Do,  R. G. Edgar,  Po-Tung Fang,  
 S. Faraji,  S. Fatehi,  Qingguo Feng,  K. D. Fenk,  J. Fosso-Tande,  
 Qinghui Ge,  A. Ghysels,  G. Gidofalvi,  J. Gomes,  J. Gonthier,  A. Gunina,  
 D. Hait,  M. W. D. Hanson-Heine,  P. H. P. Harbach,  A. W. Hauser,  
 J. E. Herr,  E. G. Hohenstein,  Z. C. Holden,  Kerwin Hui,  B. C. Huynh,  
 T.-C. Jagau,  Hyunjun Ji,  B. Kaduk,  K. Khistyaev,  Jaehoon Kim,  
 P. Klunzinger,  K. Koh,  D. Kosenkov,  L. Koulias,  T. Kowalczyk,  
 C. M. Krauter,  A. Kunitsa,  Ka Un Lao,  A. Laurent,  K. V. Lawler,  
 Joonho Lee,  D. Lefrancois,  S. Lehtola,  D. S. Levine,  Yi-Pei Li,  
 You-Sheng Lin,  Fenglai Liu,  E. Livshits,  A. Luenser,  P. Manohar,  
 E. Mansoor,  S. F. Manzer,  Shan-Ping Mao,  Yuezhi Mao,  N. Mardirossian,  
 A. V. Marenich,  T. Markovich,  L. A. Martinez-Martinez,  S. A. Maurer,  
 N. J. Mayhall,  S. C. McKenzie,  J.-M. Mewes,  A. F. Morrison,  
 J. W. Mullinax,  K. Nanda,  T. S. Nguyen-Beck,  R. Olivares-Amaya,  
 J. A. Parkhill,  T. M. Perrine,  F. Plasser,  P. Pokhilko,  S. Prager,  
 A. Prociuk,  E. Ramos,  D. R. Rehn,  F. Rob,  M. Schneider,  N. Sergueev,  
 S. M. Sharada,  S. Sharma,  D. W. Small,  T. Stauch,  T. Stein,  
 Yu-Chuan Su,  A. J. W. Thom,  A. Tkatchenko,  T. Tsuchimochi,  N. M. Tubman,  
 L. Vogt,  M. L. Vidal,  O. Vydrov,  M. A. Watson,  J. Wenzel,  
 M. de Wergifosse,  T. A. Wesolowski,  A. White,  J. Witte,  A. Yamada,  
 Jun Yang,  K. Yao,  S. Yeganeh,  S. R. Yost,  Zhi-Qiang You,  A. Zech,  
 Igor Ying Zhang,  Xing Zhang,  Yan Zhao,  Ying Zhu,  B. R. Brooks,  
 G. K. L. Chan,  C. J. Cramer,  M. S. Gordon,  W. J. Hehre,  A. Klamt,  
 M. W. Schmidt,  C. D. Sherrill,  D. G. Truhlar,  A. Aspuru-Guzik,  R. Baer,  
 A. T. Bell,  N. A. Besley,  Jeng-Da Chai,  A. E. DePrince, III,  
 R. A. DiStasio Jr.,  A. Dreuw,  B. D. Dunietz,  T. R. Furlani,  
 Chao-Ping Hsu,  Yousung Jung,  Jing Kong,  D. S. Lambrecht,  WanZhen Liang,  
 C. Ochsenfeld,  V. A. Rassolov,  L. V. Slipchenko,  J. E. Subotnik,  
 T. Van Voorhis,  J. M. Herbert,  A. I. Krylov,  P. M. W. Gill,  M. Head-Gordon

 Contributors to earlier versions of Q-Chem not listed above: 
 R. D. Adamson,  B. Austin,  J. Baker,  G. J. O. Beran,  K. Brandhorst,  
 S. T. Brown,  E. F. C. Byrd,  A. K. Chakraborty,  C.-L. Cheng,  
 Siu Hung Chien,  D. M. Chipman,  D. L. Crittenden,  H. Dachsel,  
 R. J. Doerksen,  A. D. Dutoi,  L. Fusti-Molnar,  W. A. Goddard III,  
 A. Golubeva-Zadorozhnaya,  S. R. Gwaltney,  G. Hawkins,  A. Heyden,  
 S. Hirata,  G. Kedziora,  F. J. Keil,  C. Kelley,  Jihan Kim,  R. A. King,  
 R. Z. Khaliullin,  P. P. Korambath,  W. Kurlancheek,  A. M. Lee,  M. S. Lee,  
 S. V. Levchenko,  Ching Yeh Lin,  D. Liotard,  R. C. Lochan,  I. Lotan,  
 P. E. Maslen,  N. Nair,  D. P. O'Neill,  D. Neuhauser,  E. Neuscamman,  
 C. M. Oana,  R. Olson,  B. Peters,  R. Peverati,  P. A. Pieniazek,  
 Y. M. Rhee,  J. Ritchie,  M. A. Rohrdanz,  E. Rosta,  N. J. Russ,  
 H. F. Schaefer III,  N. E. Schultz,  N. Shenvi,  A. C. Simmonett,  A. Sodt,  
 D. Stuck,  K. S. Thanthiriwatte,  V. Vanovschi,  Tao Wang,  A. Warshel,  
 C. F. Williams,  Q. Wu,  X. Xu,  W. Zhang

 Please cite Q-Chem as follows:
 Y. Shao et al., Mol. Phys. 113, 184-215 (2015)
 DOI: 10.1080/00268976.2014.952696

 Q-Chem 5.1.1 for Intel X86 EM64T Linux

 Parts of Q-Chem use Armadillo 8.300.2 (Tropical Shenanigans).
 http://arma.sourceforge.net/

 Q-Chem begins on Fri Oct  2 23:59:07 2020  

Host: n0052.mhg0
0

     Scratch files written to /local/scratch/users/yhljason/BH2F_B2PLYP_aug-cc-pcVTZ.inp20201002235632//
The previous job contains 0 fragments, simply inherited here
Input Ideriv = 0
Curr. Ideriv = -1
Max.  Ideriv = 0
Analytic post-HF gradients are not available with non-HF exchange
Input Ideriv = 0
Curr. Ideriv = 0
Max.  Ideriv = 0

Checking the input file for inconsistencies... 	...done.

--------------------------------------------------------------
User input:
--------------------------------------------------------------
$molecule
read
$end

$rem

jobtype sp
method B2PLYP
xc_grid 000099000590
basis aug-cc-pcVTZ
max_scf_cycles 200
thresh 14
scf_convergence 8
mem_total 128000
cc_memory 96000
cc_backend xm
mem_static 1500
symmetry false
sym_ignore true
scf_guess read
unrestricted false
scf_algorithm gdm
n_frozen_core 0
$end

$multipole_field
XX -0.0001
$end


--------------------------------------------------------------
 ----------------------------------------------------------------
             Standard Nuclear Orientation (Angstroms)
    I     Atom           X                Y                Z
 ----------------------------------------------------------------
    1      B       0.0000000000     0.0000000000     0.0000000000
    2      F       0.0000000000     0.0000000000     1.3157000000
    3      H       0.0000000000     1.0599000000    -0.5569000000
    4      H       0.0000000000    -1.0599000000    -0.5569000000
 ----------------------------------------------------------------
 Nuclear Repulsion Energy =    27.1952060366 hartrees
 There are        8 alpha and        8 beta electrons
 Requested basis set is aug-cc-pCVTZ
 There are 56 shells and 164 basis functions

 Total QAlloc Memory Limit 128000 MB
 Mega-Array Size      1467 MB
 MEM_STATIC part      1500 MB

                       Distance Matrix (Angstroms)
             B (  1)   F (  2)   H (  3)
   F (  2)  1.315700
   H (  3)  1.197299  2.151748
   H (  4)  1.197299  2.151748  2.119800
 
 Applying Cartesian multipole field
    Component          Value
    ---------          -----
     (2,0,0)       -1.00000E-04
 A cutoff of  1.0D-14 yielded   1585 shell pairs
 There are     13685 function pairs (     18056 Cartesian)
 
 -------------------------------------------------------
 OpenMP Integral Computing Module                       
 Release: version 1.0, May 2013, Q-Chem Inc. Pittsburgh 
 -------------------------------------------------------
 Integral Job Info:
 Integral job number is                      11
 Integral operator is                         1
 short-range coefficients                     0
 long-range coefficients              100000000
 Omega coefficients                           0
 if combine SR and LR in K                    0
 Integral screening is                        0
 Integral computing path is                   2
 max size of driver memory is            800000
 size of driver memory is                776718
 size of scratch memory is              6691272
 max col of scratch BK array              10000
 max len of scratch array in speh3          662
 max len of scratch index in speh4           32
 max int batch size is                      520
 min int batch size is                       52
 fixed nKL is                                52
 max L of basis functions is                  3
 order of int derivative is                   0
 number of shells is                         56
 number of basis is                         188
 number of cartesian basis is               188
 number of contracted shell pairs          1585
 number of primitive shell pairs           3974
 maxK2 (contraction) of shell pair           64
 max number of K2 of shell pair               1
 max number of CS2 of shell pair            257
 max number of PS2 of shell pair            464
 mem total for path MDJ                  562704
 -------------------------------------------------------
 Smallest overlap matrix eigenvalue = 9.30E-05
 Guess MOs from SCF MO coefficient file

 -----------------------------------------------------------------------
  General SCF calculation program by
  Eric Jon Sundstrom, Paul Horn, Yuezhi Mao, Dmitri Zuev, Alec White,
  David Stuck, Shaama M.S., Shane Yost, Joonho Lee, David Small,
  Daniel Levine, Susi Lehtola, Hugh Burton, Evgeny Epifanovsky
 -----------------------------------------------------------------------
 Exchange:     0.5300 Hartree-Fock + 0.4700 B88
 Correlation:  0.7300 LYP
 Using Euler-Maclaurin-Lebedev (99,590) quadrature formula
 using 8 threads for integral computing
 -------------------------------------------------------
 OpenMP Integral computing Module                
 Release: version 2.0, May 2017, Q-Chem Inc. Pleasanton 
 -------------------------------------------------------
 -------------------------------------------------------
 OpenMP BLAS3 based DFT computing Module                
 Release: version 1.0, May 2013, Q-Chem Inc. Pittsburgh 
 -------------------------------------------------------
 A restricted SCF calculation will be
 performed using GDM
 SCF converges when RMS gradient is below 1.0e-08
 ---------------------------------------
  Cycle       Energy        RMS Gradient
 ---------------------------------------
    1    -125.7811239278      2.93e-04   Normal BFGS step
    2    -125.7811247238      7.16e-05   Normal BFGS step
    3    -125.7811247608      7.54e-05   Normal BFGS step
    4    -125.7811247981      6.10e-06   Normal BFGS step
    5    -125.7811247985      2.34e-06   Normal BFGS step
    6    -125.7811247986      6.21e-07   Normal BFGS step
    7    -125.7811247986      1.11e-07   Normal BFGS step
    8    -125.7811247986      5.10e-09  Convergence criterion met
 ---------------------------------------
 SCF time:   CPU 183.33s  wall 23.00s 
 SCF   energy in the final basis set =     -125.7811247986
 Total energy in the final basis set =     -125.7811247986
 
 Components of the MP2 correlation energy:
        aaaa  correlation energy =        -0.0153451075 au
        abab  correlation energy =        -0.1159165890 au
        bbbb  correlation energy =        -0.0153451075 au
        non-Brillouin singles    =        -0.0000000000 au

 Total  MP2   correlation energy =                    -0.14660680 au
        MP2         total energy =                  -125.92773160 au
 
 --------------------------------------------------------------
 
                    Orbital Energies (a.u.)
 --------------------------------------------------------------
 
 Alpha MOs
 -- Occupied --
-25.375  -7.171  -1.392  -0.666  -0.580  -0.556  -0.528  -0.400
 -- Virtual --
 -0.002   0.019   0.032   0.035   0.061   0.070   0.094   0.115
  0.135   0.135   0.151   0.165   0.175   0.202   0.232   0.244
  0.252   0.269   0.287   0.303   0.308   0.311   0.329   0.353
  0.372   0.407   0.482   0.494   0.544   0.546   0.600   0.617
  0.650   0.677   0.681   0.681   0.706   0.726   0.747   0.747
  0.914   0.918   0.942   0.946   0.971   0.985   0.998   1.012
  1.028   1.031   1.034   1.081   1.171   1.178   1.224   1.240
  1.280   1.281   1.287   1.353   1.472   1.526   1.549   1.551
  1.619   1.744   1.800   1.865   1.870   1.965   1.965   1.966
  1.990   2.172   2.255   2.293   2.315   2.439   2.447   2.570
  2.616   2.662   2.702   2.893   2.897   2.918   2.929   3.086
  3.142   3.292   3.310   3.321   3.367   3.441   3.606   3.852
  3.878   3.980   3.998   4.048   4.175   4.257   4.402   4.434
  4.487   4.503   4.602   4.623   4.799   4.914   5.032   5.145
  5.244   5.249   5.356   5.929   6.028   7.515   8.559   8.568
  8.710   8.783   8.877   8.970   9.035   9.074   9.077   9.172
  9.363   9.439  10.395  11.500  11.762  12.281  31.588  31.875
 32.294  35.290  36.672  36.702  36.815  36.824  36.850  52.482
 52.484  52.535  52.615  52.627  55.421  56.299  56.619  59.959
169.246 169.451 169.782 182.528
 --------------------------------------------------------------
 
          Ground-State Mulliken Net Atomic Charges

     Atom                 Charge (a.u.)
  ----------------------------------------
      1 B                     0.571963
      2 F                    -0.492174
      3 H                    -0.039895
      4 H                    -0.039895
  ----------------------------------------
  Sum of atomic charges =     0.000000

 -----------------------------------------------------------------
                    Cartesian Multipole Moments
 -----------------------------------------------------------------
    Charge (ESU x 10^10)
                 0.0000
    Dipole Moment (Debye)
         X       0.0000      Y      -0.0000      Z      -0.8878
       Tot       0.8878
    Quadrupole Moments (Debye-Ang)
        XX     -10.8526     XY       0.0000     YY     -12.6944
        XZ       0.0000     YZ      -0.0000     ZZ     -14.3997
    Octopole Moments (Debye-Ang^2)
       XXX       0.0000    XXY      -0.0000    XYY      -0.0000
       YYY      -0.0000    XXZ      -5.1128    XYZ       0.0000
       YYZ      -4.9636    XZZ      -0.0000    YZZ      -0.0000
       ZZZ     -18.3558
    Hexadecapole Moments (Debye-Ang^3)
      XXXX      -9.4055   XXXY       0.0000   XXYY      -6.2528
      XYYY       0.0000   YYYY     -26.1683   XXXZ       0.0000
      XXYZ       0.0000   XYYZ       0.0000   YYYZ      -0.0000
      XXZZ     -12.8771   XYZZ      -0.0000   YYZZ     -15.5849
      XZZZ       0.0000   YZZZ      -0.0000   ZZZZ     -70.0813
 -----------------------------------------------------------------
Archival summary:
1\1\n0052.mhg0\SP\ProcedureUnspecified\BasisUnspecified\112\yhljason\FriOct223:59:522020FriOct223:59:522020\0\\#,ProcedureUnspecified,BasisUnspecified,\\0,1\F\B,1,1.3157\H,2,1.1973,1,117.719\H,2,1.1973,1,117.719,3,-180,0\\\@

 Total job time:  45.28s(wall), 359.60s(cpu) 
 Fri Oct  2 23:59:52 2020

        *************************************************************
        *                                                           *
        *  Thank you very much for using Q-Chem.  Have a nice day.  *
        *                                                           *
        *************************************************************


 
User input: 5 of 8 
 
Q-Chem Developer Version!
                  Welcome to Q-Chem
     A Quantum Leap Into The Future Of Chemistry


 Q-Chem 5.1, Q-Chem, Inc., Pleasanton, CA (2018)

 Yihan Shao,  Zhengting Gan,  E. Epifanovsky,  A. T. B. Gilbert,  M. Wormit,  
 J. Kussmann,  A. W. Lange,  A. Behn,  Jia Deng,  Xintian Feng,  D. Ghosh,  
 M. Goldey,  P. R. Horn,  L. D. Jacobson,  I. Kaliman,  T. Kus,  A. Landau,  
 Jie Liu,  E. I. Proynov,  R. M. Richard,  R. P. Steele,  E. J. Sundstrom,  
 H. L. Woodcock III,  P. M. Zimmerman,  D. Zuev,  B. Albrecht,  E. Alguire,  
 S. A. Baeppler,  D. Barton,  Z. Benda,  Y. A. Bernard,  E. J. Berquist,  
 K. B. Bravaya,  H. Burton,  D. Casanova,  Chun-Min Chang,  Yunqing Chen,  
 A. Chien,  K. D. Closser,  M. P. Coons,  S. Coriani,  S. Dasgupta,  
 A. L. Dempwolff,  M. Diedenhofen,  Hainam Do,  R. G. Edgar,  Po-Tung Fang,  
 S. Faraji,  S. Fatehi,  Qingguo Feng,  K. D. Fenk,  J. Fosso-Tande,  
 Qinghui Ge,  A. Ghysels,  G. Gidofalvi,  J. Gomes,  J. Gonthier,  A. Gunina,  
 D. Hait,  M. W. D. Hanson-Heine,  P. H. P. Harbach,  A. W. Hauser,  
 J. E. Herr,  E. G. Hohenstein,  Z. C. Holden,  Kerwin Hui,  B. C. Huynh,  
 T.-C. Jagau,  Hyunjun Ji,  B. Kaduk,  K. Khistyaev,  Jaehoon Kim,  
 P. Klunzinger,  K. Koh,  D. Kosenkov,  L. Koulias,  T. Kowalczyk,  
 C. M. Krauter,  A. Kunitsa,  Ka Un Lao,  A. Laurent,  K. V. Lawler,  
 Joonho Lee,  D. Lefrancois,  S. Lehtola,  D. S. Levine,  Yi-Pei Li,  
 You-Sheng Lin,  Fenglai Liu,  E. Livshits,  A. Luenser,  P. Manohar,  
 E. Mansoor,  S. F. Manzer,  Shan-Ping Mao,  Yuezhi Mao,  N. Mardirossian,  
 A. V. Marenich,  T. Markovich,  L. A. Martinez-Martinez,  S. A. Maurer,  
 N. J. Mayhall,  S. C. McKenzie,  J.-M. Mewes,  A. F. Morrison,  
 J. W. Mullinax,  K. Nanda,  T. S. Nguyen-Beck,  R. Olivares-Amaya,  
 J. A. Parkhill,  T. M. Perrine,  F. Plasser,  P. Pokhilko,  S. Prager,  
 A. Prociuk,  E. Ramos,  D. R. Rehn,  F. Rob,  M. Schneider,  N. Sergueev,  
 S. M. Sharada,  S. Sharma,  D. W. Small,  T. Stauch,  T. Stein,  
 Yu-Chuan Su,  A. J. W. Thom,  A. Tkatchenko,  T. Tsuchimochi,  N. M. Tubman,  
 L. Vogt,  M. L. Vidal,  O. Vydrov,  M. A. Watson,  J. Wenzel,  
 M. de Wergifosse,  T. A. Wesolowski,  A. White,  J. Witte,  A. Yamada,  
 Jun Yang,  K. Yao,  S. Yeganeh,  S. R. Yost,  Zhi-Qiang You,  A. Zech,  
 Igor Ying Zhang,  Xing Zhang,  Yan Zhao,  Ying Zhu,  B. R. Brooks,  
 G. K. L. Chan,  C. J. Cramer,  M. S. Gordon,  W. J. Hehre,  A. Klamt,  
 M. W. Schmidt,  C. D. Sherrill,  D. G. Truhlar,  A. Aspuru-Guzik,  R. Baer,  
 A. T. Bell,  N. A. Besley,  Jeng-Da Chai,  A. E. DePrince, III,  
 R. A. DiStasio Jr.,  A. Dreuw,  B. D. Dunietz,  T. R. Furlani,  
 Chao-Ping Hsu,  Yousung Jung,  Jing Kong,  D. S. Lambrecht,  WanZhen Liang,  
 C. Ochsenfeld,  V. A. Rassolov,  L. V. Slipchenko,  J. E. Subotnik,  
 T. Van Voorhis,  J. M. Herbert,  A. I. Krylov,  P. M. W. Gill,  M. Head-Gordon

 Contributors to earlier versions of Q-Chem not listed above: 
 R. D. Adamson,  B. Austin,  J. Baker,  G. J. O. Beran,  K. Brandhorst,  
 S. T. Brown,  E. F. C. Byrd,  A. K. Chakraborty,  C.-L. Cheng,  
 Siu Hung Chien,  D. M. Chipman,  D. L. Crittenden,  H. Dachsel,  
 R. J. Doerksen,  A. D. Dutoi,  L. Fusti-Molnar,  W. A. Goddard III,  
 A. Golubeva-Zadorozhnaya,  S. R. Gwaltney,  G. Hawkins,  A. Heyden,  
 S. Hirata,  G. Kedziora,  F. J. Keil,  C. Kelley,  Jihan Kim,  R. A. King,  
 R. Z. Khaliullin,  P. P. Korambath,  W. Kurlancheek,  A. M. Lee,  M. S. Lee,  
 S. V. Levchenko,  Ching Yeh Lin,  D. Liotard,  R. C. Lochan,  I. Lotan,  
 P. E. Maslen,  N. Nair,  D. P. O'Neill,  D. Neuhauser,  E. Neuscamman,  
 C. M. Oana,  R. Olson,  B. Peters,  R. Peverati,  P. A. Pieniazek,  
 Y. M. Rhee,  J. Ritchie,  M. A. Rohrdanz,  E. Rosta,  N. J. Russ,  
 H. F. Schaefer III,  N. E. Schultz,  N. Shenvi,  A. C. Simmonett,  A. Sodt,  
 D. Stuck,  K. S. Thanthiriwatte,  V. Vanovschi,  Tao Wang,  A. Warshel,  
 C. F. Williams,  Q. Wu,  X. Xu,  W. Zhang

 Please cite Q-Chem as follows:
 Y. Shao et al., Mol. Phys. 113, 184-215 (2015)
 DOI: 10.1080/00268976.2014.952696

 Q-Chem 5.1.1 for Intel X86 EM64T Linux

 Parts of Q-Chem use Armadillo 8.300.2 (Tropical Shenanigans).
 http://arma.sourceforge.net/

 Q-Chem begins on Fri Oct  2 23:59:52 2020  

Host: n0052.mhg0
0

     Scratch files written to /local/scratch/users/yhljason/BH2F_B2PLYP_aug-cc-pcVTZ.inp20201002235632//
The previous job contains 0 fragments, simply inherited here
Input Ideriv = 0
Curr. Ideriv = -1
Max.  Ideriv = 0
Analytic post-HF gradients are not available with non-HF exchange
Input Ideriv = 0
Curr. Ideriv = 0
Max.  Ideriv = 0

Checking the input file for inconsistencies... 	...done.

--------------------------------------------------------------
User input:
--------------------------------------------------------------
$molecule
read
$end

$rem

jobtype sp
method B2PLYP
xc_grid 000099000590
basis aug-cc-pcVTZ
max_scf_cycles 200
thresh 14
scf_convergence 8
mem_total 128000
cc_memory 96000
cc_backend xm
mem_static 1500
symmetry false
sym_ignore true
scf_guess read
unrestricted false
scf_algorithm gdm
n_frozen_core 0
$end

$multipole_field
YY 0.0001
$end


--------------------------------------------------------------
 ----------------------------------------------------------------
             Standard Nuclear Orientation (Angstroms)
    I     Atom           X                Y                Z
 ----------------------------------------------------------------
    1      B       0.0000000000     0.0000000000     0.0000000000
    2      F       0.0000000000     0.0000000000     1.3157000000
    3      H       0.0000000000     1.0599000000    -0.5569000000
    4      H       0.0000000000    -1.0599000000    -0.5569000000
 ----------------------------------------------------------------
 Nuclear Repulsion Energy =    27.1952060366 hartrees
 There are        8 alpha and        8 beta electrons
 Requested basis set is aug-cc-pCVTZ
 There are 56 shells and 164 basis functions

 Total QAlloc Memory Limit 128000 MB
 Mega-Array Size      1467 MB
 MEM_STATIC part      1500 MB

                       Distance Matrix (Angstroms)
             B (  1)   F (  2)   H (  3)
   F (  2)  1.315700
   H (  3)  1.197299  2.151748
   H (  4)  1.197299  2.151748  2.119800
 
 Applying Cartesian multipole field
    Component          Value
    ---------          -----
     (0,2,0)        1.00000E-04
 Nucleus-field energy     =     0.0008023383 hartrees
 A cutoff of  1.0D-14 yielded   1585 shell pairs
 There are     13685 function pairs (     18056 Cartesian)
 
 -------------------------------------------------------
 OpenMP Integral Computing Module                       
 Release: version 1.0, May 2013, Q-Chem Inc. Pittsburgh 
 -------------------------------------------------------
 Integral Job Info:
 Integral job number is                      11
 Integral operator is                         1
 short-range coefficients                     0
 long-range coefficients              100000000
 Omega coefficients                           0
 if combine SR and LR in K                    0
 Integral screening is                        0
 Integral computing path is                   2
 max size of driver memory is            800000
 size of driver memory is                776718
 size of scratch memory is              6691272
 max col of scratch BK array              10000
 max len of scratch array in speh3          662
 max len of scratch index in speh4           32
 max int batch size is                      520
 min int batch size is                       52
 fixed nKL is                                52
 max L of basis functions is                  3
 order of int derivative is                   0
 number of shells is                         56
 number of basis is                         188
 number of cartesian basis is               188
 number of contracted shell pairs          1585
 number of primitive shell pairs           3974
 maxK2 (contraction) of shell pair           64
 max number of K2 of shell pair               1
 max number of CS2 of shell pair            257
 max number of PS2 of shell pair            464
 mem total for path MDJ                  562704
 -------------------------------------------------------
 Smallest overlap matrix eigenvalue = 9.30E-05
 Guess MOs from SCF MO coefficient file

 -----------------------------------------------------------------------
  General SCF calculation program by
  Eric Jon Sundstrom, Paul Horn, Yuezhi Mao, Dmitri Zuev, Alec White,
  David Stuck, Shaama M.S., Shane Yost, Joonho Lee, David Small,
  Daniel Levine, Susi Lehtola, Hugh Burton, Evgeny Epifanovsky
 -----------------------------------------------------------------------
 Exchange:     0.5300 Hartree-Fock + 0.4700 B88
 Correlation:  0.7300 LYP
 Using Euler-Maclaurin-Lebedev (99,590) quadrature formula
 using 8 threads for integral computing
 -------------------------------------------------------
 OpenMP Integral computing Module                
 Release: version 2.0, May 2017, Q-Chem Inc. Pleasanton 
 -------------------------------------------------------
 -------------------------------------------------------
 OpenMP BLAS3 based DFT computing Module                
 Release: version 1.0, May 2013, Q-Chem Inc. Pittsburgh 
 -------------------------------------------------------
 A restricted SCF calculation will be
 performed using GDM
 SCF converges when RMS gradient is below 1.0e-08
 ---------------------------------------
  Cycle       Energy        RMS Gradient
 ---------------------------------------
    1    -125.7828754627      3.70e-04   Normal BFGS step
    2    -125.7828764228      8.49e-05   Normal BFGS step
    3    -125.7828765017      6.23e-05   Normal BFGS step
    4    -125.7828765205      1.71e-05   Normal BFGS step
    5    -125.7828765232      2.36e-06   Normal BFGS step
    6    -125.7828765233      4.46e-07   Normal BFGS step
    7    -125.7828765233      6.41e-08   Normal BFGS step
    8    -125.7828765233      1.90e-08   Normal BFGS step
    9    -125.7828765233      2.20e-09  Convergence criterion met
 ---------------------------------------
 SCF time:   CPU 205.50s  wall 26.00s 
 SCF   energy in the final basis set =     -125.7828765233
 Total energy in the final basis set =     -125.7828765233
 
 Components of the MP2 correlation energy:
        aaaa  correlation energy =        -0.0153475070 au
        abab  correlation energy =        -0.1159256233 au
        bbbb  correlation energy =        -0.0153475070 au
        non-Brillouin singles    =        -0.0000000000 au

 Total  MP2   correlation energy =                    -0.14662064 au
        MP2         total energy =                  -125.92949716 au
 
 --------------------------------------------------------------
 
                    Orbital Energies (a.u.)
 --------------------------------------------------------------
 
 Alpha MOs
 -- Occupied --
-25.375  -7.171  -1.393  -0.667  -0.580  -0.557  -0.529  -0.400
 -- Virtual --
 -0.004   0.014   0.029   0.029   0.056   0.064   0.089   0.113
  0.132   0.132   0.149   0.163   0.171   0.198   0.229   0.242
  0.250   0.266   0.284   0.301   0.305   0.308   0.327   0.352
  0.369   0.405   0.480   0.492   0.543   0.544   0.599   0.616
  0.649   0.675   0.680   0.680   0.704   0.725   0.746   0.746
  0.913   0.917   0.941   0.945   0.970   0.984   0.997   1.011
  1.027   1.029   1.033   1.079   1.170   1.177   1.223   1.239
  1.279   1.280   1.285   1.353   1.470   1.525   1.548   1.550
  1.618   1.743   1.799   1.864   1.869   1.965   1.965   1.966
  1.989   2.172   2.254   2.292   2.314   2.438   2.446   2.569
  2.615   2.661   2.701   2.892   2.896   2.918   2.928   3.085
  3.141   3.292   3.309   3.321   3.366   3.441   3.606   3.852
  3.877   3.980   3.998   4.047   4.175   4.256   4.401   4.434
  4.486   4.502   4.601   4.622   4.799   4.914   5.031   5.144
  5.243   5.248   5.355   5.929   6.028   7.515   8.559   8.568
  8.709   8.783   8.877   8.970   9.034   9.074   9.076   9.172
  9.363   9.439  10.395  11.499  11.762  12.281  31.588  31.875
 32.293  35.289  36.671  36.701  36.815  36.823  36.850  52.482
 52.483  52.534  52.614  52.627  55.420  56.298  56.618  59.959
169.246 169.450 169.782 182.527
 --------------------------------------------------------------
 
          Ground-State Mulliken Net Atomic Charges

     Atom                 Charge (a.u.)
  ----------------------------------------
      1 B                     0.569230
      2 F                    -0.491574
      3 H                    -0.038828
      4 H                    -0.038828
  ----------------------------------------
  Sum of atomic charges =    -0.000000

 -----------------------------------------------------------------
                    Cartesian Multipole Moments
 -----------------------------------------------------------------
    Charge (ESU x 10^10)
                -0.0000
    Dipole Moment (Debye)
         X       0.0000      Y      -0.0000      Z      -0.8856
       Tot       0.8856
    Quadrupole Moments (Debye-Ang)
        XX     -10.8597     XY       0.0000     YY     -12.7159
        XZ      -0.0000     YZ      -0.0000     ZZ     -14.4001
    Octopole Moments (Debye-Ang^2)
       XXX      -0.0000    XXY       0.0000    XYY       0.0000
       YYY      -0.0000    XXZ      -5.1123    XYZ      -0.0000
       YYZ      -4.9543    XZZ       0.0000    YZZ       0.0000
       ZZZ     -18.3489
    Hexadecapole Moments (Debye-Ang^3)
      XXXX      -9.4280   XXXY       0.0000   XXYY      -6.2714
      XYYY       0.0000   YYYY     -26.2832   XXXZ       0.0000
      XXYZ      -0.0000   XYYZ      -0.0000   YYYZ      -0.0000
      XXZZ     -12.8851   XYZZ       0.0000   YYZZ     -15.6059
      XZZZ      -0.0000   YZZZ      -0.0000   ZZZZ     -70.0883
 -----------------------------------------------------------------
Archival summary:
1\1\n0052.mhg0\SP\ProcedureUnspecified\BasisUnspecified\112\yhljason\SatOct300:00:412020SatOct300:00:412020\0\\#,ProcedureUnspecified,BasisUnspecified,\\0,1\F\B,1,1.3157\H,2,1.1973,1,117.719\H,2,1.1973,1,117.719,3,-180,0\\\@

 Total job time:  48.17s(wall), 382.00s(cpu) 
 Sat Oct  3 00:00:41 2020

        *************************************************************
        *                                                           *
        *  Thank you very much for using Q-Chem.  Have a nice day.  *
        *                                                           *
        *************************************************************


 
User input: 6 of 8 
 
Q-Chem Developer Version!
                  Welcome to Q-Chem
     A Quantum Leap Into The Future Of Chemistry


 Q-Chem 5.1, Q-Chem, Inc., Pleasanton, CA (2018)

 Yihan Shao,  Zhengting Gan,  E. Epifanovsky,  A. T. B. Gilbert,  M. Wormit,  
 J. Kussmann,  A. W. Lange,  A. Behn,  Jia Deng,  Xintian Feng,  D. Ghosh,  
 M. Goldey,  P. R. Horn,  L. D. Jacobson,  I. Kaliman,  T. Kus,  A. Landau,  
 Jie Liu,  E. I. Proynov,  R. M. Richard,  R. P. Steele,  E. J. Sundstrom,  
 H. L. Woodcock III,  P. M. Zimmerman,  D. Zuev,  B. Albrecht,  E. Alguire,  
 S. A. Baeppler,  D. Barton,  Z. Benda,  Y. A. Bernard,  E. J. Berquist,  
 K. B. Bravaya,  H. Burton,  D. Casanova,  Chun-Min Chang,  Yunqing Chen,  
 A. Chien,  K. D. Closser,  M. P. Coons,  S. Coriani,  S. Dasgupta,  
 A. L. Dempwolff,  M. Diedenhofen,  Hainam Do,  R. G. Edgar,  Po-Tung Fang,  
 S. Faraji,  S. Fatehi,  Qingguo Feng,  K. D. Fenk,  J. Fosso-Tande,  
 Qinghui Ge,  A. Ghysels,  G. Gidofalvi,  J. Gomes,  J. Gonthier,  A. Gunina,  
 D. Hait,  M. W. D. Hanson-Heine,  P. H. P. Harbach,  A. W. Hauser,  
 J. E. Herr,  E. G. Hohenstein,  Z. C. Holden,  Kerwin Hui,  B. C. Huynh,  
 T.-C. Jagau,  Hyunjun Ji,  B. Kaduk,  K. Khistyaev,  Jaehoon Kim,  
 P. Klunzinger,  K. Koh,  D. Kosenkov,  L. Koulias,  T. Kowalczyk,  
 C. M. Krauter,  A. Kunitsa,  Ka Un Lao,  A. Laurent,  K. V. Lawler,  
 Joonho Lee,  D. Lefrancois,  S. Lehtola,  D. S. Levine,  Yi-Pei Li,  
 You-Sheng Lin,  Fenglai Liu,  E. Livshits,  A. Luenser,  P. Manohar,  
 E. Mansoor,  S. F. Manzer,  Shan-Ping Mao,  Yuezhi Mao,  N. Mardirossian,  
 A. V. Marenich,  T. Markovich,  L. A. Martinez-Martinez,  S. A. Maurer,  
 N. J. Mayhall,  S. C. McKenzie,  J.-M. Mewes,  A. F. Morrison,  
 J. W. Mullinax,  K. Nanda,  T. S. Nguyen-Beck,  R. Olivares-Amaya,  
 J. A. Parkhill,  T. M. Perrine,  F. Plasser,  P. Pokhilko,  S. Prager,  
 A. Prociuk,  E. Ramos,  D. R. Rehn,  F. Rob,  M. Schneider,  N. Sergueev,  
 S. M. Sharada,  S. Sharma,  D. W. Small,  T. Stauch,  T. Stein,  
 Yu-Chuan Su,  A. J. W. Thom,  A. Tkatchenko,  T. Tsuchimochi,  N. M. Tubman,  
 L. Vogt,  M. L. Vidal,  O. Vydrov,  M. A. Watson,  J. Wenzel,  
 M. de Wergifosse,  T. A. Wesolowski,  A. White,  J. Witte,  A. Yamada,  
 Jun Yang,  K. Yao,  S. Yeganeh,  S. R. Yost,  Zhi-Qiang You,  A. Zech,  
 Igor Ying Zhang,  Xing Zhang,  Yan Zhao,  Ying Zhu,  B. R. Brooks,  
 G. K. L. Chan,  C. J. Cramer,  M. S. Gordon,  W. J. Hehre,  A. Klamt,  
 M. W. Schmidt,  C. D. Sherrill,  D. G. Truhlar,  A. Aspuru-Guzik,  R. Baer,  
 A. T. Bell,  N. A. Besley,  Jeng-Da Chai,  A. E. DePrince, III,  
 R. A. DiStasio Jr.,  A. Dreuw,  B. D. Dunietz,  T. R. Furlani,  
 Chao-Ping Hsu,  Yousung Jung,  Jing Kong,  D. S. Lambrecht,  WanZhen Liang,  
 C. Ochsenfeld,  V. A. Rassolov,  L. V. Slipchenko,  J. E. Subotnik,  
 T. Van Voorhis,  J. M. Herbert,  A. I. Krylov,  P. M. W. Gill,  M. Head-Gordon

 Contributors to earlier versions of Q-Chem not listed above: 
 R. D. Adamson,  B. Austin,  J. Baker,  G. J. O. Beran,  K. Brandhorst,  
 S. T. Brown,  E. F. C. Byrd,  A. K. Chakraborty,  C.-L. Cheng,  
 Siu Hung Chien,  D. M. Chipman,  D. L. Crittenden,  H. Dachsel,  
 R. J. Doerksen,  A. D. Dutoi,  L. Fusti-Molnar,  W. A. Goddard III,  
 A. Golubeva-Zadorozhnaya,  S. R. Gwaltney,  G. Hawkins,  A. Heyden,  
 S. Hirata,  G. Kedziora,  F. J. Keil,  C. Kelley,  Jihan Kim,  R. A. King,  
 R. Z. Khaliullin,  P. P. Korambath,  W. Kurlancheek,  A. M. Lee,  M. S. Lee,  
 S. V. Levchenko,  Ching Yeh Lin,  D. Liotard,  R. C. Lochan,  I. Lotan,  
 P. E. Maslen,  N. Nair,  D. P. O'Neill,  D. Neuhauser,  E. Neuscamman,  
 C. M. Oana,  R. Olson,  B. Peters,  R. Peverati,  P. A. Pieniazek,  
 Y. M. Rhee,  J. Ritchie,  M. A. Rohrdanz,  E. Rosta,  N. J. Russ,  
 H. F. Schaefer III,  N. E. Schultz,  N. Shenvi,  A. C. Simmonett,  A. Sodt,  
 D. Stuck,  K. S. Thanthiriwatte,  V. Vanovschi,  Tao Wang,  A. Warshel,  
 C. F. Williams,  Q. Wu,  X. Xu,  W. Zhang

 Please cite Q-Chem as follows:
 Y. Shao et al., Mol. Phys. 113, 184-215 (2015)
 DOI: 10.1080/00268976.2014.952696

 Q-Chem 5.1.1 for Intel X86 EM64T Linux

 Parts of Q-Chem use Armadillo 8.300.2 (Tropical Shenanigans).
 http://arma.sourceforge.net/

 Q-Chem begins on Sat Oct  3 00:00:41 2020  

Host: n0052.mhg0
0

     Scratch files written to /local/scratch/users/yhljason/BH2F_B2PLYP_aug-cc-pcVTZ.inp20201002235632//
The previous job contains 0 fragments, simply inherited here
Input Ideriv = 0
Curr. Ideriv = -1
Max.  Ideriv = 0
Analytic post-HF gradients are not available with non-HF exchange
Input Ideriv = 0
Curr. Ideriv = 0
Max.  Ideriv = 0

Checking the input file for inconsistencies... 	...done.

--------------------------------------------------------------
User input:
--------------------------------------------------------------
$molecule
read
$end

$rem

jobtype sp
method B2PLYP
xc_grid 000099000590
basis aug-cc-pcVTZ
max_scf_cycles 200
thresh 14
scf_convergence 8
mem_total 128000
cc_memory 96000
cc_backend xm
mem_static 1500
symmetry false
sym_ignore true
scf_guess read
unrestricted false
scf_algorithm gdm
n_frozen_core 0
$end

$multipole_field
YY -0.0001
$end


--------------------------------------------------------------
 ----------------------------------------------------------------
             Standard Nuclear Orientation (Angstroms)
    I     Atom           X                Y                Z
 ----------------------------------------------------------------
    1      B       0.0000000000     0.0000000000     0.0000000000
    2      F       0.0000000000     0.0000000000     1.3157000000
    3      H       0.0000000000     1.0599000000    -0.5569000000
    4      H       0.0000000000    -1.0599000000    -0.5569000000
 ----------------------------------------------------------------
 Nuclear Repulsion Energy =    27.1952060366 hartrees
 There are        8 alpha and        8 beta electrons
 Requested basis set is aug-cc-pCVTZ
 There are 56 shells and 164 basis functions

 Total QAlloc Memory Limit 128000 MB
 Mega-Array Size      1467 MB
 MEM_STATIC part      1500 MB

                       Distance Matrix (Angstroms)
             B (  1)   F (  2)   H (  3)
   F (  2)  1.315700
   H (  3)  1.197299  2.151748
   H (  4)  1.197299  2.151748  2.119800
 
 Applying Cartesian multipole field
    Component          Value
    ---------          -----
     (0,2,0)       -1.00000E-04
 Nucleus-field energy     =    -0.0008023383 hartrees
 A cutoff of  1.0D-14 yielded   1585 shell pairs
 There are     13685 function pairs (     18056 Cartesian)
 
 -------------------------------------------------------
 OpenMP Integral Computing Module                       
 Release: version 1.0, May 2013, Q-Chem Inc. Pittsburgh 
 -------------------------------------------------------
 Integral Job Info:
 Integral job number is                      11
 Integral operator is                         1
 short-range coefficients                     0
 long-range coefficients              100000000
 Omega coefficients                           0
 if combine SR and LR in K                    0
 Integral screening is                        0
 Integral computing path is                   2
 max size of driver memory is            800000
 size of driver memory is                776718
 size of scratch memory is              6691272
 max col of scratch BK array              10000
 max len of scratch array in speh3          662
 max len of scratch index in speh4           32
 max int batch size is                      520
 min int batch size is                       52
 fixed nKL is                                52
[...]
 -------------------------------------------------------
 -------------------------------------------------------
 OpenMP BLAS3 based DFT computing Module                
 Release: version 1.0, May 2013, Q-Chem Inc. Pittsburgh 
 -------------------------------------------------------
 A restricted SCF calculation will be
 performed using GDM
 SCF converges when RMS gradient is below 1.0e-08
 ---------------------------------------
  Cycle       Energy        RMS Gradient
 ---------------------------------------
    1    -125.7830017261      4.18e-04   Normal BFGS step
    2    -125.7830031605      1.32e-04   Normal BFGS step
    3    -125.7830033118      1.31e-05   Normal BFGS step
    4    -125.7830033129      3.29e-06   Normal BFGS step
    5    -125.7830033130      3.02e-06   Normal BFGS step
    6    -125.7830033130      1.51e-07   Normal BFGS step
    7    -125.7830033130      4.65e-08   Normal BFGS step
    8    -125.7830033130      4.47e-09  Convergence criterion met
 ---------------------------------------
 SCF time:   CPU 183.10s  wall 23.00s 
 SCF   energy in the final basis set =     -125.7830033130
 Total energy in the final basis set =     -125.7830033130
 
 Components of the MP2 correlation energy:
        aaaa  correlation energy =        -0.0153449691 au
        abab  correlation energy =        -0.1159147361 au
        bbbb  correlation energy =        -0.0153449691 au
        non-Brillouin singles    =        -0.0000000000 au

 Total  MP2   correlation energy =                    -0.14660467 au
        MP2         total energy =                  -125.92960799 au
 
 --------------------------------------------------------------
 
                    Orbital Energies (a.u.)
 --------------------------------------------------------------
 
 Alpha MOs
 -- Occupied --
-25.376  -7.171  -1.393  -0.667  -0.580  -0.557  -0.529  -0.400
 -- Virtual --
 -0.004   0.015   0.027   0.032   0.056   0.065   0.090   0.112
  0.132   0.133   0.147   0.162   0.172   0.199   0.228   0.241
  0.250   0.266   0.284   0.301   0.306   0.309   0.326   0.352
  0.370   0.404   0.480   0.493   0.543   0.545   0.599   0.616
  0.649   0.676   0.679   0.680   0.705   0.725   0.746   0.746
  0.913   0.917   0.940   0.945   0.969   0.984   0.997   1.010
  1.027   1.030   1.033   1.080   1.170   1.177   1.223   1.239
  1.279   1.280   1.286   1.352   1.471   1.525   1.548   1.549
  1.618   1.743   1.799   1.864   1.869   1.964   1.965   1.966
  1.990   2.172   2.254   2.292   2.314   2.438   2.446   2.569
  2.615   2.661   2.702   2.892   2.896   2.917   2.928   3.085
  3.141   3.291   3.309   3.321   3.366   3.440   3.606   3.852
  3.877   3.980   3.997   4.047   4.175   4.256   4.401   4.434
  4.487   4.502   4.601   4.622   4.799   4.914   5.031   5.144
  5.243   5.248   5.355   5.929   6.027   7.514   8.558   8.568
  8.709   8.782   8.876   8.969   9.034   9.073   9.076   9.172
  9.362   9.438  10.395  11.499  11.762  12.280  31.587  31.874
 32.293  35.289  36.671  36.701  36.815  36.823  36.850  52.482
 52.483  52.534  52.614  52.627  55.420  56.298  56.618  59.959
169.246 169.450 169.781 182.527
 --------------------------------------------------------------
 
          Ground-State Mulliken Net Atomic Charges

     Atom                 Charge (a.u.)
  ----------------------------------------
      1 B                     0.568855
      2 F                    -0.493125
      3 H                    -0.037865
      4 H                    -0.037865
  ----------------------------------------
  Sum of atomic charges =    -0.000000

 -----------------------------------------------------------------
                    Cartesian Multipole Moments
 -----------------------------------------------------------------
    Charge (ESU x 10^10)
                -0.0000
    Dipole Moment (Debye)
         X       0.0000      Y      -0.0000      Z      -0.8905
       Tot       0.8905
    Quadrupole Moments (Debye-Ang)
        XX     -10.8588     XY       0.0000     YY     -12.6957
        XZ       0.0000     YZ       0.0000     ZZ     -14.4222
    Octopole Moments (Debye-Ang^2)
       XXX       0.0000    XXY       0.0000    XYY       0.0000
       YYY       0.0000    XXZ      -5.1141    XYZ       0.0000
       YYZ      -4.9621    XZZ      -0.0000    YZZ       0.0000
       ZZZ     -18.3825
    Hexadecapole Moments (Debye-Ang^3)
      XXXX      -9.4253   XXXY       0.0000   XXYY      -6.2605
      XYYY       0.0000   YYYY     -26.1791   XXXZ       0.0000
      XXYZ      -0.0000   XYYZ       0.0000   YYYZ       0.0000
      XXZZ     -12.8948   XYZZ      -0.0000   YYZZ     -15.6041
      XZZZ       0.0000   YZZZ       0.0000   ZZZZ     -70.2057
 -----------------------------------------------------------------
Archival summary:
1\1\n0052.mhg0\SP\ProcedureUnspecified\BasisUnspecified\112\yhljason\SatOct300:02:142020SatOct300:02:142020\0\\#,ProcedureUnspecified,BasisUnspecified,\\0,1\F\B,1,1.3157\H,2,1.1973,1,117.719\H,2,1.1973,1,117.719,3,-180,0\\\@

 Total job time:  45.14s(wall), 358.06s(cpu) 
 Sat Oct  3 00:02:14 2020

        *************************************************************
        *                                                           *
        *  Thank you very much for using Q-Chem.  Have a nice day.  *
        *                                                           *
        *************************************************************


 
User input: 8 of 8 
 
Q-Chem Developer Version!
                  Welcome to Q-Chem
     A Quantum Leap Into The Future Of Chemistry


 Q-Chem 5.1, Q-Chem, Inc., Pleasanton, CA (2018)

 Yihan Shao,  Zhengting Gan,  E. Epifanovsky,  A. T. B. Gilbert,  M. Wormit,  
 J. Kussmann,  A. W. Lange,  A. Behn,  Jia Deng,  Xintian Feng,  D. Ghosh,  
 M. Goldey,  P. R. Horn,  L. D. Jacobson,  I. Kaliman,  T. Kus,  A. Landau,  
 Jie Liu,  E. I. Proynov,  R. M. Richard,  R. P. Steele,  E. J. Sundstrom,  
 H. L. Woodcock III,  P. M. Zimmerman,  D. Zuev,  B. Albrecht,  E. Alguire,  
 S. A. Baeppler,  D. Barton,  Z. Benda,  Y. A. Bernard,  E. J. Berquist,  
 K. B. Bravaya,  H. Burton,  D. Casanova,  Chun-Min Chang,  Yunqing Chen,  
 A. Chien,  K. D. Closser,  M. P. Coons,  S. Coriani,  S. Dasgupta,  
 A. L. Dempwolff,  M. Diedenhofen,  Hainam Do,  R. G. Edgar,  Po-Tung Fang,  
 S. Faraji,  S. Fatehi,  Qingguo Feng,  K. D. Fenk,  J. Fosso-Tande,  
 Qinghui Ge,  A. Ghysels,  G. Gidofalvi,  J. Gomes,  J. Gonthier,  A. Gunina,  
 D. Hait,  M. W. D. Hanson-Heine,  P. H. P. Harbach,  A. W. Hauser,  
 J. E. Herr,  E. G. Hohenstein,  Z. C. Holden,  Kerwin Hui,  B. C. Huynh,  
 T.-C. Jagau,  Hyunjun Ji,  B. Kaduk,  K. Khistyaev,  Jaehoon Kim,  
 P. Klunzinger,  K. Koh,  D. Kosenkov,  L. Koulias,  T. Kowalczyk,  
 C. M. Krauter,  A. Kunitsa,  Ka Un Lao,  A. Laurent,  K. V. Lawler,  
 Joonho Lee,  D. Lefrancois,  S. Lehtola,  D. S. Levine,  Yi-Pei Li,  
 You-Sheng Lin,  Fenglai Liu,  E. Livshits,  A. Luenser,  P. Manohar,  
 E. Mansoor,  S. F. Manzer,  Shan-Ping Mao,  Yuezhi Mao,  N. Mardirossian,  
 A. V. Marenich,  T. Markovich,  L. A. Martinez-Martinez,  S. A. Maurer,  
 N. J. Mayhall,  S. C. McKenzie,  J.-M. Mewes,  A. F. Morrison,  
 J. W. Mullinax,  K. Nanda,  T. S. Nguyen-Beck,  R. Olivares-Amaya,  
 J. A. Parkhill,  T. M. Perrine,  F. Plasser,  P. Pokhilko,  S. Prager,  
 A. Prociuk,  E. Ramos,  D. R. Rehn,  F. Rob,  M. Schneider,  N. Sergueev,  
 S. M. Sharada,  S. Sharma,  D. W. Small,  T. Stauch,  T. Stein,  
 Yu-Chuan Su,  A. J. W. Thom,  A. Tkatchenko,  T. Tsuchimochi,  N. M. Tubman,  
 L. Vogt,  M. L. Vidal,  O. Vydrov,  M. A. Watson,  J. Wenzel,  
 M. de Wergifosse,  T. A. Wesolowski,  A. White,  J. Witte,  A. Yamada,  
 Jun Yang,  K. Yao,  S. Yeganeh,  S. R. Yost,  Zhi-Qiang You,  A. Zech,  
 Igor Ying Zhang,  Xing Zhang,  Yan Zhao,  Ying Zhu,  B. R. Brooks,  
 G. K. L. Chan,  C. J. Cramer,  M. S. Gordon,  W. J. Hehre,  A. Klamt,  
 M. W. Schmidt,  C. D. Sherrill,  D. G. Truhlar,  A. Aspuru-Guzik,  R. Baer,  
 A. T. Bell,  N. A. Besley,  Jeng-Da Chai,  A. E. DePrince, III,  
 R. A. DiStasio Jr.,  A. Dreuw,  B. D. Dunietz,  T. R. Furlani,  
 Chao-Ping Hsu,  Yousung Jung,  Jing Kong,  D. S. Lambrecht,  WanZhen Liang,  
 C. Ochsenfeld,  V. A. Rassolov,  L. V. Slipchenko,  J. E. Subotnik,  
 T. Van Voorhis,  J. M. Herbert,  A. I. Krylov,  P. M. W. Gill,  M. Head-Gordon

 Contributors to earlier versions of Q-Chem not listed above: 
 R. D. Adamson,  B. Austin,  J. Baker,  G. J. O. Beran,  K. Brandhorst,  
 S. T. Brown,  E. F. C. Byrd,  A. K. Chakraborty,  C.-L. Cheng,  
 Siu Hung Chien,  D. M. Chipman,  D. L. Crittenden,  H. Dachsel,  
 R. J. Doerksen,  A. D. Dutoi,  L. Fusti-Molnar,  W. A. Goddard III,  
 A. Golubeva-Zadorozhnaya,  S. R. Gwaltney,  G. Hawkins,  A. Heyden,  
 S. Hirata,  G. Kedziora,  F. J. Keil,  C. Kelley,  Jihan Kim,  R. A. King,  
 R. Z. Khaliullin,  P. P. Korambath,  W. Kurlancheek,  A. M. Lee,  M. S. Lee,  
 S. V. Levchenko,  Ching Yeh Lin,  D. Liotard,  R. C. Lochan,  I. Lotan,  
 P. E. Maslen,  N. Nair,  D. P. O'Neill,  D. Neuhauser,  E. Neuscamman,  
 C. M. Oana,  R. Olson,  B. Peters,  R. Peverati,  P. A. Pieniazek,  
 Y. M. Rhee,  J. Ritchie,  M. A. Rohrdanz,  E. Rosta,  N. J. Russ,  
 H. F. Schaefer III,  N. E. Schultz,  N. Shenvi,  A. C. Simmonett,  A. Sodt,  
 D. Stuck,  K. S. Thanthiriwatte,  V. Vanovschi,  Tao Wang,  A. Warshel,  
 C. F. Williams,  Q. Wu,  X. Xu,  W. Zhang

 Please cite Q-Chem as follows:
 Y. Shao et al., Mol. Phys. 113, 184-215 (2015)
 DOI: 10.1080/00268976.2014.952696

 Q-Chem 5.1.1 for Intel X86 EM64T Linux

 Parts of Q-Chem use Armadillo 8.300.2 (Tropical Shenanigans).
 http://arma.sourceforge.net/

 Q-Chem begins on Sat Oct  3 00:02:14 2020  

Host: n0052.mhg0
0

     Scratch files written to /local/scratch/users/yhljason/BH2F_B2PLYP_aug-cc-pcVTZ.inp20201002235632//
The previous job contains 0 fragments, simply inherited here
Input Ideriv = 0
Curr. Ideriv = -1
Max.  Ideriv = 0
Analytic post-HF gradients are not available with non-HF exchange
Input Ideriv = 0
Curr. Ideriv = 0
Max.  Ideriv = 0

Checking the input file for inconsistencies... 	...done.

--------------------------------------------------------------
User input:
--------------------------------------------------------------
$molecule
read
$end

$rem

jobtype sp
method B2PLYP
xc_grid 000099000590
basis aug-cc-pcVTZ
max_scf_cycles 200
thresh 14
scf_convergence 8
mem_total 128000
cc_memory 96000
cc_backend xm
mem_static 1500
symmetry false
sym_ignore true
scf_guess read
unrestricted false
scf_algorithm gdm
n_frozen_core 0
$end

$multipole_field
ZZ -0.0001
$end

--------------------------------------------------------------
 ----------------------------------------------------------------
             Standard Nuclear Orientation (Angstroms)
    I     Atom           X                Y                Z
 ----------------------------------------------------------------
    1      B       0.0000000000     0.0000000000     0.0000000000
    2      F       0.0000000000     0.0000000000     1.3157000000
    3      H       0.0000000000     1.0599000000    -0.5569000000
    4      H       0.0000000000    -1.0599000000    -0.5569000000
 ----------------------------------------------------------------
 Nuclear Repulsion Energy =    27.1952060366 hartrees
 There are        8 alpha and        8 beta electrons
 Requested basis set is aug-cc-pCVTZ
 There are 56 shells and 164 basis functions

 Total QAlloc Memory Limit 128000 MB
 Mega-Array Size      1467 MB
 MEM_STATIC part      1500 MB

                       Distance Matrix (Angstroms)
             B (  1)   F (  2)   H (  3)
   F (  2)  1.315700
   H (  3)  1.197299  2.151748
   H (  4)  1.197299  2.151748  2.119800
 
 Applying Cartesian multipole field
    Component          Value
    ---------          -----
     (0,0,2)       -1.00000E-04
 Nucleus-field energy     =    -0.0057850799 hartrees
 A cutoff of  1.0D-14 yielded   1585 shell pairs
 There are     13685 function pairs (     18056 Cartesian)
 
 -------------------------------------------------------
 OpenMP Integral Computing Module                       
 Release: version 1.0, May 2013, Q-Chem Inc. Pittsburgh 
 -------------------------------------------------------
 Integral Job Info:
 Integral job number is                      11
 Integral operator is                         1
 short-range coefficients                     0
 long-range coefficients              100000000
 Omega coefficients                           0
 if combine SR and LR in K                    0
 Integral screening is                        0
 Integral computing path is                   2
 max size of driver memory is            800000
 size of driver memory is                776718
 size of scratch memory is              6691272
 max col of scratch BK array              10000
 max len of scratch array in speh3          662
 max len of scratch index in speh4           32
 max int batch size is                      520
 min int batch size is                       52
 fixed nKL is                                52
 max L of basis functions is                  3
 order of int derivative is                   0
 number of shells is                         56
 number of basis is                         188
 number of cartesian basis is               188
 number of contracted shell pairs          1585
 number of primitive shell pairs           3974
 maxK2 (contraction) of shell pair           64
 max number of K2 of shell pair               1
 max number of CS2 of shell pair            257
 max number of PS2 of shell pair            464
 mem total for path MDJ                  562704
 -------------------------------------------------------
 Smallest overlap matrix eigenvalue = 9.30E-05
 Guess MOs from SCF MO coefficient file

 -----------------------------------------------------------------------
  General SCF calculation program by
  Eric Jon Sundstrom, Paul Horn, Yuezhi Mao, Dmitri Zuev, Alec White,
  David Stuck, Shaama M.S., Shane Yost, Joonho Lee, David Small,
  Daniel Levine, Susi Lehtola, Hugh Burton, Evgeny Epifanovsky
 -----------------------------------------------------------------------
 Exchange:     0.5300 Hartree-Fock + 0.4700 B88
 Correlation:  0.7300 LYP
 Using Euler-Maclaurin-Lebedev (99,590) quadrature formula
 using 8 threads for integral computing
 -------------------------------------------------------
 OpenMP Integral computing Module                
 Release: version 2.0, May 2017, Q-Chem Inc. Pleasanton 
 -------------------------------------------------------
 -------------------------------------------------------
 OpenMP BLAS3 based DFT computing Module                
 Release: version 1.0, May 2013, Q-Chem Inc. Pittsburgh 
 -------------------------------------------------------
 A restricted SCF calculation will be
 performed using GDM
 SCF converges when RMS gradient is below 1.0e-08
 ---------------------------------------
  Cycle       Energy        RMS Gradient
 ---------------------------------------
    1    -125.7808587998      4.82e-04   Normal BFGS step
    2    -125.7808618393      1.55e-04   Normal BFGS step
    3    -125.7808620751      7.83e-05   Normal BFGS step
    4    -125.7808620931      3.05e-05   Normal BFGS step
    5    -125.7808621025      3.89e-06   Normal BFGS step
    6    -125.7808621027      1.07e-06   Normal BFGS step
    7    -125.7808621027      2.09e-07   Normal BFGS step
    8    -125.7808621027      1.51e-08   Normal BFGS step
    9    -125.7808621027      2.47e-09  Convergence criterion met
 ---------------------------------------
 SCF time:   CPU 204.61s  wall 26.00s 
 SCF   energy in the final basis set =     -125.7808621027
 Total energy in the final basis set =     -125.7808621027
 
 Components of the MP2 correlation energy:
        aaaa  correlation energy =        -0.0153481709 au
        abab  correlation energy =        -0.1159292130 au
        bbbb  correlation energy =        -0.0153481709 au
        non-Brillouin singles    =        -0.0000000000 au

 Total  MP2   correlation energy =                    -0.14662555 au
        MP2         total energy =                  -125.92748766 au
 
 --------------------------------------------------------------
 
                    Orbital Energies (a.u.)
 --------------------------------------------------------------
 
 Alpha MOs
 -- Occupied --
-25.374  -7.171  -1.392  -0.666  -0.579  -0.556  -0.528  -0.399
 -- Virtual --
 -0.003   0.019   0.035   0.035   0.059   0.072   0.093   0.116
  0.134   0.136   0.153   0.165   0.175   0.203   0.232   0.245
  0.254   0.268   0.287   0.302   0.307   0.311   0.329   0.353
  0.372   0.408   0.482   0.495   0.545   0.545   0.600   0.618
  0.651   0.677   0.681   0.681   0.706   0.726   0.747   0.748
  0.915   0.919   0.942   0.946   0.971   0.985   0.998   1.012
  1.029   1.031   1.035   1.081   1.172   1.178   1.224   1.240
  1.281   1.281   1.287   1.354   1.472   1.526   1.549   1.551
  1.620   1.744   1.800   1.865   1.870   1.965   1.966   1.966
  1.990   2.173   2.255   2.293   2.315   2.439   2.447   2.570
  2.616   2.662   2.702   2.893   2.897   2.919   2.929   3.086
  3.143   3.293   3.311   3.322   3.367   3.442   3.607   3.853
  3.878   3.981   3.999   4.048   4.175   4.257   4.402   4.434
  4.487   4.503   4.602   4.623   4.800   4.915   5.032   5.145
  5.244   5.249   5.356   5.929   6.029   7.516   8.560   8.569
  8.710   8.784   8.878   8.971   9.035   9.075   9.077   9.173
  9.364   9.440  10.396  11.500  11.763  12.281  31.589  31.876
 32.294  35.290  36.672  36.702  36.816  36.824  36.851  52.483
 52.484  52.535  52.615  52.628  55.421  56.299  56.619  59.960
169.247 169.452 169.783 182.528
 --------------------------------------------------------------
 
          Ground-State Mulliken Net Atomic Charges

     Atom                 Charge (a.u.)
  ----------------------------------------
      1 B                     0.567388
      2 F                    -0.490601
      3 H                    -0.038393
      4 H                    -0.038393
  ----------------------------------------
  Sum of atomic charges =     0.000000

 -----------------------------------------------------------------
                    Cartesian Multipole Moments
 -----------------------------------------------------------------
    Charge (ESU x 10^10)
                 0.0000
    Dipole Moment (Debye)
         X       0.0000      Y      -0.0000      Z      -0.8845
       Tot       0.8845
    Quadrupole Moments (Debye-Ang)
        XX     -10.8582     XY      -0.0000     YY     -12.6954
        XZ      -0.0000     YZ       0.0000     ZZ     -14.3778
    Octopole Moments (Debye-Ang^2)
       XXX       0.0000    XXY      -0.0000    XYY       0.0000
       YYY      -0.0000    XXZ      -5.1119    XYZ      -0.0000
       YYZ      -4.9652    XZZ       0.0000    YZZ      -0.0000
       ZZZ     -18.3270
    Hexadecapole Moments (Debye-Ang^3)
      XXXX      -9.4226   XXXY      -0.0000   XXYY      -6.2583
      XYYY      -0.0000   YYYY     -26.1745   XXXZ      -0.0000
      XXYZ       0.0000   XYYZ      -0.0000   YYYZ      -0.0000
      XXZZ     -12.8721   XYZZ       0.0000   YYZZ     -15.5713
      XZZZ      -0.0000   YZZZ      -0.0000   ZZZZ     -69.9681
 -----------------------------------------------------------------
Archival summary:
1\1\n0052.mhg0\SP\ProcedureUnspecified\BasisUnspecified\112\yhljason\SatOct300:03:032020SatOct300:03:032020\0\\#,ProcedureUnspecified,BasisUnspecified,\\0,1\F\B,1,1.3157\H,2,1.1973,1,117.719\H,2,1.1973,1,117.719,3,-180,0\\\@

 Total job time:  48.32s(wall), 382.99s(cpu) 
 Sat Oct  3 00:03:03 2020

        *************************************************************
        *                                                           *
        *  Thank you very much for using Q-Chem.  Have a nice day.  *
        *                                                           *
        *************************************************************


