Q-Chem Developer Version!
                  Welcome to Q-Chem
     A Quantum Leap Into The Future Of Chemistry


 Q-Chem 5.1, Q-Chem, Inc., Pleasanton, CA (2018)

 Yihan Shao,  Zhengting Gan,  E. Epifanovsky,  A. T. B. Gilbert,  M. Wormit,  
 J. Kussmann,  A. W. Lange,  A. Behn,  Jia Deng,  Xintian Feng,  D. Ghosh,  
 M. Goldey,  P. R. Horn,  L. D. Jacobson,  I. Kaliman,  T. Kus,  A. Landau,  
 Jie Liu,  E. I. Proynov,  R. M. Richard,  R. P. Steele,  E. J. Sundstrom,  
 H. L. Woodcock III,  P. M. Zimmerman,  D. Zuev,  B. Albrecht,  E. Alguire,  
 S. A. Baeppler,  D. Barton,  Z. Benda,  Y. A. Bernard,  E. J. Berquist,  
 K. B. Bravaya,  H. Burton,  D. Casanova,  Chun-Min Chang,  Yunqing Chen,  
 A. Chien,  K. D. Closser,  M. P. Coons,  S. Coriani,  S. Dasgupta,  
 A. L. Dempwolff,  M. Diedenhofen,  Hainam Do,  R. G. Edgar,  Po-Tung Fang,  
 S. Faraji,  S. Fatehi,  Qingguo Feng,  K. D. Fenk,  J. Fosso-Tande,  
 Qinghui Ge,  A. Ghysels,  G. Gidofalvi,  J. Gomes,  J. Gonthier,  A. Gunina,  
 D. Hait,  M. W. D. Hanson-Heine,  P. H. P. Harbach,  A. W. Hauser,  
 J. E. Herr,  E. G. Hohenstein,  Z. C. Holden,  Kerwin Hui,  B. C. Huynh,  
 T.-C. Jagau,  Hyunjun Ji,  B. Kaduk,  K. Khistyaev,  Jaehoon Kim,  
 P. Klunzinger,  K. Koh,  D. Kosenkov,  L. Koulias,  T. Kowalczyk,  
 C. M. Krauter,  A. Kunitsa,  Ka Un Lao,  A. Laurent,  K. V. Lawler,  
 Joonho Lee,  D. Lefrancois,  S. Lehtola,  D. S. Levine,  Yi-Pei Li,  
 You-Sheng Lin,  Fenglai Liu,  E. Livshits,  A. Luenser,  P. Manohar,  
 E. Mansoor,  S. F. Manzer,  Shan-Ping Mao,  Yuezhi Mao,  N. Mardirossian,  
 A. V. Marenich,  T. Markovich,  L. A. Martinez-Martinez,  S. A. Maurer,  
 N. J. Mayhall,  S. C. McKenzie,  J.-M. Mewes,  A. F. Morrison,  
 J. W. Mullinax,  K. Nanda,  T. S. Nguyen-Beck,  R. Olivares-Amaya,  
 J. A. Parkhill,  T. M. Perrine,  F. Plasser,  P. Pokhilko,  S. Prager,  
 A. Prociuk,  E. Ramos,  D. R. Rehn,  F. Rob,  M. Schneider,  N. Sergueev,  
 S. M. Sharada,  S. Sharma,  D. W. Small,  T. Stauch,  T. Stein,  
 Yu-Chuan Su,  A. J. W. Thom,  A. Tkatchenko,  T. Tsuchimochi,  N. M. Tubman,  
 L. Vogt,  M. L. Vidal,  O. Vydrov,  M. A. Watson,  J. Wenzel,  
 M. de Wergifosse,  T. A. Wesolowski,  A. White,  J. Witte,  A. Yamada,  
 Jun Yang,  K. Yao,  S. Yeganeh,  S. R. Yost,  Zhi-Qiang You,  A. Zech,  
 Igor Ying Zhang,  Xing Zhang,  Yan Zhao,  Ying Zhu,  B. R. Brooks,  
 G. K. L. Chan,  C. J. Cramer,  M. S. Gordon,  W. J. Hehre,  A. Klamt,  
 M. W. Schmidt,  C. D. Sherrill,  D. G. Truhlar,  A. Aspuru-Guzik,  R. Baer,  
 A. T. Bell,  N. A. Besley,  Jeng-Da Chai,  A. E. DePrince, III,  
 R. A. DiStasio Jr.,  A. Dreuw,  B. D. Dunietz,  T. R. Furlani,  
 Chao-Ping Hsu,  Yousung Jung,  Jing Kong,  D. S. Lambrecht,  WanZhen Liang,  
 C. Ochsenfeld,  V. A. Rassolov,  L. V. Slipchenko,  J. E. Subotnik,  
 T. Van Voorhis,  J. M. Herbert,  A. I. Krylov,  P. M. W. Gill,  M. Head-Gordon

 Contributors to earlier versions of Q-Chem not listed above: 
 R. D. Adamson,  B. Austin,  J. Baker,  G. J. O. Beran,  K. Brandhorst,  
 S. T. Brown,  E. F. C. Byrd,  A. K. Chakraborty,  C.-L. Cheng,  
 Siu Hung Chien,  D. M. Chipman,  D. L. Crittenden,  H. Dachsel,  
 R. J. Doerksen,  A. D. Dutoi,  L. Fusti-Molnar,  W. A. Goddard III,  
 A. Golubeva-Zadorozhnaya,  S. R. Gwaltney,  G. Hawkins,  A. Heyden,  
 S. Hirata,  G. Kedziora,  F. J. Keil,  C. Kelley,  Jihan Kim,  R. A. King,  
 R. Z. Khaliullin,  P. P. Korambath,  W. Kurlancheek,  A. M. Lee,  M. S. Lee,  
 S. V. Levchenko,  Ching Yeh Lin,  D. Liotard,  R. C. Lochan,  I. Lotan,  
 P. E. Maslen,  N. Nair,  D. P. O'Neill,  D. Neuhauser,  E. Neuscamman,  
 C. M. Oana,  R. Olson,  B. Peters,  R. Peverati,  P. A. Pieniazek,  
 Y. M. Rhee,  J. Ritchie,  M. A. Rohrdanz,  E. Rosta,  N. J. Russ,  
 H. F. Schaefer III,  N. E. Schultz,  N. Shenvi,  A. C. Simmonett,  A. Sodt,  
 D. Stuck,  K. S. Thanthiriwatte,  V. Vanovschi,  Tao Wang,  A. Warshel,  
 C. F. Williams,  Q. Wu,  X. Xu,  W. Zhang

 Please cite Q-Chem as follows:
 Y. Shao et al., Mol. Phys. 113, 184-215 (2015)
 DOI: 10.1080/00268976.2014.952696

 Q-Chem 5.1.1 for Intel X86 EM64T Linux

 Parts of Q-Chem use Armadillo 8.300.2 (Tropical Shenanigans).
 http://arma.sourceforge.net/

 Q-Chem begins on Sat Oct  3 03:31:14 2020  

Host: n0080.mhg0
0

     Scratch files written to /local/scratch/users/yhljason/HCCCl_B2PLYP_aug-cc-pcVTZ.inp20201003025000//
Input Ideriv = 0
Curr. Ideriv = -1
Max.  Ideriv = 0
Analytic post-HF gradients are not available with non-HF exchange
Input Ideriv = 0
Curr. Ideriv = 0
Max.  Ideriv = 0

Checking the input file for inconsistencies... 	...done.

--------------------------------------------------------------
User input:
--------------------------------------------------------------
$molecule
0 1
C1      0.0000  0.0000  -1.8149
C2      0.0000  0.0000  -0.6116
Cl3     0.0000  0.0000  1.0252
H4      0.0000  0.0000  -2.8699
$end

$rem
jobtype sp
method B2PLYP
xc_grid 000099000590
basis aug-cc-pcVTZ
max_scf_cycles 200
thresh 14
scf_convergence 8
scf_algorithm gdm
symmetry false
sym_ignore true
unrestricted false
gen_scfman true
internal_stability_iter 15
internal_stability_davidson_iter 200
mem_total 128000
cc_memory 96000
cc_backend xm
mem_static 1500
n_frozen_core 0
$end



--------------------------------------------------------------
 ----------------------------------------------------------------
             Standard Nuclear Orientation (Angstroms)
    I     Atom           X                Y                Z
 ----------------------------------------------------------------
    1      C       0.0000000000     0.0000000000    -1.8149000000
    2      C       0.0000000000     0.0000000000    -0.6116000000
    3      Cl      0.0000000000     0.0000000000     1.0252000000
    4      H       0.0000000000     0.0000000000    -2.8699000000
 ----------------------------------------------------------------
 Nuclear Repulsion Energy =    74.5384189744 hartrees
 There are       15 alpha and       15 beta electrons
 Requested basis set is aug-cc-pCVTZ
 There are 70 shells and 216 basis functions

 Total QAlloc Memory Limit 128000 MB
 Mega-Array Size      1467 MB
 MEM_STATIC part      1500 MB

                       Distance Matrix (Angstroms)
             C (  1)   C (  2)   Cl(  3)
   C (  2)  1.203300
   Cl(  3)  2.840100  1.636800
   H (  4)  1.055000  2.258300  3.895100
 
 A cutoff of  1.0D-14 yielded   2407 shell pairs
 There are     22997 function pairs (     31435 Cartesian)
 
 -------------------------------------------------------
 OpenMP Integral Computing Module                       
 Release: version 1.0, May 2013, Q-Chem Inc. Pittsburgh 
 -------------------------------------------------------
 Integral Job Info:
 Integral job number is                      11
 Integral operator is                         1
 short-range coefficients                     0
 long-range coefficients              100000000
 Omega coefficients                           0
 if combine SR and LR in K                    0
 Integral screening is                        0
 Integral computing path is                   2
 max size of driver memory is            800000
 size of driver memory is                776718
 size of scratch memory is             29531563
 max col of scratch BK array              10000
 max len of scratch array in speh3          662
 max len of scratch index in speh4           32
 max int batch size is                      520
 min int batch size is                       52
 fixed nKL is                                31
 max L of basis functions is                  3
 order of int derivative is                   0
 number of shells is                         70
 number of basis is                         252
 number of cartesian basis is               252
 number of contracted shell pairs          2407
 number of primitive shell pairs           9338
 maxK2 (contraction) of shell pair          169
 max number of K2 of shell pair               1
 max number of CS2 of shell pair            331
 max number of PS2 of shell pair           1014
 mem total for path MDJ                  618648
 -------------------------------------------------------
 Smallest overlap matrix eigenvalue = 1.37E-05

 Scale SEOQF with 1.000000e-01/1.000000e-01/1.000000e-01

 Standard Electronic Orientation quadrupole field applied
 Nucleus-field energy     =    -0.0000000052 hartrees
 Guess from superposition of atomic densities
 Warning:  Energy on first SCF cycle will be non-variational
 SAD guess density has 30.000000 electrons

 -----------------------------------------------------------------------
  General SCF calculation program by
  Eric Jon Sundstrom, Paul Horn, Yuezhi Mao, Dmitri Zuev, Alec White,
  David Stuck, Shaama M.S., Shane Yost, Joonho Lee, David Small,
  Daniel Levine, Susi Lehtola, Hugh Burton, Evgeny Epifanovsky
 -----------------------------------------------------------------------
 Exchange:     0.5300 Hartree-Fock + 0.4700 B88
 Correlation:  0.7300 LYP
 Using Euler-Maclaurin-Lebedev (99,590) quadrature formula
Running Object-Oriented RKS (RHF)
We will preform up to 15 macro iterations over saddle points until a stable solution is found
Energy prior to optimization (guess energy) = -536.574708079431
Begin Timing: Total SCF Calculation
Begin Timing: SCF Single Stationary Point Calculation
begin iterations for algorithm: GDM          
the SCF tolerance is set to 1.00e-08
    1    -536.5747080794      8.83e-02     00000  Normal BFGS step
    2    -536.5664277689      1.14e-01     00000 Line search: overstep
    3    -536.6122808022      1.91e-02     00000  Normal BFGS step
    4    -536.6154311664      1.51e-02     00000  Normal BFGS step
    5    -536.6168782693      3.44e-03     00000  Normal BFGS step
    6    -536.6169937902      1.43e-03     00000  Normal BFGS step
    7    -536.6170192658      1.39e-04     00000  Normal BFGS step
    8    -536.6170195969      2.52e-05     00000  Normal BFGS step
    9    -536.6170196144      6.58e-06     00000  Normal BFGS step
   10    -536.6170196152      1.94e-06     00000  Normal BFGS step
   11    -536.6170196152      3.76e-07     00000  Normal BFGS step
   12    -536.6170196152      2.25e-08     00000  Normal BFGS step
   13    -536.6170196152      9.32e-09     00000 Convergence criterion met
Timing for Single Stationary Point: 117.00s (wall), 936.81s (cpu)
Begin Timing: Stability
===================================================
Beginning Test for Internal Stability
===================================================
generating davidson guess vectors based on koopmans excitations
    1      1.57e+00     00000 Davidson Iteration
    2      6.30e-01     00000 Davidson Iteration
    3      4.84e-01     00000 Davidson Iteration
    4      1.77e-01     00000 Davidson Iteration
    5      5.43e-02     00000 Davidson Iteration
    6      4.86e-02     00000 Davidson Iteration
    7      3.26e-02     00000 Davidson Iteration
    8      1.79e-02     00000 Davidson Iteration
    9      6.27e-03     00000 Davidson Iteration
   10      4.55e-03     00000 Davidson Iteration
   11      1.79e-02     00000 Davidson Iteration
   12      3.28e-03     00000 Davidson Iteration
   13      1.27e-03     00000 Davidson Iteration
   14      8.65e-04     00000 Davidson Iteration
   15      6.15e-04     00000 Davidson Iteration
   16      6.55e-04     00000 Davidson Iteration
   17      4.49e-04     00000 Davidson Iteration
   18      2.12e-04     00000 Davidson Iteration
   19      8.33e-05     00000 Davidson Iteration
   20      8.05e-05     00000 Davidson Converged
converged_eigenvalues
   0.8590
   0.8590
Threshold for negative eigenvalues: -1.0e-05
solution was a local minimum (stable)
===================================================
End Test for Internal Stability
===================================================
Our SCF solution is stable!
Timing for Total SCF: 345.00s (wall), 2758.10s (cpu)
 Total energy in the final basis set =     -536.6170196152
    ==================================================
              The end of Object-Oriented SCFman       
    ==================================================
 
 Components of the MP2 correlation energy:
        aaaa  correlation energy =        -0.0362617747 au
        abab  correlation energy =        -0.2191846434 au
        bbbb  correlation energy =        -0.0362617747 au
        non-Brillouin singles    =        -0.0000000000 au

 Total  MP2   correlation energy =                    -0.29170819 au
        MP2         total energy =                  -536.90872781 au
 
 --------------------------------------------------------------
 
                    Orbital Energies (a.u.)
 --------------------------------------------------------------
 
 Alpha MOs
 -- Occupied --
******* -10.680 -10.634  -9.967  -7.607  -7.601  -7.601  -1.032
 -0.868  -0.642  -0.579  -0.467  -0.467  -0.331  -0.331
 -- Virtual --
  0.011   0.031   0.052   0.052   0.057   0.083   0.083   0.098
  0.098   0.098   0.108   0.134   0.148   0.148   0.167   0.211
  0.211   0.224   0.235   0.277   0.277   0.288   0.288   0.325
  0.334   0.334   0.347   0.413   0.413   0.414   0.429   0.429
  0.442   0.442   0.491   0.523   0.534   0.534   0.602   0.720
  0.720   0.728   0.728   0.745   0.769   0.769   0.771   0.806
  0.806   0.836   0.836   0.856   0.916   0.916   0.938   0.940
  0.940   0.953   0.953   1.001   1.029   1.029   1.033   1.049
  1.049   1.116   1.116   1.217   1.258   1.258   1.282   1.282
  1.298   1.375   1.375   1.467   1.467   1.536   1.567   1.567
  1.601   1.614   1.614   1.775   1.775   1.794   1.901   1.901
  1.957   1.984   2.062   2.062   2.189   2.290   2.290   2.331
  2.331   2.436   2.450   2.450   2.754   2.754   2.766   2.833
  2.833   2.835   2.835   2.943   3.015   3.015   3.049   3.049
  3.135   3.171   3.171   3.246   3.246   3.249   3.307   3.307
  3.308   3.308   3.485   3.485   3.512   3.512   3.524   3.524
  3.542   3.738   3.891   3.951   3.951   3.958   3.958   4.051
  4.336   4.336   4.531   4.631   4.631   4.683   5.060   5.060
  5.309   5.548   6.109   6.109   6.820   6.966   9.970   9.970
 10.078  10.078  10.422  12.434  12.434  12.893  15.239  15.239
 15.991  15.991  16.231  16.549  17.580  17.864  18.430  36.173
 36.173  36.176  36.176  36.182  36.182  36.197  40.827  40.827
 40.883  40.883  40.905  40.905  40.994  41.100  41.100  41.714
 45.675  45.675  45.735  45.735  45.902  54.316  54.316  54.854
 80.301  80.301  80.884  80.884  81.190  82.009  85.048  87.567
103.853
 --------------------------------------------------------------
 
          Ground-State Mulliken Net Atomic Charges

     Atom                 Charge (a.u.)
  ----------------------------------------
      1 C                    -0.943845
      2 C                     0.356509
      3 Cl                    0.002397
      4 H                     0.584939
  ----------------------------------------
  Sum of atomic charges =     0.000000

 -----------------------------------------------------------------
                    Cartesian Multipole Moments
 -----------------------------------------------------------------
    Charge (ESU x 10^10)
                 0.0000
    Dipole Moment (Debye)
         X      -0.0000      Y      -0.0000      Z      -0.4631
       Tot       0.4631
    Quadrupole Moments (Debye-Ang)
        XX     -25.1086     XY      -0.0000     YY     -25.1086
        XZ       0.0000     YZ       0.0000     ZZ     -17.9739
    Octopole Moments (Debye-Ang^2)
       XXX       0.0000    XXY      -0.0000    XYY       0.0000
       YYY      -0.0000    XXZ       3.9118    XYZ       0.0000
       YYZ       3.9118    XZZ      -0.0000    YZZ      -0.0000
       ZZZ      -7.8544
    Hexadecapole Moments (Debye-Ang^3)
      XXXX     -29.3523   XXXY       0.0000   XXYY      -9.7841
      XYYY       0.0000   YYYY     -29.3523   XXXZ       0.0000
      XXYZ       0.0000   XYYZ       0.0000   YYYZ       0.0000
      XXZZ     -50.7705   XYZZ      -0.0000   YYZZ     -50.7705
      XZZZ       0.0000   YZZZ       0.0000   ZZZZ    -179.0571
 -----------------------------------------------------------------
Archival summary:
1\1\n0080.mhg0\SP\ProcedureUnspecified\BasisUnspecified\l121\yhljason\SatOct303:38:412020SatOct303:38:412020\0\\#,ProcedureUnspecified,BasisUnspecified,\\0,1\Cl\C,1,1.6368\C,2,1.2033,1,180\H,3,1.055,2,180,1,0,0\\\@

 Total job time:  447.58s(wall), 3553.01s(cpu) 
 Sat Oct  3 03:38:41 2020

        *************************************************************
        *                                                           *
        *  Thank you very much for using Q-Chem.  Have a nice day.  *
        *                                                           *
        *************************************************************


 
User input: 2 of 8 
 
Q-Chem Developer Version!
                  Welcome to Q-Chem
     A Quantum Leap Into The Future Of Chemistry


 Q-Chem 5.1, Q-Chem, Inc., Pleasanton, CA (2018)

 Yihan Shao,  Zhengting Gan,  E. Epifanovsky,  A. T. B. Gilbert,  M. Wormit,  
 J. Kussmann,  A. W. Lange,  A. Behn,  Jia Deng,  Xintian Feng,  D. Ghosh,  
 M. Goldey,  P. R. Horn,  L. D. Jacobson,  I. Kaliman,  T. Kus,  A. Landau,  
 Jie Liu,  E. I. Proynov,  R. M. Richard,  R. P. Steele,  E. J. Sundstrom,  
 H. L. Woodcock III,  P. M. Zimmerman,  D. Zuev,  B. Albrecht,  E. Alguire,  
 S. A. Baeppler,  D. Barton,  Z. Benda,  Y. A. Bernard,  E. J. Berquist,  
 K. B. Bravaya,  H. Burton,  D. Casanova,  Chun-Min Chang,  Yunqing Chen,  
 A. Chien,  K. D. Closser,  M. P. Coons,  S. Coriani,  S. Dasgupta,  
 A. L. Dempwolff,  M. Diedenhofen,  Hainam Do,  R. G. Edgar,  Po-Tung Fang,  
 S. Faraji,  S. Fatehi,  Qingguo Feng,  K. D. Fenk,  J. Fosso-Tande,  
 Qinghui Ge,  A. Ghysels,  G. Gidofalvi,  J. Gomes,  J. Gonthier,  A. Gunina,  
 D. Hait,  M. W. D. Hanson-Heine,  P. H. P. Harbach,  A. W. Hauser,  
 J. E. Herr,  E. G. Hohenstein,  Z. C. Holden,  Kerwin Hui,  B. C. Huynh,  
 T.-C. Jagau,  Hyunjun Ji,  B. Kaduk,  K. Khistyaev,  Jaehoon Kim,  
 P. Klunzinger,  K. Koh,  D. Kosenkov,  L. Koulias,  T. Kowalczyk,  
 C. M. Krauter,  A. Kunitsa,  Ka Un Lao,  A. Laurent,  K. V. Lawler,  
 Joonho Lee,  D. Lefrancois,  S. Lehtola,  D. S. Levine,  Yi-Pei Li,  
 You-Sheng Lin,  Fenglai Liu,  E. Livshits,  A. Luenser,  P. Manohar,  
 E. Mansoor,  S. F. Manzer,  Shan-Ping Mao,  Yuezhi Mao,  N. Mardirossian,  
 A. V. Marenich,  T. Markovich,  L. A. Martinez-Martinez,  S. A. Maurer,  
 N. J. Mayhall,  S. C. McKenzie,  J.-M. Mewes,  A. F. Morrison,  
 J. W. Mullinax,  K. Nanda,  T. S. Nguyen-Beck,  R. Olivares-Amaya,  
 J. A. Parkhill,  T. M. Perrine,  F. Plasser,  P. Pokhilko,  S. Prager,  
 A. Prociuk,  E. Ramos,  D. R. Rehn,  F. Rob,  M. Schneider,  N. Sergueev,  
 S. M. Sharada,  S. Sharma,  D. W. Small,  T. Stauch,  T. Stein,  
 Yu-Chuan Su,  A. J. W. Thom,  A. Tkatchenko,  T. Tsuchimochi,  N. M. Tubman,  
 L. Vogt,  M. L. Vidal,  O. Vydrov,  M. A. Watson,  J. Wenzel,  
 M. de Wergifosse,  T. A. Wesolowski,  A. White,  J. Witte,  A. Yamada,  
 Jun Yang,  K. Yao,  S. Yeganeh,  S. R. Yost,  Zhi-Qiang You,  A. Zech,  
 Igor Ying Zhang,  Xing Zhang,  Yan Zhao,  Ying Zhu,  B. R. Brooks,  
 G. K. L. Chan,  C. J. Cramer,  M. S. Gordon,  W. J. Hehre,  A. Klamt,  
 M. W. Schmidt,  C. D. Sherrill,  D. G. Truhlar,  A. Aspuru-Guzik,  R. Baer,  
 A. T. Bell,  N. A. Besley,  Jeng-Da Chai,  A. E. DePrince, III,  
 R. A. DiStasio Jr.,  A. Dreuw,  B. D. Dunietz,  T. R. Furlani,  
 Chao-Ping Hsu,  Yousung Jung,  Jing Kong,  D. S. Lambrecht,  WanZhen Liang,  
 C. Ochsenfeld,  V. A. Rassolov,  L. V. Slipchenko,  J. E. Subotnik,  
 T. Van Voorhis,  J. M. Herbert,  A. I. Krylov,  P. M. W. Gill,  M. Head-Gordon

 Contributors to earlier versions of Q-Chem not listed above: 
 R. D. Adamson,  B. Austin,  J. Baker,  G. J. O. Beran,  K. Brandhorst,  
 S. T. Brown,  E. F. C. Byrd,  A. K. Chakraborty,  C.-L. Cheng,  
 Siu Hung Chien,  D. M. Chipman,  D. L. Crittenden,  H. Dachsel,  
 R. J. Doerksen,  A. D. Dutoi,  L. Fusti-Molnar,  W. A. Goddard III,  
 A. Golubeva-Zadorozhnaya,  S. R. Gwaltney,  G. Hawkins,  A. Heyden,  
 S. Hirata,  G. Kedziora,  F. J. Keil,  C. Kelley,  Jihan Kim,  R. A. King,  
 R. Z. Khaliullin,  P. P. Korambath,  W. Kurlancheek,  A. M. Lee,  M. S. Lee,  
 S. V. Levchenko,  Ching Yeh Lin,  D. Liotard,  R. C. Lochan,  I. Lotan,  
 P. E. Maslen,  N. Nair,  D. P. O'Neill,  D. Neuhauser,  E. Neuscamman,  
 C. M. Oana,  R. Olson,  B. Peters,  R. Peverati,  P. A. Pieniazek,  
 Y. M. Rhee,  J. Ritchie,  M. A. Rohrdanz,  E. Rosta,  N. J. Russ,  
 H. F. Schaefer III,  N. E. Schultz,  N. Shenvi,  A. C. Simmonett,  A. Sodt,  
 D. Stuck,  K. S. Thanthiriwatte,  V. Vanovschi,  Tao Wang,  A. Warshel,  
 C. F. Williams,  Q. Wu,  X. Xu,  W. Zhang

 Please cite Q-Chem as follows:
 Y. Shao et al., Mol. Phys. 113, 184-215 (2015)
 DOI: 10.1080/00268976.2014.952696

 Q-Chem 5.1.1 for Intel X86 EM64T Linux

 Parts of Q-Chem use Armadillo 8.300.2 (Tropical Shenanigans).
 http://arma.sourceforge.net/

 Q-Chem begins on Sat Oct  3 03:38:41 2020  

Host: n0080.mhg0
0

     Scratch files written to /local/scratch/users/yhljason/HCCCl_B2PLYP_aug-cc-pcVTZ.inp20201003025000//
The previous job contains 0 fragments, simply inherited here
Input Ideriv = 2
Curr. Ideriv = -1
Max.  Ideriv = 2

Checking the input file for inconsistencies... 	...done.

--------------------------------------------------------------
User input:
--------------------------------------------------------------
$molecule
read
$end

$rem

jobtype sp
method HF
xc_grid 000099000590
basis aug-cc-pcVTZ
max_scf_cycles 0
scf_guess read
thresh 14
scf_convergence 8
mem_total 128000
cc_memory 96000
cc_backend xm
mem_static 1500
symmetry false
sym_ignore true
scf_guess read
unrestricted false
scf_algorithm gdm
n_frozen_core 0
$end



--------------------------------------------------------------
 ----------------------------------------------------------------
             Standard Nuclear Orientation (Angstroms)
    I     Atom           X                Y                Z
 ----------------------------------------------------------------
    1      C       0.0000000000     0.0000000000    -1.8149000000
    2      C       0.0000000000     0.0000000000    -0.6116000000
    3      Cl      0.0000000000     0.0000000000     1.0252000000
    4      H       0.0000000000     0.0000000000    -2.8699000000
 ----------------------------------------------------------------
 Nuclear Repulsion Energy =    74.5384189744 hartrees
 There are       15 alpha and       15 beta electrons
 Requested basis set is aug-cc-pCVTZ
 There are 70 shells and 216 basis functions

 Total QAlloc Memory Limit 128000 MB
 Mega-Array Size      1467 MB
 MEM_STATIC part      1500 MB

                       Distance Matrix (Angstroms)
             C (  1)   C (  2)   Cl(  3)
   C (  2)  1.203300
   Cl(  3)  2.840100  1.636800
   H (  4)  1.055000  2.258300  3.895100
 
 A cutoff of  1.0D-14 yielded   2407 shell pairs
 There are     22997 function pairs (     31435 Cartesian)
 
 -------------------------------------------------------
 OpenMP Integral Computing Module                       
 Release: version 1.0, May 2013, Q-Chem Inc. Pittsburgh 
 -------------------------------------------------------
 Integral Job Info:
 Integral job number is                      11
 Integral operator is                         1
 short-range coefficients                     0
 long-range coefficients              100000000
 Omega coefficients                           0
 if combine SR and LR in K                    0
 Integral screening is                        0
 Integral computing path is                   2
 max size of driver memory is            800000
 size of driver memory is                776718
 size of scratch memory is             29531563
 max col of scratch BK array              10000
 max len of scratch array in speh3          662
 max len of scratch index in speh4           32
 max int batch size is                      520
 min int batch size is                       52
 fixed nKL is                                31
 max L of basis functions is                  3
 order of int derivative is                   0
 number of shells is                         70
 number of basis is                         252
 number of cartesian basis is               252
 number of contracted shell pairs          2407
 number of primitive shell pairs           9338
 maxK2 (contraction) of shell pair          169
 max number of K2 of shell pair               1
 max number of CS2 of shell pair            331
 max number of PS2 of shell pair           1014
 mem total for path MDJ                  618648
 -------------------------------------------------------
 Smallest overlap matrix eigenvalue = 1.37E-05

 Scale SEOQF with 1.000000e-01/1.000000e-01/1.000000e-01

 Standard Electronic Orientation quadrupole field applied
 Nucleus-field energy     =    -0.0000000052 hartrees
 Guess MOs from SCF MO coefficient file
 Reading MOs from coefficient file
 Reading MOs from coefficient file
 The restricted Hartree-Fock energy will be evaluated
 The orbitals will not be altered
Using Q-Chem read-in guess as SCF_GUESS READ specified.

 using 8 threads for integral computing
 -------------------------------------------------------
 OpenMP Integral computing Module                
 Release: version 2.0, May 2017, Q-Chem Inc. Pleasanton 
 -------------------------------------------------------
TIMEINFO->: J/JK contribution 61.50 sec.
Avoiding writing the new MOs to disk !!! 
 ---------------------------------------
  Cycle       Energy        RMS Gradient
 ---------------------------------------
    1    -535.7689879928      1.26E-02 Convergence criterion met
 ---------------------------------------
 SCF time:  CPU 62.30 s  wall 7.80 s
 SCF   energy in the final basis set = -535.76898799
 Total energy in the final basis set = -535.76898799
 
 --------------------------------------------------------------
 
                    Orbital Energies (a.u.)
 --------------------------------------------------------------
 
 Alpha MOs
 -- Occupied --
******* -10.680 -10.634  -9.967  -7.607  -7.601  -7.601  -1.032
 -0.868  -0.642  -0.579  -0.467  -0.467  -0.331  -0.331
 -- Virtual --
  0.011   0.031   0.052   0.052   0.057   0.083   0.083   0.098
  0.098   0.098   0.108   0.134   0.148   0.148   0.167   0.211
  0.211   0.224   0.235   0.277   0.277   0.288   0.288   0.325
  0.334   0.334   0.347   0.413   0.413   0.414   0.429   0.429
  0.442   0.442   0.491   0.523   0.534   0.534   0.602   0.720
  0.720   0.728   0.728   0.745   0.769   0.769   0.771   0.806
  0.806   0.836   0.836   0.856   0.916   0.916   0.938   0.940
  0.940   0.953   0.953   1.001   1.029   1.029   1.033   1.049
  1.049   1.116   1.116   1.217   1.258   1.258   1.282   1.282
  1.298   1.375   1.375   1.467   1.467   1.536   1.567   1.567
  1.601   1.614   1.614   1.775   1.775   1.794   1.901   1.901
  1.957   1.984   2.062   2.062   2.189   2.290   2.290   2.331
  2.331   2.436   2.450   2.450   2.754   2.754   2.766   2.833
  2.833   2.835   2.835   2.943   3.015   3.015   3.049   3.049
  3.135   3.171   3.171   3.246   3.246   3.249   3.307   3.307
  3.308   3.308   3.485   3.485   3.512   3.512   3.524   3.524
  3.542   3.738   3.891   3.951   3.951   3.958   3.958   4.051
  4.336   4.336   4.531   4.631   4.631   4.683   5.060   5.060
  5.309   5.548   6.109   6.109   6.820   6.966   9.970   9.970
 10.078  10.078  10.422  12.434  12.434  12.893  15.239  15.239
 15.991  15.991  16.231  16.549  17.580  17.864  18.430  36.173
 36.173  36.176  36.176  36.182  36.182  36.197  40.827  40.827
 40.883  40.883  40.905  40.905  40.994  41.100  41.100  41.714
 45.675  45.675  45.735  45.735  45.902  54.316  54.316  54.854
 80.301  80.301  80.884  80.884  81.190  82.009  85.048  87.567
103.853
 --------------------------------------------------------------
 
          Ground-State Mulliken Net Atomic Charges

     Atom                 Charge (a.u.)
  ----------------------------------------
      1 C                    -0.943845
      2 C                     0.356509
      3 Cl                    0.002397
      4 H                     0.584939
  ----------------------------------------
  Sum of atomic charges =     0.000000

 -----------------------------------------------------------------
                    Cartesian Multipole Moments
 -----------------------------------------------------------------
    Charge (ESU x 10^10)
                 0.0000
    Dipole Moment (Debye)
         X       0.0000      Y      -0.0000      Z      -0.4631
       Tot       0.4631
    Quadrupole Moments (Debye-Ang)
        XX     -25.1086     XY       0.0000     YY     -25.1086
        XZ       0.0000     YZ       0.0000     ZZ     -17.9739
    Octopole Moments (Debye-Ang^2)
       XXX       0.0000    XXY      -0.0000    XYY       0.0000
       YYY      -0.0000    XXZ       3.9118    XYZ      -0.0000
       YYZ       3.9118    XZZ      -0.0000    YZZ       0.0000
       ZZZ      -7.8544
    Hexadecapole Moments (Debye-Ang^3)
      XXXX     -29.3523   XXXY       0.0000   XXYY      -9.7841
      XYYY       0.0000   YYYY     -29.3523   XXXZ       0.0000
      XXYZ       0.0000   XYYZ       0.0000   YYYZ       0.0000
      XXZZ     -50.7705   XYZZ       0.0000   YYZZ     -50.7705
      XZZZ       0.0000   YZZZ       0.0000   ZZZZ    -179.0571
 -----------------------------------------------------------------
Archival summary:
1\1\n0080.mhg0\SP\HF\BasisUnspecified\l121\yhljason\SatOct303:38:502020SatOct303:38:502020\0\\#,HF,BasisUnspecified,\\0,1\Cl\C,1,1.6368\C,2,1.2033,1,180\H,3,1.055,2,180,1,0,0\\HF=-535.768988\\@

 Total job time:  8.75s(wall), 68.76s(cpu) 
 Sat Oct  3 03:38:50 2020

        *************************************************************
        *                                                           *
        *  Thank you very much for using Q-Chem.  Have a nice day.  *
        *                                                           *
        *************************************************************


 
User input: 3 of 8 
 
Q-Chem Developer Version!
                  Welcome to Q-Chem
     A Quantum Leap Into The Future Of Chemistry


 Q-Chem 5.1, Q-Chem, Inc., Pleasanton, CA (2018)

 Yihan Shao,  Zhengting Gan,  E. Epifanovsky,  A. T. B. Gilbert,  M. Wormit,  
 J. Kussmann,  A. W. Lange,  A. Behn,  Jia Deng,  Xintian Feng,  D. Ghosh,  
 M. Goldey,  P. R. Horn,  L. D. Jacobson,  I. Kaliman,  T. Kus,  A. Landau,  
 Jie Liu,  E. I. Proynov,  R. M. Richard,  R. P. Steele,  E. J. Sundstrom,  
 H. L. Woodcock III,  P. M. Zimmerman,  D. Zuev,  B. Albrecht,  E. Alguire,  
 S. A. Baeppler,  D. Barton,  Z. Benda,  Y. A. Bernard,  E. J. Berquist,  
 K. B. Bravaya,  H. Burton,  D. Casanova,  Chun-Min Chang,  Yunqing Chen,  
 A. Chien,  K. D. Closser,  M. P. Coons,  S. Coriani,  S. Dasgupta,  
 A. L. Dempwolff,  M. Diedenhofen,  Hainam Do,  R. G. Edgar,  Po-Tung Fang,  
 S. Faraji,  S. Fatehi,  Qingguo Feng,  K. D. Fenk,  J. Fosso-Tande,  
 Qinghui Ge,  A. Ghysels,  G. Gidofalvi,  J. Gomes,  J. Gonthier,  A. Gunina,  
 D. Hait,  M. W. D. Hanson-Heine,  P. H. P. Harbach,  A. W. Hauser,  
 J. E. Herr,  E. G. Hohenstein,  Z. C. Holden,  Kerwin Hui,  B. C. Huynh,  
 T.-C. Jagau,  Hyunjun Ji,  B. Kaduk,  K. Khistyaev,  Jaehoon Kim,  
 P. Klunzinger,  K. Koh,  D. Kosenkov,  L. Koulias,  T. Kowalczyk,  
 C. M. Krauter,  A. Kunitsa,  Ka Un Lao,  A. Laurent,  K. V. Lawler,  
 Joonho Lee,  D. Lefrancois,  S. Lehtola,  D. S. Levine,  Yi-Pei Li,  
 You-Sheng Lin,  Fenglai Liu,  E. Livshits,  A. Luenser,  P. Manohar,  
 E. Mansoor,  S. F. Manzer,  Shan-Ping Mao,  Yuezhi Mao,  N. Mardirossian,  
 A. V. Marenich,  T. Markovich,  L. A. Martinez-Martinez,  S. A. Maurer,  
 N. J. Mayhall,  S. C. McKenzie,  J.-M. Mewes,  A. F. Morrison,  
 J. W. Mullinax,  K. Nanda,  T. S. Nguyen-Beck,  R. Olivares-Amaya,  
 J. A. Parkhill,  T. M. Perrine,  F. Plasser,  P. Pokhilko,  S. Prager,  
 A. Prociuk,  E. Ramos,  D. R. Rehn,  F. Rob,  M. Schneider,  N. Sergueev,  
 S. M. Sharada,  S. Sharma,  D. W. Small,  T. Stauch,  T. Stein,  
 Yu-Chuan Su,  A. J. W. Thom,  A. Tkatchenko,  T. Tsuchimochi,  N. M. Tubman,  
 L. Vogt,  M. L. Vidal,  O. Vydrov,  M. A. Watson,  J. Wenzel,  
 M. de Wergifosse,  T. A. Wesolowski,  A. White,  J. Witte,  A. Yamada,  
 Jun Yang,  K. Yao,  S. Yeganeh,  S. R. Yost,  Zhi-Qiang You,  A. Zech,  
 Igor Ying Zhang,  Xing Zhang,  Yan Zhao,  Ying Zhu,  B. R. Brooks,  
 G. K. L. Chan,  C. J. Cramer,  M. S. Gordon,  W. J. Hehre,  A. Klamt,  
 M. W. Schmidt,  C. D. Sherrill,  D. G. Truhlar,  A. Aspuru-Guzik,  R. Baer,  
 A. T. Bell,  N. A. Besley,  Jeng-Da Chai,  A. E. DePrince, III,  
 R. A. DiStasio Jr.,  A. Dreuw,  B. D. Dunietz,  T. R. Furlani,  
 Chao-Ping Hsu,  Yousung Jung,  Jing Kong,  D. S. Lambrecht,  WanZhen Liang,  
 C. Ochsenfeld,  V. A. Rassolov,  L. V. Slipchenko,  J. E. Subotnik,  
 T. Van Voorhis,  J. M. Herbert,  A. I. Krylov,  P. M. W. Gill,  M. Head-Gordon

 Contributors to earlier versions of Q-Chem not listed above: 
 R. D. Adamson,  B. Austin,  J. Baker,  G. J. O. Beran,  K. Brandhorst,  
 S. T. Brown,  E. F. C. Byrd,  A. K. Chakraborty,  C.-L. Cheng,  
 Siu Hung Chien,  D. M. Chipman,  D. L. Crittenden,  H. Dachsel,  
 R. J. Doerksen,  A. D. Dutoi,  L. Fusti-Molnar,  W. A. Goddard III,  
 A. Golubeva-Zadorozhnaya,  S. R. Gwaltney,  G. Hawkins,  A. Heyden,  
 S. Hirata,  G. Kedziora,  F. J. Keil,  C. Kelley,  Jihan Kim,  R. A. King,  
 R. Z. Khaliullin,  P. P. Korambath,  W. Kurlancheek,  A. M. Lee,  M. S. Lee,  
 S. V. Levchenko,  Ching Yeh Lin,  D. Liotard,  R. C. Lochan,  I. Lotan,  
 P. E. Maslen,  N. Nair,  D. P. O'Neill,  D. Neuhauser,  E. Neuscamman,  
 C. M. Oana,  R. Olson,  B. Peters,  R. Peverati,  P. A. Pieniazek,  
 Y. M. Rhee,  J. Ritchie,  M. A. Rohrdanz,  E. Rosta,  N. J. Russ,  
 H. F. Schaefer III,  N. E. Schultz,  N. Shenvi,  A. C. Simmonett,  A. Sodt,  
 D. Stuck,  K. S. Thanthiriwatte,  V. Vanovschi,  Tao Wang,  A. Warshel,  
 C. F. Williams,  Q. Wu,  X. Xu,  W. Zhang

 Please cite Q-Chem as follows:
 Y. Shao et al., Mol. Phys. 113, 184-215 (2015)
 DOI: 10.1080/00268976.2014.952696

 Q-Chem 5.1.1 for Intel X86 EM64T Linux

 Parts of Q-Chem use Armadillo 8.300.2 (Tropical Shenanigans).
 http://arma.sourceforge.net/

 Q-Chem begins on Sat Oct  3 03:38:50 2020  

Host: n0080.mhg0
0

     Scratch files written to /local/scratch/users/yhljason/HCCCl_B2PLYP_aug-cc-pcVTZ.inp20201003025000//
The previous job contains 0 fragments, simply inherited here
Input Ideriv = 0
Curr. Ideriv = -1
Max.  Ideriv = 0
Analytic post-HF gradients are not available with non-HF exchange
Input Ideriv = 0
Curr. Ideriv = 0
Max.  Ideriv = 0

Checking the input file for inconsistencies... 	...done.

--------------------------------------------------------------
User input:
--------------------------------------------------------------
$molecule
read
$end

$rem

jobtype sp
method B2PLYP
xc_grid 000099000590
basis aug-cc-pcVTZ
max_scf_cycles 200
thresh 14
scf_convergence 8
mem_total 128000
cc_memory 96000
cc_backend xm
mem_static 1500
symmetry false
sym_ignore true
scf_guess read
unrestricted false
scf_algorithm gdm
n_frozen_core 0
$end

$multipole_field
XX 0.0001
$end


--------------------------------------------------------------
 ----------------------------------------------------------------
             Standard Nuclear Orientation (Angstroms)
    I     Atom           X                Y                Z
 ----------------------------------------------------------------
    1      C       0.0000000000     0.0000000000    -1.8149000000
    2      C       0.0000000000     0.0000000000    -0.6116000000
    3      Cl      0.0000000000     0.0000000000     1.0252000000
    4      H       0.0000000000     0.0000000000    -2.8699000000
 ----------------------------------------------------------------
 Nuclear Repulsion Energy =    74.5384189744 hartrees
 There are       15 alpha and       15 beta electrons
 Requested basis set is aug-cc-pCVTZ
 There are 70 shells and 216 basis functions

 Total QAlloc Memory Limit 128000 MB
 Mega-Array Size      1467 MB
 MEM_STATIC part      1500 MB

                       Distance Matrix (Angstroms)
             C (  1)   C (  2)   Cl(  3)
   C (  2)  1.203300
   Cl(  3)  2.840100  1.636800
   H (  4)  1.055000  2.258300  3.895100
 
 Applying Cartesian multipole field
    Component          Value
    ---------          -----
     (2,0,0)        1.00000E-04
 A cutoff of  1.0D-14 yielded   2407 shell pairs
 There are     22997 function pairs (     31435 Cartesian)
 
 -------------------------------------------------------
 OpenMP Integral Computing Module                       
 Release: version 1.0, May 2013, Q-Chem Inc. Pittsburgh 
 -------------------------------------------------------
 Integral Job Info:
 Integral job number is                      11
 Integral operator is                         1
 short-range coefficients                     0
 long-range coefficients              100000000
 Omega coefficients                           0
 if combine SR and LR in K                    0
 Integral screening is                        0
 Integral computing path is                   2
 max size of driver memory is            800000
 size of driver memory is                776718
 size of scratch memory is             29531563
 max col of scratch BK array              10000
 max len of scratch array in speh3          662
 max len of scratch index in speh4           32
 max int batch size is                      520
 min int batch size is                       52
 fixed nKL is                                31
 max L of basis functions is                  3
 order of int derivative is                   0
 number of shells is                         70
 number of basis is                         252
 number of cartesian basis is               252
 number of contracted shell pairs          2407
 number of primitive shell pairs           9338
 maxK2 (contraction) of shell pair          169
 max number of K2 of shell pair               1
 max number of CS2 of shell pair            331
 max number of PS2 of shell pair           1014
 mem total for path MDJ                  618648
 -------------------------------------------------------
 Smallest overlap matrix eigenvalue = 1.37E-05
 Guess MOs from SCF MO coefficient file

 -----------------------------------------------------------------------
  General SCF calculation program by
  Eric Jon Sundstrom, Paul Horn, Yuezhi Mao, Dmitri Zuev, Alec White,
  David Stuck, Shaama M.S., Shane Yost, Joonho Lee, David Small,
  Daniel Levine, Susi Lehtola, Hugh Burton, Evgeny Epifanovsky
 -----------------------------------------------------------------------
 Exchange:     0.5300 Hartree-Fock + 0.4700 B88
 Correlation:  0.7300 LYP
 Using Euler-Maclaurin-Lebedev (99,590) quadrature formula
 using 8 threads for integral computing
 -------------------------------------------------------
 OpenMP Integral computing Module                
 Release: version 2.0, May 2017, Q-Chem Inc. Pleasanton 
 -------------------------------------------------------
 -------------------------------------------------------
 OpenMP BLAS3 based DFT computing Module                
 Release: version 1.0, May 2013, Q-Chem Inc. Pittsburgh 
 -------------------------------------------------------
 A restricted SCF calculation will be
 performed using GDM
 SCF converges when RMS gradient is below 1.0e-08
 ---------------------------------------
  Cycle       Energy        RMS Gradient
 ---------------------------------------
    1    -536.6188863798      2.78e-04   Normal BFGS step
    2    -536.6188869360      6.86e-05   Normal BFGS step
    3    -536.6188869825      3.45e-05   Normal BFGS step
    4    -536.6188869878      2.17e-05   Normal BFGS step
    5    -536.6188869910      6.21e-06   Normal BFGS step
    6    -536.6188869913      2.56e-06   Normal BFGS step
    7    -536.6188869914      6.80e-07   Normal BFGS step
    8    -536.6188869914      1.58e-07   Normal BFGS step
    9    -536.6188869914      7.96e-08   Normal BFGS step
   10    -536.6188869914      2.53e-08   Normal BFGS step
   11    -536.6188869914      4.34e-09  Convergence criterion met
 ---------------------------------------
 SCF time:   CPU 859.32s  wall 108.00s 
 SCF   energy in the final basis set =     -536.6188869914
 Total energy in the final basis set =     -536.6188869914
 
 Components of the MP2 correlation energy:
        aaaa  correlation energy =        -0.0362613800 au
        abab  correlation energy =        -0.2191786884 au
        bbbb  correlation energy =        -0.0362613800 au
        non-Brillouin singles    =        -0.0000000000 au

 Total  MP2   correlation energy =                    -0.29170145 au
        MP2         total energy =                  -536.91058844 au
 
 --------------------------------------------------------------
 
                    Orbital Energies (a.u.)
 --------------------------------------------------------------
 
 Alpha MOs
 -- Occupied --
******* -10.680 -10.634  -9.967  -7.607  -7.601  -7.601  -1.032
 -0.868  -0.642  -0.580  -0.467  -0.467  -0.331  -0.331
 -- Virtual --
  0.009   0.030   0.050   0.052   0.056   0.081   0.082   0.096
  0.097   0.098   0.107   0.133   0.145   0.147   0.166   0.210
  0.210   0.223   0.234   0.275   0.276   0.287   0.287   0.324
  0.333   0.334   0.346   0.412   0.413   0.413   0.428   0.428
  0.441   0.442   0.491   0.522   0.533   0.534   0.601   0.719
  0.719   0.727   0.728   0.744   0.768   0.769   0.770   0.805
  0.805   0.836   0.836   0.855   0.916   0.916   0.938   0.939
  0.939   0.952   0.952   1.000   1.029   1.029   1.032   1.049
  1.049   1.115   1.116   1.217   1.258   1.258   1.281   1.281
  1.298   1.374   1.375   1.466   1.467   1.536   1.567   1.567
  1.601   1.614   1.614   1.775   1.775   1.793   1.901   1.901
  1.957   1.984   2.061   2.061   2.189   2.290   2.290   2.331
  2.331   2.435   2.450   2.450   2.753   2.753   2.766   2.833
  2.833   2.835   2.835   2.942   3.015   3.015   3.048   3.048
  3.135   3.171   3.171   3.245   3.245   3.249   3.306   3.307
  3.308   3.308   3.485   3.485   3.512   3.512   3.524   3.524
  3.542   3.737   3.891   3.951   3.951   3.958   3.958   4.050
  4.336   4.336   4.530   4.630   4.631   4.682   5.060   5.060
  5.309   5.548   6.109   6.109   6.820   6.966   9.969   9.969
 10.077  10.077  10.421  12.434  12.434  12.892  15.239  15.239
 15.991  15.991  16.231  16.548  17.580  17.864  18.430  36.173
 36.173  36.176  36.176  36.182  36.182  36.196  40.827  40.827
 40.883  40.883  40.905  40.905  40.994  41.100  41.100  41.714
 45.675  45.675  45.735  45.735  45.901  54.316  54.316  54.853
 80.301  80.301  80.883  80.883  81.189  82.009  85.048  87.566
103.852
 --------------------------------------------------------------
 
          Ground-State Mulliken Net Atomic Charges

     Atom                 Charge (a.u.)
  ----------------------------------------
      1 C                    -0.945043
      2 C                     0.357421
      3 Cl                    0.002525
      4 H                     0.585097
  ----------------------------------------
  Sum of atomic charges =     0.000000

 -----------------------------------------------------------------
                    Cartesian Multipole Moments
 -----------------------------------------------------------------
    Charge (ESU x 10^10)
                 0.0000
    Dipole Moment (Debye)
         X      -0.0000      Y       0.0000      Z      -0.4630
       Tot       0.4630
    Quadrupole Moments (Debye-Ang)
        XX     -25.1251     XY      -0.0000     YY     -25.1128
        XZ      -0.0000     YZ       0.0000     ZZ     -17.9751
    Octopole Moments (Debye-Ang^2)
       XXX       0.0000    XXY       0.0000    XYY      -0.0000
       YYY       0.0000    XXZ       3.9192    XYZ       0.0000
       YYZ       3.9142    XZZ      -0.0000    YZZ       0.0000
       ZZZ      -7.8569
    Hexadecapole Moments (Debye-Ang^3)
      XXXX     -29.4253   XXXY      -0.0000   XXYY      -9.7998
      XYYY      -0.0000   YYYY     -29.3737   XXXZ       0.0000
      XXYZ       0.0000   XYYZ      -0.0000   YYYZ       0.0000
      XXZZ     -50.8174   XYZZ      -0.0000   YYZZ     -50.7843
      XZZZ      -0.0000   YZZZ      -0.0000   ZZZZ    -179.0720
 -----------------------------------------------------------------
Archival summary:
1\1\n0080.mhg0\SP\ProcedureUnspecified\BasisUnspecified\l121\yhljason\SatOct303:42:052020SatOct303:42:052020\0\\#,ProcedureUnspecified,BasisUnspecified,\\0,1\Cl\C,1,1.6368\C,2,1.2033,1,180\H,3,1.055,2,180,1,0,0\\\@

 Total job time:  194.55s(wall), 1532.33s(cpu) 
 Sat Oct  3 03:42:05 2020

        *************************************************************
        *                                                           *
        *  Thank you very much for using Q-Chem.  Have a nice day.  *
        *                                                           *
        *************************************************************


 
User input: 4 of 8 
 
Q-Chem Developer Version!
                  Welcome to Q-Chem
     A Quantum Leap Into The Future Of Chemistry


 Q-Chem 5.1, Q-Chem, Inc., Pleasanton, CA (2018)

 Yihan Shao,  Zhengting Gan,  E. Epifanovsky,  A. T. B. Gilbert,  M. Wormit,  
 J. Kussmann,  A. W. Lange,  A. Behn,  Jia Deng,  Xintian Feng,  D. Ghosh,  
 M. Goldey,  P. R. Horn,  L. D. Jacobson,  I. Kaliman,  T. Kus,  A. Landau,  
 Jie Liu,  E. I. Proynov,  R. M. Richard,  R. P. Steele,  E. J. Sundstrom,  
 H. L. Woodcock III,  P. M. Zimmerman,  D. Zuev,  B. Albrecht,  E. Alguire,  
 S. A. Baeppler,  D. Barton,  Z. Benda,  Y. A. Bernard,  E. J. Berquist,  
 K. B. Bravaya,  H. Burton,  D. Casanova,  Chun-Min Chang,  Yunqing Chen,  
 A. Chien,  K. D. Closser,  M. P. Coons,  S. Coriani,  S. Dasgupta,  
 A. L. Dempwolff,  M. Diedenhofen,  Hainam Do,  R. G. Edgar,  Po-Tung Fang,  
 S. Faraji,  S. Fatehi,  Qingguo Feng,  K. D. Fenk,  J. Fosso-Tande,  
 Qinghui Ge,  A. Ghysels,  G. Gidofalvi,  J. Gomes,  J. Gonthier,  A. Gunina,  
 D. Hait,  M. W. D. Hanson-Heine,  P. H. P. Harbach,  A. W. Hauser,  
 J. E. Herr,  E. G. Hohenstein,  Z. C. Holden,  Kerwin Hui,  B. C. Huynh,  
 T.-C. Jagau,  Hyunjun Ji,  B. Kaduk,  K. Khistyaev,  Jaehoon Kim,  
 P. Klunzinger,  K. Koh,  D. Kosenkov,  L. Koulias,  T. Kowalczyk,  
 C. M. Krauter,  A. Kunitsa,  Ka Un Lao,  A. Laurent,  K. V. Lawler,  
 Joonho Lee,  D. Lefrancois,  S. Lehtola,  D. S. Levine,  Yi-Pei Li,  
 You-Sheng Lin,  Fenglai Liu,  E. Livshits,  A. Luenser,  P. Manohar,  
 E. Mansoor,  S. F. Manzer,  Shan-Ping Mao,  Yuezhi Mao,  N. Mardirossian,  
 A. V. Marenich,  T. Markovich,  L. A. Martinez-Martinez,  S. A. Maurer,  
 N. J. Mayhall,  S. C. McKenzie,  J.-M. Mewes,  A. F. Morrison,  
 J. W. Mullinax,  K. Nanda,  T. S. Nguyen-Beck,  R. Olivares-Amaya,  
 J. A. Parkhill,  T. M. Perrine,  F. Plasser,  P. Pokhilko,  S. Prager,  
 A. Prociuk,  E. Ramos,  D. R. Rehn,  F. Rob,  M. Schneider,  N. Sergueev,  
 S. M. Sharada,  S. Sharma,  D. W. Small,  T. Stauch,  T. Stein,  
 Yu-Chuan Su,  A. J. W. Thom,  A. Tkatchenko,  T. Tsuchimochi,  N. M. Tubman,  
 L. Vogt,  M. L. Vidal,  O. Vydrov,  M. A. Watson,  J. Wenzel,  
 M. de Wergifosse,  T. A. Wesolowski,  A. White,  J. Witte,  A. Yamada,  
 Jun Yang,  K. Yao,  S. Yeganeh,  S. R. Yost,  Zhi-Qiang You,  A. Zech,  
 Igor Ying Zhang,  Xing Zhang,  Yan Zhao,  Ying Zhu,  B. R. Brooks,  
 G. K. L. Chan,  C. J. Cramer,  M. S. Gordon,  W. J. Hehre,  A. Klamt,  
 M. W. Schmidt,  C. D. Sherrill,  D. G. Truhlar,  A. Aspuru-Guzik,  R. Baer,  
 A. T. Bell,  N. A. Besley,  Jeng-Da Chai,  A. E. DePrince, III,  
 R. A. DiStasio Jr.,  A. Dreuw,  B. D. Dunietz,  T. R. Furlani,  
 Chao-Ping Hsu,  Yousung Jung,  Jing Kong,  D. S. Lambrecht,  WanZhen Liang,  
 C. Ochsenfeld,  V. A. Rassolov,  L. V. Slipchenko,  J. E. Subotnik,  
 T. Van Voorhis,  J. M. Herbert,  A. I. Krylov,  P. M. W. Gill,  M. Head-Gordon

 Contributors to earlier versions of Q-Chem not listed above: 
 R. D. Adamson,  B. Austin,  J. Baker,  G. J. O. Beran,  K. Brandhorst,  
 S. T. Brown,  E. F. C. Byrd,  A. K. Chakraborty,  C.-L. Cheng,  
 Siu Hung Chien,  D. M. Chipman,  D. L. Crittenden,  H. Dachsel,  
 R. J. Doerksen,  A. D. Dutoi,  L. Fusti-Molnar,  W. A. Goddard III,  
 A. Golubeva-Zadorozhnaya,  S. R. Gwaltney,  G. Hawkins,  A. Heyden,  
 S. Hirata,  G. Kedziora,  F. J. Keil,  C. Kelley,  Jihan Kim,  R. A. King,  
 R. Z. Khaliullin,  P. P. Korambath,  W. Kurlancheek,  A. M. Lee,  M. S. Lee,  
 S. V. Levchenko,  Ching Yeh Lin,  D. Liotard,  R. C. Lochan,  I. Lotan,  
 P. E. Maslen,  N. Nair,  D. P. O'Neill,  D. Neuhauser,  E. Neuscamman,  
 C. M. Oana,  R. Olson,  B. Peters,  R. Peverati,  P. A. Pieniazek,  
 Y. M. Rhee,  J. Ritchie,  M. A. Rohrdanz,  E. Rosta,  N. J. Russ,  
 H. F. Schaefer III,  N. E. Schultz,  N. Shenvi,  A. C. Simmonett,  A. Sodt,  
 D. Stuck,  K. S. Thanthiriwatte,  V. Vanovschi,  Tao Wang,  A. Warshel,  
 C. F. Williams,  Q. Wu,  X. Xu,  W. Zhang

 Please cite Q-Chem as follows:
 Y. Shao et al., Mol. Phys. 113, 184-215 (2015)
 DOI: 10.1080/00268976.2014.952696

 Q-Chem 5.1.1 for Intel X86 EM64T Linux

 Parts of Q-Chem use Armadillo 8.300.2 (Tropical Shenanigans).
 http://arma.sourceforge.net/

 Q-Chem begins on Sat Oct  3 03:42:05 2020  

Host: n0080.mhg0
0

     Scratch files written to /local/scratch/users/yhljason/HCCCl_B2PLYP_aug-cc-pcVTZ.inp20201003025000//
The previous job contains 0 fragments, simply inherited here
Input Ideriv = 0
Curr. Ideriv = -1
Max.  Ideriv = 0
Analytic post-HF gradients are not available with non-HF exchange
Input Ideriv = 0
Curr. Ideriv = 0
Max.  Ideriv = 0

Checking the input file for inconsistencies... 	...done.

--------------------------------------------------------------
User input:
--------------------------------------------------------------
$molecule
read
$end

$rem

jobtype sp
method B2PLYP
xc_grid 000099000590
basis aug-cc-pcVTZ
max_scf_cycles 200
thresh 14
scf_convergence 8
mem_total 128000
cc_memory 96000
cc_backend xm
mem_static 1500
symmetry false
sym_ignore true
scf_guess read
unrestricted false
scf_algorithm gdm
n_frozen_core 0
$end

$multipole_field
XX -0.0001
$end


--------------------------------------------------------------
 ----------------------------------------------------------------
             Standard Nuclear Orientation (Angstroms)
    I     Atom           X                Y                Z
 ----------------------------------------------------------------
    1      C       0.0000000000     0.0000000000    -1.8149000000
    2      C       0.0000000000     0.0000000000    -0.6116000000
    3      Cl      0.0000000000     0.0000000000     1.0252000000
    4      H       0.0000000000     0.0000000000    -2.8699000000
 ----------------------------------------------------------------
 Nuclear Repulsion Energy =    74.5384189744 hartrees
 There are       15 alpha and       15 beta electrons
 Requested basis set is aug-cc-pCVTZ
 There are 70 shells and 216 basis functions

 Total QAlloc Memory Limit 128000 MB
 Mega-Array Size      1467 MB
 MEM_STATIC part      1500 MB

                       Distance Matrix (Angstroms)
             C (  1)   C (  2)   Cl(  3)
   C (  2)  1.203300
   Cl(  3)  2.840100  1.636800
   H (  4)  1.055000  2.258300  3.895100
 
 Applying Cartesian multipole field
    Component          Value
    ---------          -----
     (2,0,0)       -1.00000E-04
 A cutoff of  1.0D-14 yielded   2407 shell pairs
 There are     22997 function pairs (     31435 Cartesian)
 
 -------------------------------------------------------
 OpenMP Integral Computing Module                       
 Release: version 1.0, May 2013, Q-Chem Inc. Pittsburgh 
 -------------------------------------------------------
 Integral Job Info:
 Integral job number is                      11
 Integral operator is                         1
 short-range coefficients                     0
 long-range coefficients              100000000
 Omega coefficients                           0
 if combine SR and LR in K                    0
 Integral screening is                        0
 Integral computing path is                   2
 max size of driver memory is            800000
 size of driver memory is                776718
 size of scratch memory is             29531563
 max col of scratch BK array              10000
 max len of scratch array in speh3          662
 max len of scratch index in speh4           32
 max int batch size is                      520
 min int batch size is                       52
 fixed nKL is                                31
 max L of basis functions is                  3
 order of int derivative is                   0
 number of shells is                         70
 number of basis is                         252
 number of cartesian basis is               252
 number of contracted shell pairs          2407
 number of primitive shell pairs           9338
 maxK2 (contraction) of shell pair          169
 max number of K2 of shell pair               1
 max number of CS2 of shell pair            331
 max number of PS2 of shell pair           1014
 mem total for path MDJ                  618648
 -------------------------------------------------------
 Smallest overlap matrix eigenvalue = 1.37E-05
 Guess MOs from SCF MO coefficient file

 -----------------------------------------------------------------------
  General SCF calculation program by
  Eric Jon Sundstrom, Paul Horn, Yuezhi Mao, Dmitri Zuev, Alec White,
  David Stuck, Shaama M.S., Shane Yost, Joonho Lee, David Small,
  Daniel Levine, Susi Lehtola, Hugh Burton, Evgeny Epifanovsky
 -----------------------------------------------------------------------
 Exchange:     0.5300 Hartree-Fock + 0.4700 B88
 Correlation:  0.7300 LYP
 Using Euler-Maclaurin-Lebedev (99,590) quadrature formula
 using 8 threads for integral computing
 -------------------------------------------------------
 OpenMP Integral computing Module                
 Release: version 2.0, May 2017, Q-Chem Inc. Pleasanton 
 -------------------------------------------------------
 -------------------------------------------------------
 OpenMP BLAS3 based DFT computing Module                
 Release: version 1.0, May 2013, Q-Chem Inc. Pittsburgh 
 -------------------------------------------------------
 A restricted SCF calculation will be
 performed using GDM
 SCF converges when RMS gradient is below 1.0e-08
 ---------------------------------------
  Cycle       Energy        RMS Gradient
 ---------------------------------------
    1    -536.6151510125      5.79e-04   Normal BFGS step
    2    -536.6151532384      1.37e-04   Normal BFGS step
    3    -536.6151534235      6.89e-05   Normal BFGS step
    4    -536.6151534446      4.26e-05   Normal BFGS step
    5    -536.6151534576      1.24e-05   Normal BFGS step
    6    -536.6151534588      5.60e-06   Normal BFGS step
    7    -536.6151534590      1.31e-06   Normal BFGS step
    8    -536.6151534591      3.21e-07   Normal BFGS step
    9    -536.6151534591      1.61e-07   Normal BFGS step
   10    -536.6151534591      4.80e-08   Normal BFGS step
   11    -536.6151534591      8.67e-09  Convergence criterion met
 ---------------------------------------
 SCF time:   CPU 853.59s  wall 107.00s 
 SCF   energy in the final basis set =     -536.6151534591
 Total energy in the final basis set =     -536.6151534591
 
 Components of the MP2 correlation energy:
        aaaa  correlation energy =        -0.0362621736 au
        abab  correlation energy =        -0.2191906009 au
        bbbb  correlation energy =        -0.0362621736 au
        non-Brillouin singles    =        -0.0000000000 au

 Total  MP2   correlation energy =                    -0.29171495 au
        MP2         total energy =                  -536.90686841 au
 
 --------------------------------------------------------------
 
                    Orbital Energies (a.u.)
 --------------------------------------------------------------
 
 Alpha MOs
 -- Occupied --
******* -10.680 -10.634  -9.967  -7.607  -7.600  -7.600  -1.032
 -0.868  -0.642  -0.579  -0.466  -0.466  -0.331  -0.330
 -- Virtual --
  0.013   0.032   0.053   0.054   0.058   0.084   0.086   0.099
  0.100   0.100   0.110   0.135   0.148   0.150   0.169   0.211
  0.212   0.225   0.236   0.277   0.278   0.289   0.289   0.327
  0.335   0.336   0.347   0.413   0.414   0.415   0.430   0.430
  0.443   0.444   0.492   0.524   0.534   0.535   0.603   0.720
  0.720   0.729   0.729   0.745   0.770   0.770   0.772   0.806
  0.807   0.837   0.837   0.857   0.916   0.916   0.939   0.940
  0.940   0.953   0.953   1.001   1.030   1.030   1.034   1.050
  1.050   1.116   1.116   1.217   1.259   1.259   1.282   1.282
  1.299   1.375   1.375   1.467   1.468   1.537   1.568   1.568
  1.602   1.614   1.614   1.776   1.776   1.794   1.901   1.901
  1.957   1.985   2.062   2.062   2.189   2.291   2.291   2.332
  2.332   2.436   2.450   2.450   2.754   2.754   2.767   2.834
  2.834   2.835   2.835   2.943   3.015   3.015   3.049   3.049
  3.136   3.172   3.172   3.246   3.246   3.249   3.307   3.307
  3.308   3.308   3.486   3.486   3.513   3.513   3.525   3.525
  3.543   3.738   3.892   3.951   3.951   3.959   3.959   4.051
  4.336   4.336   4.531   4.631   4.631   4.683   5.060   5.060
  5.309   5.548   6.110   6.110   6.820   6.966   9.970   9.970
 10.078  10.078  10.422  12.435  12.435  12.893  15.240  15.240
 15.992  15.992  16.231  16.549  17.580  17.865  18.431  36.174
 36.174  36.176  36.176  36.182  36.183  36.197  40.828  40.828
 40.883  40.883  40.905  40.905  40.994  41.100  41.100  41.714
 45.675  45.675  45.736  45.736  45.902  54.317  54.317  54.854
 80.301  80.301  80.884  80.884  81.190  82.010  85.048  87.567
103.853
 --------------------------------------------------------------
 
          Ground-State Mulliken Net Atomic Charges

     Atom                 Charge (a.u.)
  ----------------------------------------
      1 C                    -0.942655
      2 C                     0.355592
      3 Cl                    0.002268
      4 H                     0.584795
  ----------------------------------------
  Sum of atomic charges =     0.000000

 -----------------------------------------------------------------
                    Cartesian Multipole Moments
 -----------------------------------------------------------------
    Charge (ESU x 10^10)
                 0.0000
    Dipole Moment (Debye)
         X       0.0000      Y      -0.0000      Z      -0.4631
       Tot       0.4631
    Quadrupole Moments (Debye-Ang)
        XX     -25.0923     XY       0.0000     YY     -25.1045
        XZ       0.0000     YZ       0.0000     ZZ     -17.9728
    Octopole Moments (Debye-Ang^2)
       XXX       0.0000    XXY      -0.0000    XYY       0.0000
       YYY      -0.0000    XXZ       3.9044    XYZ      -0.0000
       YYZ       3.9093    XZZ       0.0000    YZZ      -0.0000
       ZZZ      -7.8519
    Hexadecapole Moments (Debye-Ang^3)
      XXXX     -29.2804   XXXY      -0.0000   XXYY      -9.7686
      XYYY      -0.0000   YYYY     -29.3312   XXXZ       0.0000
      XXYZ       0.0000   XYYZ      -0.0000   YYYZ       0.0000
      XXZZ     -50.7241   XYZZ       0.0000   YYZZ     -50.7568
      XZZZ       0.0000   YZZZ       0.0000   ZZZZ    -179.0426
 -----------------------------------------------------------------
Archival summary:
1\1\n0080.mhg0\SP\ProcedureUnspecified\BasisUnspecified\l121\yhljason\SatOct303:45:192020SatOct303:45:192020\0\\#,ProcedureUnspecified,BasisUnspecified,\\0,1\Cl\C,1,1.6368\C,2,1.2033,1,180\H,3,1.055,2,180,1,0,0\\\@

 Total job time:  194.12s(wall), 1528.65s(cpu) 
 Sat Oct  3 03:45:19 2020

        *************************************************************
        *                                                           *
        *  Thank you very much for using Q-Chem.  Have a nice day.  *
        *                                                           *
        *************************************************************


 
User input: 5 of 8 
 
Q-Chem Developer Version!
                  Welcome to Q-Chem
     A Quantum Leap Into The Future Of Chemistry


 Q-Chem 5.1, Q-Chem, Inc., Pleasanton, CA (2018)

 Yihan Shao,  Zhengting Gan,  E. Epifanovsky,  A. T. B. Gilbert,  M. Wormit,  
 J. Kussmann,  A. W. Lange,  A. Behn,  Jia Deng,  Xintian Feng,  D. Ghosh,  
 M. Goldey,  P. R. Horn,  L. D. Jacobson,  I. Kaliman,  T. Kus,  A. Landau,  
 Jie Liu,  E. I. Proynov,  R. M. Richard,  R. P. Steele,  E. J. Sundstrom,  
 H. L. Woodcock III,  P. M. Zimmerman,  D. Zuev,  B. Albrecht,  E. Alguire,  
 S. A. Baeppler,  D. Barton,  Z. Benda,  Y. A. Bernard,  E. J. Berquist,  
 K. B. Bravaya,  H. Burton,  D. Casanova,  Chun-Min Chang,  Yunqing Chen,  
 A. Chien,  K. D. Closser,  M. P. Coons,  S. Coriani,  S. Dasgupta,  
 A. L. Dempwolff,  M. Diedenhofen,  Hainam Do,  R. G. Edgar,  Po-Tung Fang,  
 S. Faraji,  S. Fatehi,  Qingguo Feng,  K. D. Fenk,  J. Fosso-Tande,  
 Qinghui Ge,  A. Ghysels,  G. Gidofalvi,  J. Gomes,  J. Gonthier,  A. Gunina,  
 D. Hait,  M. W. D. Hanson-Heine,  P. H. P. Harbach,  A. W. Hauser,  
 J. E. Herr,  E. G. Hohenstein,  Z. C. Holden,  Kerwin Hui,  B. C. Huynh,  
 T.-C. Jagau,  Hyunjun Ji,  B. Kaduk,  K. Khistyaev,  Jaehoon Kim,  
 P. Klunzinger,  K. Koh,  D. Kosenkov,  L. Koulias,  T. Kowalczyk,  
 C. M. Krauter,  A. Kunitsa,  Ka Un Lao,  A. Laurent,  K. V. Lawler,  
 Joonho Lee,  D. Lefrancois,  S. Lehtola,  D. S. Levine,  Yi-Pei Li,  
 You-Sheng Lin,  Fenglai Liu,  E. Livshits,  A. Luenser,  P. Manohar,  
 E. Mansoor,  S. F. Manzer,  Shan-Ping Mao,  Yuezhi Mao,  N. Mardirossian,  
 A. V. Marenich,  T. Markovich,  L. A. Martinez-Martinez,  S. A. Maurer,  
 N. J. Mayhall,  S. C. McKenzie,  J.-M. Mewes,  A. F. Morrison,  
 J. W. Mullinax,  K. Nanda,  T. S. Nguyen-Beck,  R. Olivares-Amaya,  
 J. A. Parkhill,  T. M. Perrine,  F. Plasser,  P. Pokhilko,  S. Prager,  
 A. Prociuk,  E. Ramos,  D. R. Rehn,  F. Rob,  M. Schneider,  N. Sergueev,  
 S. M. Sharada,  S. Sharma,  D. W. Small,  T. Stauch,  T. Stein,  
 Yu-Chuan Su,  A. J. W. Thom,  A. Tkatchenko,  T. Tsuchimochi,  N. M. Tubman,  
 L. Vogt,  M. L. Vidal,  O. Vydrov,  M. A. Watson,  J. Wenzel,  
 M. de Wergifosse,  T. A. Wesolowski,  A. White,  J. Witte,  A. Yamada,  
 Jun Yang,  K. Yao,  S. Yeganeh,  S. R. Yost,  Zhi-Qiang You,  A. Zech,  
 Igor Ying Zhang,  Xing Zhang,  Yan Zhao,  Ying Zhu,  B. R. Brooks,  
 G. K. L. Chan,  C. J. Cramer,  M. S. Gordon,  W. J. Hehre,  A. Klamt,  
 M. W. Schmidt,  C. D. Sherrill,  D. G. Truhlar,  A. Aspuru-Guzik,  R. Baer,  
 A. T. Bell,  N. A. Besley,  Jeng-Da Chai,  A. E. DePrince, III,  
 R. A. DiStasio Jr.,  A. Dreuw,  B. D. Dunietz,  T. R. Furlani,  
 Chao-Ping Hsu,  Yousung Jung,  Jing Kong,  D. S. Lambrecht,  WanZhen Liang,  
 C. Ochsenfeld,  V. A. Rassolov,  L. V. Slipchenko,  J. E. Subotnik,  
 T. Van Voorhis,  J. M. Herbert,  A. I. Krylov,  P. M. W. Gill,  M. Head-Gordon

 Contributors to earlier versions of Q-Chem not listed above: 
 R. D. Adamson,  B. Austin,  J. Baker,  G. J. O. Beran,  K. Brandhorst,  
 S. T. Brown,  E. F. C. Byrd,  A. K. Chakraborty,  C.-L. Cheng,  
 Siu Hung Chien,  D. M. Chipman,  D. L. Crittenden,  H. Dachsel,  
 R. J. Doerksen,  A. D. Dutoi,  L. Fusti-Molnar,  W. A. Goddard III,  
 A. Golubeva-Zadorozhnaya,  S. R. Gwaltney,  G. Hawkins,  A. Heyden,  
 S. Hirata,  G. Kedziora,  F. J. Keil,  C. Kelley,  Jihan Kim,  R. A. King,  
 R. Z. Khaliullin,  P. P. Korambath,  W. Kurlancheek,  A. M. Lee,  M. S. Lee,  
 S. V. Levchenko,  Ching Yeh Lin,  D. Liotard,  R. C. Lochan,  I. Lotan,  
 P. E. Maslen,  N. Nair,  D. P. O'Neill,  D. Neuhauser,  E. Neuscamman,  
 C. M. Oana,  R. Olson,  B. Peters,  R. Peverati,  P. A. Pieniazek,  
 Y. M. Rhee,  J. Ritchie,  M. A. Rohrdanz,  E. Rosta,  N. J. Russ,  
 H. F. Schaefer III,  N. E. Schultz,  N. Shenvi,  A. C. Simmonett,  A. Sodt,  
 D. Stuck,  K. S. Thanthiriwatte,  V. Vanovschi,  Tao Wang,  A. Warshel,  
 C. F. Williams,  Q. Wu,  X. Xu,  W. Zhang

 Please cite Q-Chem as follows:
 Y. Shao et al., Mol. Phys. 113, 184-215 (2015)
 DOI: 10.1080/00268976.2014.952696

 Q-Chem 5.1.1 for Intel X86 EM64T Linux

 Parts of Q-Chem use Armadillo 8.300.2 (Tropical Shenanigans).
 http://arma.sourceforge.net/

 Q-Chem begins on Sat Oct  3 03:45:19 2020  

Host: n0080.mhg0
0

     Scratch files written to /local/scratch/users/yhljason/HCCCl_B2PLYP_aug-cc-pcVTZ.inp20201003025000//
The previous job contains 0 fragments, simply inherited here
Input Ideriv = 0
Curr. Ideriv = -1
Max.  Ideriv = 0
Analytic post-HF gradients are not available with non-HF exchange
Input Ideriv = 0
Curr. Ideriv = 0
Max.  Ideriv = 0

Checking the input file for inconsistencies... 	...done.

--------------------------------------------------------------
User input:
--------------------------------------------------------------
$molecule
read
$end

$rem

jobtype sp
method B2PLYP
xc_grid 000099000590
basis aug-cc-pcVTZ
max_scf_cycles 200
thresh 14
scf_convergence 8
mem_total 128000
cc_memory 96000
cc_backend xm
mem_static 1500
symmetry false
sym_ignore true
scf_guess read
unrestricted false
scf_algorithm gdm
n_frozen_core 0
$end

$multipole_field
YY 0.0001
$end


--------------------------------------------------------------
 ----------------------------------------------------------------
             Standard Nuclear Orientation (Angstroms)
    I     Atom           X                Y                Z
 ----------------------------------------------------------------
    1      C       0.0000000000     0.0000000000    -1.8149000000
    2      C       0.0000000000     0.0000000000    -0.6116000000
    3      Cl      0.0000000000     0.0000000000     1.0252000000
    4      H       0.0000000000     0.0000000000    -2.8699000000
 ----------------------------------------------------------------
 Nuclear Repulsion Energy =    74.5384189744 hartrees
 There are       15 alpha and       15 beta electrons
 Requested basis set is aug-cc-pCVTZ
 There are 70 shells and 216 basis functions

 Total QAlloc Memory Limit 128000 MB
 Mega-Array Size      1467 MB
 MEM_STATIC part      1500 MB

                       Distance Matrix (Angstroms)
             C (  1)   C (  2)   Cl(  3)
   C (  2)  1.203300
   Cl(  3)  2.840100  1.636800
   H (  4)  1.055000  2.258300  3.895100
 
 Applying Cartesian multipole field
    Component          Value
    ---------          -----
     (0,2,0)        1.00000E-04
 A cutoff of  1.0D-14 yielded   2407 shell pairs
 There are     22997 function pairs (     31435 Cartesian)
 
 -------------------------------------------------------
 OpenMP Integral Computing Module                       
 Release: version 1.0, May 2013, Q-Chem Inc. Pittsburgh 
 -------------------------------------------------------
 Integral Job Info:
 Integral job number is                      11
 Integral operator is                         1
 short-range coefficients                     0
 long-range coefficients              100000000
 Omega coefficients                           0
 if combine SR and LR in K                    0
 Integral screening is                        0
 Integral computing path is                   2
 max size of driver memory is            800000
 size of driver memory is                776718
 size of scratch memory is             29531563
 max col of scratch BK array              10000
 max len of scratch array in speh3          662
 max len of scratch index in speh4           32
 max int batch size is                      520
 min int batch size is                       52
 fixed nKL is                                31
 max L of basis functions is                  3
 order of int derivative is                   0
 number of shells is                         70
 number of basis is                         252
 number of cartesian basis is               252
 number of contracted shell pairs          2407
 number of primitive shell pairs           9338
 maxK2 (contraction) of shell pair          169
 max number of K2 of shell pair               1
 max number of CS2 of shell pair            331
 max number of PS2 of shell pair           1014
 mem total for path MDJ                  618648
 -------------------------------------------------------
 Smallest overlap matrix eigenvalue = 1.37E-05
 Guess MOs from SCF MO coefficient file

 -----------------------------------------------------------------------
  General SCF calculation program by
  Eric Jon Sundstrom, Paul Horn, Yuezhi Mao, Dmitri Zuev, Alec White,
  David Stuck, Shaama M.S., Shane Yost, Joonho Lee, David Small,
  Daniel Levine, Susi Lehtola, Hugh Burton, Evgeny Epifanovsky
 -----------------------------------------------------------------------
 Exchange:     0.5300 Hartree-Fock + 0.4700 B88
 Correlation:  0.7300 LYP
 Using Euler-Maclaurin-Lebedev (99,590) quadrature formula
 using 8 threads for integral computing
 -------------------------------------------------------
 OpenMP Integral computing Module                
 Release: version 2.0, May 2017, Q-Chem Inc. Pleasanton 
 -------------------------------------------------------
 -------------------------------------------------------
 OpenMP BLAS3 based DFT computing Module                
 Release: version 1.0, May 2013, Q-Chem Inc. Pittsburgh 
 -------------------------------------------------------
 A restricted SCF calculation will be
 performed using GDM
 SCF converges when RMS gradient is below 1.0e-08
 ---------------------------------------
  Cycle       Energy        RMS Gradient
 ---------------------------------------
    1    -536.6188854649      3.73e-04   Normal BFGS step
    2    -536.6188868069      1.03e-04   Normal BFGS step
    3    -536.6188869705      5.08e-05   Normal BFGS step
    4    -536.6188869780      4.12e-05   Normal BFGS step
    5    -536.6188869909      7.37e-06   Normal BFGS step
    6    -536.6188869912      4.60e-06   Normal BFGS step
    7    -536.6188869914      3.66e-07   Normal BFGS step
    8    -536.6188869914      1.44e-07   Normal BFGS step
    9    -536.6188869914      1.67e-08   Normal BFGS step
   10    -536.6188869914      6.36e-09  Convergence criterion met
 ---------------------------------------
 SCF time:   CPU 785.38s  wall 99.00s 
 SCF   energy in the final basis set =     -536.6188869914
 Total energy in the final basis set =     -536.6188869914
 
 Components of the MP2 correlation energy:
        aaaa  correlation energy =        -0.0362613800 au
        abab  correlation energy =        -0.2191786884 au
        bbbb  correlation energy =        -0.0362613800 au
        non-Brillouin singles    =        -0.0000000000 au

 Total  MP2   correlation energy =                    -0.29170145 au
        MP2         total energy =                  -536.91058844 au
 
 --------------------------------------------------------------
 
                    Orbital Energies (a.u.)
 --------------------------------------------------------------
 
 Alpha MOs
 -- Occupied --
******* -10.680 -10.634  -9.967  -7.607  -7.601  -7.601  -1.032
 -0.868  -0.642  -0.580  -0.467  -0.467  -0.331  -0.331
 -- Virtual --
  0.009   0.030   0.050   0.052   0.056   0.081   0.082   0.096
  0.097   0.098   0.107   0.133   0.145   0.147   0.166   0.210
  0.210   0.223   0.234   0.275   0.276   0.287   0.287   0.324
  0.333   0.334   0.346   0.412   0.413   0.413   0.428   0.428
  0.441   0.442   0.491   0.522   0.533   0.534   0.601   0.719
  0.719   0.727   0.728   0.744   0.768   0.769   0.770   0.805
  0.805   0.836   0.836   0.855   0.916   0.916   0.938   0.939
  0.939   0.952   0.952   1.000   1.029   1.029   1.032   1.049
  1.049   1.115   1.116   1.217   1.258   1.258   1.281   1.281
  1.298   1.374   1.375   1.466   1.467   1.536   1.567   1.567
  1.601   1.614   1.614   1.775   1.775   1.793   1.901   1.901
  1.957   1.984   2.061   2.061   2.189   2.290   2.290   2.331
  2.331   2.435   2.450   2.450   2.753   2.753   2.766   2.833
  2.833   2.835   2.835   2.942   3.015   3.015   3.048   3.048
  3.135   3.171   3.171   3.245   3.245   3.249   3.306   3.307
  3.308   3.308   3.485   3.485   3.512   3.512   3.524   3.524
  3.542   3.737   3.891   3.951   3.951   3.958   3.958   4.050
  4.336   4.336   4.530   4.630   4.631   4.682   5.060   5.060
  5.309   5.548   6.109   6.109   6.820   6.966   9.969   9.969
 10.077  10.077  10.421  12.434  12.434  12.892  15.239  15.239
 15.991  15.991  16.231  16.548  17.580  17.864  18.430  36.173
 36.173  36.176  36.176  36.182  36.182  36.196  40.827  40.827
 40.883  40.883  40.905  40.905  40.994  41.100  41.100  41.714
 45.675  45.675  45.735  45.735  45.901  54.316  54.316  54.853
 80.301  80.301  80.883  80.883  81.189  82.009  85.048  87.566
103.852
 --------------------------------------------------------------
 
          Ground-State Mulliken Net Atomic Charges

     Atom                 Charge (a.u.)
  ----------------------------------------
      1 C                    -0.945043
      2 C                     0.357421
      3 Cl                    0.002525
      4 H                     0.585097
  ----------------------------------------
  Sum of atomic charges =     0.000000

 -----------------------------------------------------------------
                    Cartesian Multipole Moments
 -----------------------------------------------------------------
    Charge (ESU x 10^10)
                 0.0000
    Dipole Moment (Debye)
         X      -0.0000      Y       0.0000      Z      -0.4630
       Tot       0.4630
    Quadrupole Moments (Debye-Ang)
        XX     -25.1128     XY       0.0000     YY     -25.1251
        XZ       0.0000     YZ       0.0000     ZZ     -17.9751
    Octopole Moments (Debye-Ang^2)
       XXX      -0.0000    XXY       0.0000    XYY      -0.0000
       YYY       0.0000    XXZ       3.9142    XYZ      -0.0000
       YYZ       3.9192    XZZ      -0.0000    YZZ       0.0000
       ZZZ      -7.8569
    Hexadecapole Moments (Debye-Ang^3)
      XXXX     -29.3737   XXXY       0.0000   XXYY      -9.7998
      XYYY       0.0000   YYYY     -29.4253   XXXZ       0.0000
      XXYZ       0.0000   XYYZ       0.0000   YYYZ       0.0000
      XXZZ     -50.7843   XYZZ       0.0000   YYZZ     -50.8174
      XZZZ       0.0000   YZZZ      -0.0000   ZZZZ    -179.0720
 -----------------------------------------------------------------
Archival summary:
1\1\n0080.mhg0\SP\ProcedureUnspecified\BasisUnspecified\l121\yhljason\SatOct303:48:252020SatOct303:48:252020\0\\#,ProcedureUnspecified,BasisUnspecified,\\0,1\Cl\C,1,1.6368\C,2,1.2033,1,180\H,3,1.055,2,180,1,0,0\\\@

 Total job time:  185.93s(wall), 1462.65s(cpu) 
 Sat Oct  3 03:48:25 2020

        *************************************************************
        *                                                           *
        *  Thank you very much for using Q-Chem.  Have a nice day.  *
        *                                                           *
        *************************************************************


 
User input: 6 of 8 
 
Q-Chem Developer Version!
                  Welcome to Q-Chem
     A Quantum Leap Into The Future Of Chemistry


 Q-Chem 5.1, Q-Chem, Inc., Pleasanton, CA (2018)

 Yihan Shao,  Zhengting Gan,  E. Epifanovsky,  A. T. B. Gilbert,  M. Wormit,  
 J. Kussmann,  A. W. Lange,  A. Behn,  Jia Deng,  Xintian Feng,  D. Ghosh,  
 M. Goldey,  P. R. Horn,  L. D. Jacobson,  I. Kaliman,  T. Kus,  A. Landau,  
 Jie Liu,  E. I. Proynov,  R. M. Richard,  R. P. Steele,  E. J. Sundstrom,  
 H. L. Woodcock III,  P. M. Zimmerman,  D. Zuev,  B. Albrecht,  E. Alguire,  
 S. A. Baeppler,  D. Barton,  Z. Benda,  Y. A. Bernard,  E. J. Berquist,  
 K. B. Bravaya,  H. Burton,  D. Casanova,  Chun-Min Chang,  Yunqing Chen,  
 A. Chien,  K. D. Closser,  M. P. Coons,  S. Coriani,  S. Dasgupta,  
 A. L. Dempwolff,  M. Diedenhofen,  Hainam Do,  R. G. Edgar,  Po-Tung Fang,  
 S. Faraji,  S. Fatehi,  Qingguo Feng,  K. D. Fenk,  J. Fosso-Tande,  
 Qinghui Ge,  A. Ghysels,  G. Gidofalvi,  J. Gomes,  J. Gonthier,  A. Gunina,  
 D. Hait,  M. W. D. Hanson-Heine,  P. H. P. Harbach,  A. W. Hauser,  
 J. E. Herr,  E. G. Hohenstein,  Z. C. Holden,  Kerwin Hui,  B. C. Huynh,  
 T.-C. Jagau,  Hyunjun Ji,  B. Kaduk,  K. Khistyaev,  Jaehoon Kim,  
 P. Klunzinger,  K. Koh,  D. Kosenkov,  L. Koulias,  T. Kowalczyk,  
 C. M. Krauter,  A. Kunitsa,  Ka Un Lao,  A. Laurent,  K. V. Lawler,  
 Joonho Lee,  D. Lefrancois,  S. Lehtola,  D. S. Levine,  Yi-Pei Li,  
 You-Sheng Lin,  Fenglai Liu,  E. Livshits,  A. Luenser,  P. Manohar,  
 E. Mansoor,  S. F. Manzer,  Shan-Ping Mao,  Yuezhi Mao,  N. Mardirossian,  
 A. V. Marenich,  T. Markovich,  L. A. Martinez-Martinez,  S. A. Maurer,  
 N. J. Mayhall,  S. C. McKenzie,  J.-M. Mewes,  A. F. Morrison,  
 J. W. Mullinax,  K. Nanda,  T. S. Nguyen-Beck,  R. Olivares-Amaya,  
 J. A. Parkhill,  T. M. Perrine,  F. Plasser,  P. Pokhilko,  S. Prager,  
 A. Prociuk,  E. Ramos,  D. R. Rehn,  F. Rob,  M. Schneider,  N. Sergueev,  
 S. M. Sharada,  S. Sharma,  D. W. Small,  T. Stauch,  T. Stein,  
 Yu-Chuan Su,  A. J. W. Thom,  A. Tkatchenko,  T. Tsuchimochi,  N. M. Tubman,  
 L. Vogt,  M. L. Vidal,  O. Vydrov,  M. A. Watson,  J. Wenzel,  
 M. de Wergifosse,  T. A. Wesolowski,  A. White,  J. Witte,  A. Yamada,  
 Jun Yang,  K. Yao,  S. Yeganeh,  S. R. Yost,  Zhi-Qiang You,  A. Zech,  
 Igor Ying Zhang,  Xing Zhang,  Yan Zhao,  Ying Zhu,  B. R. Brooks,  
 G. K. L. Chan,  C. J. Cramer,  M. S. Gordon,  W. J. Hehre,  A. Klamt,  
 M. W. Schmidt,  C. D. Sherrill,  D. G. Truhlar,  A. Aspuru-Guzik,  R. Baer,  
 A. T. Bell,  N. A. Besley,  Jeng-Da Chai,  A. E. DePrince, III,  
 R. A. DiStasio Jr.,  A. Dreuw,  B. D. Dunietz,  T. R. Furlani,  
 Chao-Ping Hsu,  Yousung Jung,  Jing Kong,  D. S. Lambrecht,  WanZhen Liang,  
 C. Ochsenfeld,  V. A. Rassolov,  L. V. Slipchenko,  J. E. Subotnik,  
 T. Van Voorhis,  J. M. Herbert,  A. I. Krylov,  P. M. W. Gill,  M. Head-Gordon

 Contributors to earlier versions of Q-Chem not listed above: 
 R. D. Adamson,  B. Austin,  J. Baker,  G. J. O. Beran,  K. Brandhorst,  
 S. T. Brown,  E. F. C. Byrd,  A. K. Chakraborty,  C.-L. Cheng,  
 Siu Hung Chien,  D. M. Chipman,  D. L. Crittenden,  H. Dachsel,  
 R. J. Doerksen,  A. D. Dutoi,  L. Fusti-Molnar,  W. A. Goddard III,  
 A. Golubeva-Zadorozhnaya,  S. R. Gwaltney,  G. Hawkins,  A. Heyden,  
 S. Hirata,  G. Kedziora,  F. J. Keil,  C. Kelley,  Jihan Kim,  R. A. King,  
 R. Z. Khaliullin,  P. P. Korambath,  W. Kurlancheek,  A. M. Lee,  M. S. Lee,  
 S. V. Levchenko,  Ching Yeh Lin,  D. Liotard,  R. C. Lochan,  I. Lotan,  
 P. E. Maslen,  N. Nair,  D. P. O'Neill,  D. Neuhauser,  E. Neuscamman,  
 C. M. Oana,  R. Olson,  B. Peters,  R. Peverati,  P. A. Pieniazek,  
 Y. M. Rhee,  J. Ritchie,  M. A. Rohrdanz,  E. Rosta,  N. J. Russ,  
 H. F. Schaefer III,  N. E. Schultz,  N. Shenvi,  A. C. Simmonett,  A. Sodt,  
 D. Stuck,  K. S. Thanthiriwatte,  V. Vanovschi,  Tao Wang,  A. Warshel,  
 C. F. Williams,  Q. Wu,  X. Xu,  W. Zhang

 Please cite Q-Chem as follows:
 Y. Shao et al., Mol. Phys. 113, 184-215 (2015)
 DOI: 10.1080/00268976.2014.952696

 Q-Chem 5.1.1 for Intel X86 EM64T Linux

 Parts of Q-Chem use Armadillo 8.300.2 (Tropical Shenanigans).
 http://arma.sourceforge.net/

 Q-Chem begins on Sat Oct  3 03:48:25 2020  

Host: n0080.mhg0
0

     Scratch files written to /local/scratch/users/yhljason/HCCCl_B2PLYP_aug-cc-pcVTZ.inp20201003025000//
The previous job contains 0 fragments, simply inherited here
Input Ideriv = 0
Curr. Ideriv = -1
Max.  Ideriv = 0
Analytic post-HF gradients are not available with non-HF exchange
Input Ideriv = 0
Curr. Ideriv = 0
Max.  Ideriv = 0

Checking the input file for inconsistencies... 	...done.

--------------------------------------------------------------
User input:
--------------------------------------------------------------
$molecule
read
$end

$rem

jobtype sp
[...]
 ---------------------------------------
 SCF time:   CPU 869.01s  wall 110.00s 
 SCF   energy in the final basis set =     -536.6183609857
 Total energy in the final basis set =     -536.6183609857
 
 Components of the MP2 correlation energy:
        aaaa  correlation energy =        -0.0362644060 au
        abab  correlation energy =        -0.2191986330 au
        bbbb  correlation energy =        -0.0362644060 au
        non-Brillouin singles    =        -0.0000000000 au

 Total  MP2   correlation energy =                    -0.29172745 au
        MP2         total energy =                  -536.91008843 au
 
 --------------------------------------------------------------
 
                    Orbital Energies (a.u.)
 --------------------------------------------------------------
 
 Alpha MOs
 -- Occupied --
******* -10.682 -10.635  -9.968  -7.608  -7.602  -7.602  -1.033
 -0.869  -0.644  -0.581  -0.468  -0.468  -0.332  -0.332
 -- Virtual --
  0.006   0.026   0.050   0.050   0.054   0.082   0.082   0.095
  0.096   0.096   0.104   0.131   0.144   0.144   0.164   0.210
  0.210   0.221   0.232   0.273   0.273   0.286   0.286   0.322
  0.333   0.333   0.342   0.411   0.411   0.411   0.427   0.427
  0.441   0.441   0.489   0.521   0.531   0.531   0.600   0.719
  0.719   0.727   0.727   0.743   0.767   0.767   0.769   0.804
  0.804   0.835   0.835   0.853   0.915   0.915   0.935   0.937
  0.937   0.951   0.951   0.999   1.028   1.028   1.031   1.048
  1.048   1.114   1.114   1.215   1.256   1.256   1.281   1.281
  1.297   1.373   1.373   1.465   1.465   1.535   1.566   1.566
  1.600   1.613   1.613   1.774   1.774   1.791   1.900   1.900
  1.955   1.983   2.060   2.060   2.187   2.289   2.289   2.330
  2.330   2.434   2.448   2.448   2.752   2.752   2.765   2.832
  2.832   2.834   2.834   2.942   3.014   3.014   3.047   3.047
  3.134   3.170   3.170   3.244   3.244   3.247   3.306   3.306
  3.307   3.307   3.484   3.484   3.511   3.511   3.523   3.523
  3.541   3.736   3.890   3.950   3.950   3.957   3.957   4.049
  4.335   4.335   4.529   4.628   4.628   4.681   5.058   5.058
  5.308   5.546   6.108   6.108   6.818   6.964   9.969   9.969
 10.077  10.077  10.421  12.433  12.433  12.892  15.238  15.238
 15.990  15.990  16.230  16.547  17.579  17.863  18.429  36.172
 36.172  36.175  36.175  36.181  36.181  36.196  40.826  40.826
 40.882  40.882  40.904  40.904  40.992  41.099  41.099  41.713
 45.674  45.674  45.734  45.734  45.901  54.315  54.315  54.853
 80.300  80.300  80.882  80.882  81.188  82.008  85.047  87.565
103.852
 --------------------------------------------------------------
 
          Ground-State Mulliken Net Atomic Charges

     Atom                 Charge (a.u.)
  ----------------------------------------
      1 C                    -0.946592
      2 C                     0.360237
      3 Cl                    0.002994
      4 H                     0.583361
  ----------------------------------------
  Sum of atomic charges =     0.000000

 -----------------------------------------------------------------
                    Cartesian Multipole Moments
 -----------------------------------------------------------------
    Charge (ESU x 10^10)
                 0.0000
    Dipole Moment (Debye)
         X       0.0000      Y      -0.0000      Z      -0.4375
       Tot       0.4375
    Quadrupole Moments (Debye-Ang)
        XX     -25.1098     XY       0.0000     YY     -25.1098
        XZ       0.0000     YZ       0.0000     ZZ     -18.1100
    Octopole Moments (Debye-Ang^2)
       XXX       0.0000    XXY      -0.0000    XYY       0.0000
       YYY      -0.0000    XXZ       3.9283    XYZ      -0.0000
       YYZ       3.9283    XZZ      -0.0000    YZZ      -0.0000
       ZZZ      -7.5210
    Hexadecapole Moments (Debye-Ang^3)
      XXXX     -29.3625   XXXY       0.0000   XXYY      -9.7875
      XYYY       0.0000   YYYY     -29.3625   XXXZ       0.0000
      XXYZ       0.0000   XYYZ       0.0000   YYYZ       0.0000
      XXZZ     -50.8601   XYZZ       0.0000   YYZZ     -50.8601
      XZZZ       0.0000   YZZZ       0.0000   ZZZZ    -180.4928
 -----------------------------------------------------------------
Archival summary:
1\1\n0080.mhg0\SP\ProcedureUnspecified\BasisUnspecified\l121\yhljason\SatOct303:54:582020SatOct303:54:582020\0\\#,ProcedureUnspecified,BasisUnspecified,\\0,1\Cl\C,1,1.6368\C,2,1.2033,1,180\H,3,1.055,2,180,1,0,0\\\@

 Total job time:  197.81s(wall), 1555.68s(cpu) 
 Sat Oct  3 03:54:58 2020

        *************************************************************
        *                                                           *
        *  Thank you very much for using Q-Chem.  Have a nice day.  *
        *                                                           *
        *************************************************************


 
User input: 8 of 8 
 
Q-Chem Developer Version!
                  Welcome to Q-Chem
     A Quantum Leap Into The Future Of Chemistry


 Q-Chem 5.1, Q-Chem, Inc., Pleasanton, CA (2018)

 Yihan Shao,  Zhengting Gan,  E. Epifanovsky,  A. T. B. Gilbert,  M. Wormit,  
 J. Kussmann,  A. W. Lange,  A. Behn,  Jia Deng,  Xintian Feng,  D. Ghosh,  
 M. Goldey,  P. R. Horn,  L. D. Jacobson,  I. Kaliman,  T. Kus,  A. Landau,  
 Jie Liu,  E. I. Proynov,  R. M. Richard,  R. P. Steele,  E. J. Sundstrom,  
 H. L. Woodcock III,  P. M. Zimmerman,  D. Zuev,  B. Albrecht,  E. Alguire,  
 S. A. Baeppler,  D. Barton,  Z. Benda,  Y. A. Bernard,  E. J. Berquist,  
 K. B. Bravaya,  H. Burton,  D. Casanova,  Chun-Min Chang,  Yunqing Chen,  
 A. Chien,  K. D. Closser,  M. P. Coons,  S. Coriani,  S. Dasgupta,  
 A. L. Dempwolff,  M. Diedenhofen,  Hainam Do,  R. G. Edgar,  Po-Tung Fang,  
 S. Faraji,  S. Fatehi,  Qingguo Feng,  K. D. Fenk,  J. Fosso-Tande,  
 Qinghui Ge,  A. Ghysels,  G. Gidofalvi,  J. Gomes,  J. Gonthier,  A. Gunina,  
 D. Hait,  M. W. D. Hanson-Heine,  P. H. P. Harbach,  A. W. Hauser,  
 J. E. Herr,  E. G. Hohenstein,  Z. C. Holden,  Kerwin Hui,  B. C. Huynh,  
 T.-C. Jagau,  Hyunjun Ji,  B. Kaduk,  K. Khistyaev,  Jaehoon Kim,  
 P. Klunzinger,  K. Koh,  D. Kosenkov,  L. Koulias,  T. Kowalczyk,  
 C. M. Krauter,  A. Kunitsa,  Ka Un Lao,  A. Laurent,  K. V. Lawler,  
 Joonho Lee,  D. Lefrancois,  S. Lehtola,  D. S. Levine,  Yi-Pei Li,  
 You-Sheng Lin,  Fenglai Liu,  E. Livshits,  A. Luenser,  P. Manohar,  
 E. Mansoor,  S. F. Manzer,  Shan-Ping Mao,  Yuezhi Mao,  N. Mardirossian,  
 A. V. Marenich,  T. Markovich,  L. A. Martinez-Martinez,  S. A. Maurer,  
 N. J. Mayhall,  S. C. McKenzie,  J.-M. Mewes,  A. F. Morrison,  
 J. W. Mullinax,  K. Nanda,  T. S. Nguyen-Beck,  R. Olivares-Amaya,  
 J. A. Parkhill,  T. M. Perrine,  F. Plasser,  P. Pokhilko,  S. Prager,  
 A. Prociuk,  E. Ramos,  D. R. Rehn,  F. Rob,  M. Schneider,  N. Sergueev,  
 S. M. Sharada,  S. Sharma,  D. W. Small,  T. Stauch,  T. Stein,  
 Yu-Chuan Su,  A. J. W. Thom,  A. Tkatchenko,  T. Tsuchimochi,  N. M. Tubman,  
 L. Vogt,  M. L. Vidal,  O. Vydrov,  M. A. Watson,  J. Wenzel,  
 M. de Wergifosse,  T. A. Wesolowski,  A. White,  J. Witte,  A. Yamada,  
 Jun Yang,  K. Yao,  S. Yeganeh,  S. R. Yost,  Zhi-Qiang You,  A. Zech,  
 Igor Ying Zhang,  Xing Zhang,  Yan Zhao,  Ying Zhu,  B. R. Brooks,  
 G. K. L. Chan,  C. J. Cramer,  M. S. Gordon,  W. J. Hehre,  A. Klamt,  
 M. W. Schmidt,  C. D. Sherrill,  D. G. Truhlar,  A. Aspuru-Guzik,  R. Baer,  
 A. T. Bell,  N. A. Besley,  Jeng-Da Chai,  A. E. DePrince, III,  
 R. A. DiStasio Jr.,  A. Dreuw,  B. D. Dunietz,  T. R. Furlani,  
 Chao-Ping Hsu,  Yousung Jung,  Jing Kong,  D. S. Lambrecht,  WanZhen Liang,  
 C. Ochsenfeld,  V. A. Rassolov,  L. V. Slipchenko,  J. E. Subotnik,  
 T. Van Voorhis,  J. M. Herbert,  A. I. Krylov,  P. M. W. Gill,  M. Head-Gordon

 Contributors to earlier versions of Q-Chem not listed above: 
 R. D. Adamson,  B. Austin,  J. Baker,  G. J. O. Beran,  K. Brandhorst,  
 S. T. Brown,  E. F. C. Byrd,  A. K. Chakraborty,  C.-L. Cheng,  
 Siu Hung Chien,  D. M. Chipman,  D. L. Crittenden,  H. Dachsel,  
 R. J. Doerksen,  A. D. Dutoi,  L. Fusti-Molnar,  W. A. Goddard III,  
 A. Golubeva-Zadorozhnaya,  S. R. Gwaltney,  G. Hawkins,  A. Heyden,  
 S. Hirata,  G. Kedziora,  F. J. Keil,  C. Kelley,  Jihan Kim,  R. A. King,  
 R. Z. Khaliullin,  P. P. Korambath,  W. Kurlancheek,  A. M. Lee,  M. S. Lee,  
 S. V. Levchenko,  Ching Yeh Lin,  D. Liotard,  R. C. Lochan,  I. Lotan,  
 P. E. Maslen,  N. Nair,  D. P. O'Neill,  D. Neuhauser,  E. Neuscamman,  
 C. M. Oana,  R. Olson,  B. Peters,  R. Peverati,  P. A. Pieniazek,  
 Y. M. Rhee,  J. Ritchie,  M. A. Rohrdanz,  E. Rosta,  N. J. Russ,  
 H. F. Schaefer III,  N. E. Schultz,  N. Shenvi,  A. C. Simmonett,  A. Sodt,  
 D. Stuck,  K. S. Thanthiriwatte,  V. Vanovschi,  Tao Wang,  A. Warshel,  
 C. F. Williams,  Q. Wu,  X. Xu,  W. Zhang

 Please cite Q-Chem as follows:
 Y. Shao et al., Mol. Phys. 113, 184-215 (2015)
 DOI: 10.1080/00268976.2014.952696

 Q-Chem 5.1.1 for Intel X86 EM64T Linux

 Parts of Q-Chem use Armadillo 8.300.2 (Tropical Shenanigans).
 http://arma.sourceforge.net/

 Q-Chem begins on Sat Oct  3 03:54:58 2020  

Host: n0080.mhg0
0

     Scratch files written to /local/scratch/users/yhljason/HCCCl_B2PLYP_aug-cc-pcVTZ.inp20201003025000//
The previous job contains 0 fragments, simply inherited here
Input Ideriv = 0
Curr. Ideriv = -1
Max.  Ideriv = 0
Analytic post-HF gradients are not available with non-HF exchange
Input Ideriv = 0
Curr. Ideriv = 0
Max.  Ideriv = 0

Checking the input file for inconsistencies... 	...done.

--------------------------------------------------------------
User input:
--------------------------------------------------------------
$molecule
read
$end

$rem

jobtype sp
method B2PLYP
xc_grid 000099000590
basis aug-cc-pcVTZ
max_scf_cycles 200
thresh 14
scf_convergence 8
mem_total 128000
cc_memory 96000
cc_backend xm
mem_static 1500
symmetry false
sym_ignore true
scf_guess read
unrestricted false
scf_algorithm gdm
n_frozen_core 0
$end

$multipole_field
ZZ -0.0001
$end

--------------------------------------------------------------
 ----------------------------------------------------------------
             Standard Nuclear Orientation (Angstroms)
    I     Atom           X                Y                Z
 ----------------------------------------------------------------
    1      C       0.0000000000     0.0000000000    -1.8149000000
    2      C       0.0000000000     0.0000000000    -0.6116000000
    3      Cl      0.0000000000     0.0000000000     1.0252000000
    4      H       0.0000000000     0.0000000000    -2.8699000000
 ----------------------------------------------------------------
 Nuclear Repulsion Energy =    74.5384189744 hartrees
 There are       15 alpha and       15 beta electrons
 Requested basis set is aug-cc-pCVTZ
 There are 70 shells and 216 basis functions

 Total QAlloc Memory Limit 128000 MB
 Mega-Array Size      1467 MB
 MEM_STATIC part      1500 MB

                       Distance Matrix (Angstroms)
             C (  1)   C (  2)   Cl(  3)
   C (  2)  1.203300
   Cl(  3)  2.840100  1.636800
   H (  4)  1.055000  2.258300  3.895100
 
 Applying Cartesian multipole field
    Component          Value
    ---------          -----
     (0,0,2)       -1.00000E-04
 Nucleus-field energy     =    -0.0171809004 hartrees
 A cutoff of  1.0D-14 yielded   2407 shell pairs
 There are     22997 function pairs (     31435 Cartesian)
 
 -------------------------------------------------------
 OpenMP Integral Computing Module                       
 Release: version 1.0, May 2013, Q-Chem Inc. Pittsburgh 
 -------------------------------------------------------
 Integral Job Info:
 Integral job number is                      11
 Integral operator is                         1
 short-range coefficients                     0
 long-range coefficients              100000000
 Omega coefficients                           0
 if combine SR and LR in K                    0
 Integral screening is                        0
 Integral computing path is                   2
 max size of driver memory is            800000
 size of driver memory is                776718
 size of scratch memory is             29531563
 max col of scratch BK array              10000
 max len of scratch array in speh3          662
 max len of scratch index in speh4           32
 max int batch size is                      520
 min int batch size is                       52
 fixed nKL is                                31
 max L of basis functions is                  3
 order of int derivative is                   0
 number of shells is                         70
 number of basis is                         252
 number of cartesian basis is               252
 number of contracted shell pairs          2407
 number of primitive shell pairs           9338
 maxK2 (contraction) of shell pair          169
 max number of K2 of shell pair               1
 max number of CS2 of shell pair            331
 max number of PS2 of shell pair           1014
 mem total for path MDJ                  618648
 -------------------------------------------------------
 Smallest overlap matrix eigenvalue = 1.37E-05
 Guess MOs from SCF MO coefficient file

 -----------------------------------------------------------------------
  General SCF calculation program by
  Eric Jon Sundstrom, Paul Horn, Yuezhi Mao, Dmitri Zuev, Alec White,
  David Stuck, Shaama M.S., Shane Yost, Joonho Lee, David Small,
  Daniel Levine, Susi Lehtola, Hugh Burton, Evgeny Epifanovsky
 -----------------------------------------------------------------------
 Exchange:     0.5300 Hartree-Fock + 0.4700 B88
 Correlation:  0.7300 LYP
 Using Euler-Maclaurin-Lebedev (99,590) quadrature formula
 using 8 threads for integral computing
 -------------------------------------------------------
 OpenMP Integral computing Module                
 Release: version 2.0, May 2017, Q-Chem Inc. Pleasanton 
 -------------------------------------------------------
 -------------------------------------------------------
 OpenMP BLAS3 based DFT computing Module                
 Release: version 1.0, May 2013, Q-Chem Inc. Pittsburgh 
 -------------------------------------------------------
 A restricted SCF calculation will be
 performed using GDM
 SCF converges when RMS gradient is below 1.0e-08
 ---------------------------------------
  Cycle       Energy        RMS Gradient
 ---------------------------------------
    1    -536.6156681209      1.56e-03   Normal BFGS step
    2    -536.6156772896      1.31e-03   Normal BFGS step
    3    -536.6156872739      3.41e-04   Normal BFGS step
    4    -536.6156881047      1.42e-04   Normal BFGS step
    5    -536.6156883142      3.89e-05   Normal BFGS step
    6    -536.6156883261      1.49e-05   Normal BFGS step
    7    -536.6156883291      1.73e-06   Normal BFGS step
    8    -536.6156883291      4.08e-07   Normal BFGS step
    9    -536.6156883291      5.05e-08   Normal BFGS step
   10    -536.6156883291      1.25e-08   Normal BFGS step
   11    -536.6156883291      2.97e-09  Convergence criterion met
 ---------------------------------------
 SCF time:   CPU 868.75s  wall 110.00s 
 SCF   energy in the final basis set =     -536.6156883291
 Total energy in the final basis set =     -536.6156883291
 
 Components of the MP2 correlation energy:
        aaaa  correlation energy =        -0.0362591711 au
        abab  correlation energy =        -0.2191706966 au
        bbbb  correlation energy =        -0.0362591711 au
        non-Brillouin singles    =        -0.0000000000 au

 Total  MP2   correlation energy =                    -0.29168904 au
        MP2         total energy =                  -536.90737737 au
 
 --------------------------------------------------------------
 
                    Orbital Energies (a.u.)
 --------------------------------------------------------------
 
 Alpha MOs
 -- Occupied --
******* -10.679 -10.633  -9.966  -7.606  -7.600  -7.600  -1.031
 -0.867  -0.641  -0.578  -0.466  -0.466  -0.330  -0.330
 -- Virtual --
  0.015   0.036   0.055   0.055   0.061   0.085   0.085   0.101
  0.101   0.102   0.113   0.138   0.151   0.151   0.171   0.212
  0.212   0.228   0.238   0.281   0.281   0.289   0.289   0.329
  0.336   0.336   0.351   0.415   0.415   0.418   0.430   0.430
  0.444   0.444   0.494   0.526   0.537   0.537   0.605   0.721
  0.721   0.730   0.730   0.747   0.771   0.771   0.772   0.807
  0.807   0.838   0.838   0.859   0.917   0.917   0.941   0.942
  0.942   0.955   0.955   1.003   1.031   1.031   1.035   1.050
  1.050   1.118   1.118   1.219   1.260   1.260   1.283   1.283
  1.300   1.377   1.377   1.469   1.469   1.538   1.569   1.569
  1.603   1.615   1.615   1.777   1.777   1.796   1.902   1.902
  1.959   1.986   2.063   2.063   2.191   2.291   2.291   2.333
  2.333   2.437   2.452   2.452   2.755   2.755   2.768   2.835
  2.835   2.836   2.836   2.944   3.016   3.016   3.050   3.050
  3.137   3.173   3.173   3.247   3.247   3.250   3.308   3.308
  3.310   3.310   3.487   3.487   3.513   3.513   3.526   3.526
  3.544   3.739   3.893   3.952   3.952   3.960   3.960   4.052
  4.338   4.338   4.532   4.633   4.633   4.685   5.062   5.062
  5.310   5.550   6.111   6.111   6.822   6.967   9.971   9.971
 10.079  10.079  10.423  12.435  12.435  12.894  15.241  15.241
 15.993  15.993  16.232  16.550  17.581  17.866  18.431  36.174
 36.174  36.177  36.177  36.183  36.183  36.198  40.829  40.829
 40.884  40.884  40.906  40.906  40.995  41.101  41.101  41.715
 45.676  45.676  45.736  45.736  45.903  54.317  54.317  54.855
 80.302  80.302  80.885  80.885  81.191  82.011  85.049  87.568
103.854
 --------------------------------------------------------------
 
          Ground-State Mulliken Net Atomic Charges

     Atom                 Charge (a.u.)
  ----------------------------------------
      1 C                    -0.941173
      2 C                     0.352854
      3 Cl                    0.001811
      4 H                     0.586509
  ----------------------------------------
  Sum of atomic charges =     0.000000

 -----------------------------------------------------------------
                    Cartesian Multipole Moments
 -----------------------------------------------------------------
    Charge (ESU x 10^10)
                 0.0000
    Dipole Moment (Debye)
         X      -0.0000      Y       0.0000      Z      -0.4884
       Tot       0.4884
    Quadrupole Moments (Debye-Ang)
        XX     -25.1075     XY      -0.0000     YY     -25.1075
        XZ      -0.0000     YZ       0.0000     ZZ     -17.8387
    Octopole Moments (Debye-Ang^2)
       XXX      -0.0000    XXY       0.0000    XYY      -0.0000
       YYY      -0.0000    XXZ       3.8954    XYZ      -0.0000
       YYZ       3.8954    XZZ       0.0000    YZZ       0.0000
       ZZZ      -8.1850
    Hexadecapole Moments (Debye-Ang^3)
      XXXX     -29.3426   XXXY      -0.0000   XXYY      -9.7809
      XYYY      -0.0000   YYYY     -29.3426   XXXZ       0.0000
      XXYZ       0.0000   XYYZ       0.0000   YYYZ       0.0000
      XXZZ     -50.6820   XYZZ      -0.0000   YYZZ     -50.6820
      XZZZ      -0.0000   YZZZ       0.0000   ZZZZ    -177.6344
 -----------------------------------------------------------------
Archival summary:
1\1\n0080.mhg0\SP\ProcedureUnspecified\BasisUnspecified\l121\yhljason\SatOct303:58:152020SatOct303:58:152020\0\\#,ProcedureUnspecified,BasisUnspecified,\\0,1\Cl\C,1,1.6368\C,2,1.2033,1,180\H,3,1.055,2,180,1,0,0\\\@

 Total job time:  196.11s(wall), 1543.64s(cpu) 
 Sat Oct  3 03:58:15 2020

        *************************************************************
        *                                                           *
        *  Thank you very much for using Q-Chem.  Have a nice day.  *
        *                                                           *
        *************************************************************


