Q-Chem Developer Version!
                  Welcome to Q-Chem
     A Quantum Leap Into The Future Of Chemistry


 Q-Chem 5.1, Q-Chem, Inc., Pleasanton, CA (2018)

 Yihan Shao,  Zhengting Gan,  E. Epifanovsky,  A. T. B. Gilbert,  M. Wormit,  
 J. Kussmann,  A. W. Lange,  A. Behn,  Jia Deng,  Xintian Feng,  D. Ghosh,  
 M. Goldey,  P. R. Horn,  L. D. Jacobson,  I. Kaliman,  T. Kus,  A. Landau,  
 Jie Liu,  E. I. Proynov,  R. M. Richard,  R. P. Steele,  E. J. Sundstrom,  
 H. L. Woodcock III,  P. M. Zimmerman,  D. Zuev,  B. Albrecht,  E. Alguire,  
 S. A. Baeppler,  D. Barton,  Z. Benda,  Y. A. Bernard,  E. J. Berquist,  
 K. B. Bravaya,  H. Burton,  D. Casanova,  Chun-Min Chang,  Yunqing Chen,  
 A. Chien,  K. D. Closser,  M. P. Coons,  S. Coriani,  S. Dasgupta,  
 A. L. Dempwolff,  M. Diedenhofen,  Hainam Do,  R. G. Edgar,  Po-Tung Fang,  
 S. Faraji,  S. Fatehi,  Qingguo Feng,  K. D. Fenk,  J. Fosso-Tande,  
 Qinghui Ge,  A. Ghysels,  G. Gidofalvi,  J. Gomes,  J. Gonthier,  A. Gunina,  
 D. Hait,  M. W. D. Hanson-Heine,  P. H. P. Harbach,  A. W. Hauser,  
 J. E. Herr,  E. G. Hohenstein,  Z. C. Holden,  Kerwin Hui,  B. C. Huynh,  
 T.-C. Jagau,  Hyunjun Ji,  B. Kaduk,  K. Khistyaev,  Jaehoon Kim,  
 P. Klunzinger,  K. Koh,  D. Kosenkov,  L. Koulias,  T. Kowalczyk,  
 C. M. Krauter,  A. Kunitsa,  Ka Un Lao,  A. Laurent,  K. V. Lawler,  
 Joonho Lee,  D. Lefrancois,  S. Lehtola,  D. S. Levine,  Yi-Pei Li,  
 You-Sheng Lin,  Fenglai Liu,  E. Livshits,  A. Luenser,  P. Manohar,  
 E. Mansoor,  S. F. Manzer,  Shan-Ping Mao,  Yuezhi Mao,  N. Mardirossian,  
 A. V. Marenich,  T. Markovich,  L. A. Martinez-Martinez,  S. A. Maurer,  
 N. J. Mayhall,  S. C. McKenzie,  J.-M. Mewes,  A. F. Morrison,  
 J. W. Mullinax,  K. Nanda,  T. S. Nguyen-Beck,  R. Olivares-Amaya,  
 J. A. Parkhill,  T. M. Perrine,  F. Plasser,  P. Pokhilko,  S. Prager,  
 A. Prociuk,  E. Ramos,  D. R. Rehn,  F. Rob,  M. Schneider,  N. Sergueev,  
 S. M. Sharada,  S. Sharma,  D. W. Small,  T. Stauch,  T. Stein,  
 Yu-Chuan Su,  A. J. W. Thom,  A. Tkatchenko,  T. Tsuchimochi,  N. M. Tubman,  
 L. Vogt,  M. L. Vidal,  O. Vydrov,  M. A. Watson,  J. Wenzel,  
 M. de Wergifosse,  T. A. Wesolowski,  A. White,  J. Witte,  A. Yamada,  
 Jun Yang,  K. Yao,  S. Yeganeh,  S. R. Yost,  Zhi-Qiang You,  A. Zech,  
 Igor Ying Zhang,  Xing Zhang,  Yan Zhao,  Ying Zhu,  B. R. Brooks,  
 G. K. L. Chan,  C. J. Cramer,  M. S. Gordon,  W. J. Hehre,  A. Klamt,  
 M. W. Schmidt,  C. D. Sherrill,  D. G. Truhlar,  A. Aspuru-Guzik,  R. Baer,  
 A. T. Bell,  N. A. Besley,  Jeng-Da Chai,  A. E. DePrince, III,  
 R. A. DiStasio Jr.,  A. Dreuw,  B. D. Dunietz,  T. R. Furlani,  
 Chao-Ping Hsu,  Yousung Jung,  Jing Kong,  D. S. Lambrecht,  WanZhen Liang,  
 C. Ochsenfeld,  V. A. Rassolov,  L. V. Slipchenko,  J. E. Subotnik,  
 T. Van Voorhis,  J. M. Herbert,  A. I. Krylov,  P. M. W. Gill,  M. Head-Gordon

 Contributors to earlier versions of Q-Chem not listed above: 
 R. D. Adamson,  B. Austin,  J. Baker,  G. J. O. Beran,  K. Brandhorst,  
 S. T. Brown,  E. F. C. Byrd,  A. K. Chakraborty,  C.-L. Cheng,  
 Siu Hung Chien,  D. M. Chipman,  D. L. Crittenden,  H. Dachsel,  
 R. J. Doerksen,  A. D. Dutoi,  L. Fusti-Molnar,  W. A. Goddard III,  
 A. Golubeva-Zadorozhnaya,  S. R. Gwaltney,  G. Hawkins,  A. Heyden,  
 S. Hirata,  G. Kedziora,  F. J. Keil,  C. Kelley,  Jihan Kim,  R. A. King,  
 R. Z. Khaliullin,  P. P. Korambath,  W. Kurlancheek,  A. M. Lee,  M. S. Lee,  
 S. V. Levchenko,  Ching Yeh Lin,  D. Liotard,  R. C. Lochan,  I. Lotan,  
 P. E. Maslen,  N. Nair,  D. P. O'Neill,  D. Neuhauser,  E. Neuscamman,  
 C. M. Oana,  R. Olson,  B. Peters,  R. Peverati,  P. A. Pieniazek,  
 Y. M. Rhee,  J. Ritchie,  M. A. Rohrdanz,  E. Rosta,  N. J. Russ,  
 H. F. Schaefer III,  N. E. Schultz,  N. Shenvi,  A. C. Simmonett,  A. Sodt,  
 D. Stuck,  K. S. Thanthiriwatte,  V. Vanovschi,  Tao Wang,  A. Warshel,  
 C. F. Williams,  Q. Wu,  X. Xu,  W. Zhang

 Please cite Q-Chem as follows:
 Y. Shao et al., Mol. Phys. 113, 184-215 (2015)
 DOI: 10.1080/00268976.2014.952696

 Q-Chem 5.1.1 for Intel X86 EM64T Linux

 Parts of Q-Chem use Armadillo 8.300.2 (Tropical Shenanigans).
 http://arma.sourceforge.net/

 Q-Chem begins on Fri Oct  2 23:56:53 2020  

Host: n0091.mhg0
0

     Scratch files written to /local/scratch/users/yhljason/HCHS_B2PLYP_aug-cc-pcVTZ.inp20201002235650//
Input Ideriv = 0
Curr. Ideriv = -1
Max.  Ideriv = 0
Analytic post-HF gradients are not available with non-HF exchange
Input Ideriv = 0
Curr. Ideriv = 0
Max.  Ideriv = 0

Checking the input file for inconsistencies... 	...done.

--------------------------------------------------------------
User input:
--------------------------------------------------------------
$molecule
0 1
S1      0.0000  0.0000  0.5846
C2      0.0000  0.0000  -1.0262
H3      0.0000  0.9244  -1.5980
H4      0.0000  -0.9244 -1.5980
$end

$rem
jobtype sp
method B2PLYP
xc_grid 000099000590
basis aug-cc-pcVTZ
max_scf_cycles 200
thresh 14
scf_convergence 8
scf_algorithm gdm
symmetry false
sym_ignore true
unrestricted false
gen_scfman true
internal_stability_iter 15
internal_stability_davidson_iter 200
mem_total 128000
cc_memory 96000
cc_backend xm
mem_static 1500
n_frozen_core 0
$end



--------------------------------------------------------------
 ----------------------------------------------------------------
             Standard Nuclear Orientation (Angstroms)
    I     Atom           X                Y                Z
 ----------------------------------------------------------------
    1      S       0.0000000000     0.0000000000     0.5846000000
    2      C       0.0000000000     0.0000000000    -1.0262000000
    3      H       0.0000000000     0.9244000000    -1.5980000000
    4      H       0.0000000000    -0.9244000000    -1.5980000000
 ----------------------------------------------------------------
 Nuclear Repulsion Energy =    44.8102513215 hartrees
 There are       12 alpha and       12 beta electrons
 Requested basis set is aug-cc-pCVTZ
 There are 60 shells and 180 basis functions

 Total QAlloc Memory Limit 128000 MB
 Mega-Array Size      1467 MB
 MEM_STATIC part      1500 MB

                       Distance Matrix (Angstroms)
             S (  1)   C (  2)   H (  3)
   C (  2)  1.610800
   H (  3)  2.370287  1.086955
   H (  4)  2.370287  1.086955  1.848800
 
 A cutoff of  1.0D-14 yielded   1814 shell pairs
 There are     16390 function pairs (     21953 Cartesian)
 
 -------------------------------------------------------
 OpenMP Integral Computing Module                       
 Release: version 1.0, May 2013, Q-Chem Inc. Pittsburgh 
 -------------------------------------------------------
 Integral Job Info:
 Integral job number is                      11
 Integral operator is                         1
 short-range coefficients                     0
 long-range coefficients              100000000
 Omega coefficients                           0
 if combine SR and LR in K                    0
 Integral screening is                        0
 Integral computing path is                   2
 max size of driver memory is            800000
 size of driver memory is                776718
 size of scratch memory is             29531563
 max col of scratch BK array              10000
 max len of scratch array in speh3          662
 max len of scratch index in speh4           32
 max int batch size is                      520
 min int batch size is                       52
 fixed nKL is                                31
 max L of basis functions is                  3
 order of int derivative is                   0
 number of shells is                         60
 number of basis is                         208
 number of cartesian basis is               208
 number of contracted shell pairs          1814
 number of primitive shell pairs           7476
 maxK2 (contraction) of shell pair          169
 max number of K2 of shell pair               1
 max number of CS2 of shell pair            257
 max number of PS2 of shell pair           1014
 mem total for path MDJ                  579280
 -------------------------------------------------------
 Smallest overlap matrix eigenvalue = 8.05E-05

 Scale SEOQF with 1.000000e-01/1.000000e-01/1.000000e-01

 Standard Electronic Orientation quadrupole field applied
 Nucleus-field energy     =    -0.0000000017 hartrees
 Guess from superposition of atomic densities
 Warning:  Energy on first SCF cycle will be non-variational
 SAD guess density has 24.000000 electrons

 -----------------------------------------------------------------------
  General SCF calculation program by
  Eric Jon Sundstrom, Paul Horn, Yuezhi Mao, Dmitri Zuev, Alec White,
  David Stuck, Shaama M.S., Shane Yost, Joonho Lee, David Small,
  Daniel Levine, Susi Lehtola, Hugh Burton, Evgeny Epifanovsky
 -----------------------------------------------------------------------
 Exchange:     0.5300 Hartree-Fock + 0.4700 B88
 Correlation:  0.7300 LYP
 Using Euler-Maclaurin-Lebedev (99,590) quadrature formula
Running Object-Oriented RKS (RHF)
We will preform up to 15 macro iterations over saddle points until a stable solution is found
Energy prior to optimization (guess energy) = -437.214577412835
Begin Timing: Total SCF Calculation
Begin Timing: SCF Single Stationary Point Calculation
begin iterations for algorithm: GDM          
the SCF tolerance is set to 1.00e-08
    1    -437.2145774128      4.39e-02     00000  Normal BFGS step
    2    -437.2204029000      4.10e-02     00000  Normal BFGS step
    3    -437.2228112745      1.32e-02     00000  Normal BFGS step
    4    -437.2230405992      4.15e-03     00000  Normal BFGS step
    5    -437.2231721436      3.46e-04     00000  Normal BFGS step
    6    -437.2231732623      1.21e-04     00000  Normal BFGS step
    7    -437.2231733647      4.38e-05     00000  Normal BFGS step
    8    -437.2231733696      6.44e-06     00000  Normal BFGS step
    9    -437.2231733699      9.99e-07     00000  Normal BFGS step
   10    -437.2231733699      3.15e-07     00000  Normal BFGS step
   11    -437.2231733699      2.56e-08     00000  Normal BFGS step
   12    -437.2231733699      1.82e-08     00000  Normal BFGS step
   13    -437.2231733699      1.64e-08     00000  Normal BFGS step
   14    -437.2231733699      2.78e-10     00000 Convergence criterion met
Timing for Single Stationary Point: 69.00s (wall), 549.45s (cpu)
Begin Timing: Stability
===================================================
Beginning Test for Internal Stability
===================================================
generating davidson guess vectors based on koopmans excitations
    1      1.37e+00     00000 Davidson Iteration
    2      2.52e-01     00000 Davidson Iteration
    3      1.44e-02     00000 Davidson Iteration
    4      6.36e-03     00000 Davidson Iteration
    5      2.02e-03     00000 Davidson Iteration
    6      4.03e-04     00000 Davidson Iteration
    7      1.02e-04     00000 Davidson Iteration
    8      3.11e-05     00000 Davidson Iteration
    9      5.74e-04     00000 Davidson Iteration
   10      2.47e-04     00000 Davidson Iteration
   11      1.34e-04     00000 Davidson Iteration
   12      4.36e-05     00000 Davidson Converged
converged_eigenvalues
   0.3816
   0.8680
Threshold for negative eigenvalues: -1.0e-05
solution was a local minimum (stable)
===================================================
End Test for Internal Stability
===================================================
Our SCF solution is stable!
Timing for Total SCF: 146.00s (wall), 1158.86s (cpu)
 Total energy in the final basis set =     -437.2231733699
    ==================================================
              The end of Object-Oriented SCFman       
    ==================================================
 
 Components of the MP2 correlation energy:
        aaaa  correlation energy =        -0.0272338821 au
        abab  correlation energy =        -0.1686667736 au
        bbbb  correlation energy =        -0.0272338821 au
        non-Brillouin singles    =        -0.0000000000 au

 Total  MP2   correlation energy =                    -0.22313454 au
        MP2         total energy =                  -437.44630791 au
 
 --------------------------------------------------------------
 
                    Orbital Energies (a.u.)
 --------------------------------------------------------------
 
 Alpha MOs
 -- Occupied --
-90.153 -10.697  -8.361  -6.207  -6.206  -6.201  -0.913  -0.694
 -0.545  -0.461  -0.366  -0.287
 -- Virtual --
 -0.045   0.009   0.029   0.038   0.064   0.077   0.091   0.102
  0.103   0.118   0.144   0.168   0.175   0.191   0.201   0.243
  0.255   0.257   0.268   0.300   0.312   0.326   0.336   0.352
  0.362   0.362   0.385   0.386   0.417   0.420   0.478   0.545
  0.559   0.571   0.593   0.619   0.629   0.637   0.695   0.718
  0.731   0.752   0.770   0.783   0.787   0.789   0.809   0.862
  0.866   0.871   0.886   0.904   0.935   0.989   0.992   1.011
  1.022   1.035   1.042   1.067   1.120   1.183   1.235   1.268
  1.356   1.394   1.398   1.432   1.452   1.457   1.469   1.527
  1.671   1.673   1.739   1.789   1.805   1.812   1.852   1.868
  1.882   1.896   1.942   2.124   2.131   2.131   2.216   2.238
  2.286   2.330   2.368   2.488   2.498   2.666   2.752   2.788
  2.914   2.932   3.002   3.047   3.271   3.320   3.341   3.463
  3.491   3.547   3.589   3.617   3.646   3.671   3.744   3.860
  3.880   4.022   4.070   4.229   4.258   4.452   4.502   4.555
  4.603   4.873   4.937   5.041   5.044   5.062   5.599   5.606
  6.204   6.288   8.424   8.432   8.480   8.655   9.037  10.657
 10.876  11.204  14.840  15.227  16.197  16.243  17.053  31.279
 31.280  31.281  31.282  31.287  31.299  31.301  38.836  38.840
 38.863  38.941  39.162  40.860  40.864  40.935  41.078  41.119
 46.555  46.794  47.154  80.301  81.015  81.042  85.703  86.286
 --------------------------------------------------------------
 
          Ground-State Mulliken Net Atomic Charges

     Atom                 Charge (a.u.)
  ----------------------------------------
      1 S                    -0.028794
      2 C                    -0.872286
      3 H                     0.450540
      4 H                     0.450540
  ----------------------------------------
  Sum of atomic charges =     0.000000

 -----------------------------------------------------------------
                    Cartesian Multipole Moments
 -----------------------------------------------------------------
    Charge (ESU x 10^10)
                 0.0000
    Dipole Moment (Debye)
         X      -0.0000      Y       0.0000      Z      -1.8982
       Tot       1.8982
    Quadrupole Moments (Debye-Ang)
        XX     -20.0798     XY      -0.0000     YY     -20.5943
        XZ      -0.0000     YZ      -0.0000     ZZ     -17.1927
    Octopole Moments (Debye-Ang^2)
       XXX      -0.0000    XXY      -0.0000    XYY       0.0000
       YYY       0.0000    XXZ       0.8074    XYZ       0.0000
       YYZ      -3.6227    XZZ       0.0000    YZZ      -0.0000
       ZZZ      -2.1258
    Hexadecapole Moments (Debye-Ang^3)
      XXXX     -26.0661   XXXY      -0.0000   XXYY     -10.7163
      XYYY      -0.0000   YYYY     -35.5496   XXXZ      -0.0000
      XXYZ       0.0000   XYYZ      -0.0000   YYYZ      -0.0000
      XXZZ     -21.7379   XYZZ       0.0000   YYZZ     -21.7911
      XZZZ      -0.0000   YZZZ       0.0000   ZZZZ     -99.3275
 -----------------------------------------------------------------
Archival summary:
1\1\n0091.mhg0\SP\ProcedureUnspecified\BasisUnspecified\112\yhljason\SatOct300:00:132020SatOct300:00:132020\0\\#,ProcedureUnspecified,BasisUnspecified,\\0,1\S\C,1,1.6108\H,2,1.08695,1,121.739\H,2,1.08695,1,121.739,3,-180,0\\\@

 Total job time:  200.30s(wall), 1583.90s(cpu) 
 Sat Oct  3 00:00:13 2020

        *************************************************************
        *                                                           *
        *  Thank you very much for using Q-Chem.  Have a nice day.  *
        *                                                           *
        *************************************************************


 
User input: 2 of 8 
 
Q-Chem Developer Version!
                  Welcome to Q-Chem
     A Quantum Leap Into The Future Of Chemistry


 Q-Chem 5.1, Q-Chem, Inc., Pleasanton, CA (2018)

 Yihan Shao,  Zhengting Gan,  E. Epifanovsky,  A. T. B. Gilbert,  M. Wormit,  
 J. Kussmann,  A. W. Lange,  A. Behn,  Jia Deng,  Xintian Feng,  D. Ghosh,  
 M. Goldey,  P. R. Horn,  L. D. Jacobson,  I. Kaliman,  T. Kus,  A. Landau,  
 Jie Liu,  E. I. Proynov,  R. M. Richard,  R. P. Steele,  E. J. Sundstrom,  
 H. L. Woodcock III,  P. M. Zimmerman,  D. Zuev,  B. Albrecht,  E. Alguire,  
 S. A. Baeppler,  D. Barton,  Z. Benda,  Y. A. Bernard,  E. J. Berquist,  
 K. B. Bravaya,  H. Burton,  D. Casanova,  Chun-Min Chang,  Yunqing Chen,  
 A. Chien,  K. D. Closser,  M. P. Coons,  S. Coriani,  S. Dasgupta,  
 A. L. Dempwolff,  M. Diedenhofen,  Hainam Do,  R. G. Edgar,  Po-Tung Fang,  
 S. Faraji,  S. Fatehi,  Qingguo Feng,  K. D. Fenk,  J. Fosso-Tande,  
 Qinghui Ge,  A. Ghysels,  G. Gidofalvi,  J. Gomes,  J. Gonthier,  A. Gunina,  
 D. Hait,  M. W. D. Hanson-Heine,  P. H. P. Harbach,  A. W. Hauser,  
 J. E. Herr,  E. G. Hohenstein,  Z. C. Holden,  Kerwin Hui,  B. C. Huynh,  
 T.-C. Jagau,  Hyunjun Ji,  B. Kaduk,  K. Khistyaev,  Jaehoon Kim,  
 P. Klunzinger,  K. Koh,  D. Kosenkov,  L. Koulias,  T. Kowalczyk,  
 C. M. Krauter,  A. Kunitsa,  Ka Un Lao,  A. Laurent,  K. V. Lawler,  
 Joonho Lee,  D. Lefrancois,  S. Lehtola,  D. S. Levine,  Yi-Pei Li,  
 You-Sheng Lin,  Fenglai Liu,  E. Livshits,  A. Luenser,  P. Manohar,  
 E. Mansoor,  S. F. Manzer,  Shan-Ping Mao,  Yuezhi Mao,  N. Mardirossian,  
 A. V. Marenich,  T. Markovich,  L. A. Martinez-Martinez,  S. A. Maurer,  
 N. J. Mayhall,  S. C. McKenzie,  J.-M. Mewes,  A. F. Morrison,  
 J. W. Mullinax,  K. Nanda,  T. S. Nguyen-Beck,  R. Olivares-Amaya,  
 J. A. Parkhill,  T. M. Perrine,  F. Plasser,  P. Pokhilko,  S. Prager,  
 A. Prociuk,  E. Ramos,  D. R. Rehn,  F. Rob,  M. Schneider,  N. Sergueev,  
 S. M. Sharada,  S. Sharma,  D. W. Small,  T. Stauch,  T. Stein,  
 Yu-Chuan Su,  A. J. W. Thom,  A. Tkatchenko,  T. Tsuchimochi,  N. M. Tubman,  
 L. Vogt,  M. L. Vidal,  O. Vydrov,  M. A. Watson,  J. Wenzel,  
 M. de Wergifosse,  T. A. Wesolowski,  A. White,  J. Witte,  A. Yamada,  
 Jun Yang,  K. Yao,  S. Yeganeh,  S. R. Yost,  Zhi-Qiang You,  A. Zech,  
 Igor Ying Zhang,  Xing Zhang,  Yan Zhao,  Ying Zhu,  B. R. Brooks,  
 G. K. L. Chan,  C. J. Cramer,  M. S. Gordon,  W. J. Hehre,  A. Klamt,  
 M. W. Schmidt,  C. D. Sherrill,  D. G. Truhlar,  A. Aspuru-Guzik,  R. Baer,  
 A. T. Bell,  N. A. Besley,  Jeng-Da Chai,  A. E. DePrince, III,  
 R. A. DiStasio Jr.,  A. Dreuw,  B. D. Dunietz,  T. R. Furlani,  
 Chao-Ping Hsu,  Yousung Jung,  Jing Kong,  D. S. Lambrecht,  WanZhen Liang,  
 C. Ochsenfeld,  V. A. Rassolov,  L. V. Slipchenko,  J. E. Subotnik,  
 T. Van Voorhis,  J. M. Herbert,  A. I. Krylov,  P. M. W. Gill,  M. Head-Gordon

 Contributors to earlier versions of Q-Chem not listed above: 
 R. D. Adamson,  B. Austin,  J. Baker,  G. J. O. Beran,  K. Brandhorst,  
 S. T. Brown,  E. F. C. Byrd,  A. K. Chakraborty,  C.-L. Cheng,  
 Siu Hung Chien,  D. M. Chipman,  D. L. Crittenden,  H. Dachsel,  
 R. J. Doerksen,  A. D. Dutoi,  L. Fusti-Molnar,  W. A. Goddard III,  
 A. Golubeva-Zadorozhnaya,  S. R. Gwaltney,  G. Hawkins,  A. Heyden,  
 S. Hirata,  G. Kedziora,  F. J. Keil,  C. Kelley,  Jihan Kim,  R. A. King,  
 R. Z. Khaliullin,  P. P. Korambath,  W. Kurlancheek,  A. M. Lee,  M. S. Lee,  
 S. V. Levchenko,  Ching Yeh Lin,  D. Liotard,  R. C. Lochan,  I. Lotan,  
 P. E. Maslen,  N. Nair,  D. P. O'Neill,  D. Neuhauser,  E. Neuscamman,  
 C. M. Oana,  R. Olson,  B. Peters,  R. Peverati,  P. A. Pieniazek,  
 Y. M. Rhee,  J. Ritchie,  M. A. Rohrdanz,  E. Rosta,  N. J. Russ,  
 H. F. Schaefer III,  N. E. Schultz,  N. Shenvi,  A. C. Simmonett,  A. Sodt,  
 D. Stuck,  K. S. Thanthiriwatte,  V. Vanovschi,  Tao Wang,  A. Warshel,  
 C. F. Williams,  Q. Wu,  X. Xu,  W. Zhang

 Please cite Q-Chem as follows:
 Y. Shao et al., Mol. Phys. 113, 184-215 (2015)
 DOI: 10.1080/00268976.2014.952696

 Q-Chem 5.1.1 for Intel X86 EM64T Linux

 Parts of Q-Chem use Armadillo 8.300.2 (Tropical Shenanigans).
 http://arma.sourceforge.net/

 Q-Chem begins on Sat Oct  3 00:00:13 2020  

Host: n0091.mhg0
0

     Scratch files written to /local/scratch/users/yhljason/HCHS_B2PLYP_aug-cc-pcVTZ.inp20201002235650//
The previous job contains 0 fragments, simply inherited here
Input Ideriv = 2
Curr. Ideriv = -1
Max.  Ideriv = 2

Checking the input file for inconsistencies... 	...done.

--------------------------------------------------------------
User input:
--------------------------------------------------------------
$molecule
read
$end

$rem

jobtype sp
method HF
xc_grid 000099000590
basis aug-cc-pcVTZ
max_scf_cycles 0
scf_guess read
thresh 14
scf_convergence 8
mem_total 128000
cc_memory 96000
cc_backend xm
mem_static 1500
symmetry false
sym_ignore true
scf_guess read
unrestricted false
scf_algorithm gdm
n_frozen_core 0
$end



--------------------------------------------------------------
 ----------------------------------------------------------------
             Standard Nuclear Orientation (Angstroms)
    I     Atom           X                Y                Z
 ----------------------------------------------------------------
    1      S       0.0000000000     0.0000000000     0.5846000000
    2      C       0.0000000000     0.0000000000    -1.0262000000
    3      H       0.0000000000     0.9244000000    -1.5980000000
    4      H       0.0000000000    -0.9244000000    -1.5980000000
 ----------------------------------------------------------------
 Nuclear Repulsion Energy =    44.8102513215 hartrees
 There are       12 alpha and       12 beta electrons
 Requested basis set is aug-cc-pCVTZ
 There are 60 shells and 180 basis functions

 Total QAlloc Memory Limit 128000 MB
 Mega-Array Size      1467 MB
 MEM_STATIC part      1500 MB

                       Distance Matrix (Angstroms)
             S (  1)   C (  2)   H (  3)
   C (  2)  1.610800
   H (  3)  2.370287  1.086955
   H (  4)  2.370287  1.086955  1.848800
 
 A cutoff of  1.0D-14 yielded   1814 shell pairs
 There are     16390 function pairs (     21953 Cartesian)
 
 -------------------------------------------------------
 OpenMP Integral Computing Module                       
 Release: version 1.0, May 2013, Q-Chem Inc. Pittsburgh 
 -------------------------------------------------------
 Integral Job Info:
 Integral job number is                      11
 Integral operator is                         1
 short-range coefficients                     0
 long-range coefficients              100000000
 Omega coefficients                           0
 if combine SR and LR in K                    0
 Integral screening is                        0
 Integral computing path is                   2
 max size of driver memory is            800000
 size of driver memory is                776718
 size of scratch memory is             29531563
 max col of scratch BK array              10000
 max len of scratch array in speh3          662
 max len of scratch index in speh4           32
 max int batch size is                      520
 min int batch size is                       52
 fixed nKL is                                31
 max L of basis functions is                  3
 order of int derivative is                   0
 number of shells is                         60
 number of basis is                         208
 number of cartesian basis is               208
 number of contracted shell pairs          1814
 number of primitive shell pairs           7476
 maxK2 (contraction) of shell pair          169
 max number of K2 of shell pair               1
 max number of CS2 of shell pair            257
 max number of PS2 of shell pair           1014
 mem total for path MDJ                  579280
 -------------------------------------------------------
 Smallest overlap matrix eigenvalue = 8.05E-05

 Scale SEOQF with 1.000000e-01/1.000000e-01/1.000000e-01

 Standard Electronic Orientation quadrupole field applied
 Nucleus-field energy     =    -0.0000000017 hartrees
 Guess MOs from SCF MO coefficient file
 Reading MOs from coefficient file
 Reading MOs from coefficient file
 The restricted Hartree-Fock energy will be evaluated
 The orbitals will not be altered
Using Q-Chem read-in guess as SCF_GUESS READ specified.

 using 8 threads for integral computing
 -------------------------------------------------------
 OpenMP Integral computing Module                
 Release: version 2.0, May 2017, Q-Chem Inc. Pleasanton 
 -------------------------------------------------------
TIMEINFO->: J/JK contribution 32.58 sec.
Avoiding writing the new MOs to disk !!! 
 ---------------------------------------
  Cycle       Energy        RMS Gradient
 ---------------------------------------
    1    -436.5531463617      1.70E-02 Convergence criterion met
 ---------------------------------------
 SCF time:  CPU 33.08 s  wall 4.16 s
 SCF   energy in the final basis set = -436.55314636
 Total energy in the final basis set = -436.55314636
 
 --------------------------------------------------------------
 
                    Orbital Energies (a.u.)
 --------------------------------------------------------------
 
 Alpha MOs
 -- Occupied --
-90.153 -10.697  -8.361  -6.207  -6.206  -6.201  -0.913  -0.694
 -0.545  -0.461  -0.366  -0.287
 -- Virtual --
 -0.045   0.009   0.029   0.038   0.064   0.077   0.091   0.102
  0.103   0.118   0.144   0.168   0.175   0.191   0.201   0.243
  0.255   0.257   0.268   0.300   0.312   0.326   0.336   0.352
  0.362   0.362   0.385   0.386   0.417   0.420   0.478   0.545
  0.559   0.571   0.593   0.619   0.629   0.637   0.695   0.718
  0.731   0.752   0.770   0.783   0.787   0.789   0.809   0.862
  0.866   0.871   0.886   0.904   0.935   0.989   0.992   1.011
  1.022   1.035   1.042   1.067   1.120   1.183   1.235   1.268
  1.356   1.394   1.398   1.432   1.452   1.457   1.469   1.527
  1.671   1.673   1.739   1.789   1.805   1.812   1.852   1.868
  1.882   1.896   1.942   2.124   2.131   2.131   2.216   2.238
  2.286   2.330   2.368   2.488   2.498   2.666   2.752   2.788
  2.914   2.932   3.002   3.047   3.271   3.320   3.341   3.463
  3.491   3.547   3.589   3.617   3.646   3.671   3.744   3.860
  3.880   4.022   4.070   4.229   4.258   4.452   4.502   4.555
  4.603   4.873   4.937   5.041   5.044   5.062   5.599   5.606
  6.204   6.288   8.424   8.432   8.480   8.655   9.037  10.657
 10.876  11.204  14.840  15.227  16.197  16.243  17.053  31.279
 31.280  31.281  31.282  31.287  31.299  31.301  38.836  38.840
 38.863  38.941  39.162  40.860  40.864  40.935  41.078  41.119
 46.555  46.794  47.154  80.301  81.015  81.042  85.703  86.286
 --------------------------------------------------------------
 
          Ground-State Mulliken Net Atomic Charges

     Atom                 Charge (a.u.)
  ----------------------------------------
      1 S                    -0.028794
      2 C                    -0.872286
      3 H                     0.450540
      4 H                     0.450540
  ----------------------------------------
  Sum of atomic charges =    -0.000000

 -----------------------------------------------------------------
                    Cartesian Multipole Moments
 -----------------------------------------------------------------
    Charge (ESU x 10^10)
                -0.0000
    Dipole Moment (Debye)
         X      -0.0000      Y      -0.0000      Z      -1.8982
       Tot       1.8982
    Quadrupole Moments (Debye-Ang)
        XX     -20.0798     XY      -0.0000     YY     -20.5943
        XZ      -0.0000     YZ      -0.0000     ZZ     -17.1927
    Octopole Moments (Debye-Ang^2)
       XXX      -0.0000    XXY      -0.0000    XYY       0.0000
       YYY      -0.0000    XXZ       0.8074    XYZ       0.0000
       YYZ      -3.6227    XZZ       0.0000    YZZ       0.0000
       ZZZ      -2.1258
    Hexadecapole Moments (Debye-Ang^3)
      XXXX     -26.0661   XXXY      -0.0000   XXYY     -10.7163
      XYYY      -0.0000   YYYY     -35.5496   XXXZ       0.0000
      XXYZ       0.0000   XYYZ      -0.0000   YYYZ      -0.0000
      XXZZ     -21.7379   XYZZ      -0.0000   YYZZ     -21.7911
      XZZZ      -0.0000   YZZZ      -0.0000   ZZZZ     -99.3275
 -----------------------------------------------------------------
Archival summary:
1\1\n0091.mhg0\SP\HF\BasisUnspecified\112\yhljason\SatOct300:00:182020SatOct300:00:182020\0\\#,HF,BasisUnspecified,\\0,1\S\C,1,1.6108\H,2,1.08695,1,121.739\H,2,1.08695,1,121.739,3,-180,0\\HF=-436.553146\\@

 Total job time:  5.00s(wall), 39.14s(cpu) 
 Sat Oct  3 00:00:18 2020

        *************************************************************
        *                                                           *
        *  Thank you very much for using Q-Chem.  Have a nice day.  *
        *                                                           *
        *************************************************************


 
User input: 3 of 8 
 
Q-Chem Developer Version!
                  Welcome to Q-Chem
     A Quantum Leap Into The Future Of Chemistry


 Q-Chem 5.1, Q-Chem, Inc., Pleasanton, CA (2018)

 Yihan Shao,  Zhengting Gan,  E. Epifanovsky,  A. T. B. Gilbert,  M. Wormit,  
 J. Kussmann,  A. W. Lange,  A. Behn,  Jia Deng,  Xintian Feng,  D. Ghosh,  
 M. Goldey,  P. R. Horn,  L. D. Jacobson,  I. Kaliman,  T. Kus,  A. Landau,  
 Jie Liu,  E. I. Proynov,  R. M. Richard,  R. P. Steele,  E. J. Sundstrom,  
 H. L. Woodcock III,  P. M. Zimmerman,  D. Zuev,  B. Albrecht,  E. Alguire,  
 S. A. Baeppler,  D. Barton,  Z. Benda,  Y. A. Bernard,  E. J. Berquist,  
 K. B. Bravaya,  H. Burton,  D. Casanova,  Chun-Min Chang,  Yunqing Chen,  
 A. Chien,  K. D. Closser,  M. P. Coons,  S. Coriani,  S. Dasgupta,  
 A. L. Dempwolff,  M. Diedenhofen,  Hainam Do,  R. G. Edgar,  Po-Tung Fang,  
 S. Faraji,  S. Fatehi,  Qingguo Feng,  K. D. Fenk,  J. Fosso-Tande,  
 Qinghui Ge,  A. Ghysels,  G. Gidofalvi,  J. Gomes,  J. Gonthier,  A. Gunina,  
 D. Hait,  M. W. D. Hanson-Heine,  P. H. P. Harbach,  A. W. Hauser,  
 J. E. Herr,  E. G. Hohenstein,  Z. C. Holden,  Kerwin Hui,  B. C. Huynh,  
 T.-C. Jagau,  Hyunjun Ji,  B. Kaduk,  K. Khistyaev,  Jaehoon Kim,  
 P. Klunzinger,  K. Koh,  D. Kosenkov,  L. Koulias,  T. Kowalczyk,  
 C. M. Krauter,  A. Kunitsa,  Ka Un Lao,  A. Laurent,  K. V. Lawler,  
 Joonho Lee,  D. Lefrancois,  S. Lehtola,  D. S. Levine,  Yi-Pei Li,  
 You-Sheng Lin,  Fenglai Liu,  E. Livshits,  A. Luenser,  P. Manohar,  
 E. Mansoor,  S. F. Manzer,  Shan-Ping Mao,  Yuezhi Mao,  N. Mardirossian,  
 A. V. Marenich,  T. Markovich,  L. A. Martinez-Martinez,  S. A. Maurer,  
 N. J. Mayhall,  S. C. McKenzie,  J.-M. Mewes,  A. F. Morrison,  
 J. W. Mullinax,  K. Nanda,  T. S. Nguyen-Beck,  R. Olivares-Amaya,  
 J. A. Parkhill,  T. M. Perrine,  F. Plasser,  P. Pokhilko,  S. Prager,  
 A. Prociuk,  E. Ramos,  D. R. Rehn,  F. Rob,  M. Schneider,  N. Sergueev,  
 S. M. Sharada,  S. Sharma,  D. W. Small,  T. Stauch,  T. Stein,  
 Yu-Chuan Su,  A. J. W. Thom,  A. Tkatchenko,  T. Tsuchimochi,  N. M. Tubman,  
 L. Vogt,  M. L. Vidal,  O. Vydrov,  M. A. Watson,  J. Wenzel,  
 M. de Wergifosse,  T. A. Wesolowski,  A. White,  J. Witte,  A. Yamada,  
 Jun Yang,  K. Yao,  S. Yeganeh,  S. R. Yost,  Zhi-Qiang You,  A. Zech,  
 Igor Ying Zhang,  Xing Zhang,  Yan Zhao,  Ying Zhu,  B. R. Brooks,  
 G. K. L. Chan,  C. J. Cramer,  M. S. Gordon,  W. J. Hehre,  A. Klamt,  
 M. W. Schmidt,  C. D. Sherrill,  D. G. Truhlar,  A. Aspuru-Guzik,  R. Baer,  
 A. T. Bell,  N. A. Besley,  Jeng-Da Chai,  A. E. DePrince, III,  
 R. A. DiStasio Jr.,  A. Dreuw,  B. D. Dunietz,  T. R. Furlani,  
 Chao-Ping Hsu,  Yousung Jung,  Jing Kong,  D. S. Lambrecht,  WanZhen Liang,  
 C. Ochsenfeld,  V. A. Rassolov,  L. V. Slipchenko,  J. E. Subotnik,  
 T. Van Voorhis,  J. M. Herbert,  A. I. Krylov,  P. M. W. Gill,  M. Head-Gordon

 Contributors to earlier versions of Q-Chem not listed above: 
 R. D. Adamson,  B. Austin,  J. Baker,  G. J. O. Beran,  K. Brandhorst,  
 S. T. Brown,  E. F. C. Byrd,  A. K. Chakraborty,  C.-L. Cheng,  
 Siu Hung Chien,  D. M. Chipman,  D. L. Crittenden,  H. Dachsel,  
 R. J. Doerksen,  A. D. Dutoi,  L. Fusti-Molnar,  W. A. Goddard III,  
 A. Golubeva-Zadorozhnaya,  S. R. Gwaltney,  G. Hawkins,  A. Heyden,  
 S. Hirata,  G. Kedziora,  F. J. Keil,  C. Kelley,  Jihan Kim,  R. A. King,  
 R. Z. Khaliullin,  P. P. Korambath,  W. Kurlancheek,  A. M. Lee,  M. S. Lee,  
 S. V. Levchenko,  Ching Yeh Lin,  D. Liotard,  R. C. Lochan,  I. Lotan,  
 P. E. Maslen,  N. Nair,  D. P. O'Neill,  D. Neuhauser,  E. Neuscamman,  
 C. M. Oana,  R. Olson,  B. Peters,  R. Peverati,  P. A. Pieniazek,  
 Y. M. Rhee,  J. Ritchie,  M. A. Rohrdanz,  E. Rosta,  N. J. Russ,  
 H. F. Schaefer III,  N. E. Schultz,  N. Shenvi,  A. C. Simmonett,  A. Sodt,  
 D. Stuck,  K. S. Thanthiriwatte,  V. Vanovschi,  Tao Wang,  A. Warshel,  
 C. F. Williams,  Q. Wu,  X. Xu,  W. Zhang

 Please cite Q-Chem as follows:
 Y. Shao et al., Mol. Phys. 113, 184-215 (2015)
 DOI: 10.1080/00268976.2014.952696

 Q-Chem 5.1.1 for Intel X86 EM64T Linux

 Parts of Q-Chem use Armadillo 8.300.2 (Tropical Shenanigans).
 http://arma.sourceforge.net/

 Q-Chem begins on Sat Oct  3 00:00:18 2020  

Host: n0091.mhg0
0

     Scratch files written to /local/scratch/users/yhljason/HCHS_B2PLYP_aug-cc-pcVTZ.inp20201002235650//
The previous job contains 0 fragments, simply inherited here
Input Ideriv = 0
Curr. Ideriv = -1
Max.  Ideriv = 0
Analytic post-HF gradients are not available with non-HF exchange
Input Ideriv = 0
Curr. Ideriv = 0
Max.  Ideriv = 0

Checking the input file for inconsistencies... 	...done.

--------------------------------------------------------------
User input:
--------------------------------------------------------------
$molecule
read
$end

$rem

jobtype sp
method B2PLYP
xc_grid 000099000590
basis aug-cc-pcVTZ
max_scf_cycles 200
thresh 14
scf_convergence 8
mem_total 128000
cc_memory 96000
cc_backend xm
mem_static 1500
symmetry false
sym_ignore true
scf_guess read
unrestricted false
scf_algorithm gdm
n_frozen_core 0
$end

$multipole_field
XX 0.0001
$end


--------------------------------------------------------------
 ----------------------------------------------------------------
             Standard Nuclear Orientation (Angstroms)
    I     Atom           X                Y                Z
 ----------------------------------------------------------------
    1      S       0.0000000000     0.0000000000     0.5846000000
    2      C       0.0000000000     0.0000000000    -1.0262000000
    3      H       0.0000000000     0.9244000000    -1.5980000000
    4      H       0.0000000000    -0.9244000000    -1.5980000000
 ----------------------------------------------------------------
 Nuclear Repulsion Energy =    44.8102513215 hartrees
 There are       12 alpha and       12 beta electrons
 Requested basis set is aug-cc-pCVTZ
 There are 60 shells and 180 basis functions

 Total QAlloc Memory Limit 128000 MB
 Mega-Array Size      1467 MB
 MEM_STATIC part      1500 MB

                       Distance Matrix (Angstroms)
             S (  1)   C (  2)   H (  3)
   C (  2)  1.610800
   H (  3)  2.370287  1.086955
   H (  4)  2.370287  1.086955  1.848800
 
 Applying Cartesian multipole field
    Component          Value
    ---------          -----
     (2,0,0)        1.00000E-04
 A cutoff of  1.0D-14 yielded   1814 shell pairs
 There are     16390 function pairs (     21953 Cartesian)
 
 -------------------------------------------------------
 OpenMP Integral Computing Module                       
 Release: version 1.0, May 2013, Q-Chem Inc. Pittsburgh 
 -------------------------------------------------------
 Integral Job Info:
 Integral job number is                      11
 Integral operator is                         1
 short-range coefficients                     0
 long-range coefficients              100000000
 Omega coefficients                           0
 if combine SR and LR in K                    0
 Integral screening is                        0
 Integral computing path is                   2
 max size of driver memory is            800000
 size of driver memory is                776718
 size of scratch memory is             29531563
 max col of scratch BK array              10000
 max len of scratch array in speh3          662
 max len of scratch index in speh4           32
 max int batch size is                      520
 min int batch size is                       52
 fixed nKL is                                31
 max L of basis functions is                  3
 order of int derivative is                   0
 number of shells is                         60
 number of basis is                         208
 number of cartesian basis is               208
 number of contracted shell pairs          1814
 number of primitive shell pairs           7476
 maxK2 (contraction) of shell pair          169
 max number of K2 of shell pair               1
 max number of CS2 of shell pair            257
 max number of PS2 of shell pair           1014
 mem total for path MDJ                  579280
 -------------------------------------------------------
 Smallest overlap matrix eigenvalue = 8.05E-05
 Guess MOs from SCF MO coefficient file

 -----------------------------------------------------------------------
  General SCF calculation program by
  Eric Jon Sundstrom, Paul Horn, Yuezhi Mao, Dmitri Zuev, Alec White,
  David Stuck, Shaama M.S., Shane Yost, Joonho Lee, David Small,
  Daniel Levine, Susi Lehtola, Hugh Burton, Evgeny Epifanovsky
 -----------------------------------------------------------------------
 Exchange:     0.5300 Hartree-Fock + 0.4700 B88
 Correlation:  0.7300 LYP
 Using Euler-Maclaurin-Lebedev (99,590) quadrature formula
 using 8 threads for integral computing
 -------------------------------------------------------
 OpenMP Integral computing Module                
 Release: version 2.0, May 2017, Q-Chem Inc. Pleasanton 
 -------------------------------------------------------
 -------------------------------------------------------
 OpenMP BLAS3 based DFT computing Module                
 Release: version 1.0, May 2013, Q-Chem Inc. Pittsburgh 
 -------------------------------------------------------
 A restricted SCF calculation will be
 performed using GDM
 SCF converges when RMS gradient is below 1.0e-08
 ---------------------------------------
  Cycle       Energy        RMS Gradient
 ---------------------------------------
    1    -437.2246662524      4.99e-04   Normal BFGS step
    2    -437.2246668415      6.34e-05   Normal BFGS step
    3    -437.2246668864      7.27e-05   Normal BFGS step
    4    -437.2246668957      4.14e-05   Normal BFGS step
    5    -437.2246668977      1.24e-05   Normal BFGS step
    6    -437.2246668983      1.72e-06   Normal BFGS step
    7    -437.2246668983      3.56e-07   Normal BFGS step
    8    -437.2246668983      9.17e-08   Normal BFGS step
    9    -437.2246668983      2.84e-08   Normal BFGS step
   10    -437.2246668983      1.64e-09  Convergence criterion met
 ---------------------------------------
 SCF time:   CPU 440.26s  wall 55.00s 
 SCF   energy in the final basis set =     -437.2246668983
 Total energy in the final basis set =     -437.2246668983
 
 Components of the MP2 correlation energy:
        aaaa  correlation energy =        -0.0272333614 au
        abab  correlation energy =        -0.1686587434 au
        bbbb  correlation energy =        -0.0272333614 au
        non-Brillouin singles    =        -0.0000000000 au

 Total  MP2   correlation energy =                    -0.22312547 au
        MP2         total energy =                  -437.44779236 au
 
 --------------------------------------------------------------
 
                    Orbital Energies (a.u.)
 --------------------------------------------------------------
 
 Alpha MOs
 -- Occupied --
-90.153 -10.697  -8.361  -6.207  -6.206  -6.201  -0.914  -0.695
 -0.545  -0.461  -0.367  -0.287
 -- Virtual --
 -0.046   0.007   0.028   0.037   0.061   0.076   0.090   0.099
  0.101   0.117   0.143   0.167   0.174   0.191   0.200   0.242
  0.254   0.255   0.267   0.299   0.311   0.326   0.335   0.351
  0.361   0.362   0.385   0.386   0.416   0.420   0.477   0.544
  0.558   0.570   0.592   0.619   0.628   0.636   0.695   0.717
  0.731   0.751   0.769   0.782   0.787   0.789   0.809   0.862
  0.865   0.870   0.886   0.903   0.934   0.988   0.992   1.011
  1.021   1.035   1.041   1.066   1.120   1.183   1.234   1.267
  1.356   1.394   1.397   1.432   1.451   1.457   1.468   1.527
  1.670   1.672   1.738   1.789   1.805   1.812   1.852   1.867
  1.882   1.896   1.942   2.124   2.131   2.131   2.216   2.238
  2.286   2.329   2.368   2.487   2.498   2.665   2.752   2.788
  2.914   2.932   3.002   3.047   3.270   3.320   3.341   3.463
  3.491   3.547   3.589   3.617   3.646   3.671   3.744   3.860
  3.880   4.021   4.070   4.229   4.258   4.451   4.502   4.555
  4.603   4.873   4.937   5.041   5.044   5.061   5.599   5.606
  6.204   6.288   8.424   8.432   8.480   8.654   9.037  10.657
 10.875  11.204  14.839  15.226  16.197  16.243  17.052  31.278
 31.279  31.281  31.282  31.287  31.299  31.300  38.836  38.840
 38.863  38.940  39.162  40.860  40.863  40.935  41.078  41.118
 46.555  46.794  47.153  80.301  81.015  81.041  85.703  86.285
 --------------------------------------------------------------
 
          Ground-State Mulliken Net Atomic Charges

     Atom                 Charge (a.u.)
  ----------------------------------------
      1 S                    -0.028445
      2 C                    -0.873842
      3 H                     0.451143
      4 H                     0.451143
  ----------------------------------------
  Sum of atomic charges =     0.000000

 -----------------------------------------------------------------
                    Cartesian Multipole Moments
 -----------------------------------------------------------------
    Charge (ESU x 10^10)
                 0.0000
    Dipole Moment (Debye)
         X       0.0000      Y      -0.0000      Z      -1.9000
       Tot       1.9000
    Quadrupole Moments (Debye-Ang)
        XX     -20.0972     XY      -0.0000     YY     -20.5980
        XZ      -0.0000     YZ       0.0000     ZZ     -17.1921
    Octopole Moments (Debye-Ang^2)
       XXX       0.0000    XXY      -0.0000    XYY       0.0000
       YYY      -0.0000    XXZ       0.8061    XYZ       0.0000
       YYZ      -3.6266    XZZ       0.0000    YZZ      -0.0000
       ZZZ      -2.1309
    Hexadecapole Moments (Debye-Ang^3)
      XXXX     -26.1520   XXXY      -0.0000   XXYY     -10.7359
      XYYY      -0.0000   YYYY     -35.5772   XXXZ      -0.0000
      XXYZ       0.0000   XYYZ      -0.0000   YYYZ       0.0000
      XXZZ     -21.7612   XYZZ      -0.0000   YYZZ     -21.7964
      XZZZ      -0.0000   YZZZ       0.0000   ZZZZ     -99.3363
 -----------------------------------------------------------------
Archival summary:
1\1\n0091.mhg0\SP\ProcedureUnspecified\BasisUnspecified\112\yhljason\SatOct300:02:002020SatOct300:02:002020\0\\#,ProcedureUnspecified,BasisUnspecified,\\0,1\S\C,1,1.6108\H,2,1.08695,1,121.739\H,2,1.08695,1,121.739,3,-180,0\\\@

 Total job time:  101.94s(wall), 804.81s(cpu) 
 Sat Oct  3 00:02:00 2020

        *************************************************************
        *                                                           *
        *  Thank you very much for using Q-Chem.  Have a nice day.  *
        *                                                           *
        *************************************************************


 
User input: 4 of 8 
 
Q-Chem Developer Version!
                  Welcome to Q-Chem
     A Quantum Leap Into The Future Of Chemistry


 Q-Chem 5.1, Q-Chem, Inc., Pleasanton, CA (2018)

 Yihan Shao,  Zhengting Gan,  E. Epifanovsky,  A. T. B. Gilbert,  M. Wormit,  
 J. Kussmann,  A. W. Lange,  A. Behn,  Jia Deng,  Xintian Feng,  D. Ghosh,  
 M. Goldey,  P. R. Horn,  L. D. Jacobson,  I. Kaliman,  T. Kus,  A. Landau,  
 Jie Liu,  E. I. Proynov,  R. M. Richard,  R. P. Steele,  E. J. Sundstrom,  
 H. L. Woodcock III,  P. M. Zimmerman,  D. Zuev,  B. Albrecht,  E. Alguire,  
 S. A. Baeppler,  D. Barton,  Z. Benda,  Y. A. Bernard,  E. J. Berquist,  
 K. B. Bravaya,  H. Burton,  D. Casanova,  Chun-Min Chang,  Yunqing Chen,  
 A. Chien,  K. D. Closser,  M. P. Coons,  S. Coriani,  S. Dasgupta,  
 A. L. Dempwolff,  M. Diedenhofen,  Hainam Do,  R. G. Edgar,  Po-Tung Fang,  
 S. Faraji,  S. Fatehi,  Qingguo Feng,  K. D. Fenk,  J. Fosso-Tande,  
 Qinghui Ge,  A. Ghysels,  G. Gidofalvi,  J. Gomes,  J. Gonthier,  A. Gunina,  
 D. Hait,  M. W. D. Hanson-Heine,  P. H. P. Harbach,  A. W. Hauser,  
 J. E. Herr,  E. G. Hohenstein,  Z. C. Holden,  Kerwin Hui,  B. C. Huynh,  
 T.-C. Jagau,  Hyunjun Ji,  B. Kaduk,  K. Khistyaev,  Jaehoon Kim,  
 P. Klunzinger,  K. Koh,  D. Kosenkov,  L. Koulias,  T. Kowalczyk,  
 C. M. Krauter,  A. Kunitsa,  Ka Un Lao,  A. Laurent,  K. V. Lawler,  
 Joonho Lee,  D. Lefrancois,  S. Lehtola,  D. S. Levine,  Yi-Pei Li,  
 You-Sheng Lin,  Fenglai Liu,  E. Livshits,  A. Luenser,  P. Manohar,  
 E. Mansoor,  S. F. Manzer,  Shan-Ping Mao,  Yuezhi Mao,  N. Mardirossian,  
 A. V. Marenich,  T. Markovich,  L. A. Martinez-Martinez,  S. A. Maurer,  
 N. J. Mayhall,  S. C. McKenzie,  J.-M. Mewes,  A. F. Morrison,  
 J. W. Mullinax,  K. Nanda,  T. S. Nguyen-Beck,  R. Olivares-Amaya,  
 J. A. Parkhill,  T. M. Perrine,  F. Plasser,  P. Pokhilko,  S. Prager,  
 A. Prociuk,  E. Ramos,  D. R. Rehn,  F. Rob,  M. Schneider,  N. Sergueev,  
 S. M. Sharada,  S. Sharma,  D. W. Small,  T. Stauch,  T. Stein,  
 Yu-Chuan Su,  A. J. W. Thom,  A. Tkatchenko,  T. Tsuchimochi,  N. M. Tubman,  
 L. Vogt,  M. L. Vidal,  O. Vydrov,  M. A. Watson,  J. Wenzel,  
 M. de Wergifosse,  T. A. Wesolowski,  A. White,  J. Witte,  A. Yamada,  
 Jun Yang,  K. Yao,  S. Yeganeh,  S. R. Yost,  Zhi-Qiang You,  A. Zech,  
 Igor Ying Zhang,  Xing Zhang,  Yan Zhao,  Ying Zhu,  B. R. Brooks,  
 G. K. L. Chan,  C. J. Cramer,  M. S. Gordon,  W. J. Hehre,  A. Klamt,  
 M. W. Schmidt,  C. D. Sherrill,  D. G. Truhlar,  A. Aspuru-Guzik,  R. Baer,  
 A. T. Bell,  N. A. Besley,  Jeng-Da Chai,  A. E. DePrince, III,  
 R. A. DiStasio Jr.,  A. Dreuw,  B. D. Dunietz,  T. R. Furlani,  
 Chao-Ping Hsu,  Yousung Jung,  Jing Kong,  D. S. Lambrecht,  WanZhen Liang,  
 C. Ochsenfeld,  V. A. Rassolov,  L. V. Slipchenko,  J. E. Subotnik,  
 T. Van Voorhis,  J. M. Herbert,  A. I. Krylov,  P. M. W. Gill,  M. Head-Gordon

 Contributors to earlier versions of Q-Chem not listed above: 
 R. D. Adamson,  B. Austin,  J. Baker,  G. J. O. Beran,  K. Brandhorst,  
 S. T. Brown,  E. F. C. Byrd,  A. K. Chakraborty,  C.-L. Cheng,  
 Siu Hung Chien,  D. M. Chipman,  D. L. Crittenden,  H. Dachsel,  
 R. J. Doerksen,  A. D. Dutoi,  L. Fusti-Molnar,  W. A. Goddard III,  
 A. Golubeva-Zadorozhnaya,  S. R. Gwaltney,  G. Hawkins,  A. Heyden,  
 S. Hirata,  G. Kedziora,  F. J. Keil,  C. Kelley,  Jihan Kim,  R. A. King,  
 R. Z. Khaliullin,  P. P. Korambath,  W. Kurlancheek,  A. M. Lee,  M. S. Lee,  
 S. V. Levchenko,  Ching Yeh Lin,  D. Liotard,  R. C. Lochan,  I. Lotan,  
 P. E. Maslen,  N. Nair,  D. P. O'Neill,  D. Neuhauser,  E. Neuscamman,  
 C. M. Oana,  R. Olson,  B. Peters,  R. Peverati,  P. A. Pieniazek,  
 Y. M. Rhee,  J. Ritchie,  M. A. Rohrdanz,  E. Rosta,  N. J. Russ,  
 H. F. Schaefer III,  N. E. Schultz,  N. Shenvi,  A. C. Simmonett,  A. Sodt,  
 D. Stuck,  K. S. Thanthiriwatte,  V. Vanovschi,  Tao Wang,  A. Warshel,  
 C. F. Williams,  Q. Wu,  X. Xu,  W. Zhang

 Please cite Q-Chem as follows:
 Y. Shao et al., Mol. Phys. 113, 184-215 (2015)
 DOI: 10.1080/00268976.2014.952696

 Q-Chem 5.1.1 for Intel X86 EM64T Linux

 Parts of Q-Chem use Armadillo 8.300.2 (Tropical Shenanigans).
 http://arma.sourceforge.net/

 Q-Chem begins on Sat Oct  3 00:02:00 2020  

Host: n0091.mhg0
0

     Scratch files written to /local/scratch/users/yhljason/HCHS_B2PLYP_aug-cc-pcVTZ.inp20201002235650//
The previous job contains 0 fragments, simply inherited here
Input Ideriv = 0
Curr. Ideriv = -1
Max.  Ideriv = 0
Analytic post-HF gradients are not available with non-HF exchange
Input Ideriv = 0
Curr. Ideriv = 0
Max.  Ideriv = 0

Checking the input file for inconsistencies... 	...done.

--------------------------------------------------------------
User input:
--------------------------------------------------------------
$molecule
read
$end

$rem

jobtype sp
method B2PLYP
xc_grid 000099000590
basis aug-cc-pcVTZ
max_scf_cycles 200
thresh 14
scf_convergence 8
mem_total 128000
cc_memory 96000
cc_backend xm
mem_static 1500
symmetry false
sym_ignore true
scf_guess read
unrestricted false
scf_algorithm gdm
n_frozen_core 0
$end

$multipole_field
XX -0.0001
$end


--------------------------------------------------------------
 ----------------------------------------------------------------
             Standard Nuclear Orientation (Angstroms)
    I     Atom           X                Y                Z
 ----------------------------------------------------------------
    1      S       0.0000000000     0.0000000000     0.5846000000
    2      C       0.0000000000     0.0000000000    -1.0262000000
    3      H       0.0000000000     0.9244000000    -1.5980000000
    4      H       0.0000000000    -0.9244000000    -1.5980000000
 ----------------------------------------------------------------
 Nuclear Repulsion Energy =    44.8102513215 hartrees
 There are       12 alpha and       12 beta electrons
 Requested basis set is aug-cc-pCVTZ
 There are 60 shells and 180 basis functions

 Total QAlloc Memory Limit 128000 MB
 Mega-Array Size      1467 MB
 MEM_STATIC part      1500 MB

                       Distance Matrix (Angstroms)
             S (  1)   C (  2)   H (  3)
   C (  2)  1.610800
   H (  3)  2.370287  1.086955
   H (  4)  2.370287  1.086955  1.848800
 
 Applying Cartesian multipole field
    Component          Value
    ---------          -----
     (2,0,0)       -1.00000E-04
 A cutoff of  1.0D-14 yielded   1814 shell pairs
 There are     16390 function pairs (     21953 Cartesian)
 
 -------------------------------------------------------
 OpenMP Integral Computing Module                       
 Release: version 1.0, May 2013, Q-Chem Inc. Pittsburgh 
 -------------------------------------------------------
 Integral Job Info:
 Integral job number is                      11
 Integral operator is                         1
 short-range coefficients                     0
 long-range coefficients              100000000
 Omega coefficients                           0
 if combine SR and LR in K                    0
 Integral screening is                        0
 Integral computing path is                   2
 max size of driver memory is            800000
 size of driver memory is                776718
 size of scratch memory is             29531563
 max col of scratch BK array              10000
 max len of scratch array in speh3          662
 max len of scratch index in speh4           32
 max int batch size is                      520
 min int batch size is                       52
 fixed nKL is                                31
 max L of basis functions is                  3
 order of int derivative is                   0
 number of shells is                         60
 number of basis is                         208
 number of cartesian basis is               208
 number of contracted shell pairs          1814
 number of primitive shell pairs           7476
 maxK2 (contraction) of shell pair          169
 max number of K2 of shell pair               1
 max number of CS2 of shell pair            257
 max number of PS2 of shell pair           1014
 mem total for path MDJ                  579280
 -------------------------------------------------------
 Smallest overlap matrix eigenvalue = 8.05E-05
 Guess MOs from SCF MO coefficient file

 -----------------------------------------------------------------------
  General SCF calculation program by
  Eric Jon Sundstrom, Paul Horn, Yuezhi Mao, Dmitri Zuev, Alec White,
  David Stuck, Shaama M.S., Shane Yost, Joonho Lee, David Small,
  Daniel Levine, Susi Lehtola, Hugh Burton, Evgeny Epifanovsky
 -----------------------------------------------------------------------
 Exchange:     0.5300 Hartree-Fock + 0.4700 B88
 Correlation:  0.7300 LYP
 Using Euler-Maclaurin-Lebedev (99,590) quadrature formula
 using 8 threads for integral computing
 -------------------------------------------------------
 OpenMP Integral computing Module                
 Release: version 2.0, May 2017, Q-Chem Inc. Pleasanton 
 -------------------------------------------------------
 -------------------------------------------------------
 OpenMP BLAS3 based DFT computing Module                
 Release: version 1.0, May 2013, Q-Chem Inc. Pittsburgh 
 -------------------------------------------------------
 A restricted SCF calculation will be
 performed using GDM
 SCF converges when RMS gradient is below 1.0e-08
 ---------------------------------------
  Cycle       Energy        RMS Gradient
 ---------------------------------------
    1    -437.2216785456      1.00e-03   Normal BFGS step
    2    -437.2216809035      1.27e-04   Normal BFGS step
    3    -437.2216810817      1.46e-04   Normal BFGS step
    4    -437.2216811190      8.28e-05   Normal BFGS step
    5    -437.2216811271      2.50e-05   Normal BFGS step
    6    -437.2216811292      3.44e-06   Normal BFGS step
    7    -437.2216811293      7.03e-07   Normal BFGS step
    8    -437.2216811293      1.80e-07   Normal BFGS step
    9    -437.2216811293      5.63e-08   Normal BFGS step
   10    -437.2216811293      3.23e-09  Convergence criterion met
 ---------------------------------------
 SCF time:   CPU 437.48s  wall 55.00s 
 SCF   energy in the final basis set =     -437.2216811293
 Total energy in the final basis set =     -437.2216811293
 
 Components of the MP2 correlation energy:
        aaaa  correlation energy =        -0.0272344009 au
        abab  correlation energy =        -0.1686747755 au
        bbbb  correlation energy =        -0.0272344009 au
        non-Brillouin singles    =        -0.0000000000 au

 Total  MP2   correlation energy =                    -0.22314358 au
        MP2         total energy =                  -437.44482471 au
 
 --------------------------------------------------------------
 
                    Orbital Energies (a.u.)
 --------------------------------------------------------------
 
 Alpha MOs
 -- Occupied --
-90.152 -10.696  -8.361  -6.207  -6.206  -6.201  -0.913  -0.694
 -0.544  -0.461  -0.366  -0.286
 -- Virtual --
 -0.045   0.010   0.030   0.039   0.067   0.078   0.092   0.105
  0.105   0.119   0.145   0.169   0.176   0.192   0.202   0.244
  0.256   0.258   0.269   0.301   0.313   0.327   0.338   0.352
  0.363   0.363   0.386   0.387   0.418   0.421   0.479   0.545
  0.560   0.571   0.593   0.620   0.629   0.638   0.696   0.718
  0.731   0.752   0.770   0.783   0.788   0.789   0.810   0.863
  0.867   0.871   0.887   0.904   0.935   0.990   0.992   1.011
  1.022   1.036   1.042   1.067   1.121   1.183   1.235   1.268
  1.357   1.394   1.398   1.433   1.452   1.458   1.469   1.528
  1.671   1.673   1.739   1.789   1.805   1.812   1.852   1.868
  1.883   1.896   1.942   2.124   2.132   2.132   2.217   2.238
  2.287   2.330   2.368   2.488   2.499   2.666   2.752   2.788
  2.915   2.932   3.002   3.048   3.271   3.321   3.342   3.464
  3.492   3.548   3.589   3.618   3.646   3.671   3.744   3.861
  3.881   4.022   4.070   4.230   4.259   4.452   4.503   4.556
  4.603   4.873   4.937   5.041   5.044   5.062   5.599   5.606
  6.204   6.288   8.425   8.433   8.480   8.655   9.038  10.657
 10.876  11.205  14.840  15.227  16.198  16.244  17.053  31.279
 31.280  31.282  31.282  31.288  31.299  31.301  38.836  38.841
 38.863  38.941  39.163  40.861  40.864  40.935  41.079  41.119
 46.556  46.794  47.154  80.301  81.016  81.042  85.704  86.286
 --------------------------------------------------------------
 
          Ground-State Mulliken Net Atomic Charges

     Atom                 Charge (a.u.)
  ----------------------------------------
      1 S                    -0.029146
      2 C                    -0.870750
      3 H                     0.449948
      4 H                     0.449948
  ----------------------------------------
  Sum of atomic charges =    -0.000000

 -----------------------------------------------------------------
                    Cartesian Multipole Moments
 -----------------------------------------------------------------
    Charge (ESU x 10^10)
                -0.0000
    Dipole Moment (Debye)
         X       0.0000      Y      -0.0000      Z      -1.8964
       Tot       1.8964
    Quadrupole Moments (Debye-Ang)
        XX     -20.0625     XY      -0.0000     YY     -20.5906
        XZ      -0.0000     YZ      -0.0000     ZZ     -17.1932
    Octopole Moments (Debye-Ang^2)
       XXX      -0.0000    XXY      -0.0000    XYY       0.0000
       YYY      -0.0000    XXZ       0.8088    XYZ       0.0000
       YYZ      -3.6188    XZZ       0.0000    YZZ      -0.0000
       ZZZ      -2.1206
    Hexadecapole Moments (Debye-Ang^3)
      XXXX     -25.9816   XXXY      -0.0000   XXYY     -10.6969
      XYYY      -0.0000   YYYY     -35.5223   XXXZ      -0.0000
      XXYZ       0.0000   XYYZ      -0.0000   YYYZ      -0.0000
      XXZZ     -21.7148   XYZZ      -0.0000   YYZZ     -21.7859
      XZZZ      -0.0000   YZZZ       0.0000   ZZZZ     -99.3188
 -----------------------------------------------------------------
Archival summary:
1\1\n0091.mhg0\SP\ProcedureUnspecified\BasisUnspecified\112\yhljason\SatOct300:03:422020SatOct300:03:422020\0\\#,ProcedureUnspecified,BasisUnspecified,\\0,1\S\C,1,1.6108\H,2,1.08695,1,121.739\H,2,1.08695,1,121.739,3,-180,0\\\@

 Total job time:  101.33s(wall), 800.11s(cpu) 
 Sat Oct  3 00:03:42 2020

        *************************************************************
        *                                                           *
        *  Thank you very much for using Q-Chem.  Have a nice day.  *
        *                                                           *
        *************************************************************


 
User input: 5 of 8 
 
Q-Chem Developer Version!
                  Welcome to Q-Chem
     A Quantum Leap Into The Future Of Chemistry


 Q-Chem 5.1, Q-Chem, Inc., Pleasanton, CA (2018)

 Yihan Shao,  Zhengting Gan,  E. Epifanovsky,  A. T. B. Gilbert,  M. Wormit,  
 J. Kussmann,  A. W. Lange,  A. Behn,  Jia Deng,  Xintian Feng,  D. Ghosh,  
 M. Goldey,  P. R. Horn,  L. D. Jacobson,  I. Kaliman,  T. Kus,  A. Landau,  
 Jie Liu,  E. I. Proynov,  R. M. Richard,  R. P. Steele,  E. J. Sundstrom,  
 H. L. Woodcock III,  P. M. Zimmerman,  D. Zuev,  B. Albrecht,  E. Alguire,  
 S. A. Baeppler,  D. Barton,  Z. Benda,  Y. A. Bernard,  E. J. Berquist,  
 K. B. Bravaya,  H. Burton,  D. Casanova,  Chun-Min Chang,  Yunqing Chen,  
 A. Chien,  K. D. Closser,  M. P. Coons,  S. Coriani,  S. Dasgupta,  
 A. L. Dempwolff,  M. Diedenhofen,  Hainam Do,  R. G. Edgar,  Po-Tung Fang,  
 S. Faraji,  S. Fatehi,  Qingguo Feng,  K. D. Fenk,  J. Fosso-Tande,  
 Qinghui Ge,  A. Ghysels,  G. Gidofalvi,  J. Gomes,  J. Gonthier,  A. Gunina,  
 D. Hait,  M. W. D. Hanson-Heine,  P. H. P. Harbach,  A. W. Hauser,  
 J. E. Herr,  E. G. Hohenstein,  Z. C. Holden,  Kerwin Hui,  B. C. Huynh,  
 T.-C. Jagau,  Hyunjun Ji,  B. Kaduk,  K. Khistyaev,  Jaehoon Kim,  
 P. Klunzinger,  K. Koh,  D. Kosenkov,  L. Koulias,  T. Kowalczyk,  
 C. M. Krauter,  A. Kunitsa,  Ka Un Lao,  A. Laurent,  K. V. Lawler,  
 Joonho Lee,  D. Lefrancois,  S. Lehtola,  D. S. Levine,  Yi-Pei Li,  
 You-Sheng Lin,  Fenglai Liu,  E. Livshits,  A. Luenser,  P. Manohar,  
 E. Mansoor,  S. F. Manzer,  Shan-Ping Mao,  Yuezhi Mao,  N. Mardirossian,  
 A. V. Marenich,  T. Markovich,  L. A. Martinez-Martinez,  S. A. Maurer,  
 N. J. Mayhall,  S. C. McKenzie,  J.-M. Mewes,  A. F. Morrison,  
 J. W. Mullinax,  K. Nanda,  T. S. Nguyen-Beck,  R. Olivares-Amaya,  
 J. A. Parkhill,  T. M. Perrine,  F. Plasser,  P. Pokhilko,  S. Prager,  
 A. Prociuk,  E. Ramos,  D. R. Rehn,  F. Rob,  M. Schneider,  N. Sergueev,  
 S. M. Sharada,  S. Sharma,  D. W. Small,  T. Stauch,  T. Stein,  
 Yu-Chuan Su,  A. J. W. Thom,  A. Tkatchenko,  T. Tsuchimochi,  N. M. Tubman,  
 L. Vogt,  M. L. Vidal,  O. Vydrov,  M. A. Watson,  J. Wenzel,  
 M. de Wergifosse,  T. A. Wesolowski,  A. White,  J. Witte,  A. Yamada,  
 Jun Yang,  K. Yao,  S. Yeganeh,  S. R. Yost,  Zhi-Qiang You,  A. Zech,  
 Igor Ying Zhang,  Xing Zhang,  Yan Zhao,  Ying Zhu,  B. R. Brooks,  
 G. K. L. Chan,  C. J. Cramer,  M. S. Gordon,  W. J. Hehre,  A. Klamt,  
 M. W. Schmidt,  C. D. Sherrill,  D. G. Truhlar,  A. Aspuru-Guzik,  R. Baer,  
 A. T. Bell,  N. A. Besley,  Jeng-Da Chai,  A. E. DePrince, III,  
 R. A. DiStasio Jr.,  A. Dreuw,  B. D. Dunietz,  T. R. Furlani,  
 Chao-Ping Hsu,  Yousung Jung,  Jing Kong,  D. S. Lambrecht,  WanZhen Liang,  
 C. Ochsenfeld,  V. A. Rassolov,  L. V. Slipchenko,  J. E. Subotnik,  
 T. Van Voorhis,  J. M. Herbert,  A. I. Krylov,  P. M. W. Gill,  M. Head-Gordon

 Contributors to earlier versions of Q-Chem not listed above: 
 R. D. Adamson,  B. Austin,  J. Baker,  G. J. O. Beran,  K. Brandhorst,  
 S. T. Brown,  E. F. C. Byrd,  A. K. Chakraborty,  C.-L. Cheng,  
 Siu Hung Chien,  D. M. Chipman,  D. L. Crittenden,  H. Dachsel,  
 R. J. Doerksen,  A. D. Dutoi,  L. Fusti-Molnar,  W. A. Goddard III,  
 A. Golubeva-Zadorozhnaya,  S. R. Gwaltney,  G. Hawkins,  A. Heyden,  
 S. Hirata,  G. Kedziora,  F. J. Keil,  C. Kelley,  Jihan Kim,  R. A. King,  
 R. Z. Khaliullin,  P. P. Korambath,  W. Kurlancheek,  A. M. Lee,  M. S. Lee,  
 S. V. Levchenko,  Ching Yeh Lin,  D. Liotard,  R. C. Lochan,  I. Lotan,  
 P. E. Maslen,  N. Nair,  D. P. O'Neill,  D. Neuhauser,  E. Neuscamman,  
 C. M. Oana,  R. Olson,  B. Peters,  R. Peverati,  P. A. Pieniazek,  
 Y. M. Rhee,  J. Ritchie,  M. A. Rohrdanz,  E. Rosta,  N. J. Russ,  
 H. F. Schaefer III,  N. E. Schultz,  N. Shenvi,  A. C. Simmonett,  A. Sodt,  
 D. Stuck,  K. S. Thanthiriwatte,  V. Vanovschi,  Tao Wang,  A. Warshel,  
 C. F. Williams,  Q. Wu,  X. Xu,  W. Zhang

 Please cite Q-Chem as follows:
 Y. Shao et al., Mol. Phys. 113, 184-215 (2015)
 DOI: 10.1080/00268976.2014.952696

 Q-Chem 5.1.1 for Intel X86 EM64T Linux

 Parts of Q-Chem use Armadillo 8.300.2 (Tropical Shenanigans).
 http://arma.sourceforge.net/

 Q-Chem begins on Sat Oct  3 00:03:42 2020  

Host: n0091.mhg0
0

     Scratch files written to /local/scratch/users/yhljason/HCHS_B2PLYP_aug-cc-pcVTZ.inp20201002235650//
The previous job contains 0 fragments, simply inherited here
Input Ideriv = 0
Curr. Ideriv = -1
Max.  Ideriv = 0
Analytic post-HF gradients are not available with non-HF exchange
Input Ideriv = 0
Curr. Ideriv = 0
Max.  Ideriv = 0

Checking the input file for inconsistencies... 	...done.

--------------------------------------------------------------
User input:
--------------------------------------------------------------
$molecule
read
$end

$rem

jobtype sp
method B2PLYP
xc_grid 000099000590
basis aug-cc-pcVTZ
max_scf_cycles 200
thresh 14
scf_convergence 8
mem_total 128000
cc_memory 96000
cc_backend xm
mem_static 1500
symmetry false
sym_ignore true
scf_guess read
unrestricted false
scf_algorithm gdm
n_frozen_core 0
$end

$multipole_field
YY 0.0001
$end


--------------------------------------------------------------
 ----------------------------------------------------------------
             Standard Nuclear Orientation (Angstroms)
    I     Atom           X                Y                Z
 ----------------------------------------------------------------
    1      S       0.0000000000     0.0000000000     0.5846000000
    2      C       0.0000000000     0.0000000000    -1.0262000000
    3      H       0.0000000000     0.9244000000    -1.5980000000
    4      H       0.0000000000    -0.9244000000    -1.5980000000
 ----------------------------------------------------------------
 Nuclear Repulsion Energy =    44.8102513215 hartrees
 There are       12 alpha and       12 beta electrons
 Requested basis set is aug-cc-pCVTZ
 There are 60 shells and 180 basis functions

 Total QAlloc Memory Limit 128000 MB
 Mega-Array Size      1467 MB
 MEM_STATIC part      1500 MB

                       Distance Matrix (Angstroms)
             S (  1)   C (  2)   H (  3)
   C (  2)  1.610800
   H (  3)  2.370287  1.086955
   H (  4)  2.370287  1.086955  1.848800
 
 Applying Cartesian multipole field
    Component          Value
    ---------          -----
     (0,2,0)        1.00000E-04
 Nucleus-field energy     =     0.0006103059 hartrees
 A cutoff of  1.0D-14 yielded   1814 shell pairs
 There are     16390 function pairs (     21953 Cartesian)
 
 -------------------------------------------------------
 OpenMP Integral Computing Module                       
 Release: version 1.0, May 2013, Q-Chem Inc. Pittsburgh 
 -------------------------------------------------------
 Integral Job Info:
 Integral job number is                      11
 Integral operator is                         1
 short-range coefficients                     0
 long-range coefficients              100000000
 Omega coefficients                           0
 if combine SR and LR in K                    0
 Integral screening is                        0
 Integral computing path is                   2
 max size of driver memory is            800000
 size of driver memory is                776718
 size of scratch memory is             29531563
 max col of scratch BK array              10000
 max len of scratch array in speh3          662
 max len of scratch index in speh4           32
 max int batch size is                      520
 min int batch size is                       52
 fixed nKL is                                31
 max L of basis functions is                  3
 order of int derivative is                   0
 number of shells is                         60
 number of basis is                         208
 number of cartesian basis is               208
 number of contracted shell pairs          1814
 number of primitive shell pairs           7476
 maxK2 (contraction) of shell pair          169
 max number of K2 of shell pair               1
 max number of CS2 of shell pair            257
 max number of PS2 of shell pair           1014
 mem total for path MDJ                  579280
 -------------------------------------------------------
 Smallest overlap matrix eigenvalue = 8.05E-05
 Guess MOs from SCF MO coefficient file

 -----------------------------------------------------------------------
  General SCF calculation program by
  Eric Jon Sundstrom, Paul Horn, Yuezhi Mao, Dmitri Zuev, Alec White,
  David Stuck, Shaama M.S., Shane Yost, Joonho Lee, David Small,
  Daniel Levine, Susi Lehtola, Hugh Burton, Evgeny Epifanovsky
 -----------------------------------------------------------------------
 Exchange:     0.5300 Hartree-Fock + 0.4700 B88
 Correlation:  0.7300 LYP
 Using Euler-Maclaurin-Lebedev (99,590) quadrature formula
 using 8 threads for integral computing
 -------------------------------------------------------
 OpenMP Integral computing Module                
 Release: version 2.0, May 2017, Q-Chem Inc. Pleasanton 
 -------------------------------------------------------
 -------------------------------------------------------
 OpenMP BLAS3 based DFT computing Module                
 Release: version 1.0, May 2013, Q-Chem Inc. Pittsburgh 
 -------------------------------------------------------
 A restricted SCF calculation will be
 performed using GDM
 SCF converges when RMS gradient is below 1.0e-08
 ---------------------------------------
  Cycle       Energy        RMS Gradient
 ---------------------------------------
    1    -437.2247035923      6.75e-04   Normal BFGS step
    2    -437.2247051837      1.74e-04   Normal BFGS step
    3    -437.2247054144      1.24e-04   Normal BFGS step
    4    -437.2247054266      9.55e-05   Normal BFGS step
    5    -437.2247054389      1.05e-05   Normal BFGS step
    6    -437.2247054394      2.51e-06   Normal BFGS step
    7    -437.2247054395      4.38e-07   Normal BFGS step
    8    -437.2247054395      1.93e-07   Normal BFGS step
    9    -437.2247054395      2.27e-08   Normal BFGS step
   10    -437.2247054395      3.51e-09  Convergence criterion met
 ---------------------------------------
 SCF time:   CPU 429.74s  wall 54.00s 
 SCF   energy in the final basis set =     -437.2247054395
 Total energy in the final basis set =     -437.2247054395
 
 Components of the MP2 correlation energy:
        aaaa  correlation energy =        -0.0272340066 au
        abab  correlation energy =        -0.1686662722 au
        bbbb  correlation energy =        -0.0272340066 au
        non-Brillouin singles    =        -0.0000000000 au

 Total  MP2   correlation energy =                    -0.22313429 au
        MP2         total energy =                  -437.44783972 au
 
 --------------------------------------------------------------
 
                    Orbital Energies (a.u.)
 --------------------------------------------------------------
 
 Alpha MOs
 -- Occupied --
-90.153 -10.697  -8.361  -6.207  -6.206  -6.201  -0.914  -0.695
 -0.545  -0.461  -0.367  -0.287
 -- Virtual --
 -0.045   0.006   0.024   0.037   0.063   0.076   0.088   0.100
  0.101   0.115   0.143   0.167   0.174   0.190   0.200   0.242
  0.254   0.256   0.267   0.298   0.312   0.325   0.335   0.350
  0.361   0.361   0.384   0.385   0.416   0.419   0.478   0.544
  0.558   0.570   0.592   0.619   0.628   0.637   0.694   0.717
  0.730   0.751   0.769   0.782   0.786   0.789   0.808   0.862
  0.866   0.870   0.885   0.903   0.934   0.988   0.991   1.010
  1.021   1.035   1.041   1.066   1.120   1.182   1.234   1.267
  1.356   1.393   1.397   1.432   1.451   1.456   1.468   1.527
  1.670   1.672   1.738   1.789   1.804   1.811   1.851   1.868
  1.882   1.895   1.941   2.123   2.131   2.131   2.216   2.237
  2.286   2.329   2.368   2.487   2.498   2.665   2.752   2.788
  2.914   2.931   3.002   3.047   3.270   3.320   3.341   3.463
  3.491   3.547   3.588   3.617   3.646   3.671   3.743   3.860
  3.880   4.021   4.070   4.229   4.258   4.451   4.502   4.555
  4.603   4.873   4.936   5.041   5.044   5.061   5.598   5.606
  6.204   6.288   8.424   8.432   8.480   8.654   9.037  10.657
 10.875  11.204  14.839  15.226  16.197  16.243  17.052  31.278
 31.279  31.281  31.282  31.287  31.299  31.300  38.836  38.840
 38.863  38.940  39.162  40.860  40.863  40.934  41.078  41.118
 46.555  46.793  47.153  80.300  81.015  81.041  85.703  86.285
 --------------------------------------------------------------
 
          Ground-State Mulliken Net Atomic Charges

     Atom                 Charge (a.u.)
  ----------------------------------------
      1 S                    -0.030171
      2 C                    -0.869833
      3 H                     0.450002
      4 H                     0.450002
  ----------------------------------------
  Sum of atomic charges =    -0.000000

 -----------------------------------------------------------------
                    Cartesian Multipole Moments
 -----------------------------------------------------------------
    Charge (ESU x 10^10)
                -0.0000
    Dipole Moment (Debye)
         X       0.0000      Y       0.0000      Z      -1.8985
       Tot       1.8985
    Quadrupole Moments (Debye-Ang)
        XX     -20.0835     XY       0.0000     YY     -20.6195
        XZ       0.0000     YZ      -0.0000     ZZ     -17.1969
    Octopole Moments (Debye-Ang^2)
       XXX       0.0000    XXY       0.0000    XYY       0.0000
       YYY       0.0000    XXZ       0.8048    XYZ      -0.0000
       YYZ      -3.6240    XZZ      -0.0000    YZZ       0.0000
       ZZZ      -2.1267
    Hexadecapole Moments (Debye-Ang^3)
      XXXX     -26.0867   XXXY       0.0000   XXYY     -10.7407
      XYYY       0.0000   YYYY     -35.6846   XXXZ       0.0000
      XXYZ      -0.0000   XYYZ       0.0000   YYYZ      -0.0000
      XXZZ     -21.7465   XYZZ       0.0000   YYZZ     -21.8439
      XZZZ       0.0000   YZZZ      -0.0000   ZZZZ     -99.3667
 -----------------------------------------------------------------
Archival summary:
1\1\n0091.mhg0\SP\ProcedureUnspecified\BasisUnspecified\112\yhljason\SatOct300:05:222020SatOct300:05:222020\0\\#,ProcedureUnspecified,BasisUnspecified,\\0,1\S\C,1,1.6108\H,2,1.08695,1,121.739\H,2,1.08695,1,121.739,3,-180,0\\\@

 Total job time:  100.22s(wall), 790.99s(cpu) 
 Sat Oct  3 00:05:22 2020

        *************************************************************
        *                                                           *
        *  Thank you very much for using Q-Chem.  Have a nice day.  *
        *                                                           *
        *************************************************************


 
User input: 6 of 8 
 
Q-Chem Developer Version!
                  Welcome to Q-Chem
     A Quantum Leap Into The Future Of Chemistry


 Q-Chem 5.1, Q-Chem, Inc., Pleasanton, CA (2018)

 Yihan Shao,  Zhengting Gan,  E. Epifanovsky,  A. T. B. Gilbert,  M. Wormit,  
 J. Kussmann,  A. W. Lange,  A. Behn,  Jia Deng,  Xintian Feng,  D. Ghosh,  
 M. Goldey,  P. R. Horn,  L. D. Jacobson,  I. Kaliman,  T. Kus,  A. Landau,  
 Jie Liu,  E. I. Proynov,  R. M. Richard,  R. P. Steele,  E. J. Sundstrom,  
 H. L. Woodcock III,  P. M. Zimmerman,  D. Zuev,  B. Albrecht,  E. Alguire,  
 S. A. Baeppler,  D. Barton,  Z. Benda,  Y. A. Bernard,  E. J. Berquist,  
 K. B. Bravaya,  H. Burton,  D. Casanova,  Chun-Min Chang,  Yunqing Chen,  
 A. Chien,  K. D. Closser,  M. P. Coons,  S. Coriani,  S. Dasgupta,  
 A. L. Dempwolff,  M. Diedenhofen,  Hainam Do,  R. G. Edgar,  Po-Tung Fang,  
 S. Faraji,  S. Fatehi,  Qingguo Feng,  K. D. Fenk,  J. Fosso-Tande,  
 Qinghui Ge,  A. Ghysels,  G. Gidofalvi,  J. Gomes,  J. Gonthier,  A. Gunina,  
 D. Hait,  M. W. D. Hanson-Heine,  P. H. P. Harbach,  A. W. Hauser,  
 J. E. Herr,  E. G. Hohenstein,  Z. C. Holden,  Kerwin Hui,  B. C. Huynh,  
 T.-C. Jagau,  Hyunjun Ji,  B. Kaduk,  K. Khistyaev,  Jaehoon Kim,  
 P. Klunzinger,  K. Koh,  D. Kosenkov,  L. Koulias,  T. Kowalczyk,  
 C. M. Krauter,  A. Kunitsa,  Ka Un Lao,  A. Laurent,  K. V. Lawler,  
 Joonho Lee,  D. Lefrancois,  S. Lehtola,  D. S. Levine,  Yi-Pei Li,  
 You-Sheng Lin,  Fenglai Liu,  E. Livshits,  A. Luenser,  P. Manohar,  
 E. Mansoor,  S. F. Manzer,  Shan-Ping Mao,  Yuezhi Mao,  N. Mardirossian,  
 A. V. Marenich,  T. Markovich,  L. A. Martinez-Martinez,  S. A. Maurer,  
 N. J. Mayhall,  S. C. McKenzie,  J.-M. Mewes,  A. F. Morrison,  
 J. W. Mullinax,  K. Nanda,  T. S. Nguyen-Beck,  R. Olivares-Amaya,  
 J. A. Parkhill,  T. M. Perrine,  F. Plasser,  P. Pokhilko,  S. Prager,  
 A. Prociuk,  E. Ramos,  D. R. Rehn,  F. Rob,  M. Schneider,  N. Sergueev,  
 S. M. Sharada,  S. Sharma,  D. W. Small,  T. Stauch,  T. Stein,  
 Yu-Chuan Su,  A. J. W. Thom,  A. Tkatchenko,  T. Tsuchimochi,  N. M. Tubman,  
 L. Vogt,  M. L. Vidal,  O. Vydrov,  M. A. Watson,  J. Wenzel,  
 M. de Wergifosse,  T. A. Wesolowski,  A. White,  J. Witte,  A. Yamada,  
 Jun Yang,  K. Yao,  S. Yeganeh,  S. R. Yost,  Zhi-Qiang You,  A. Zech,  
 Igor Ying Zhang,  Xing Zhang,  Yan Zhao,  Ying Zhu,  B. R. Brooks,  
 G. K. L. Chan,  C. J. Cramer,  M. S. Gordon,  W. J. Hehre,  A. Klamt,  
 M. W. Schmidt,  C. D. Sherrill,  D. G. Truhlar,  A. Aspuru-Guzik,  R. Baer,  
 A. T. Bell,  N. A. Besley,  Jeng-Da Chai,  A. E. DePrince, III,  
 R. A. DiStasio Jr.,  A. Dreuw,  B. D. Dunietz,  T. R. Furlani,  
 Chao-Ping Hsu,  Yousung Jung,  Jing Kong,  D. S. Lambrecht,  WanZhen Liang,  
 C. Ochsenfeld,  V. A. Rassolov,  L. V. Slipchenko,  J. E. Subotnik,  
 T. Van Voorhis,  J. M. Herbert,  A. I. Krylov,  P. M. W. Gill,  M. Head-Gordon

 Contributors to earlier versions of Q-Chem not listed above: 
 R. D. Adamson,  B. Austin,  J. Baker,  G. J. O. Beran,  K. Brandhorst,  
 S. T. Brown,  E. F. C. Byrd,  A. K. Chakraborty,  C.-L. Cheng,  
 Siu Hung Chien,  D. M. Chipman,  D. L. Crittenden,  H. Dachsel,  
 R. J. Doerksen,  A. D. Dutoi,  L. Fusti-Molnar,  W. A. Goddard III,  
 A. Golubeva-Zadorozhnaya,  S. R. Gwaltney,  G. Hawkins,  A. Heyden,  
 S. Hirata,  G. Kedziora,  F. J. Keil,  C. Kelley,  Jihan Kim,  R. A. King,  
 R. Z. Khaliullin,  P. P. Korambath,  W. Kurlancheek,  A. M. Lee,  M. S. Lee,  
 S. V. Levchenko,  Ching Yeh Lin,  D. Liotard,  R. C. Lochan,  I. Lotan,  
 P. E. Maslen,  N. Nair,  D. P. O'Neill,  D. Neuhauser,  E. Neuscamman,  
 C. M. Oana,  R. Olson,  B. Peters,  R. Peverati,  P. A. Pieniazek,  
 Y. M. Rhee,  J. Ritchie,  M. A. Rohrdanz,  E. Rosta,  N. J. Russ,  
 H. F. Schaefer III,  N. E. Schultz,  N. Shenvi,  A. C. Simmonett,  A. Sodt,  
 D. Stuck,  K. S. Thanthiriwatte,  V. Vanovschi,  Tao Wang,  A. Warshel,  
 C. F. Williams,  Q. Wu,  X. Xu,  W. Zhang

 Please cite Q-Chem as follows:
 Y. Shao et al., Mol. Phys. 113, 184-215 (2015)
 DOI: 10.1080/00268976.2014.952696

 Q-Chem 5.1.1 for Intel X86 EM64T Linux

 Parts of Q-Chem use Armadillo 8.300.2 (Tropical Shenanigans).
 http://arma.sourceforge.net/

 Q-Chem begins on Sat Oct  3 00:05:22 2020  

Host: n0091.mhg0
0

     Scratch files written to /local/scratch/users/yhljason/HCHS_B2PLYP_aug-cc-pcVTZ.inp20201002235650//
The previous job contains 0 fragments, simply inherited here
Input Ideriv = 0
Curr. Ideriv = -1
Max.  Ideriv = 0
Analytic post-HF gradients are not available with non-HF exchange
Input Ideriv = 0
Curr. Ideriv = 0
Max.  Ideriv = 0

Checking the input file for inconsistencies... 	...done.

--------------------------------------------------------------
User input:
--------------------------------------------------------------
$molecule
read
$end

$rem

jobtype sp
method B2PLYP
xc_grid 000099000590
basis aug-cc-pcVTZ
max_scf_cycles 200
thresh 14
scf_convergence 8
mem_total 128000
cc_memory 96000
cc_backend xm
mem_static 1500
symmetry false
sym_ignore true
scf_guess read
unrestricted false
scf_algorithm gdm
n_frozen_core 0
$end

$multipole_field
YY -0.0001
$end


--------------------------------------------------------------
 ----------------------------------------------------------------
             Standard Nuclear Orientation (Angstroms)
    I     Atom           X                Y                Z
 ----------------------------------------------------------------
    1      S       0.0000000000     0.0000000000     0.5846000000
    2      C       0.0000000000     0.0000000000    -1.0262000000
    3      H       0.0000000000     0.9244000000    -1.5980000000
    4      H       0.0000000000    -0.9244000000    -1.5980000000
 ----------------------------------------------------------------
 Nuclear Repulsion Energy =    44.8102513215 hartrees
 There are       12 alpha and       12 beta electrons
 Requested basis set is aug-cc-pCVTZ
 There are 60 shells and 180 basis functions

 Total QAlloc Memory Limit 128000 MB
 Mega-Array Size      1467 MB
 MEM_STATIC part      1500 MB

                       Distance Matrix (Angstroms)
             S (  1)   C (  2)   H (  3)
   C (  2)  1.610800
   H (  3)  2.370287  1.086955
   H (  4)  2.370287  1.086955  1.848800
 
 Applying Cartesian multipole field
    Component          Value
    ---------          -----
     (0,2,0)       -1.00000E-04
 Nucleus-field energy     =    -0.0006103059 hartrees
 A cutoff of  1.0D-14 yielded   1814 shell pairs
 There are     16390 function pairs (     21953 Cartesian)
 
 -------------------------------------------------------
[...]
  Cycle       Energy        RMS Gradient
 ---------------------------------------
    1    -437.2244503677      8.40e-04   Normal BFGS step
    2    -437.2244529841      3.58e-04   Normal BFGS step
    3    -437.2244535662      8.40e-05   Normal BFGS step
    4    -437.2244535702      1.15e-04   Normal BFGS step
    5    -437.2244535829      3.32e-06   Normal BFGS step
    6    -437.2244535832      1.59e-06   Normal BFGS step
    7    -437.2244535832      7.15e-07   Normal BFGS step
    8    -437.2244535832      2.08e-07   Normal BFGS step
    9    -437.2244535832      2.05e-08   Normal BFGS step
   10    -437.2244535832      3.82e-09  Convergence criterion met
 ---------------------------------------
 SCF time:   CPU 438.10s  wall 55.00s 
 SCF   energy in the final basis set =     -437.2244535832
 Total energy in the final basis set =     -437.2244535832
 
 Components of the MP2 correlation energy:
        aaaa  correlation energy =        -0.0272357512 au
        abab  correlation energy =        -0.1686786085 au
        bbbb  correlation energy =        -0.0272357512 au
        non-Brillouin singles    =        -0.0000000000 au

 Total  MP2   correlation energy =                    -0.22315011 au
        MP2         total energy =                  -437.44760369 au
 
 --------------------------------------------------------------
 
                    Orbital Energies (a.u.)
 --------------------------------------------------------------
 
 Alpha MOs
 -- Occupied --
-90.153 -10.698  -8.362  -6.208  -6.207  -6.202  -0.914  -0.695
 -0.545  -0.462  -0.367  -0.287
 -- Virtual --
 -0.046   0.005   0.026   0.034   0.063   0.074   0.089   0.099
  0.100   0.116   0.143   0.166   0.174   0.190   0.199   0.240
  0.254   0.255   0.267   0.298   0.311   0.324   0.334   0.350
  0.360   0.361   0.384   0.384   0.415   0.418   0.477   0.543
  0.557   0.569   0.591   0.619   0.628   0.636   0.694   0.716
  0.730   0.751   0.769   0.782   0.786   0.788   0.808   0.861
  0.865   0.870   0.885   0.903   0.934   0.988   0.991   1.010
  1.021   1.034   1.040   1.066   1.119   1.182   1.234   1.266
  1.355   1.393   1.397   1.431   1.450   1.456   1.468   1.526
  1.669   1.672   1.738   1.788   1.804   1.811   1.851   1.867
  1.881   1.895   1.941   2.123   2.131   2.131   2.216   2.237
  2.285   2.329   2.367   2.487   2.498   2.665   2.751   2.787
  2.913   2.931   3.001   3.047   3.270   3.320   3.340   3.463
  3.491   3.547   3.588   3.616   3.645   3.670   3.743   3.860
  3.879   4.021   4.069   4.228   4.257   4.451   4.502   4.554
  4.602   4.872   4.936   5.040   5.043   5.061   5.598   5.605
  6.203   6.287   8.424   8.431   8.479   8.654   9.036  10.656
 10.875  11.204  14.839  15.226  16.196  16.243  17.052  31.278
 31.279  31.281  31.281  31.287  31.298  31.300  38.835  38.839
 38.862  38.940  39.161  40.860  40.863  40.934  41.078  41.118
 46.555  46.793  47.153  80.300  81.015  81.041  85.703  86.285
 --------------------------------------------------------------
 
          Ground-State Mulliken Net Atomic Charges

     Atom                 Charge (a.u.)
  ----------------------------------------
      1 S                    -0.026686
      2 C                    -0.872782
      3 H                     0.449734
      4 H                     0.449734
  ----------------------------------------
  Sum of atomic charges =    -0.000000

 -----------------------------------------------------------------
                    Cartesian Multipole Moments
 -----------------------------------------------------------------
    Charge (ESU x 10^10)
                -0.0000
    Dipole Moment (Debye)
         X       0.0000      Y       0.0000      Z      -1.8902
       Tot       1.8902
    Quadrupole Moments (Debye-Ang)
        XX     -20.0792     XY      -0.0000     YY     -20.5985
        XZ      -0.0000     YZ      -0.0000     ZZ     -17.2460
    Octopole Moments (Debye-Ang^2)
       XXX       0.0000    XXY       0.0000    XYY       0.0000
       YYY       0.0000    XXZ       0.8131    XYZ       0.0000
       YYZ      -3.6132    XZZ       0.0000    YZZ       0.0000
       ZZZ      -2.0686
    Hexadecapole Moments (Debye-Ang^3)
      XXXX     -26.0656   XXXY      -0.0000   XXYY     -10.7194
      XYYY       0.0000   YYYY     -35.5717   XXXZ       0.0000
      XXYZ      -0.0000   XYYZ      -0.0000   YYYZ      -0.0000
      XXZZ     -21.7724   XYZZ      -0.0000   YYZZ     -21.8567
      XZZZ       0.0000   YZZZ      -0.0000   ZZZZ     -99.6782
 -----------------------------------------------------------------
Archival summary:
1\1\n0091.mhg0\SP\ProcedureUnspecified\BasisUnspecified\112\yhljason\SatOct300:08:452020SatOct300:08:452020\0\\#,ProcedureUnspecified,BasisUnspecified,\\0,1\S\C,1,1.6108\H,2,1.08695,1,121.739\H,2,1.08695,1,121.739,3,-180,0\\\@

 Total job time:  102.07s(wall), 803.96s(cpu) 
 Sat Oct  3 00:08:45 2020

        *************************************************************
        *                                                           *
        *  Thank you very much for using Q-Chem.  Have a nice day.  *
        *                                                           *
        *************************************************************


 
User input: 8 of 8 
 
Q-Chem Developer Version!
                  Welcome to Q-Chem
     A Quantum Leap Into The Future Of Chemistry


 Q-Chem 5.1, Q-Chem, Inc., Pleasanton, CA (2018)

 Yihan Shao,  Zhengting Gan,  E. Epifanovsky,  A. T. B. Gilbert,  M. Wormit,  
 J. Kussmann,  A. W. Lange,  A. Behn,  Jia Deng,  Xintian Feng,  D. Ghosh,  
 M. Goldey,  P. R. Horn,  L. D. Jacobson,  I. Kaliman,  T. Kus,  A. Landau,  
 Jie Liu,  E. I. Proynov,  R. M. Richard,  R. P. Steele,  E. J. Sundstrom,  
 H. L. Woodcock III,  P. M. Zimmerman,  D. Zuev,  B. Albrecht,  E. Alguire,  
 S. A. Baeppler,  D. Barton,  Z. Benda,  Y. A. Bernard,  E. J. Berquist,  
 K. B. Bravaya,  H. Burton,  D. Casanova,  Chun-Min Chang,  Yunqing Chen,  
 A. Chien,  K. D. Closser,  M. P. Coons,  S. Coriani,  S. Dasgupta,  
 A. L. Dempwolff,  M. Diedenhofen,  Hainam Do,  R. G. Edgar,  Po-Tung Fang,  
 S. Faraji,  S. Fatehi,  Qingguo Feng,  K. D. Fenk,  J. Fosso-Tande,  
 Qinghui Ge,  A. Ghysels,  G. Gidofalvi,  J. Gomes,  J. Gonthier,  A. Gunina,  
 D. Hait,  M. W. D. Hanson-Heine,  P. H. P. Harbach,  A. W. Hauser,  
 J. E. Herr,  E. G. Hohenstein,  Z. C. Holden,  Kerwin Hui,  B. C. Huynh,  
 T.-C. Jagau,  Hyunjun Ji,  B. Kaduk,  K. Khistyaev,  Jaehoon Kim,  
 P. Klunzinger,  K. Koh,  D. Kosenkov,  L. Koulias,  T. Kowalczyk,  
 C. M. Krauter,  A. Kunitsa,  Ka Un Lao,  A. Laurent,  K. V. Lawler,  
 Joonho Lee,  D. Lefrancois,  S. Lehtola,  D. S. Levine,  Yi-Pei Li,  
 You-Sheng Lin,  Fenglai Liu,  E. Livshits,  A. Luenser,  P. Manohar,  
 E. Mansoor,  S. F. Manzer,  Shan-Ping Mao,  Yuezhi Mao,  N. Mardirossian,  
 A. V. Marenich,  T. Markovich,  L. A. Martinez-Martinez,  S. A. Maurer,  
 N. J. Mayhall,  S. C. McKenzie,  J.-M. Mewes,  A. F. Morrison,  
 J. W. Mullinax,  K. Nanda,  T. S. Nguyen-Beck,  R. Olivares-Amaya,  
 J. A. Parkhill,  T. M. Perrine,  F. Plasser,  P. Pokhilko,  S. Prager,  
 A. Prociuk,  E. Ramos,  D. R. Rehn,  F. Rob,  M. Schneider,  N. Sergueev,  
 S. M. Sharada,  S. Sharma,  D. W. Small,  T. Stauch,  T. Stein,  
 Yu-Chuan Su,  A. J. W. Thom,  A. Tkatchenko,  T. Tsuchimochi,  N. M. Tubman,  
 L. Vogt,  M. L. Vidal,  O. Vydrov,  M. A. Watson,  J. Wenzel,  
 M. de Wergifosse,  T. A. Wesolowski,  A. White,  J. Witte,  A. Yamada,  
 Jun Yang,  K. Yao,  S. Yeganeh,  S. R. Yost,  Zhi-Qiang You,  A. Zech,  
 Igor Ying Zhang,  Xing Zhang,  Yan Zhao,  Ying Zhu,  B. R. Brooks,  
 G. K. L. Chan,  C. J. Cramer,  M. S. Gordon,  W. J. Hehre,  A. Klamt,  
 M. W. Schmidt,  C. D. Sherrill,  D. G. Truhlar,  A. Aspuru-Guzik,  R. Baer,  
 A. T. Bell,  N. A. Besley,  Jeng-Da Chai,  A. E. DePrince, III,  
 R. A. DiStasio Jr.,  A. Dreuw,  B. D. Dunietz,  T. R. Furlani,  
 Chao-Ping Hsu,  Yousung Jung,  Jing Kong,  D. S. Lambrecht,  WanZhen Liang,  
 C. Ochsenfeld,  V. A. Rassolov,  L. V. Slipchenko,  J. E. Subotnik,  
 T. Van Voorhis,  J. M. Herbert,  A. I. Krylov,  P. M. W. Gill,  M. Head-Gordon

 Contributors to earlier versions of Q-Chem not listed above: 
 R. D. Adamson,  B. Austin,  J. Baker,  G. J. O. Beran,  K. Brandhorst,  
 S. T. Brown,  E. F. C. Byrd,  A. K. Chakraborty,  C.-L. Cheng,  
 Siu Hung Chien,  D. M. Chipman,  D. L. Crittenden,  H. Dachsel,  
 R. J. Doerksen,  A. D. Dutoi,  L. Fusti-Molnar,  W. A. Goddard III,  
 A. Golubeva-Zadorozhnaya,  S. R. Gwaltney,  G. Hawkins,  A. Heyden,  
 S. Hirata,  G. Kedziora,  F. J. Keil,  C. Kelley,  Jihan Kim,  R. A. King,  
 R. Z. Khaliullin,  P. P. Korambath,  W. Kurlancheek,  A. M. Lee,  M. S. Lee,  
 S. V. Levchenko,  Ching Yeh Lin,  D. Liotard,  R. C. Lochan,  I. Lotan,  
 P. E. Maslen,  N. Nair,  D. P. O'Neill,  D. Neuhauser,  E. Neuscamman,  
 C. M. Oana,  R. Olson,  B. Peters,  R. Peverati,  P. A. Pieniazek,  
 Y. M. Rhee,  J. Ritchie,  M. A. Rohrdanz,  E. Rosta,  N. J. Russ,  
 H. F. Schaefer III,  N. E. Schultz,  N. Shenvi,  A. C. Simmonett,  A. Sodt,  
 D. Stuck,  K. S. Thanthiriwatte,  V. Vanovschi,  Tao Wang,  A. Warshel,  
 C. F. Williams,  Q. Wu,  X. Xu,  W. Zhang

 Please cite Q-Chem as follows:
 Y. Shao et al., Mol. Phys. 113, 184-215 (2015)
 DOI: 10.1080/00268976.2014.952696

 Q-Chem 5.1.1 for Intel X86 EM64T Linux

 Parts of Q-Chem use Armadillo 8.300.2 (Tropical Shenanigans).
 http://arma.sourceforge.net/

 Q-Chem begins on Sat Oct  3 00:08:45 2020  

Host: n0091.mhg0
0

     Scratch files written to /local/scratch/users/yhljason/HCHS_B2PLYP_aug-cc-pcVTZ.inp20201002235650//
The previous job contains 0 fragments, simply inherited here
Input Ideriv = 0
Curr. Ideriv = -1
Max.  Ideriv = 0
Analytic post-HF gradients are not available with non-HF exchange
Input Ideriv = 0
Curr. Ideriv = 0
Max.  Ideriv = 0

Checking the input file for inconsistencies... 	...done.

--------------------------------------------------------------
User input:
--------------------------------------------------------------
$molecule
read
$end

$rem

jobtype sp
method B2PLYP
xc_grid 000099000590
basis aug-cc-pcVTZ
max_scf_cycles 200
thresh 14
scf_convergence 8
mem_total 128000
cc_memory 96000
cc_backend xm
mem_static 1500
symmetry false
sym_ignore true
scf_guess read
unrestricted false
scf_algorithm gdm
n_frozen_core 0
$end

$multipole_field
ZZ -0.0001
$end

--------------------------------------------------------------
 ----------------------------------------------------------------
             Standard Nuclear Orientation (Angstroms)
    I     Atom           X                Y                Z
 ----------------------------------------------------------------
    1      S       0.0000000000     0.0000000000     0.5846000000
    2      C       0.0000000000     0.0000000000    -1.0262000000
    3      H       0.0000000000     0.9244000000    -1.5980000000
    4      H       0.0000000000    -0.9244000000    -1.5980000000
 ----------------------------------------------------------------
 Nuclear Repulsion Energy =    44.8102513215 hartrees
 There are       12 alpha and       12 beta electrons
 Requested basis set is aug-cc-pCVTZ
 There are 60 shells and 180 basis functions

 Total QAlloc Memory Limit 128000 MB
 Mega-Array Size      1467 MB
 MEM_STATIC part      1500 MB

                       Distance Matrix (Angstroms)
             S (  1)   C (  2)   H (  3)
   C (  2)  1.610800
   H (  3)  2.370287  1.086955
   H (  4)  2.370287  1.086955  1.848800
 
 Applying Cartesian multipole field
    Component          Value
    ---------          -----
     (0,0,2)       -1.00000E-04
 Nucleus-field energy     =    -0.0060329002 hartrees
 A cutoff of  1.0D-14 yielded   1814 shell pairs
 There are     16390 function pairs (     21953 Cartesian)
 
 -------------------------------------------------------
 OpenMP Integral Computing Module                       
 Release: version 1.0, May 2013, Q-Chem Inc. Pittsburgh 
 -------------------------------------------------------
 Integral Job Info:
 Integral job number is                      11
 Integral operator is                         1
 short-range coefficients                     0
 long-range coefficients              100000000
 Omega coefficients                           0
 if combine SR and LR in K                    0
 Integral screening is                        0
 Integral computing path is                   2
 max size of driver memory is            800000
 size of driver memory is                776718
 size of scratch memory is             29531563
 max col of scratch BK array              10000
 max len of scratch array in speh3          662
 max len of scratch index in speh4           32
 max int batch size is                      520
 min int batch size is                       52
 fixed nKL is                                31
 max L of basis functions is                  3
 order of int derivative is                   0
 number of shells is                         60
 number of basis is                         208
 number of cartesian basis is               208
 number of contracted shell pairs          1814
 number of primitive shell pairs           7476
 maxK2 (contraction) of shell pair          169
 max number of K2 of shell pair               1
 max number of CS2 of shell pair            257
 max number of PS2 of shell pair           1014
 mem total for path MDJ                  579280
 -------------------------------------------------------
 Smallest overlap matrix eigenvalue = 8.05E-05
 Guess MOs from SCF MO coefficient file

 -----------------------------------------------------------------------
  General SCF calculation program by
  Eric Jon Sundstrom, Paul Horn, Yuezhi Mao, Dmitri Zuev, Alec White,
  David Stuck, Shaama M.S., Shane Yost, Joonho Lee, David Small,
  Daniel Levine, Susi Lehtola, Hugh Burton, Evgeny Epifanovsky
 -----------------------------------------------------------------------
 Exchange:     0.5300 Hartree-Fock + 0.4700 B88
 Correlation:  0.7300 LYP
 Using Euler-Maclaurin-Lebedev (99,590) quadrature formula
 using 8 threads for integral computing
 -------------------------------------------------------
 OpenMP Integral computing Module                
 Release: version 2.0, May 2017, Q-Chem Inc. Pleasanton 
 -------------------------------------------------------
 -------------------------------------------------------
 OpenMP BLAS3 based DFT computing Module                
 Release: version 1.0, May 2013, Q-Chem Inc. Pittsburgh 
 -------------------------------------------------------
 A restricted SCF calculation will be
 performed using GDM
 SCF converges when RMS gradient is below 1.0e-08
 ---------------------------------------
  Cycle       Energy        RMS Gradient
 ---------------------------------------
    1    -437.2218891897      9.36e-04   Normal BFGS step
    2    -437.2218959859      4.40e-04   Normal BFGS step
    3    -437.2218970616      5.67e-05   Normal BFGS step
    4    -437.2218970969      1.08e-04   Normal BFGS step
    5    -437.2218971040      3.37e-05   Normal BFGS step
    6    -437.2218971074      2.14e-06   Normal BFGS step
    7    -437.2218971075      1.87e-06   Normal BFGS step
    8    -437.2218971075      4.01e-07   Normal BFGS step
    9    -437.2218971075      4.26e-08   Normal BFGS step
   10    -437.2218971075      5.16e-09  Convergence criterion met
 ---------------------------------------
 SCF time:   CPU 436.18s  wall 55.00s 
 SCF   energy in the final basis set =     -437.2218971075
 Total energy in the final basis set =     -437.2218971075
 
 Components of the MP2 correlation energy:
        aaaa  correlation energy =        -0.0272320363 au
        abab  correlation energy =        -0.1686549973 au
        bbbb  correlation energy =        -0.0272320363 au
        non-Brillouin singles    =        -0.0000000000 au

 Total  MP2   correlation energy =                    -0.22311907 au
        MP2         total energy =                  -437.44501618 au
 
 --------------------------------------------------------------
 
                    Orbital Energies (a.u.)
 --------------------------------------------------------------
 
 Alpha MOs
 -- Occupied --
-90.152 -10.696  -8.360  -6.206  -6.205  -6.200  -0.913  -0.693
 -0.544  -0.460  -0.366  -0.286
 -- Virtual --
 -0.044   0.012   0.032   0.041   0.065   0.081   0.094   0.105
  0.106   0.121   0.145   0.171   0.176   0.193   0.203   0.246
  0.256   0.258   0.270   0.301   0.314   0.328   0.339   0.354
  0.364   0.364   0.387   0.388   0.418   0.422   0.479   0.546
  0.561   0.573   0.594   0.620   0.630   0.638   0.697   0.719
  0.732   0.753   0.771   0.783   0.788   0.791   0.811   0.864
  0.867   0.872   0.887   0.905   0.936   0.990   0.994   1.012
  1.023   1.036   1.043   1.068   1.122   1.184   1.236   1.269
  1.357   1.395   1.398   1.434   1.453   1.458   1.470   1.528
  1.672   1.674   1.740   1.790   1.806   1.813   1.853   1.869
  1.883   1.897   1.943   2.125   2.132   2.132   2.217   2.239
  2.287   2.330   2.369   2.488   2.499   2.666   2.753   2.789
  2.915   2.933   3.003   3.048   3.272   3.321   3.342   3.464
  3.492   3.548   3.590   3.618   3.647   3.672   3.745   3.861
  3.881   4.023   4.071   4.230   4.259   4.452   4.503   4.556
  4.604   4.874   4.938   5.042   5.045   5.063   5.600   5.607
  6.205   6.289   8.425   8.433   8.481   8.655   9.038  10.658
 10.876  11.205  14.840  15.227  16.198  16.244  17.054  31.279
 31.280  31.282  31.283  31.288  31.300  31.301  38.837  38.841
 38.864  38.941  39.163  40.861  40.865  40.936  41.079  41.119
 46.556  46.795  47.154  80.302  81.016  81.042  85.704  86.287
 --------------------------------------------------------------
 
          Ground-State Mulliken Net Atomic Charges

     Atom                 Charge (a.u.)
  ----------------------------------------
      1 S                    -0.030903
      2 C                    -0.871759
      3 H                     0.451331
      4 H                     0.451331
  ----------------------------------------
  Sum of atomic charges =    -0.000000

 -----------------------------------------------------------------
                    Cartesian Multipole Moments
 -----------------------------------------------------------------
    Charge (ESU x 10^10)
                 0.0000
    Dipole Moment (Debye)
         X      -0.0000      Y       0.0000      Z      -1.9061
       Tot       1.9061
    Quadrupole Moments (Debye-Ang)
        XX     -20.0804     XY      -0.0000     YY     -20.5901
        XZ      -0.0000     YZ      -0.0000     ZZ     -17.1397
    Octopole Moments (Debye-Ang^2)
       XXX      -0.0000    XXY       0.0000    XYY      -0.0000
       YYY       0.0000    XXZ       0.8018    XYZ       0.0000
       YYZ      -3.6321    XZZ       0.0000    YZZ       0.0000
       ZZZ      -2.1824
    Hexadecapole Moments (Debye-Ang^3)
      XXXX     -26.0667   XXXY      -0.0000   XXYY     -10.7133
      XYYY      -0.0000   YYYY     -35.5280   XXXZ       0.0000
      XXYZ      -0.0000   XYYZ      -0.0000   YYYZ       0.0000
      XXZZ     -21.7037   XYZZ      -0.0000   YYZZ     -21.7262
      XZZZ      -0.0000   YZZZ      -0.0000   ZZZZ     -98.9801
 -----------------------------------------------------------------
Archival summary:
1\1\n0091.mhg0\SP\ProcedureUnspecified\BasisUnspecified\112\yhljason\SatOct300:10:272020SatOct300:10:272020\0\\#,ProcedureUnspecified,BasisUnspecified,\\0,1\S\C,1,1.6108\H,2,1.08695,1,121.739\H,2,1.08695,1,121.739,3,-180,0\\\@

 Total job time:  101.43s(wall), 798.81s(cpu) 
 Sat Oct  3 00:10:27 2020

        *************************************************************
        *                                                           *
        *  Thank you very much for using Q-Chem.  Have a nice day.  *
        *                                                           *
        *************************************************************


