Q-Chem Developer Version!
                  Welcome to Q-Chem
     A Quantum Leap Into The Future Of Chemistry


 Q-Chem 5.1, Q-Chem, Inc., Pleasanton, CA (2018)

 Yihan Shao,  Zhengting Gan,  E. Epifanovsky,  A. T. B. Gilbert,  M. Wormit,  
 J. Kussmann,  A. W. Lange,  A. Behn,  Jia Deng,  Xintian Feng,  D. Ghosh,  
 M. Goldey,  P. R. Horn,  L. D. Jacobson,  I. Kaliman,  T. Kus,  A. Landau,  
 Jie Liu,  E. I. Proynov,  R. M. Richard,  R. P. Steele,  E. J. Sundstrom,  
 H. L. Woodcock III,  P. M. Zimmerman,  D. Zuev,  B. Albrecht,  E. Alguire,  
 S. A. Baeppler,  D. Barton,  Z. Benda,  Y. A. Bernard,  E. J. Berquist,  
 K. B. Bravaya,  H. Burton,  D. Casanova,  Chun-Min Chang,  Yunqing Chen,  
 A. Chien,  K. D. Closser,  M. P. Coons,  S. Coriani,  S. Dasgupta,  
 A. L. Dempwolff,  M. Diedenhofen,  Hainam Do,  R. G. Edgar,  Po-Tung Fang,  
 S. Faraji,  S. Fatehi,  Qingguo Feng,  K. D. Fenk,  J. Fosso-Tande,  
 Qinghui Ge,  A. Ghysels,  G. Gidofalvi,  J. Gomes,  J. Gonthier,  A. Gunina,  
 D. Hait,  M. W. D. Hanson-Heine,  P. H. P. Harbach,  A. W. Hauser,  
 J. E. Herr,  E. G. Hohenstein,  Z. C. Holden,  Kerwin Hui,  B. C. Huynh,  
 T.-C. Jagau,  Hyunjun Ji,  B. Kaduk,  K. Khistyaev,  Jaehoon Kim,  
 P. Klunzinger,  K. Koh,  D. Kosenkov,  L. Koulias,  T. Kowalczyk,  
 C. M. Krauter,  A. Kunitsa,  Ka Un Lao,  A. Laurent,  K. V. Lawler,  
 Joonho Lee,  D. Lefrancois,  S. Lehtola,  D. S. Levine,  Yi-Pei Li,  
 You-Sheng Lin,  Fenglai Liu,  E. Livshits,  A. Luenser,  P. Manohar,  
 E. Mansoor,  S. F. Manzer,  Shan-Ping Mao,  Yuezhi Mao,  N. Mardirossian,  
 A. V. Marenich,  T. Markovich,  L. A. Martinez-Martinez,  S. A. Maurer,  
 N. J. Mayhall,  S. C. McKenzie,  J.-M. Mewes,  A. F. Morrison,  
 J. W. Mullinax,  K. Nanda,  T. S. Nguyen-Beck,  R. Olivares-Amaya,  
 J. A. Parkhill,  T. M. Perrine,  F. Plasser,  P. Pokhilko,  S. Prager,  
 A. Prociuk,  E. Ramos,  D. R. Rehn,  F. Rob,  M. Schneider,  N. Sergueev,  
 S. M. Sharada,  S. Sharma,  D. W. Small,  T. Stauch,  T. Stein,  
 Yu-Chuan Su,  A. J. W. Thom,  A. Tkatchenko,  T. Tsuchimochi,  N. M. Tubman,  
 L. Vogt,  M. L. Vidal,  O. Vydrov,  M. A. Watson,  J. Wenzel,  
 M. de Wergifosse,  T. A. Wesolowski,  A. White,  J. Witte,  A. Yamada,  
 Jun Yang,  K. Yao,  S. Yeganeh,  S. R. Yost,  Zhi-Qiang You,  A. Zech,  
 Igor Ying Zhang,  Xing Zhang,  Yan Zhao,  Ying Zhu,  B. R. Brooks,  
 G. K. L. Chan,  C. J. Cramer,  M. S. Gordon,  W. J. Hehre,  A. Klamt,  
 M. W. Schmidt,  C. D. Sherrill,  D. G. Truhlar,  A. Aspuru-Guzik,  R. Baer,  
 A. T. Bell,  N. A. Besley,  Jeng-Da Chai,  A. E. DePrince, III,  
 R. A. DiStasio Jr.,  A. Dreuw,  B. D. Dunietz,  T. R. Furlani,  
 Chao-Ping Hsu,  Yousung Jung,  Jing Kong,  D. S. Lambrecht,  WanZhen Liang,  
 C. Ochsenfeld,  V. A. Rassolov,  L. V. Slipchenko,  J. E. Subotnik,  
 T. Van Voorhis,  J. M. Herbert,  A. I. Krylov,  P. M. W. Gill,  M. Head-Gordon

 Contributors to earlier versions of Q-Chem not listed above: 
 R. D. Adamson,  B. Austin,  J. Baker,  G. J. O. Beran,  K. Brandhorst,  
 S. T. Brown,  E. F. C. Byrd,  A. K. Chakraborty,  C.-L. Cheng,  
 Siu Hung Chien,  D. M. Chipman,  D. L. Crittenden,  H. Dachsel,  
 R. J. Doerksen,  A. D. Dutoi,  L. Fusti-Molnar,  W. A. Goddard III,  
 A. Golubeva-Zadorozhnaya,  S. R. Gwaltney,  G. Hawkins,  A. Heyden,  
 S. Hirata,  G. Kedziora,  F. J. Keil,  C. Kelley,  Jihan Kim,  R. A. King,  
 R. Z. Khaliullin,  P. P. Korambath,  W. Kurlancheek,  A. M. Lee,  M. S. Lee,  
 S. V. Levchenko,  Ching Yeh Lin,  D. Liotard,  R. C. Lochan,  I. Lotan,  
 P. E. Maslen,  N. Nair,  D. P. O'Neill,  D. Neuhauser,  E. Neuscamman,  
 C. M. Oana,  R. Olson,  B. Peters,  R. Peverati,  P. A. Pieniazek,  
 Y. M. Rhee,  J. Ritchie,  M. A. Rohrdanz,  E. Rosta,  N. J. Russ,  
 H. F. Schaefer III,  N. E. Schultz,  N. Shenvi,  A. C. Simmonett,  A. Sodt,  
 D. Stuck,  K. S. Thanthiriwatte,  V. Vanovschi,  Tao Wang,  A. Warshel,  
 C. F. Williams,  Q. Wu,  X. Xu,  W. Zhang

 Please cite Q-Chem as follows:
 Y. Shao et al., Mol. Phys. 113, 184-215 (2015)
 DOI: 10.1080/00268976.2014.952696

 Q-Chem 5.1.1 for Intel X86 EM64T Linux

 Parts of Q-Chem use Armadillo 8.300.2 (Tropical Shenanigans).
 http://arma.sourceforge.net/

 Q-Chem begins on Sat Sep 26 02:26:27 2020  

Host: n0065.mhg0
0

     Scratch files written to /local/scratch/users/yhljason/BH3_DSD-PBEPBE-D3_aug-cc-pcVQZ.inp20200926022611//
Input Ideriv = 0
Curr. Ideriv = -1
Max.  Ideriv = 0
Analytic post-HF gradients are not available with non-HF exchange
Input Ideriv = 0
Curr. Ideriv = 0
Max.  Ideriv = 0

Checking the input file for inconsistencies... 	...done.

--------------------------------------------------------------
User input:
--------------------------------------------------------------
$molecule
0 1
B1	0.0000	0.0000	0.0000
H2	0.0000	1.1900	0.0000
H3	1.0306	-0.5950	0.0000
H4	-1.0306	-0.5950	0.0000
$end

$rem
jobtype sp
method DSD-PBEPBE-D3
xc_grid 000099000590
basis aug-cc-pcVQZ
max_scf_cycles 200
thresh 14
scf_convergence 8
scf_algorithm gdm
symmetry false
sym_ignore true
unrestricted false
gen_scfman true
internal_stability_iter 15
internal_stability_davidson_iter 200
mem_total 128000
cc_memory 96000
cc_backend xm
mem_static 1500
n_frozen_core 0
$end


--------------------------------------------------------------
 Adding empirical dispersion correction 
 ----------------------------------------------------------------
 Doing -D3(BJ) with
 s6 =   0.78000
 s8 =   0.00000
 a1 =   0.00000
 a2 =   6.10000
 -D3 energy without 3body term =     -0.0005822575 hartrees
 ----------------------------------------------------------------
             Standard Nuclear Orientation (Angstroms)
    I     Atom           X                Y                Z
 ----------------------------------------------------------------
    1      B       0.0000000000     0.0000000000     0.0000000000
    2      H       0.0000000000     1.1900000000     0.0000000000
    3      H       1.0306000000    -0.5950000000     0.0000000000
    4      H      -1.0306000000    -0.5950000000     0.0000000000
 ----------------------------------------------------------------
 Nuclear Repulsion Energy =     7.4398312687 hartrees
 There are        4 alpha and        4 beta electrons
 Requested basis set is aug-cc-pCVQZ
 There are 71 shells and 247 basis functions

 Total QAlloc Memory Limit 128000 MB
 Mega-Array Size      1467 MB
 MEM_STATIC part      1500 MB

                       Distance Matrix (Angstroms)
             B (  1)   H (  2)   H (  3)
   H (  2)  1.190000
   H (  3)  1.190026  2.061155
   H (  4)  1.190026  2.061155  2.061200
 
 A cutoff of  1.0D-14 yielded   2556 shell pairs
 There are     31120 function pairs (     47305 Cartesian)
 
 -------------------------------------------------------
 OpenMP Integral Computing Module                       
 Release: version 1.0, May 2013, Q-Chem Inc. Pittsburgh 
 -------------------------------------------------------
 Integral Job Info:
 Integral job number is                      11
 Integral operator is                         1
 short-range coefficients                     0
 long-range coefficients              100000000
 Omega coefficients                           0
 if combine SR and LR in K                    0
 Integral screening is                        0
 Integral computing path is                   2
 max size of driver memory is           3200000
 size of driver memory is               1704330
 size of scratch memory is             18511652
 max col of scratch BK array              50625
 max len of scratch array in speh3         2114
 max len of scratch index in speh4           50
 max int batch size is                      520
 min int batch size is                       52
 fixed nKL is                                52
 max L of basis functions is                  4
 order of int derivative is                   0
 number of shells is                         71
 number of basis is                         304
 number of cartesian basis is               304
 number of contracted shell pairs          2556
 number of primitive shell pairs           4503
 maxK2 (contraction) of shell pair           81
 max number of K2 of shell pair               1
 max number of CS2 of shell pair            364
 max number of PS2 of shell pair            369
 mem total for path MDJ                  671149
 -------------------------------------------------------
 Smallest overlap matrix eigenvalue = 2.66E-05

 Scale SEOQF with 1.000000e-01/1.000000e-01/1.000000e-01

 Standard Electronic Orientation quadrupole field applied
 Nucleus-field energy     =     0.0000000002 hartrees
 Guess from superposition of atomic densities
 Warning:  Energy on first SCF cycle will be non-variational
 SAD guess density has 8.000000 electrons

 -----------------------------------------------------------------------
  General SCF calculation program by
  Eric Jon Sundstrom, Paul Horn, Yuezhi Mao, Dmitri Zuev, Alec White,
  David Stuck, Shaama M.S., Shane Yost, Joonho Lee, David Small,
  Daniel Levine, Susi Lehtola, Hugh Burton, Evgeny Epifanovsky
 -----------------------------------------------------------------------
 Exchange:     0.6800 Hartree-Fock + 0.3200 PBE
 Correlation:  0.4900 PBE
 Using Euler-Maclaurin-Lebedev (99,590) quadrature formula
 Dispersion:   Grimme D3
Running Object-Oriented RKS (RHF)
We will preform up to 15 macro iterations over saddle points until a stable solution is found
Energy prior to optimization (guess energy) = -26.481094876730
Begin Timing: Total SCF Calculation
Begin Timing: SCF Single Stationary Point Calculation
begin iterations for algorithm: GDM          
the SCF tolerance is set to 1.00e-08
    1     -26.4810948767      2.24e-02     00000  Normal BFGS step
    2     -26.4858259830      5.03e-03     00000  Normal BFGS step
    3     -26.4860383690      2.67e-04     00000  Normal BFGS step
    4     -26.4860390251      7.52e-05     00000  Normal BFGS step
    5     -26.4860390631      5.61e-06     00000  Normal BFGS step
    6     -26.4860390635      1.43e-06     00000  Normal BFGS step
    7     -26.4860390636      1.08e-07     00000  Normal BFGS step
    8     -26.4860390636      2.04e-08     00000  Normal BFGS step
    9     -26.4860390636      6.89e-10     00000 Convergence criterion met
Timing for Single Stationary Point: 118.00s (wall), 914.76s (cpu)
Begin Timing: Stability
===================================================
Beginning Test for Internal Stability
===================================================
generating davidson guess vectors based on koopmans excitations
    1      1.05e+00     00000 Davidson Iteration
    2      6.76e-01     00000 Davidson Iteration
    3      9.54e-02     00000 Davidson Iteration
    4      6.94e-03     00000 Davidson Iteration
    5      1.19e-03     00000 Davidson Iteration
    6      2.33e-04     00000 Davidson Iteration
    7      5.03e-05     00000 Davidson Converged
converged_eigenvalues
   0.9769
   0.9769
Threshold for negative eigenvalues: -1.0e-05
solution was a local minimum (stable)
===================================================
End Test for Internal Stability
===================================================
Our SCF solution is stable!
Timing for Total SCF: 257.00s (wall), 2012.12s (cpu)
 Total energy in the final basis set =      -26.4860390636
    ==================================================
              The end of Object-Oriented SCFman       
    ==================================================
 
 Components of the MP2 correlation energy:
        aaaa  correlation energy =        -0.0011311913 au
        abab  correlation energy =        -0.0931090059 au
        bbbb  correlation energy =        -0.0011311913 au
        non-Brillouin singles    =        -0.0000000000 au

 Total  MP2   correlation energy =                    -0.09537139 au
        MP2         total energy =                   -26.58141045 au
 
 --------------------------------------------------------------
 
                    Orbital Energies (a.u.)
 --------------------------------------------------------------
 
 Alpha MOs
 -- Occupied --
 -7.266  -0.633  -0.443  -0.443
 -- Virtual --
 -0.003   0.022   0.033   0.033   0.058   0.071   0.071   0.094
  0.114   0.114   0.119   0.126   0.126   0.194   0.194   0.218
  0.240   0.243   0.257   0.257   0.257   0.264   0.264   0.292
  0.292   0.295   0.360   0.401   0.401   0.439   0.439   0.472
  0.496   0.496   0.534   0.534   0.543   0.561   0.561   0.576
  0.576   0.674   0.692   0.720   0.720   0.733   0.760   0.760
  0.767   0.767   0.819   0.843   0.843   0.882   0.882   0.893
  0.893   0.896   0.907   0.971   1.088   1.088   1.130   1.130
  1.154   1.210   1.233   1.233   1.234   1.452   1.452   1.459
  1.459   1.459   1.485   1.507   1.507   1.544   1.562   1.562
  1.625   1.637   1.637   1.751   1.751   1.754   1.754   1.774
  1.775   1.838   1.870   1.870   1.917   1.947   1.958   1.958
  1.965   2.067   2.067   2.078   2.079   2.139   2.139   2.164
  2.178   2.183   2.183   2.200   2.200   2.280   2.296   2.323
  2.352   2.352   2.667   2.804   2.804   2.926   3.049   3.049
  3.104   3.104   3.191   3.191   3.245   3.249   3.278   3.278
  3.284   3.317   3.317   3.413   3.493   3.493   3.528   3.528
  3.673   3.808   3.876   3.994   4.075   4.075   4.098   4.098
  4.141   4.223   4.223   4.250   4.326   4.326   4.360   4.360
  4.683   4.783   5.008   5.008   5.188   5.205   5.205   5.230
  5.342   5.342   5.411   5.871   5.871   6.575   6.628   6.628
  6.769   6.784   6.784   7.026   7.026   7.354   7.392   7.392
  7.502   7.683   7.683   7.701   7.701   7.754   7.876   8.012
  8.012   8.053   8.093   8.470   8.472   8.472   8.807   8.807
  8.924   8.924   8.976   9.015   9.015   9.060   9.280   9.319
  9.337   9.337   9.361   9.527   9.528   9.725   9.819   9.819
  9.866  10.345  10.345  11.255  11.255  11.922  12.948  14.551
 14.551  19.745  19.745  20.456  20.837  20.837  25.768  44.819
 45.923  45.923  75.552  75.554  75.554  75.555  75.555  75.590
 75.600  83.902  85.751  85.751  86.294  86.294  86.300 151.787
152.684 152.684 349.019
 --------------------------------------------------------------
 
          Ground-State Mulliken Net Atomic Charges

     Atom                 Charge (a.u.)
  ----------------------------------------
      1 B                     0.201584
      2 H                    -0.067192
      3 H                    -0.067196
      4 H                    -0.067196
  ----------------------------------------
  Sum of atomic charges =     0.000000

 -----------------------------------------------------------------
                    Cartesian Multipole Moments
 -----------------------------------------------------------------
    Charge (ESU x 10^10)
                 0.0000
    Dipole Moment (Debye)
         X       0.0000      Y       0.0000      Z      -0.0000
       Tot       0.0000
    Quadrupole Moments (Debye-Ang)
        XX      -9.3424     XY      -0.0000     YY      -9.3424
        XZ       0.0000     YZ       0.0000     ZZ      -7.1345
    Octopole Moments (Debye-Ang^2)
       XXX       0.0000    XXY      -0.0622    XYY       0.0000
       YYY       0.0624    XXZ       0.0000    XYZ      -0.0000
       YYZ       0.0000    XZZ       0.0000    YZZ       0.0000
       ZZZ      -0.0000
    Hexadecapole Moments (Debye-Ang^3)
      XXXX     -24.3505   XXXY       0.0000   XXYY      -8.1167
      XYYY       0.0000   YYYY     -24.3498   XXXZ       0.0000
      XXYZ      -0.0000   XYYZ      -0.0000   YYYZ       0.0000
      XXZZ      -5.5606   XYZZ      -0.0000   YYZZ      -5.5604
      XZZZ       0.0000   YZZZ      -0.0000   ZZZZ      -7.2624
 -----------------------------------------------------------------
Archival summary:
1\1\n0065.mhg0\SP\ProcedureUnspecified\BasisUnspecified\13\yhljason\SatSep2602:33:282020SatSep2602:33:282020\0\\#,ProcedureUnspecified,BasisUnspecified,\\0,1\B\H,1,1.19\H,1,1.19003,2,119.999\H,1,1.19003,2,119.999,3,-180,0\\\@

 Total job time:  421.50s(wall), 3306.58s(cpu) 
 Sat Sep 26 02:33:28 2020

        *************************************************************
        *                                                           *
        *  Thank you very much for using Q-Chem.  Have a nice day.  *
        *                                                           *
        *************************************************************


 
User input: 2 of 7 
 
Q-Chem Developer Version!
                  Welcome to Q-Chem
     A Quantum Leap Into The Future Of Chemistry


 Q-Chem 5.1, Q-Chem, Inc., Pleasanton, CA (2018)

 Yihan Shao,  Zhengting Gan,  E. Epifanovsky,  A. T. B. Gilbert,  M. Wormit,  
 J. Kussmann,  A. W. Lange,  A. Behn,  Jia Deng,  Xintian Feng,  D. Ghosh,  
 M. Goldey,  P. R. Horn,  L. D. Jacobson,  I. Kaliman,  T. Kus,  A. Landau,  
 Jie Liu,  E. I. Proynov,  R. M. Richard,  R. P. Steele,  E. J. Sundstrom,  
 H. L. Woodcock III,  P. M. Zimmerman,  D. Zuev,  B. Albrecht,  E. Alguire,  
 S. A. Baeppler,  D. Barton,  Z. Benda,  Y. A. Bernard,  E. J. Berquist,  
 K. B. Bravaya,  H. Burton,  D. Casanova,  Chun-Min Chang,  Yunqing Chen,  
 A. Chien,  K. D. Closser,  M. P. Coons,  S. Coriani,  S. Dasgupta,  
 A. L. Dempwolff,  M. Diedenhofen,  Hainam Do,  R. G. Edgar,  Po-Tung Fang,  
 S. Faraji,  S. Fatehi,  Qingguo Feng,  K. D. Fenk,  J. Fosso-Tande,  
 Qinghui Ge,  A. Ghysels,  G. Gidofalvi,  J. Gomes,  J. Gonthier,  A. Gunina,  
 D. Hait,  M. W. D. Hanson-Heine,  P. H. P. Harbach,  A. W. Hauser,  
 J. E. Herr,  E. G. Hohenstein,  Z. C. Holden,  Kerwin Hui,  B. C. Huynh,  
 T.-C. Jagau,  Hyunjun Ji,  B. Kaduk,  K. Khistyaev,  Jaehoon Kim,  
 P. Klunzinger,  K. Koh,  D. Kosenkov,  L. Koulias,  T. Kowalczyk,  
 C. M. Krauter,  A. Kunitsa,  Ka Un Lao,  A. Laurent,  K. V. Lawler,  
 Joonho Lee,  D. Lefrancois,  S. Lehtola,  D. S. Levine,  Yi-Pei Li,  
 You-Sheng Lin,  Fenglai Liu,  E. Livshits,  A. Luenser,  P. Manohar,  
 E. Mansoor,  S. F. Manzer,  Shan-Ping Mao,  Yuezhi Mao,  N. Mardirossian,  
 A. V. Marenich,  T. Markovich,  L. A. Martinez-Martinez,  S. A. Maurer,  
 N. J. Mayhall,  S. C. McKenzie,  J.-M. Mewes,  A. F. Morrison,  
 J. W. Mullinax,  K. Nanda,  T. S. Nguyen-Beck,  R. Olivares-Amaya,  
 J. A. Parkhill,  T. M. Perrine,  F. Plasser,  P. Pokhilko,  S. Prager,  
 A. Prociuk,  E. Ramos,  D. R. Rehn,  F. Rob,  M. Schneider,  N. Sergueev,  
 S. M. Sharada,  S. Sharma,  D. W. Small,  T. Stauch,  T. Stein,  
 Yu-Chuan Su,  A. J. W. Thom,  A. Tkatchenko,  T. Tsuchimochi,  N. M. Tubman,  
 L. Vogt,  M. L. Vidal,  O. Vydrov,  M. A. Watson,  J. Wenzel,  
 M. de Wergifosse,  T. A. Wesolowski,  A. White,  J. Witte,  A. Yamada,  
 Jun Yang,  K. Yao,  S. Yeganeh,  S. R. Yost,  Zhi-Qiang You,  A. Zech,  
 Igor Ying Zhang,  Xing Zhang,  Yan Zhao,  Ying Zhu,  B. R. Brooks,  
 G. K. L. Chan,  C. J. Cramer,  M. S. Gordon,  W. J. Hehre,  A. Klamt,  
 M. W. Schmidt,  C. D. Sherrill,  D. G. Truhlar,  A. Aspuru-Guzik,  R. Baer,  
 A. T. Bell,  N. A. Besley,  Jeng-Da Chai,  A. E. DePrince, III,  
 R. A. DiStasio Jr.,  A. Dreuw,  B. D. Dunietz,  T. R. Furlani,  
 Chao-Ping Hsu,  Yousung Jung,  Jing Kong,  D. S. Lambrecht,  WanZhen Liang,  
 C. Ochsenfeld,  V. A. Rassolov,  L. V. Slipchenko,  J. E. Subotnik,  
 T. Van Voorhis,  J. M. Herbert,  A. I. Krylov,  P. M. W. Gill,  M. Head-Gordon

 Contributors to earlier versions of Q-Chem not listed above: 
 R. D. Adamson,  B. Austin,  J. Baker,  G. J. O. Beran,  K. Brandhorst,  
 S. T. Brown,  E. F. C. Byrd,  A. K. Chakraborty,  C.-L. Cheng,  
 Siu Hung Chien,  D. M. Chipman,  D. L. Crittenden,  H. Dachsel,  
 R. J. Doerksen,  A. D. Dutoi,  L. Fusti-Molnar,  W. A. Goddard III,  
 A. Golubeva-Zadorozhnaya,  S. R. Gwaltney,  G. Hawkins,  A. Heyden,  
 S. Hirata,  G. Kedziora,  F. J. Keil,  C. Kelley,  Jihan Kim,  R. A. King,  
 R. Z. Khaliullin,  P. P. Korambath,  W. Kurlancheek,  A. M. Lee,  M. S. Lee,  
 S. V. Levchenko,  Ching Yeh Lin,  D. Liotard,  R. C. Lochan,  I. Lotan,  
 P. E. Maslen,  N. Nair,  D. P. O'Neill,  D. Neuhauser,  E. Neuscamman,  
 C. M. Oana,  R. Olson,  B. Peters,  R. Peverati,  P. A. Pieniazek,  
 Y. M. Rhee,  J. Ritchie,  M. A. Rohrdanz,  E. Rosta,  N. J. Russ,  
 H. F. Schaefer III,  N. E. Schultz,  N. Shenvi,  A. C. Simmonett,  A. Sodt,  
 D. Stuck,  K. S. Thanthiriwatte,  V. Vanovschi,  Tao Wang,  A. Warshel,  
 C. F. Williams,  Q. Wu,  X. Xu,  W. Zhang

 Please cite Q-Chem as follows:
 Y. Shao et al., Mol. Phys. 113, 184-215 (2015)
 DOI: 10.1080/00268976.2014.952696

 Q-Chem 5.1.1 for Intel X86 EM64T Linux

 Parts of Q-Chem use Armadillo 8.300.2 (Tropical Shenanigans).
 http://arma.sourceforge.net/

 Q-Chem begins on Sat Sep 26 02:33:29 2020  

Host: n0065.mhg0
0

     Scratch files written to /local/scratch/users/yhljason/BH3_DSD-PBEPBE-D3_aug-cc-pcVQZ.inp20200926022611//
The previous job contains 0 fragments, simply inherited here
Input Ideriv = 0
Curr. Ideriv = -1
Max.  Ideriv = 0
Analytic post-HF gradients are not available with non-HF exchange
Input Ideriv = 0
Curr. Ideriv = 0
Max.  Ideriv = 0

Checking the input file for inconsistencies... 	...done.

--------------------------------------------------------------
User input:
--------------------------------------------------------------
$molecule
read
$end

$rem

jobtype sp
method DSD-PBEPBE-D3
xc_grid 000099000590
basis aug-cc-pcVQZ
max_scf_cycles 200
thresh 14
scf_convergence 8
mem_total 128000
cc_memory 96000
cc_backend xm
mem_static 1500
symmetry false
sym_ignore true
scf_guess read
unrestricted false
scf_algorithm gdm
n_frozen_core 0
$end

$multipole_field
XX 0.0001
$end


--------------------------------------------------------------
 Adding empirical dispersion correction 
 ----------------------------------------------------------------
 Doing -D3(BJ) with
 s6 =   0.78000
 s8 =   0.00000
 a1 =   0.00000
 a2 =   6.10000
 -D3 energy without 3body term =     -0.0005822575 hartrees
 ----------------------------------------------------------------
             Standard Nuclear Orientation (Angstroms)
    I     Atom           X                Y                Z
 ----------------------------------------------------------------
    1      B       0.0000000000     0.0000000000     0.0000000000
    2      H       0.0000000000     1.1900000000     0.0000000000
    3      H       1.0306000000    -0.5950000000     0.0000000000
    4      H      -1.0306000000    -0.5950000000     0.0000000000
 ----------------------------------------------------------------
 Nuclear Repulsion Energy =     7.4398312687 hartrees
 There are        4 alpha and        4 beta electrons
 Requested basis set is aug-cc-pCVQZ
 There are 71 shells and 247 basis functions

 Total QAlloc Memory Limit 128000 MB
 Mega-Array Size      1467 MB
 MEM_STATIC part      1500 MB

                       Distance Matrix (Angstroms)
             B (  1)   H (  2)   H (  3)
   H (  2)  1.190000
   H (  3)  1.190026  2.061155
   H (  4)  1.190026  2.061155  2.061200
 
 Applying Cartesian multipole field
    Component          Value
    ---------          -----
     (2,0,0)        1.00000E-04
 Nucleus-field energy     =     0.0007585916 hartrees
 A cutoff of  1.0D-14 yielded   2556 shell pairs
 There are     31120 function pairs (     47305 Cartesian)
 
 -------------------------------------------------------
 OpenMP Integral Computing Module                       
 Release: version 1.0, May 2013, Q-Chem Inc. Pittsburgh 
 -------------------------------------------------------
 Integral Job Info:
 Integral job number is                      11
 Integral operator is                         1
 short-range coefficients                     0
 long-range coefficients              100000000
 Omega coefficients                           0
 if combine SR and LR in K                    0
 Integral screening is                        0
 Integral computing path is                   2
 max size of driver memory is           3200000
 size of driver memory is               1704330
 size of scratch memory is             18511652
 max col of scratch BK array              50625
 max len of scratch array in speh3         2114
 max len of scratch index in speh4           50
 max int batch size is                      520
 min int batch size is                       52
 fixed nKL is                                52
 max L of basis functions is                  4
 order of int derivative is                   0
 number of shells is                         71
 number of basis is                         304
 number of cartesian basis is               304
 number of contracted shell pairs          2556
 number of primitive shell pairs           4503
 maxK2 (contraction) of shell pair           81
 max number of K2 of shell pair               1
 max number of CS2 of shell pair            364
 max number of PS2 of shell pair            369
 mem total for path MDJ                  671149
 -------------------------------------------------------
 Smallest overlap matrix eigenvalue = 2.66E-05
 Guess MOs from SCF MO coefficient file

 -----------------------------------------------------------------------
  General SCF calculation program by
  Eric Jon Sundstrom, Paul Horn, Yuezhi Mao, Dmitri Zuev, Alec White,
  David Stuck, Shaama M.S., Shane Yost, Joonho Lee, David Small,
  Daniel Levine, Susi Lehtola, Hugh Burton, Evgeny Epifanovsky
 -----------------------------------------------------------------------
 Exchange:     0.6800 Hartree-Fock + 0.3200 PBE
 Correlation:  0.4900 PBE
 Using Euler-Maclaurin-Lebedev (99,590) quadrature formula
 Dispersion:   Grimme D3
 using 8 threads for integral computing
 -------------------------------------------------------
 OpenMP Integral computing Module                
 Release: version 2.0, May 2017, Q-Chem Inc. Pleasanton 
 -------------------------------------------------------
 -------------------------------------------------------
 OpenMP BLAS3 based DFT computing Module                
 Release: version 1.0, May 2013, Q-Chem Inc. Pittsburgh 
 -------------------------------------------------------
 A restricted SCF calculation will be
 performed using GDM
 SCF converges when RMS gradient is below 1.0e-08
 ---------------------------------------
  Cycle       Energy        RMS Gradient
 ---------------------------------------
    1     -26.4867336489      3.34e-04   Normal BFGS step
    2     -26.4867343327      7.99e-05   Normal BFGS step
    3     -26.4867343738      6.86e-06   Normal BFGS step
    4     -26.4867343746      1.54e-06   Normal BFGS step
    5     -26.4867343746      1.90e-07   Normal BFGS step
    6     -26.4867343746      1.75e-08   Normal BFGS step
    7     -26.4867343746      2.07e-09  Convergence criterion met
 ---------------------------------------
 SCF time:   CPU 821.25s  wall 105.00s 
 SCF   energy in the final basis set =      -26.4867343746
 Total energy in the final basis set =      -26.4867343746
 
 Components of the MP2 correlation energy:
        aaaa  correlation energy =        -0.0011310763 au
        abab  correlation energy =        -0.0931046903 au
        bbbb  correlation energy =        -0.0011310763 au
        non-Brillouin singles    =        -0.0000000000 au

 Total  MP2   correlation energy =                    -0.09536684 au
        MP2         total energy =                   -26.58210122 au
 
 --------------------------------------------------------------
 
                    Orbital Energies (a.u.)
 --------------------------------------------------------------
 
 Alpha MOs
 -- Occupied --
 -7.266  -0.633  -0.444  -0.443
 -- Virtual --
 -0.004   0.019   0.027   0.031   0.056   0.066   0.068   0.092
  0.112   0.114   0.117   0.122   0.124   0.191   0.192   0.216
  0.239   0.241   0.255   0.255   0.256   0.262   0.263   0.289
  0.291   0.294   0.359   0.400   0.401   0.437   0.438   0.471
  0.495   0.496   0.532   0.533   0.542   0.559   0.560   0.575
  0.575   0.674   0.691   0.719   0.719   0.733   0.760   0.760
  0.765   0.766   0.818   0.842   0.842   0.881   0.881   0.892
  0.892   0.895   0.906   0.971   1.087   1.087   1.130   1.130
  1.153   1.209   1.232   1.233   1.233   1.451   1.451   1.458
  1.458   1.459   1.485   1.507   1.507   1.543   1.562   1.562
  1.624   1.636   1.636   1.750   1.750   1.753   1.753   1.773
  1.775   1.837   1.869   1.870   1.916   1.946   1.958   1.958
  1.964   2.066   2.066   2.078   2.078   2.138   2.138   2.163
  2.178   2.182   2.183   2.199   2.199   2.279   2.296   2.322
  2.351   2.351   2.666   2.803   2.803   2.925   3.049   3.049
  3.103   3.103   3.191   3.191   3.244   3.249   3.277   3.278
  3.284   3.317   3.317   3.413   3.492   3.493   3.527   3.527
  3.673   3.808   3.876   3.993   4.075   4.075   4.098   4.098
  4.141   4.223   4.223   4.250   4.326   4.326   4.360   4.360
  4.682   4.783   5.007   5.008   5.188   5.205   5.205   5.230
  5.341   5.341   5.410   5.870   5.870   6.574   6.628   6.628
  6.768   6.783   6.783   7.026   7.026   7.353   7.392   7.392
  7.502   7.683   7.683   7.701   7.701   7.753   7.876   8.012
  8.012   8.052   8.093   8.470   8.471   8.472   8.807   8.807
  8.923   8.923   8.975   9.015   9.015   9.059   9.280   9.318
  9.336   9.336   9.360   9.527   9.527   9.724   9.818   9.818
  9.866  10.344  10.344  11.255  11.255  11.922  12.948  14.551
 14.551  19.744  19.744  20.456  20.836  20.836  25.768  44.819
 45.923  45.923  75.551  75.554  75.554  75.555  75.555  75.590
 75.599  83.901  85.751  85.751  86.293  86.293  86.299 151.787
152.684 152.684 349.019
 --------------------------------------------------------------
 
          Ground-State Mulliken Net Atomic Charges

     Atom                 Charge (a.u.)
  ----------------------------------------
      1 B                     0.203023
      2 H                    -0.066878
      3 H                    -0.068072
      4 H                    -0.068072
  ----------------------------------------
  Sum of atomic charges =    -0.000000

 -----------------------------------------------------------------
                    Cartesian Multipole Moments
 -----------------------------------------------------------------
    Charge (ESU x 10^10)
                -0.0000
    Dipole Moment (Debye)
         X      -0.0000      Y       0.0017      Z       0.0000
       Tot       0.0017
    Quadrupole Moments (Debye-Ang)
        XX      -9.3620     XY      -0.0000     YY      -9.3429
        XZ      -0.0000     YZ       0.0000     ZZ      -7.1356
    Octopole Moments (Debye-Ang^2)
       XXX      -0.0000    XXY      -0.0535    XYY      -0.0000
       YYY       0.0674    XXZ       0.0000    XYZ       0.0000
       YYZ       0.0000    XZZ      -0.0000    YZZ       0.0008
       ZZZ       0.0000
    Hexadecapole Moments (Debye-Ang^3)
      XXXX     -24.4509   XXXY       0.0000   XXYY      -8.1345
      XYYY       0.0000   YYYY     -24.3519   XXXZ      -0.0000
      XXYZ      -0.0000   XYYZ      -0.0000   YYYZ      -0.0000
      XXZZ      -5.5719   XYZZ       0.0000   YYZZ      -5.5618
      XZZZ      -0.0000   YZZZ      -0.0000   ZZZZ      -7.2660
 -----------------------------------------------------------------
Archival summary:
1\1\n0065.mhg0\SP\ProcedureUnspecified\BasisUnspecified\13\yhljason\SatSep2602:37:342020SatSep2602:37:342020\0\\#,ProcedureUnspecified,BasisUnspecified,\\0,1\B\H,1,1.19\H,1,1.19003,2,119.999\H,1,1.19003,2,119.999,3,-180,0\\\@

 Total job time:  245.12s(wall), 1930.94s(cpu) 
 Sat Sep 26 02:37:34 2020

        *************************************************************
        *                                                           *
        *  Thank you very much for using Q-Chem.  Have a nice day.  *
        *                                                           *
        *************************************************************


 
User input: 3 of 7 
 
Q-Chem Developer Version!
                  Welcome to Q-Chem
     A Quantum Leap Into The Future Of Chemistry


 Q-Chem 5.1, Q-Chem, Inc., Pleasanton, CA (2018)

 Yihan Shao,  Zhengting Gan,  E. Epifanovsky,  A. T. B. Gilbert,  M. Wormit,  
 J. Kussmann,  A. W. Lange,  A. Behn,  Jia Deng,  Xintian Feng,  D. Ghosh,  
 M. Goldey,  P. R. Horn,  L. D. Jacobson,  I. Kaliman,  T. Kus,  A. Landau,  
 Jie Liu,  E. I. Proynov,  R. M. Richard,  R. P. Steele,  E. J. Sundstrom,  
 H. L. Woodcock III,  P. M. Zimmerman,  D. Zuev,  B. Albrecht,  E. Alguire,  
 S. A. Baeppler,  D. Barton,  Z. Benda,  Y. A. Bernard,  E. J. Berquist,  
 K. B. Bravaya,  H. Burton,  D. Casanova,  Chun-Min Chang,  Yunqing Chen,  
 A. Chien,  K. D. Closser,  M. P. Coons,  S. Coriani,  S. Dasgupta,  
 A. L. Dempwolff,  M. Diedenhofen,  Hainam Do,  R. G. Edgar,  Po-Tung Fang,  
 S. Faraji,  S. Fatehi,  Qingguo Feng,  K. D. Fenk,  J. Fosso-Tande,  
 Qinghui Ge,  A. Ghysels,  G. Gidofalvi,  J. Gomes,  J. Gonthier,  A. Gunina,  
 D. Hait,  M. W. D. Hanson-Heine,  P. H. P. Harbach,  A. W. Hauser,  
 J. E. Herr,  E. G. Hohenstein,  Z. C. Holden,  Kerwin Hui,  B. C. Huynh,  
 T.-C. Jagau,  Hyunjun Ji,  B. Kaduk,  K. Khistyaev,  Jaehoon Kim,  
 P. Klunzinger,  K. Koh,  D. Kosenkov,  L. Koulias,  T. Kowalczyk,  
 C. M. Krauter,  A. Kunitsa,  Ka Un Lao,  A. Laurent,  K. V. Lawler,  
 Joonho Lee,  D. Lefrancois,  S. Lehtola,  D. S. Levine,  Yi-Pei Li,  
 You-Sheng Lin,  Fenglai Liu,  E. Livshits,  A. Luenser,  P. Manohar,  
 E. Mansoor,  S. F. Manzer,  Shan-Ping Mao,  Yuezhi Mao,  N. Mardirossian,  
 A. V. Marenich,  T. Markovich,  L. A. Martinez-Martinez,  S. A. Maurer,  
 N. J. Mayhall,  S. C. McKenzie,  J.-M. Mewes,  A. F. Morrison,  
 J. W. Mullinax,  K. Nanda,  T. S. Nguyen-Beck,  R. Olivares-Amaya,  
 J. A. Parkhill,  T. M. Perrine,  F. Plasser,  P. Pokhilko,  S. Prager,  
 A. Prociuk,  E. Ramos,  D. R. Rehn,  F. Rob,  M. Schneider,  N. Sergueev,  
 S. M. Sharada,  S. Sharma,  D. W. Small,  T. Stauch,  T. Stein,  
 Yu-Chuan Su,  A. J. W. Thom,  A. Tkatchenko,  T. Tsuchimochi,  N. M. Tubman,  
 L. Vogt,  M. L. Vidal,  O. Vydrov,  M. A. Watson,  J. Wenzel,  
 M. de Wergifosse,  T. A. Wesolowski,  A. White,  J. Witte,  A. Yamada,  
 Jun Yang,  K. Yao,  S. Yeganeh,  S. R. Yost,  Zhi-Qiang You,  A. Zech,  
 Igor Ying Zhang,  Xing Zhang,  Yan Zhao,  Ying Zhu,  B. R. Brooks,  
 G. K. L. Chan,  C. J. Cramer,  M. S. Gordon,  W. J. Hehre,  A. Klamt,  
 M. W. Schmidt,  C. D. Sherrill,  D. G. Truhlar,  A. Aspuru-Guzik,  R. Baer,  
 A. T. Bell,  N. A. Besley,  Jeng-Da Chai,  A. E. DePrince, III,  
 R. A. DiStasio Jr.,  A. Dreuw,  B. D. Dunietz,  T. R. Furlani,  
 Chao-Ping Hsu,  Yousung Jung,  Jing Kong,  D. S. Lambrecht,  WanZhen Liang,  
 C. Ochsenfeld,  V. A. Rassolov,  L. V. Slipchenko,  J. E. Subotnik,  
 T. Van Voorhis,  J. M. Herbert,  A. I. Krylov,  P. M. W. Gill,  M. Head-Gordon

 Contributors to earlier versions of Q-Chem not listed above: 
 R. D. Adamson,  B. Austin,  J. Baker,  G. J. O. Beran,  K. Brandhorst,  
 S. T. Brown,  E. F. C. Byrd,  A. K. Chakraborty,  C.-L. Cheng,  
 Siu Hung Chien,  D. M. Chipman,  D. L. Crittenden,  H. Dachsel,  
 R. J. Doerksen,  A. D. Dutoi,  L. Fusti-Molnar,  W. A. Goddard III,  
 A. Golubeva-Zadorozhnaya,  S. R. Gwaltney,  G. Hawkins,  A. Heyden,  
 S. Hirata,  G. Kedziora,  F. J. Keil,  C. Kelley,  Jihan Kim,  R. A. King,  
 R. Z. Khaliullin,  P. P. Korambath,  W. Kurlancheek,  A. M. Lee,  M. S. Lee,  
 S. V. Levchenko,  Ching Yeh Lin,  D. Liotard,  R. C. Lochan,  I. Lotan,  
 P. E. Maslen,  N. Nair,  D. P. O'Neill,  D. Neuhauser,  E. Neuscamman,  
 C. M. Oana,  R. Olson,  B. Peters,  R. Peverati,  P. A. Pieniazek,  
 Y. M. Rhee,  J. Ritchie,  M. A. Rohrdanz,  E. Rosta,  N. J. Russ,  
 H. F. Schaefer III,  N. E. Schultz,  N. Shenvi,  A. C. Simmonett,  A. Sodt,  
 D. Stuck,  K. S. Thanthiriwatte,  V. Vanovschi,  Tao Wang,  A. Warshel,  
 C. F. Williams,  Q. Wu,  X. Xu,  W. Zhang

 Please cite Q-Chem as follows:
 Y. Shao et al., Mol. Phys. 113, 184-215 (2015)
 DOI: 10.1080/00268976.2014.952696

 Q-Chem 5.1.1 for Intel X86 EM64T Linux

 Parts of Q-Chem use Armadillo 8.300.2 (Tropical Shenanigans).
 http://arma.sourceforge.net/

 Q-Chem begins on Sat Sep 26 02:37:34 2020  

Host: n0065.mhg0
0

     Scratch files written to /local/scratch/users/yhljason/BH3_DSD-PBEPBE-D3_aug-cc-pcVQZ.inp20200926022611//
The previous job contains 0 fragments, simply inherited here
Input Ideriv = 0
Curr. Ideriv = -1
Max.  Ideriv = 0
Analytic post-HF gradients are not available with non-HF exchange
Input Ideriv = 0
Curr. Ideriv = 0
Max.  Ideriv = 0

Checking the input file for inconsistencies... 	...done.

--------------------------------------------------------------
User input:
--------------------------------------------------------------
$molecule
read
$end

$rem

jobtype sp
method DSD-PBEPBE-D3
xc_grid 000099000590
basis aug-cc-pcVQZ
max_scf_cycles 200
thresh 14
scf_convergence 8
mem_total 128000
cc_memory 96000
cc_backend xm
mem_static 1500
symmetry false
sym_ignore true
scf_guess read
unrestricted false
scf_algorithm gdm
n_frozen_core 0
$end

$multipole_field
XX -0.0001
$end


--------------------------------------------------------------
 Adding empirical dispersion correction 
 ----------------------------------------------------------------
 Doing -D3(BJ) with
 s6 =   0.78000
 s8 =   0.00000
 a1 =   0.00000
 a2 =   6.10000
 -D3 energy without 3body term =     -0.0005822575 hartrees
 ----------------------------------------------------------------
             Standard Nuclear Orientation (Angstroms)
    I     Atom           X                Y                Z
 ----------------------------------------------------------------
    1      B       0.0000000000     0.0000000000     0.0000000000
    2      H       0.0000000000     1.1900000000     0.0000000000
    3      H       1.0306000000    -0.5950000000     0.0000000000
    4      H      -1.0306000000    -0.5950000000     0.0000000000
 ----------------------------------------------------------------
 Nuclear Repulsion Energy =     7.4398312687 hartrees
 There are        4 alpha and        4 beta electrons
 Requested basis set is aug-cc-pCVQZ
 There are 71 shells and 247 basis functions

 Total QAlloc Memory Limit 128000 MB
 Mega-Array Size      1467 MB
 MEM_STATIC part      1500 MB

                       Distance Matrix (Angstroms)
             B (  1)   H (  2)   H (  3)
   H (  2)  1.190000
   H (  3)  1.190026  2.061155
   H (  4)  1.190026  2.061155  2.061200
 
 Applying Cartesian multipole field
    Component          Value
    ---------          -----
     (2,0,0)       -1.00000E-04
 Nucleus-field energy     =    -0.0007585916 hartrees
 A cutoff of  1.0D-14 yielded   2556 shell pairs
 There are     31120 function pairs (     47305 Cartesian)
 
 -------------------------------------------------------
 OpenMP Integral Computing Module                       
 Release: version 1.0, May 2013, Q-Chem Inc. Pittsburgh 
 -------------------------------------------------------
 Integral Job Info:
 Integral job number is                      11
 Integral operator is                         1
 short-range coefficients                     0
 long-range coefficients              100000000
 Omega coefficients                           0
 if combine SR and LR in K                    0
 Integral screening is                        0
 Integral computing path is                   2
 max size of driver memory is           3200000
 size of driver memory is               1704330
 size of scratch memory is             18511652
 max col of scratch BK array              50625
 max len of scratch array in speh3         2114
 max len of scratch index in speh4           50
 max int batch size is                      520
 min int batch size is                       52
 fixed nKL is                                52
 max L of basis functions is                  4
 order of int derivative is                   0
 number of shells is                         71
 number of basis is                         304
 number of cartesian basis is               304
 number of contracted shell pairs          2556
 number of primitive shell pairs           4503
 maxK2 (contraction) of shell pair           81
 max number of K2 of shell pair               1
 max number of CS2 of shell pair            364
 max number of PS2 of shell pair            369
 mem total for path MDJ                  671149
 -------------------------------------------------------
 Smallest overlap matrix eigenvalue = 2.66E-05
 Guess MOs from SCF MO coefficient file

 -----------------------------------------------------------------------
  General SCF calculation program by
  Eric Jon Sundstrom, Paul Horn, Yuezhi Mao, Dmitri Zuev, Alec White,
  David Stuck, Shaama M.S., Shane Yost, Joonho Lee, David Small,
  Daniel Levine, Susi Lehtola, Hugh Burton, Evgeny Epifanovsky
 -----------------------------------------------------------------------
 Exchange:     0.6800 Hartree-Fock + 0.3200 PBE
 Correlation:  0.4900 PBE
 Using Euler-Maclaurin-Lebedev (99,590) quadrature formula
 Dispersion:   Grimme D3
 using 8 threads for integral computing
 -------------------------------------------------------
 OpenMP Integral computing Module                
 Release: version 2.0, May 2017, Q-Chem Inc. Pleasanton 
 -------------------------------------------------------
 -------------------------------------------------------
 OpenMP BLAS3 based DFT computing Module                
 Release: version 1.0, May 2013, Q-Chem Inc. Pittsburgh 
 -------------------------------------------------------
 A restricted SCF calculation will be
 performed using GDM
 SCF converges when RMS gradient is below 1.0e-08
 ---------------------------------------
  Cycle       Energy        RMS Gradient
 ---------------------------------------
    1     -26.4853422976      6.55e-04   Normal BFGS step
    2     -26.4853450336      1.61e-04   Normal BFGS step
    3     -26.4853451975      1.40e-05   Normal BFGS step
    4     -26.4853452004      2.96e-06   Normal BFGS step
    5     -26.4853452005      3.71e-07   Normal BFGS step
    6     -26.4853452005      3.49e-08   Normal BFGS step
    7     -26.4853452005      4.12e-09  Convergence criterion met
 ---------------------------------------
 SCF time:   CPU 827.30s  wall 106.00s 
 SCF   energy in the final basis set =      -26.4853452005
 Total energy in the final basis set =      -26.4853452005
 
 Components of the MP2 correlation energy:
        aaaa  correlation energy =        -0.0011313077 au
        abab  correlation energy =        -0.0931133325 au
        bbbb  correlation energy =        -0.0011313077 au
        non-Brillouin singles    =        -0.0000000000 au

 Total  MP2   correlation energy =                    -0.09537595 au
        MP2         total energy =                   -26.58072115 au
 
 --------------------------------------------------------------
 
                    Orbital Energies (a.u.)
 --------------------------------------------------------------
 
 Alpha MOs
 -- Occupied --
 -7.265  -0.632  -0.443  -0.443
 -- Virtual --
 -0.002   0.024   0.035   0.039   0.059   0.074   0.075   0.096
  0.115   0.116   0.121   0.128   0.129   0.196   0.197   0.220
  0.240   0.245   0.257   0.258   0.258   0.264   0.265   0.293
  0.294   0.296   0.362   0.402   0.402   0.440   0.441   0.474
  0.497   0.498   0.535   0.536   0.543   0.561   0.562   0.577
  0.577   0.675   0.693   0.721   0.721   0.734   0.761   0.761
  0.767   0.768   0.820   0.845   0.845   0.883   0.883   0.894
  0.894   0.897   0.908   0.972   1.089   1.089   1.131   1.131
  1.155   1.211   1.234   1.234   1.235   1.452   1.452   1.459
  1.459   1.460   1.486   1.508   1.508   1.545   1.563   1.563
  1.625   1.638   1.638   1.752   1.752   1.754   1.755   1.775
  1.776   1.838   1.871   1.871   1.917   1.947   1.959   1.959
  1.966   2.067   2.068   2.079   2.079   2.140   2.140   2.165
  2.179   2.184   2.184   2.200   2.200   2.280   2.297   2.323
  2.353   2.353   2.667   2.804   2.804   2.926   3.050   3.050
  3.104   3.104   3.192   3.192   3.246   3.250   3.279   3.279
  3.285   3.318   3.318   3.414   3.493   3.494   3.528   3.528
  3.674   3.809   3.877   3.994   4.076   4.076   4.099   4.099
  4.142   4.224   4.224   4.251   4.327   4.327   4.361   4.361
  4.683   4.784   5.008   5.009   5.188   5.206   5.206   5.231
  5.342   5.342   5.411   5.871   5.871   6.575   6.629   6.629
  6.769   6.784   6.784   7.026   7.027   7.354   7.393   7.393
  7.502   7.684   7.684   7.701   7.702   7.754   7.877   8.013
  8.013   8.053   8.094   8.471   8.472   8.472   8.808   8.808
  8.924   8.924   8.976   9.015   9.016   9.060   9.281   9.319
  9.337   9.337   9.361   9.528   9.528   9.725   9.819   9.819
  9.867  10.345  10.345  11.256  11.256  11.923  12.948  14.552
 14.552  19.745  19.745  20.457  20.837  20.837  25.769  44.819
 45.924  45.924  75.552  75.555  75.555  75.556  75.556  75.591
 75.600  83.902  85.752  85.752  86.294  86.294  86.300 151.788
152.685 152.685 349.020
 --------------------------------------------------------------
 
          Ground-State Mulliken Net Atomic Charges

     Atom                 Charge (a.u.)
  ----------------------------------------
      1 B                     0.200172
      2 H                    -0.067508
      3 H                    -0.066332
      4 H                    -0.066332
  ----------------------------------------
  Sum of atomic charges =    -0.000000

 -----------------------------------------------------------------
                    Cartesian Multipole Moments
 -----------------------------------------------------------------
    Charge (ESU x 10^10)
                -0.0000
    Dipole Moment (Debye)
         X      -0.0000      Y      -0.0017      Z      -0.0000
       Tot       0.0017
    Quadrupole Moments (Debye-Ang)
        XX      -9.3230     XY       0.0000     YY      -9.3420
        XZ      -0.0000     YZ      -0.0000     ZZ      -7.1334
    Octopole Moments (Debye-Ang^2)
       XXX      -0.0000    XXY      -0.0709    XYY      -0.0000
       YYY       0.0574    XXZ       0.0000    XYZ       0.0000
       YYZ      -0.0000    XZZ      -0.0000    YZZ      -0.0007
       ZZZ      -0.0000
    Hexadecapole Moments (Debye-Ang^3)
      XXXX     -24.2513   XXXY       0.0000   XXYY      -8.0992
      XYYY       0.0000   YYYY     -24.3478   XXXZ      -0.0000
      XXYZ      -0.0000   XYYZ      -0.0000   YYYZ      -0.0000
      XXZZ      -5.5494   XYZZ       0.0000   YYZZ      -5.5591
      XZZZ      -0.0000   YZZZ      -0.0000   ZZZZ      -7.2588
 -----------------------------------------------------------------
Archival summary:
1\1\n0065.mhg0\SP\ProcedureUnspecified\BasisUnspecified\13\yhljason\SatSep2602:41:342020SatSep2602:41:342020\0\\#,ProcedureUnspecified,BasisUnspecified,\\0,1\B\H,1,1.19\H,1,1.19003,2,119.999\H,1,1.19003,2,119.999,3,-180,0\\\@

 Total job time:  239.85s(wall), 1880.64s(cpu) 
 Sat Sep 26 02:41:34 2020

        *************************************************************
        *                                                           *
        *  Thank you very much for using Q-Chem.  Have a nice day.  *
        *                                                           *
        *************************************************************


 
User input: 4 of 7 
 
Q-Chem Developer Version!
                  Welcome to Q-Chem
     A Quantum Leap Into The Future Of Chemistry


 Q-Chem 5.1, Q-Chem, Inc., Pleasanton, CA (2018)

 Yihan Shao,  Zhengting Gan,  E. Epifanovsky,  A. T. B. Gilbert,  M. Wormit,  
 J. Kussmann,  A. W. Lange,  A. Behn,  Jia Deng,  Xintian Feng,  D. Ghosh,  
 M. Goldey,  P. R. Horn,  L. D. Jacobson,  I. Kaliman,  T. Kus,  A. Landau,  
 Jie Liu,  E. I. Proynov,  R. M. Richard,  R. P. Steele,  E. J. Sundstrom,  
 H. L. Woodcock III,  P. M. Zimmerman,  D. Zuev,  B. Albrecht,  E. Alguire,  
 S. A. Baeppler,  D. Barton,  Z. Benda,  Y. A. Bernard,  E. J. Berquist,  
 K. B. Bravaya,  H. Burton,  D. Casanova,  Chun-Min Chang,  Yunqing Chen,  
 A. Chien,  K. D. Closser,  M. P. Coons,  S. Coriani,  S. Dasgupta,  
 A. L. Dempwolff,  M. Diedenhofen,  Hainam Do,  R. G. Edgar,  Po-Tung Fang,  
 S. Faraji,  S. Fatehi,  Qingguo Feng,  K. D. Fenk,  J. Fosso-Tande,  
 Qinghui Ge,  A. Ghysels,  G. Gidofalvi,  J. Gomes,  J. Gonthier,  A. Gunina,  
 D. Hait,  M. W. D. Hanson-Heine,  P. H. P. Harbach,  A. W. Hauser,  
 J. E. Herr,  E. G. Hohenstein,  Z. C. Holden,  Kerwin Hui,  B. C. Huynh,  
 T.-C. Jagau,  Hyunjun Ji,  B. Kaduk,  K. Khistyaev,  Jaehoon Kim,  
 P. Klunzinger,  K. Koh,  D. Kosenkov,  L. Koulias,  T. Kowalczyk,  
 C. M. Krauter,  A. Kunitsa,  Ka Un Lao,  A. Laurent,  K. V. Lawler,  
 Joonho Lee,  D. Lefrancois,  S. Lehtola,  D. S. Levine,  Yi-Pei Li,  
 You-Sheng Lin,  Fenglai Liu,  E. Livshits,  A. Luenser,  P. Manohar,  
 E. Mansoor,  S. F. Manzer,  Shan-Ping Mao,  Yuezhi Mao,  N. Mardirossian,  
 A. V. Marenich,  T. Markovich,  L. A. Martinez-Martinez,  S. A. Maurer,  
 N. J. Mayhall,  S. C. McKenzie,  J.-M. Mewes,  A. F. Morrison,  
 J. W. Mullinax,  K. Nanda,  T. S. Nguyen-Beck,  R. Olivares-Amaya,  
 J. A. Parkhill,  T. M. Perrine,  F. Plasser,  P. Pokhilko,  S. Prager,  
 A. Prociuk,  E. Ramos,  D. R. Rehn,  F. Rob,  M. Schneider,  N. Sergueev,  
 S. M. Sharada,  S. Sharma,  D. W. Small,  T. Stauch,  T. Stein,  
 Yu-Chuan Su,  A. J. W. Thom,  A. Tkatchenko,  T. Tsuchimochi,  N. M. Tubman,  
 L. Vogt,  M. L. Vidal,  O. Vydrov,  M. A. Watson,  J. Wenzel,  
 M. de Wergifosse,  T. A. Wesolowski,  A. White,  J. Witte,  A. Yamada,  
 Jun Yang,  K. Yao,  S. Yeganeh,  S. R. Yost,  Zhi-Qiang You,  A. Zech,  
 Igor Ying Zhang,  Xing Zhang,  Yan Zhao,  Ying Zhu,  B. R. Brooks,  
 G. K. L. Chan,  C. J. Cramer,  M. S. Gordon,  W. J. Hehre,  A. Klamt,  
 M. W. Schmidt,  C. D. Sherrill,  D. G. Truhlar,  A. Aspuru-Guzik,  R. Baer,  
 A. T. Bell,  N. A. Besley,  Jeng-Da Chai,  A. E. DePrince, III,  
 R. A. DiStasio Jr.,  A. Dreuw,  B. D. Dunietz,  T. R. Furlani,  
 Chao-Ping Hsu,  Yousung Jung,  Jing Kong,  D. S. Lambrecht,  WanZhen Liang,  
 C. Ochsenfeld,  V. A. Rassolov,  L. V. Slipchenko,  J. E. Subotnik,  
 T. Van Voorhis,  J. M. Herbert,  A. I. Krylov,  P. M. W. Gill,  M. Head-Gordon

 Contributors to earlier versions of Q-Chem not listed above: 
 R. D. Adamson,  B. Austin,  J. Baker,  G. J. O. Beran,  K. Brandhorst,  
 S. T. Brown,  E. F. C. Byrd,  A. K. Chakraborty,  C.-L. Cheng,  
 Siu Hung Chien,  D. M. Chipman,  D. L. Crittenden,  H. Dachsel,  
 R. J. Doerksen,  A. D. Dutoi,  L. Fusti-Molnar,  W. A. Goddard III,  
 A. Golubeva-Zadorozhnaya,  S. R. Gwaltney,  G. Hawkins,  A. Heyden,  
 S. Hirata,  G. Kedziora,  F. J. Keil,  C. Kelley,  Jihan Kim,  R. A. King,  
 R. Z. Khaliullin,  P. P. Korambath,  W. Kurlancheek,  A. M. Lee,  M. S. Lee,  
 S. V. Levchenko,  Ching Yeh Lin,  D. Liotard,  R. C. Lochan,  I. Lotan,  
 P. E. Maslen,  N. Nair,  D. P. O'Neill,  D. Neuhauser,  E. Neuscamman,  
 C. M. Oana,  R. Olson,  B. Peters,  R. Peverati,  P. A. Pieniazek,  
 Y. M. Rhee,  J. Ritchie,  M. A. Rohrdanz,  E. Rosta,  N. J. Russ,  
 H. F. Schaefer III,  N. E. Schultz,  N. Shenvi,  A. C. Simmonett,  A. Sodt,  
 D. Stuck,  K. S. Thanthiriwatte,  V. Vanovschi,  Tao Wang,  A. Warshel,  
 C. F. Williams,  Q. Wu,  X. Xu,  W. Zhang

 Please cite Q-Chem as follows:
 Y. Shao et al., Mol. Phys. 113, 184-215 (2015)
 DOI: 10.1080/00268976.2014.952696

 Q-Chem 5.1.1 for Intel X86 EM64T Linux

 Parts of Q-Chem use Armadillo 8.300.2 (Tropical Shenanigans).
 http://arma.sourceforge.net/

 Q-Chem begins on Sat Sep 26 02:41:34 2020  

Host: n0065.mhg0
0

     Scratch files written to /local/scratch/users/yhljason/BH3_DSD-PBEPBE-D3_aug-cc-pcVQZ.inp20200926022611//
The previous job contains 0 fragments, simply inherited here
Input Ideriv = 0
Curr. Ideriv = -1
Max.  Ideriv = 0
Analytic post-HF gradients are not available with non-HF exchange
Input Ideriv = 0
Curr. Ideriv = 0
Max.  Ideriv = 0

Checking the input file for inconsistencies... 	...done.

--------------------------------------------------------------
User input:
--------------------------------------------------------------
$molecule
read
$end

$rem

jobtype sp
method DSD-PBEPBE-D3
xc_grid 000099000590
basis aug-cc-pcVQZ
max_scf_cycles 200
thresh 14
scf_convergence 8
mem_total 128000
cc_memory 96000
cc_backend xm
mem_static 1500
symmetry false
sym_ignore true
scf_guess read
unrestricted false
scf_algorithm gdm
n_frozen_core 0
$end

$multipole_field
YY 0.0001
$end


--------------------------------------------------------------
 Adding empirical dispersion correction 
 ----------------------------------------------------------------
 Doing -D3(BJ) with
 s6 =   0.78000
 s8 =   0.00000
 a1 =   0.00000
 a2 =   6.10000
 -D3 energy without 3body term =     -0.0005822575 hartrees
 ----------------------------------------------------------------
             Standard Nuclear Orientation (Angstroms)
    I     Atom           X                Y                Z
 ----------------------------------------------------------------
    1      B       0.0000000000     0.0000000000     0.0000000000
    2      H       0.0000000000     1.1900000000     0.0000000000
    3      H       1.0306000000    -0.5950000000     0.0000000000
    4      H      -1.0306000000    -0.5950000000     0.0000000000
 ----------------------------------------------------------------
 Nuclear Repulsion Energy =     7.4398312687 hartrees
 There are        4 alpha and        4 beta electrons
 Requested basis set is aug-cc-pCVQZ
 There are 71 shells and 247 basis functions

 Total QAlloc Memory Limit 128000 MB
 Mega-Array Size      1467 MB
 MEM_STATIC part      1500 MB

                       Distance Matrix (Angstroms)
             B (  1)   H (  2)   H (  3)
   H (  2)  1.190000
   H (  3)  1.190026  2.061155
   H (  4)  1.190026  2.061155  2.061200
 
 Applying Cartesian multipole field
    Component          Value
    ---------          -----
     (0,2,0)        1.00000E-04
 Nucleus-field energy     =     0.0007585477 hartrees
 A cutoff of  1.0D-14 yielded   2556 shell pairs
 There are     31120 function pairs (     47305 Cartesian)
 
 -------------------------------------------------------
 OpenMP Integral Computing Module                       
 Release: version 1.0, May 2013, Q-Chem Inc. Pittsburgh 
 -------------------------------------------------------
 Integral Job Info:
 Integral job number is                      11
 Integral operator is                         1
 short-range coefficients                     0
 long-range coefficients              100000000
 Omega coefficients                           0
 if combine SR and LR in K                    0
 Integral screening is                        0
 Integral computing path is                   2
 max size of driver memory is           3200000
 size of driver memory is               1704330
 size of scratch memory is             18511652
 max col of scratch BK array              50625
 max len of scratch array in speh3         2114
 max len of scratch index in speh4           50
 max int batch size is                      520
 min int batch size is                       52
 fixed nKL is                                52
 max L of basis functions is                  4
 order of int derivative is                   0
 number of shells is                         71
 number of basis is                         304
 number of cartesian basis is               304
 number of contracted shell pairs          2556
 number of primitive shell pairs           4503
 maxK2 (contraction) of shell pair           81
 max number of K2 of shell pair               1
 max number of CS2 of shell pair            364
 max number of PS2 of shell pair            369
 mem total for path MDJ                  671149
 -------------------------------------------------------
 Smallest overlap matrix eigenvalue = 2.66E-05
 Guess MOs from SCF MO coefficient file

 -----------------------------------------------------------------------
  General SCF calculation program by
  Eric Jon Sundstrom, Paul Horn, Yuezhi Mao, Dmitri Zuev, Alec White,
  David Stuck, Shaama M.S., Shane Yost, Joonho Lee, David Small,
  Daniel Levine, Susi Lehtola, Hugh Burton, Evgeny Epifanovsky
 -----------------------------------------------------------------------
 Exchange:     0.6800 Hartree-Fock + 0.3200 PBE
 Correlation:  0.4900 PBE
 Using Euler-Maclaurin-Lebedev (99,590) quadrature formula
 Dispersion:   Grimme D3
 using 8 threads for integral computing
 -------------------------------------------------------
 OpenMP Integral computing Module                
 Release: version 2.0, May 2017, Q-Chem Inc. Pleasanton 
 -------------------------------------------------------
 -------------------------------------------------------
 OpenMP BLAS3 based DFT computing Module                
 Release: version 1.0, May 2013, Q-Chem Inc. Pittsburgh 
 -------------------------------------------------------
 A restricted SCF calculation will be
 performed using GDM
 SCF converges when RMS gradient is below 1.0e-08
 ---------------------------------------
  Cycle       Energy        RMS Gradient
 ---------------------------------------
    1     -26.4867328980      4.89e-04   Normal BFGS step
    2     -26.4867342869      1.08e-04   Normal BFGS step
    3     -26.4867343765      7.95e-06   Normal BFGS step
    4     -26.4867343771      9.38e-07   Normal BFGS step
    5     -26.4867343771      1.05e-07   Normal BFGS step
    6     -26.4867343771      1.75e-08   Normal BFGS step
    7     -26.4867343771      2.03e-09  Convergence criterion met
 ---------------------------------------
 SCF time:   CPU 815.40s  wall 105.00s 
 SCF   energy in the final basis set =      -26.4867343771
 Total energy in the final basis set =      -26.4867343771
 
 Components of the MP2 correlation energy:
        aaaa  correlation energy =        -0.0011310764 au
        abab  correlation energy =        -0.0931046905 au
        bbbb  correlation energy =        -0.0011310764 au
        non-Brillouin singles    =        -0.0000000000 au

 Total  MP2   correlation energy =                    -0.09536684 au
        MP2         total energy =                   -26.58210122 au
 
 --------------------------------------------------------------
 
                    Orbital Energies (a.u.)
 --------------------------------------------------------------
 
 Alpha MOs
 -- Occupied --
 -7.266  -0.633  -0.444  -0.443
 -- Virtual --
 -0.004   0.019   0.027   0.031   0.056   0.066   0.068   0.092
  0.112   0.114   0.117   0.123   0.124   0.191   0.192   0.216
  0.239   0.241   0.255   0.255   0.256   0.262   0.263   0.289
  0.291   0.294   0.359   0.400   0.401   0.437   0.438   0.471
  0.495   0.496   0.532   0.533   0.542   0.559   0.560   0.575
  0.575   0.674   0.691   0.719   0.719   0.733   0.760   0.760
  0.765   0.766   0.818   0.842   0.842   0.881   0.881   0.892
  0.892   0.895   0.906   0.971   1.087   1.087   1.130   1.130
  1.153   1.209   1.232   1.233   1.233   1.451   1.451   1.458
  1.458   1.459   1.485   1.507   1.507   1.543   1.562   1.562
  1.624   1.636   1.636   1.750   1.750   1.753   1.753   1.773
  1.775   1.837   1.869   1.870   1.916   1.946   1.958   1.958
  1.964   2.066   2.066   2.078   2.078   2.138   2.138   2.163
  2.178   2.182   2.183   2.199   2.199   2.279   2.296   2.322
  2.351   2.351   2.666   2.803   2.803   2.925   3.049   3.049
  3.103   3.103   3.191   3.191   3.244   3.249   3.277   3.278
  3.284   3.317   3.317   3.413   3.492   3.493   3.527   3.527
  3.673   3.808   3.876   3.993   4.075   4.075   4.098   4.098
  4.141   4.223   4.223   4.250   4.326   4.326   4.360   4.360
  4.682   4.783   5.007   5.008   5.188   5.205   5.205   5.230
  5.341   5.341   5.410   5.870   5.870   6.574   6.628   6.628
  6.768   6.783   6.783   7.026   7.026   7.353   7.392   7.392
  7.502   7.683   7.683   7.701   7.701   7.753   7.876   8.012
  8.012   8.052   8.093   8.470   8.471   8.472   8.807   8.807
  8.923   8.923   8.975   9.015   9.015   9.059   9.280   9.318
  9.336   9.336   9.360   9.527   9.527   9.724   9.818   9.818
  9.866  10.344  10.344  11.255  11.255  11.922  12.948  14.551
 14.551  19.744  19.744  20.456  20.836  20.836  25.768  44.819
 45.923  45.923  75.551  75.554  75.554  75.555  75.555  75.590
 75.599  83.901  85.751  85.751  86.293  86.293  86.299 151.787
152.684 152.684 349.019
 --------------------------------------------------------------
 
          Ground-State Mulliken Net Atomic Charges

     Atom                 Charge (a.u.)
  ----------------------------------------
      1 B                     0.203023
      2 H                    -0.068468
      3 H                    -0.067277
      4 H                    -0.067277
  ----------------------------------------
  Sum of atomic charges =    -0.000000

 -----------------------------------------------------------------
                    Cartesian Multipole Moments
 -----------------------------------------------------------------
    Charge (ESU x 10^10)
                -0.0000
    Dipole Moment (Debye)
         X      -0.0000      Y      -0.0017      Z      -0.0000
       Tot       0.0017
    Quadrupole Moments (Debye-Ang)
        XX      -9.3429     XY       0.0000     YY      -9.3620
        XZ       0.0000     YZ      -0.0000     ZZ      -7.1356
    Octopole Moments (Debye-Ang^2)
       XXX      -0.0000    XXY      -0.0604    XYY       0.0000
       YYY       0.0467    XXZ      -0.0000    XYZ      -0.0000
       YYZ      -0.0000    XZZ       0.0000    YZZ      -0.0007
       ZZZ      -0.0000
    Hexadecapole Moments (Debye-Ang^3)
      XXXX     -24.3536   XXXY       0.0000   XXYY      -8.1334
      XYYY       0.0000   YYYY     -24.4513   XXXZ       0.0000
      XXYZ       0.0000   XYYZ      -0.0000   YYYZ      -0.0000
      XXZZ      -5.5620   XYZZ      -0.0000   YYZZ      -5.5718
      XZZZ       0.0000   YZZZ      -0.0000   ZZZZ      -7.2660
 -----------------------------------------------------------------
Archival summary:
1\1\n0065.mhg0\SP\ProcedureUnspecified\BasisUnspecified\13\yhljason\SatSep2602:45:422020SatSep2602:45:422020\0\\#,ProcedureUnspecified,BasisUnspecified,\\0,1\B\H,1,1.19\H,1,1.19003,2,119.999\H,1,1.19003,2,119.999,3,-180,0\\\@

 Total job time:  247.57s(wall), 1949.42s(cpu) 
 Sat Sep 26 02:45:42 2020

        *************************************************************
        *                                                           *
        *  Thank you very much for using Q-Chem.  Have a nice day.  *
        *                                                           *
        *************************************************************


 
User input: 5 of 7 
 
Q-Chem Developer Version!
                  Welcome to Q-Chem
     A Quantum Leap Into The Future Of Chemistry


 Q-Chem 5.1, Q-Chem, Inc., Pleasanton, CA (2018)

 Yihan Shao,  Zhengting Gan,  E. Epifanovsky,  A. T. B. Gilbert,  M. Wormit,  
 J. Kussmann,  A. W. Lange,  A. Behn,  Jia Deng,  Xintian Feng,  D. Ghosh,  
 M. Goldey,  P. R. Horn,  L. D. Jacobson,  I. Kaliman,  T. Kus,  A. Landau,  
 Jie Liu,  E. I. Proynov,  R. M. Richard,  R. P. Steele,  E. J. Sundstrom,  
 H. L. Woodcock III,  P. M. Zimmerman,  D. Zuev,  B. Albrecht,  E. Alguire,  
 S. A. Baeppler,  D. Barton,  Z. Benda,  Y. A. Bernard,  E. J. Berquist,  
 K. B. Bravaya,  H. Burton,  D. Casanova,  Chun-Min Chang,  Yunqing Chen,  
 A. Chien,  K. D. Closser,  M. P. Coons,  S. Coriani,  S. Dasgupta,  
 A. L. Dempwolff,  M. Diedenhofen,  Hainam Do,  R. G. Edgar,  Po-Tung Fang,  
 S. Faraji,  S. Fatehi,  Qingguo Feng,  K. D. Fenk,  J. Fosso-Tande,  
 Qinghui Ge,  A. Ghysels,  G. Gidofalvi,  J. Gomes,  J. Gonthier,  A. Gunina,  
 D. Hait,  M. W. D. Hanson-Heine,  P. H. P. Harbach,  A. W. Hauser,  
 J. E. Herr,  E. G. Hohenstein,  Z. C. Holden,  Kerwin Hui,  B. C. Huynh,  
 T.-C. Jagau,  Hyunjun Ji,  B. Kaduk,  K. Khistyaev,  Jaehoon Kim,  
 P. Klunzinger,  K. Koh,  D. Kosenkov,  L. Koulias,  T. Kowalczyk,  
 C. M. Krauter,  A. Kunitsa,  Ka Un Lao,  A. Laurent,  K. V. Lawler,  
 Joonho Lee,  D. Lefrancois,  S. Lehtola,  D. S. Levine,  Yi-Pei Li,  
 You-Sheng Lin,  Fenglai Liu,  E. Livshits,  A. Luenser,  P. Manohar,  
 E. Mansoor,  S. F. Manzer,  Shan-Ping Mao,  Yuezhi Mao,  N. Mardirossian,  
 A. V. Marenich,  T. Markovich,  L. A. Martinez-Martinez,  S. A. Maurer,  
 N. J. Mayhall,  S. C. McKenzie,  J.-M. Mewes,  A. F. Morrison,  
 J. W. Mullinax,  K. Nanda,  T. S. Nguyen-Beck,  R. Olivares-Amaya,  
 J. A. Parkhill,  T. M. Perrine,  F. Plasser,  P. Pokhilko,  S. Prager,  
 A. Prociuk,  E. Ramos,  D. R. Rehn,  F. Rob,  M. Schneider,  N. Sergueev,  
 S. M. Sharada,  S. Sharma,  D. W. Small,  T. Stauch,  T. Stein,  
 Yu-Chuan Su,  A. J. W. Thom,  A. Tkatchenko,  T. Tsuchimochi,  N. M. Tubman,  
 L. Vogt,  M. L. Vidal,  O. Vydrov,  M. A. Watson,  J. Wenzel,  
 M. de Wergifosse,  T. A. Wesolowski,  A. White,  J. Witte,  A. Yamada,  
 Jun Yang,  K. Yao,  S. Yeganeh,  S. R. Yost,  Zhi-Qiang You,  A. Zech,  
 Igor Ying Zhang,  Xing Zhang,  Yan Zhao,  Ying Zhu,  B. R. Brooks,  
 G. K. L. Chan,  C. J. Cramer,  M. S. Gordon,  W. J. Hehre,  A. Klamt,  
 M. W. Schmidt,  C. D. Sherrill,  D. G. Truhlar,  A. Aspuru-Guzik,  R. Baer,  
 A. T. Bell,  N. A. Besley,  Jeng-Da Chai,  A. E. DePrince, III,  
 R. A. DiStasio Jr.,  A. Dreuw,  B. D. Dunietz,  T. R. Furlani,  
 Chao-Ping Hsu,  Yousung Jung,  Jing Kong,  D. S. Lambrecht,  WanZhen Liang,  
 C. Ochsenfeld,  V. A. Rassolov,  L. V. Slipchenko,  J. E. Subotnik,  
 T. Van Voorhis,  J. M. Herbert,  A. I. Krylov,  P. M. W. Gill,  M. Head-Gordon

 Contributors to earlier versions of Q-Chem not listed above: 
 R. D. Adamson,  B. Austin,  J. Baker,  G. J. O. Beran,  K. Brandhorst,  
 S. T. Brown,  E. F. C. Byrd,  A. K. Chakraborty,  C.-L. Cheng,  
 Siu Hung Chien,  D. M. Chipman,  D. L. Crittenden,  H. Dachsel,  
 R. J. Doerksen,  A. D. Dutoi,  L. Fusti-Molnar,  W. A. Goddard III,  
 A. Golubeva-Zadorozhnaya,  S. R. Gwaltney,  G. Hawkins,  A. Heyden,  
 S. Hirata,  G. Kedziora,  F. J. Keil,  C. Kelley,  Jihan Kim,  R. A. King,  
 R. Z. Khaliullin,  P. P. Korambath,  W. Kurlancheek,  A. M. Lee,  M. S. Lee,  
 S. V. Levchenko,  Ching Yeh Lin,  D. Liotard,  R. C. Lochan,  I. Lotan,  
 P. E. Maslen,  N. Nair,  D. P. O'Neill,  D. Neuhauser,  E. Neuscamman,  
 C. M. Oana,  R. Olson,  B. Peters,  R. Peverati,  P. A. Pieniazek,  
 Y. M. Rhee,  J. Ritchie,  M. A. Rohrdanz,  E. Rosta,  N. J. Russ,  
 H. F. Schaefer III,  N. E. Schultz,  N. Shenvi,  A. C. Simmonett,  A. Sodt,  
 D. Stuck,  K. S. Thanthiriwatte,  V. Vanovschi,  Tao Wang,  A. Warshel,  
 C. F. Williams,  Q. Wu,  X. Xu,  W. Zhang

 Please cite Q-Chem as follows:
 Y. Shao et al., Mol. Phys. 113, 184-215 (2015)
 DOI: 10.1080/00268976.2014.952696

 Q-Chem 5.1.1 for Intel X86 EM64T Linux

 Parts of Q-Chem use Armadillo 8.300.2 (Tropical Shenanigans).
 http://arma.sourceforge.net/

 Q-Chem begins on Sat Sep 26 02:45:42 2020  

Host: n0065.mhg0
0

     Scratch files written to /local/scratch/users/yhljason/BH3_DSD-PBEPBE-D3_aug-cc-pcVQZ.inp20200926022611//
The previous job contains 0 fragments, simply inherited here
Input Ideriv = 0
Curr. Ideriv = -1
Max.  Ideriv = 0
Analytic post-HF gradients are not available with non-HF exchange
Input Ideriv = 0
Curr. Ideriv = 0
Max.  Ideriv = 0

Checking the input file for inconsistencies... 	...done.

--------------------------------------------------------------
User input:
--------------------------------------------------------------
$molecule
read
$end

$rem

jobtype sp
method DSD-PBEPBE-D3
xc_grid 000099000590
basis aug-cc-pcVQZ
max_scf_cycles 200
thresh 14
scf_convergence 8
mem_total 128000
cc_memory 96000
cc_backend xm
mem_static 1500
symmetry false
sym_ignore true
scf_guess read
unrestricted false
scf_algorithm gdm
n_frozen_core 0
$end

$multipole_field
YY -0.0001
$end


--------------------------------------------------------------
 Adding empirical dispersion correction 
 ----------------------------------------------------------------
 Doing -D3(BJ) with
 s6 =   0.78000
 s8 =   0.00000
 a1 =   0.00000
 a2 =   6.10000
 -D3 energy without 3body term =     -0.0005822575 hartrees
 ----------------------------------------------------------------
             Standard Nuclear Orientation (Angstroms)
    I     Atom           X                Y                Z
 ----------------------------------------------------------------
    1      B       0.0000000000     0.0000000000     0.0000000000
    2      H       0.0000000000     1.1900000000     0.0000000000
    3      H       1.0306000000    -0.5950000000     0.0000000000
    4      H      -1.0306000000    -0.5950000000     0.0000000000
 ----------------------------------------------------------------
 Nuclear Repulsion Energy =     7.4398312687 hartrees
 There are        4 alpha and        4 beta electrons
 Requested basis set is aug-cc-pCVQZ
 There are 71 shells and 247 basis functions

 Total QAlloc Memory Limit 128000 MB
 Mega-Array Size      1467 MB
 MEM_STATIC part      1500 MB

                       Distance Matrix (Angstroms)
             B (  1)   H (  2)   H (  3)
   H (  2)  1.190000
   H (  3)  1.190026  2.061155
   H (  4)  1.190026  2.061155  2.061200
 
 Applying Cartesian multipole field
    Component          Value
    ---------          -----
     (0,2,0)       -1.00000E-04
 Nucleus-field energy     =    -0.0007585477 hartrees
 A cutoff of  1.0D-14 yielded   2556 shell pairs
 There are     31120 function pairs (     47305 Cartesian)
 
 -------------------------------------------------------
 OpenMP Integral Computing Module                       
 Release: version 1.0, May 2013, Q-Chem Inc. Pittsburgh 
 -------------------------------------------------------
 Integral Job Info:
 Integral job number is                      11
 Integral operator is                         1
 short-range coefficients                     0
 long-range coefficients              100000000
 Omega coefficients                           0
 if combine SR and LR in K                    0
 Integral screening is                        0
 Integral computing path is                   2
 max size of driver memory is           3200000
 size of driver memory is               1704330
 size of scratch memory is             18511652
 max col of scratch BK array              50625
 max len of scratch array in speh3         2114
 max len of scratch index in speh4           50
 max int batch size is                      520
 min int batch size is                       52
 fixed nKL is                                52
 max L of basis functions is                  4
 order of int derivative is                   0
 number of shells is                         71
 number of basis is                         304
 number of cartesian basis is               304
 number of contracted shell pairs          2556
 number of primitive shell pairs           4503
 maxK2 (contraction) of shell pair           81
 max number of K2 of shell pair               1
 max number of CS2 of shell pair            364
 max number of PS2 of shell pair            369
 mem total for path MDJ                  671149
 -------------------------------------------------------
 Smallest overlap matrix eigenvalue = 2.66E-05
 Guess MOs from SCF MO coefficient file

 -----------------------------------------------------------------------
  General SCF calculation program by
  Eric Jon Sundstrom, Paul Horn, Yuezhi Mao, Dmitri Zuev, Alec White,
  David Stuck, Shaama M.S., Shane Yost, Joonho Lee, David Small,
  Daniel Levine, Susi Lehtola, Hugh Burton, Evgeny Epifanovsky
 -----------------------------------------------------------------------
 Exchange:     0.6800 Hartree-Fock + 0.3200 PBE
 Correlation:  0.4900 PBE
 Using Euler-Maclaurin-Lebedev (99,590) quadrature formula
 Dispersion:   Grimme D3
 using 8 threads for integral computing
 -------------------------------------------------------
 OpenMP Integral computing Module                
 Release: version 2.0, May 2017, Q-Chem Inc. Pleasanton 
 -------------------------------------------------------
 -------------------------------------------------------
 OpenMP BLAS3 based DFT computing Module                
 Release: version 1.0, May 2013, Q-Chem Inc. Pittsburgh 
 -------------------------------------------------------
 A restricted SCF calculation will be
 performed using GDM
 SCF converges when RMS gradient is below 1.0e-08
 ---------------------------------------
  Cycle       Energy        RMS Gradient
 ---------------------------------------
    1     -26.4853422953      6.56e-04   Normal BFGS step
    2     -26.4853450311      1.60e-04   Normal BFGS step
    3     -26.4853451950      1.41e-05   Normal BFGS step
    4     -26.4853451978      2.98e-06   Normal BFGS step
    5     -26.4853451979      3.74e-07   Normal BFGS step
    6     -26.4853451979      3.49e-08   Normal BFGS step
    7     -26.4853451979      4.12e-09  Convergence criterion met
 ---------------------------------------
 SCF time:   CPU 807.17s  wall 103.00s 
 SCF   energy in the final basis set =      -26.4853451979
 Total energy in the final basis set =      -26.4853451979
 
 Components of the MP2 correlation energy:
        aaaa  correlation energy =        -0.0011313076 au
        abab  correlation energy =        -0.0931133324 au
        bbbb  correlation energy =        -0.0011313076 au
        non-Brillouin singles    =        -0.0000000000 au

 Total  MP2   correlation energy =                    -0.09537595 au
        MP2         total energy =                   -26.58072115 au
 
 --------------------------------------------------------------
 
                    Orbital Energies (a.u.)
 --------------------------------------------------------------
 
 Alpha MOs
 -- Occupied --
 -7.265  -0.632  -0.443  -0.443
 -- Virtual --
 -0.002   0.024   0.035   0.039   0.059   0.074   0.075   0.096
  0.115   0.116   0.121   0.127   0.129   0.196   0.197   0.220
  0.240   0.245   0.257   0.258   0.258   0.264   0.265   0.293
  0.294   0.296   0.362   0.402   0.402   0.440   0.441   0.474
  0.497   0.498   0.535   0.536   0.543   0.561   0.562   0.577
  0.577   0.675   0.693   0.721   0.721   0.734   0.761   0.761
  0.767   0.768   0.820   0.845   0.845   0.883   0.883   0.894
  0.894   0.897   0.908   0.972   1.089   1.089   1.131   1.131
  1.155   1.211   1.234   1.234   1.235   1.452   1.452   1.459
  1.459   1.460   1.486   1.508   1.508   1.545   1.563   1.563
  1.625   1.638   1.638   1.752   1.752   1.754   1.755   1.775
  1.776   1.838   1.871   1.871   1.917   1.947   1.959   1.959
  1.966   2.067   2.068   2.079   2.079   2.140   2.140   2.165
  2.179   2.184   2.184   2.200   2.200   2.280   2.297   2.323
  2.353   2.353   2.667   2.804   2.804   2.926   3.050   3.050
  3.104   3.104   3.192   3.192   3.246   3.250   3.279   3.279
  3.285   3.318   3.318   3.414   3.493   3.494   3.528   3.528
  3.674   3.809   3.877   3.994   4.076   4.076   4.099   4.099
  4.142   4.224   4.224   4.251   4.327   4.327   4.361   4.361
  4.683   4.784   5.008   5.009   5.188   5.205   5.206   5.231
  5.342   5.342   5.411   5.871   5.871   6.575   6.629   6.629
  6.769   6.784   6.784   7.026   7.027   7.354   7.393   7.393
  7.502   7.684   7.684   7.701   7.702   7.754   7.877   8.013
  8.013   8.053   8.094   8.471   8.472   8.473   8.808   8.808
  8.924   8.924   8.976   9.015   9.016   9.060   9.281   9.319
  9.337   9.337   9.361   9.528   9.528   9.725   9.819   9.819
  9.867  10.345  10.345  11.256  11.256  11.923  12.948  14.552
 14.552  19.745  19.745  20.457  20.837  20.837  25.769  44.819
 45.924  45.924  75.552  75.555  75.555  75.556  75.556  75.591
 75.600  83.902  85.752  85.752  86.294  86.294  86.300 151.788
152.685 152.685 349.020
 --------------------------------------------------------------
 
          Ground-State Mulliken Net Atomic Charges

     Atom                 Charge (a.u.)
  ----------------------------------------
      1 B                     0.200172
      2 H                    -0.065938
      3 H                    -0.067117
      4 H                    -0.067117
  ----------------------------------------
  Sum of atomic charges =    -0.000000

 -----------------------------------------------------------------
                    Cartesian Multipole Moments
 -----------------------------------------------------------------
    Charge (ESU x 10^10)
                -0.0000
    Dipole Moment (Debye)
         X       0.0000      Y       0.0017      Z       0.0000
       Tot       0.0017
    Quadrupole Moments (Debye-Ang)
        XX      -9.3420     XY      -0.0000     YY      -9.3230
        XZ      -0.0000     YZ       0.0000     ZZ      -7.1334
    Octopole Moments (Debye-Ang^2)
       XXX       0.0000    XXY      -0.0641    XYY       0.0000
       YYY       0.0779    XXZ      -0.0000    XYZ       0.0000
       YYZ       0.0000    XZZ       0.0000    YZZ       0.0008
       ZZZ       0.0000
    Hexadecapole Moments (Debye-Ang^3)
      XXXX     -24.3475   XXXY      -0.0000   XXYY      -8.1002
      XYYY      -0.0000   YYYY     -24.2496   XXXZ      -0.0000
      XXYZ       0.0000   XYYZ       0.0000   YYYZ       0.0000
      XXZZ      -5.5592   XYZZ      -0.0000   YYZZ      -5.5492
      XZZZ      -0.0000   YZZZ       0.0000   ZZZZ      -7.2588
 -----------------------------------------------------------------
Archival summary:
1\1\n0065.mhg0\SP\ProcedureUnspecified\BasisUnspecified\13\yhljason\SatSep2602:49:412020SatSep2602:49:412020\0\\#,ProcedureUnspecified,BasisUnspecified,\\0,1\B\H,1,1.19\H,1,1.19003,2,119.999\H,1,1.19003,2,119.999,3,-180,0\\\@

 Total job time:  239.65s(wall), 1889.76s(cpu) 
 Sat Sep 26 02:49:41 2020

        *************************************************************
        *                                                           *
        *  Thank you very much for using Q-Chem.  Have a nice day.  *
        *                                                           *
        *************************************************************


 
User input: 6 of 7 
 
Q-Chem Developer Version!
                  Welcome to Q-Chem
     A Quantum Leap Into The Future Of Chemistry


 Q-Chem 5.1, Q-Chem, Inc., Pleasanton, CA (2018)

 Yihan Shao,  Zhengting Gan,  E. Epifanovsky,  A. T. B. Gilbert,  M. Wormit,  
 J. Kussmann,  A. W. Lange,  A. Behn,  Jia Deng,  Xintian Feng,  D. Ghosh,  
 M. Goldey,  P. R. Horn,  L. D. Jacobson,  I. Kaliman,  T. Kus,  A. Landau,  
 Jie Liu,  E. I. Proynov,  R. M. Richard,  R. P. Steele,  E. J. Sundstrom,  
 H. L. Woodcock III,  P. M. Zimmerman,  D. Zuev,  B. Albrecht,  E. Alguire,  
 S. A. Baeppler,  D. Barton,  Z. Benda,  Y. A. Bernard,  E. J. Berquist,  
 K. B. Bravaya,  H. Burton,  D. Casanova,  Chun-Min Chang,  Yunqing Chen,  
 A. Chien,  K. D. Closser,  M. P. Coons,  S. Coriani,  S. Dasgupta,  
 A. L. Dempwolff,  M. Diedenhofen,  Hainam Do,  R. G. Edgar,  Po-Tung Fang,  
 S. Faraji,  S. Fatehi,  Qingguo Feng,  K. D. Fenk,  J. Fosso-Tande,  
 Qinghui Ge,  A. Ghysels,  G. Gidofalvi,  J. Gomes,  J. Gonthier,  A. Gunina,  
 D. Hait,  M. W. D. Hanson-Heine,  P. H. P. Harbach,  A. W. Hauser,  
 J. E. Herr,  E. G. Hohenstein,  Z. C. Holden,  Kerwin Hui,  B. C. Huynh,  
 T.-C. Jagau,  Hyunjun Ji,  B. Kaduk,  K. Khistyaev,  Jaehoon Kim,  
 P. Klunzinger,  K. Koh,  D. Kosenkov,  L. Koulias,  T. Kowalczyk,  
 C. M. Krauter,  A. Kunitsa,  Ka Un Lao,  A. Laurent,  K. V. Lawler,  
 Joonho Lee,  D. Lefrancois,  S. Lehtola,  D. S. Levine,  Yi-Pei Li,  
 You-Sheng Lin,  Fenglai Liu,  E. Livshits,  A. Luenser,  P. Manohar,  
 E. Mansoor,  S. F. Manzer,  Shan-Ping Mao,  Yuezhi Mao,  N. Mardirossian,  
 A. V. Marenich,  T. Markovich,  L. A. Martinez-Martinez,  S. A. Maurer,  
 N. J. Mayhall,  S. C. McKenzie,  J.-M. Mewes,  A. F. Morrison,  
 J. W. Mullinax,  K. Nanda,  T. S. Nguyen-Beck,  R. Olivares-Amaya,  
 J. A. Parkhill,  T. M. Perrine,  F. Plasser,  P. Pokhilko,  S. Prager,  
 A. Prociuk,  E. Ramos,  D. R. Rehn,  F. Rob,  M. Schneider,  N. Sergueev,  
[...]

 Total  MP2   correlation energy =                    -0.09537210 au
        MP2         total energy =                   -26.58194180 au
 
 --------------------------------------------------------------
 
                    Orbital Energies (a.u.)
 --------------------------------------------------------------
 
 Alpha MOs
 -- Occupied --
 -7.266  -0.633  -0.443  -0.443
 -- Virtual --
 -0.004   0.020   0.031   0.031   0.054   0.069   0.069   0.091
  0.112   0.112   0.117   0.124   0.124   0.193   0.193   0.217
  0.237   0.243   0.254   0.255   0.255   0.262   0.262   0.291
  0.291   0.293   0.359   0.400   0.400   0.438   0.438   0.472
  0.495   0.495   0.533   0.533   0.541   0.560   0.560   0.575
  0.576   0.674   0.691   0.720   0.720   0.732   0.760   0.760
  0.766   0.766   0.818   0.843   0.843   0.881   0.881   0.893
  0.893   0.895   0.906   0.970   1.088   1.088   1.130   1.130
  1.154   1.209   1.233   1.233   1.233   1.451   1.451   1.458
  1.458   1.459   1.485   1.507   1.507   1.544   1.562   1.562
  1.624   1.637   1.637   1.751   1.751   1.753   1.753   1.773
  1.775   1.837   1.870   1.870   1.916   1.946   1.958   1.958
  1.965   2.066   2.066   2.078   2.078   2.139   2.139   2.164
  2.178   2.183   2.183   2.199   2.199   2.279   2.296   2.322
  2.352   2.352   2.666   2.803   2.803   2.925   3.049   3.049
  3.103   3.103   3.191   3.191   3.245   3.249   3.278   3.278
  3.284   3.317   3.317   3.413   3.493   3.493   3.527   3.527
  3.673   3.808   3.876   3.993   4.075   4.075   4.098   4.098
  4.141   4.223   4.223   4.250   4.326   4.326   4.360   4.360
  4.682   4.783   5.008   5.008   5.188   5.205   5.205   5.230
  5.341   5.342   5.411   5.871   5.871   6.575   6.628   6.628
  6.768   6.783   6.783   7.026   7.026   7.354   7.392   7.392
  7.502   7.683   7.683   7.701   7.701   7.754   7.876   8.012
  8.012   8.052   8.093   8.470   8.472   8.472   8.807   8.807
  8.924   8.924   8.975   9.015   9.015   9.060   9.280   9.319
  9.337   9.337   9.361   9.527   9.527   9.724   9.818   9.819
  9.866  10.345  10.345  11.255  11.255  11.922  12.948  14.551
 14.551  19.744  19.744  20.456  20.837  20.837  25.768  44.819
 45.923  45.923  75.552  75.554  75.554  75.555  75.555  75.590
 75.600  83.902  85.751  85.751  86.294  86.294  86.299 151.787
152.684 152.684 349.019
 --------------------------------------------------------------
 
          Ground-State Mulliken Net Atomic Charges

     Atom                 Charge (a.u.)
  ----------------------------------------
      1 B                     0.196344
      2 H                    -0.065446
      3 H                    -0.065449
      4 H                    -0.065449
  ----------------------------------------
  Sum of atomic charges =    -0.000000

 -----------------------------------------------------------------
                    Cartesian Multipole Moments
 -----------------------------------------------------------------
    Charge (ESU x 10^10)
                -0.0000
    Dipole Moment (Debye)
         X      -0.0000      Y       0.0000      Z       0.0000
       Tot       0.0000
    Quadrupole Moments (Debye-Ang)
        XX      -9.3435     XY       0.0000     YY      -9.3435
        XZ       0.0000     YZ      -0.0000     ZZ      -7.1399
    Octopole Moments (Debye-Ang^2)
       XXX      -0.0000    XXY      -0.0624    XYY      -0.0000
       YYY       0.0626    XXZ       0.0000    XYZ       0.0000
       YYZ       0.0000    XZZ       0.0000    YZZ       0.0000
       ZZZ       0.0000
    Hexadecapole Moments (Debye-Ang^3)
      XXXX     -24.3579   XXXY       0.0000   XXYY      -8.1192
      XYYY      -0.0000   YYYY     -24.3572   XXXZ       0.0000
      XXYZ      -0.0000   XYYZ      -0.0000   YYYZ      -0.0000
      XXZZ      -5.5671   XYZZ      -0.0000   YYZZ      -5.5670
      XZZZ       0.0000   YZZZ      -0.0000   ZZZZ      -7.2796
 -----------------------------------------------------------------
Archival summary:
1\1\n0065.mhg0\SP\ProcedureUnspecified\BasisUnspecified\13\yhljason\SatSep2602:53:402020SatSep2602:53:402020\0\\#,ProcedureUnspecified,BasisUnspecified,\\0,1\B\H,1,1.19\H,1,1.19003,2,119.999\H,1,1.19003,2,119.999,3,-180,0\\\@

 Total job time:  238.69s(wall), 1882.25s(cpu) 
 Sat Sep 26 02:53:40 2020

        *************************************************************
        *                                                           *
        *  Thank you very much for using Q-Chem.  Have a nice day.  *
        *                                                           *
        *************************************************************


 
User input: 7 of 7 
 
Q-Chem Developer Version!
                  Welcome to Q-Chem
     A Quantum Leap Into The Future Of Chemistry


 Q-Chem 5.1, Q-Chem, Inc., Pleasanton, CA (2018)

 Yihan Shao,  Zhengting Gan,  E. Epifanovsky,  A. T. B. Gilbert,  M. Wormit,  
 J. Kussmann,  A. W. Lange,  A. Behn,  Jia Deng,  Xintian Feng,  D. Ghosh,  
 M. Goldey,  P. R. Horn,  L. D. Jacobson,  I. Kaliman,  T. Kus,  A. Landau,  
 Jie Liu,  E. I. Proynov,  R. M. Richard,  R. P. Steele,  E. J. Sundstrom,  
 H. L. Woodcock III,  P. M. Zimmerman,  D. Zuev,  B. Albrecht,  E. Alguire,  
 S. A. Baeppler,  D. Barton,  Z. Benda,  Y. A. Bernard,  E. J. Berquist,  
 K. B. Bravaya,  H. Burton,  D. Casanova,  Chun-Min Chang,  Yunqing Chen,  
 A. Chien,  K. D. Closser,  M. P. Coons,  S. Coriani,  S. Dasgupta,  
 A. L. Dempwolff,  M. Diedenhofen,  Hainam Do,  R. G. Edgar,  Po-Tung Fang,  
 S. Faraji,  S. Fatehi,  Qingguo Feng,  K. D. Fenk,  J. Fosso-Tande,  
 Qinghui Ge,  A. Ghysels,  G. Gidofalvi,  J. Gomes,  J. Gonthier,  A. Gunina,  
 D. Hait,  M. W. D. Hanson-Heine,  P. H. P. Harbach,  A. W. Hauser,  
 J. E. Herr,  E. G. Hohenstein,  Z. C. Holden,  Kerwin Hui,  B. C. Huynh,  
 T.-C. Jagau,  Hyunjun Ji,  B. Kaduk,  K. Khistyaev,  Jaehoon Kim,  
 P. Klunzinger,  K. Koh,  D. Kosenkov,  L. Koulias,  T. Kowalczyk,  
 C. M. Krauter,  A. Kunitsa,  Ka Un Lao,  A. Laurent,  K. V. Lawler,  
 Joonho Lee,  D. Lefrancois,  S. Lehtola,  D. S. Levine,  Yi-Pei Li,  
 You-Sheng Lin,  Fenglai Liu,  E. Livshits,  A. Luenser,  P. Manohar,  
 E. Mansoor,  S. F. Manzer,  Shan-Ping Mao,  Yuezhi Mao,  N. Mardirossian,  
 A. V. Marenich,  T. Markovich,  L. A. Martinez-Martinez,  S. A. Maurer,  
 N. J. Mayhall,  S. C. McKenzie,  J.-M. Mewes,  A. F. Morrison,  
 J. W. Mullinax,  K. Nanda,  T. S. Nguyen-Beck,  R. Olivares-Amaya,  
 J. A. Parkhill,  T. M. Perrine,  F. Plasser,  P. Pokhilko,  S. Prager,  
 A. Prociuk,  E. Ramos,  D. R. Rehn,  F. Rob,  M. Schneider,  N. Sergueev,  
 S. M. Sharada,  S. Sharma,  D. W. Small,  T. Stauch,  T. Stein,  
 Yu-Chuan Su,  A. J. W. Thom,  A. Tkatchenko,  T. Tsuchimochi,  N. M. Tubman,  
 L. Vogt,  M. L. Vidal,  O. Vydrov,  M. A. Watson,  J. Wenzel,  
 M. de Wergifosse,  T. A. Wesolowski,  A. White,  J. Witte,  A. Yamada,  
 Jun Yang,  K. Yao,  S. Yeganeh,  S. R. Yost,  Zhi-Qiang You,  A. Zech,  
 Igor Ying Zhang,  Xing Zhang,  Yan Zhao,  Ying Zhu,  B. R. Brooks,  
 G. K. L. Chan,  C. J. Cramer,  M. S. Gordon,  W. J. Hehre,  A. Klamt,  
 M. W. Schmidt,  C. D. Sherrill,  D. G. Truhlar,  A. Aspuru-Guzik,  R. Baer,  
 A. T. Bell,  N. A. Besley,  Jeng-Da Chai,  A. E. DePrince, III,  
 R. A. DiStasio Jr.,  A. Dreuw,  B. D. Dunietz,  T. R. Furlani,  
 Chao-Ping Hsu,  Yousung Jung,  Jing Kong,  D. S. Lambrecht,  WanZhen Liang,  
 C. Ochsenfeld,  V. A. Rassolov,  L. V. Slipchenko,  J. E. Subotnik,  
 T. Van Voorhis,  J. M. Herbert,  A. I. Krylov,  P. M. W. Gill,  M. Head-Gordon

 Contributors to earlier versions of Q-Chem not listed above: 
 R. D. Adamson,  B. Austin,  J. Baker,  G. J. O. Beran,  K. Brandhorst,  
 S. T. Brown,  E. F. C. Byrd,  A. K. Chakraborty,  C.-L. Cheng,  
 Siu Hung Chien,  D. M. Chipman,  D. L. Crittenden,  H. Dachsel,  
 R. J. Doerksen,  A. D. Dutoi,  L. Fusti-Molnar,  W. A. Goddard III,  
 A. Golubeva-Zadorozhnaya,  S. R. Gwaltney,  G. Hawkins,  A. Heyden,  
 S. Hirata,  G. Kedziora,  F. J. Keil,  C. Kelley,  Jihan Kim,  R. A. King,  
 R. Z. Khaliullin,  P. P. Korambath,  W. Kurlancheek,  A. M. Lee,  M. S. Lee,  
 S. V. Levchenko,  Ching Yeh Lin,  D. Liotard,  R. C. Lochan,  I. Lotan,  
 P. E. Maslen,  N. Nair,  D. P. O'Neill,  D. Neuhauser,  E. Neuscamman,  
 C. M. Oana,  R. Olson,  B. Peters,  R. Peverati,  P. A. Pieniazek,  
 Y. M. Rhee,  J. Ritchie,  M. A. Rohrdanz,  E. Rosta,  N. J. Russ,  
 H. F. Schaefer III,  N. E. Schultz,  N. Shenvi,  A. C. Simmonett,  A. Sodt,  
 D. Stuck,  K. S. Thanthiriwatte,  V. Vanovschi,  Tao Wang,  A. Warshel,  
 C. F. Williams,  Q. Wu,  X. Xu,  W. Zhang

 Please cite Q-Chem as follows:
 Y. Shao et al., Mol. Phys. 113, 184-215 (2015)
 DOI: 10.1080/00268976.2014.952696

 Q-Chem 5.1.1 for Intel X86 EM64T Linux

 Parts of Q-Chem use Armadillo 8.300.2 (Tropical Shenanigans).
 http://arma.sourceforge.net/

 Q-Chem begins on Sat Sep 26 02:53:41 2020  

Host: n0065.mhg0
0

     Scratch files written to /local/scratch/users/yhljason/BH3_DSD-PBEPBE-D3_aug-cc-pcVQZ.inp20200926022611//
The previous job contains 0 fragments, simply inherited here
Input Ideriv = 0
Curr. Ideriv = -1
Max.  Ideriv = 0
Analytic post-HF gradients are not available with non-HF exchange
Input Ideriv = 0
Curr. Ideriv = 0
Max.  Ideriv = 0

Checking the input file for inconsistencies... 	...done.

--------------------------------------------------------------
User input:
--------------------------------------------------------------
$molecule
read
$end

$rem

jobtype sp
method DSD-PBEPBE-D3
xc_grid 000099000590
basis aug-cc-pcVQZ
max_scf_cycles 200
thresh 14
scf_convergence 8
mem_total 128000
cc_memory 96000
cc_backend xm
mem_static 1500
symmetry false
sym_ignore true
scf_guess read
unrestricted false
scf_algorithm gdm
n_frozen_core 0
$end

$multipole_field
ZZ -0.0001
$end

--------------------------------------------------------------
 Adding empirical dispersion correction 
 ----------------------------------------------------------------
 Doing -D3(BJ) with
 s6 =   0.78000
 s8 =   0.00000
 a1 =   0.00000
 a2 =   6.10000
 -D3 energy without 3body term =     -0.0005822575 hartrees
 ----------------------------------------------------------------
             Standard Nuclear Orientation (Angstroms)
    I     Atom           X                Y                Z
 ----------------------------------------------------------------
    1      B       0.0000000000     0.0000000000     0.0000000000
    2      H       0.0000000000     1.1900000000     0.0000000000
    3      H       1.0306000000    -0.5950000000     0.0000000000
    4      H      -1.0306000000    -0.5950000000     0.0000000000
 ----------------------------------------------------------------
 Nuclear Repulsion Energy =     7.4398312687 hartrees
 There are        4 alpha and        4 beta electrons
 Requested basis set is aug-cc-pCVQZ
 There are 71 shells and 247 basis functions

 Total QAlloc Memory Limit 128000 MB
 Mega-Array Size      1467 MB
 MEM_STATIC part      1500 MB

                       Distance Matrix (Angstroms)
             B (  1)   H (  2)   H (  3)
   H (  2)  1.190000
   H (  3)  1.190026  2.061155
   H (  4)  1.190026  2.061155  2.061200
 
 Applying Cartesian multipole field
    Component          Value
    ---------          -----
     (0,0,2)       -1.00000E-04
 A cutoff of  1.0D-14 yielded   2556 shell pairs
 There are     31120 function pairs (     47305 Cartesian)
 
 -------------------------------------------------------
 OpenMP Integral Computing Module                       
 Release: version 1.0, May 2013, Q-Chem Inc. Pittsburgh 
 -------------------------------------------------------
 Integral Job Info:
 Integral job number is                      11
 Integral operator is                         1
 short-range coefficients                     0
 long-range coefficients              100000000
 Omega coefficients                           0
 if combine SR and LR in K                    0
 Integral screening is                        0
 Integral computing path is                   2
 max size of driver memory is           3200000
 size of driver memory is               1704330
 size of scratch memory is             18511652
 max col of scratch BK array              50625
 max len of scratch array in speh3         2114
 max len of scratch index in speh4           50
 max int batch size is                      520
 min int batch size is                       52
 fixed nKL is                                52
 max L of basis functions is                  4
 order of int derivative is                   0
 number of shells is                         71
 number of basis is                         304
 number of cartesian basis is               304
 number of contracted shell pairs          2556
 number of primitive shell pairs           4503
 maxK2 (contraction) of shell pair           81
 max number of K2 of shell pair               1
 max number of CS2 of shell pair            364
 max number of PS2 of shell pair            369
 mem total for path MDJ                  671149
 -------------------------------------------------------
 Smallest overlap matrix eigenvalue = 2.66E-05
 Guess MOs from SCF MO coefficient file

 -----------------------------------------------------------------------
  General SCF calculation program by
  Eric Jon Sundstrom, Paul Horn, Yuezhi Mao, Dmitri Zuev, Alec White,
  David Stuck, Shaama M.S., Shane Yost, Joonho Lee, David Small,
  Daniel Levine, Susi Lehtola, Hugh Burton, Evgeny Epifanovsky
 -----------------------------------------------------------------------
 Exchange:     0.6800 Hartree-Fock + 0.3200 PBE
 Correlation:  0.4900 PBE
 Using Euler-Maclaurin-Lebedev (99,590) quadrature formula
 Dispersion:   Grimme D3
 using 8 threads for integral computing
 -------------------------------------------------------
 OpenMP Integral computing Module                
 Release: version 2.0, May 2017, Q-Chem Inc. Pleasanton 
 -------------------------------------------------------
 -------------------------------------------------------
 OpenMP BLAS3 based DFT computing Module                
 Release: version 1.0, May 2013, Q-Chem Inc. Pittsburgh 
 -------------------------------------------------------
 A restricted SCF calculation will be
 performed using GDM
 SCF converges when RMS gradient is below 1.0e-08
 ---------------------------------------
  Cycle       Energy        RMS Gradient
 ---------------------------------------
    1     -26.4855080256      3.37e-04   Normal BFGS step
    2     -26.4855088048      6.50e-05   Normal BFGS step
    3     -26.4855088325      8.79e-06   Normal BFGS step
    4     -26.4855088332      9.14e-07   Normal BFGS step
    5     -26.4855088332      5.83e-08   Normal BFGS step
    6     -26.4855088332      1.02e-08   Normal BFGS step
    7     -26.4855088332      1.30e-09  Convergence criterion met
 ---------------------------------------
 SCF time:   CPU 814.07s  wall 104.00s 
 SCF   energy in the final basis set =      -26.4855088332
 Total energy in the final basis set =      -26.4855088332
 
 Components of the MP2 correlation energy:
        aaaa  correlation energy =        -0.0011310435 au
        abab  correlation energy =        -0.0931085993 au
        bbbb  correlation energy =        -0.0011310435 au
        non-Brillouin singles    =        -0.0000000000 au

 Total  MP2   correlation energy =                    -0.09537069 au
        MP2         total energy =                   -26.58087952 au
 
 --------------------------------------------------------------
 
                    Orbital Energies (a.u.)
 --------------------------------------------------------------
 
 Alpha MOs
 -- Occupied --
 -7.266  -0.633  -0.443  -0.443
 -- Virtual --
 -0.002   0.024   0.035   0.035   0.062   0.072   0.072   0.096
  0.117   0.117   0.121   0.127   0.127   0.195   0.195   0.219
  0.242   0.243   0.258   0.258   0.259   0.265   0.265   0.293
  0.293   0.296   0.361   0.402   0.402   0.440   0.440   0.473
  0.497   0.497   0.535   0.535   0.544   0.562   0.562   0.576
  0.578   0.675   0.693   0.721   0.721   0.734   0.761   0.761
  0.767   0.767   0.819   0.844   0.844   0.883   0.883   0.893
  0.893   0.896   0.907   0.972   1.089   1.089   1.131   1.131
  1.154   1.211   1.234   1.234   1.235   1.452   1.452   1.459
  1.459   1.459   1.485   1.508   1.508   1.544   1.563   1.563
  1.625   1.637   1.637   1.751   1.751   1.754   1.754   1.774
  1.776   1.838   1.871   1.871   1.917   1.947   1.959   1.959
  1.965   2.067   2.067   2.079   2.079   2.139   2.139   2.164
  2.179   2.184   2.184   2.200   2.200   2.280   2.297   2.323
  2.352   2.352   2.667   2.804   2.804   2.926   3.050   3.050
  3.104   3.104   3.192   3.192   3.245   3.250   3.278   3.278
  3.285   3.318   3.318   3.413   3.493   3.493   3.528   3.528
  3.674   3.808   3.876   3.994   4.076   4.076   4.099   4.099
  4.141   4.223   4.223   4.251   4.327   4.327   4.360   4.360
  4.683   4.784   5.008   5.008   5.188   5.205   5.205   5.231
  5.342   5.342   5.411   5.871   5.871   6.575   6.628   6.628
  6.769   6.784   6.784   7.026   7.026   7.354   7.393   7.393
  7.502   7.684   7.684   7.701   7.701   7.754   7.877   8.012
  8.012   8.053   8.093   8.470   8.472   8.472   8.807   8.807
  8.924   8.924   8.976   9.015   9.015   9.060   9.280   9.319
  9.337   9.337   9.361   9.528   9.528   9.725   9.819   9.819
  9.866  10.345  10.345  11.256  11.256  11.923  12.948  14.551
 14.551  19.745  19.745  20.456  20.837  20.837  25.769  44.819
 45.923  45.923  75.552  75.555  75.555  75.555  75.555  75.590
 75.600  83.902  85.752  85.752  86.294  86.294  86.300 151.787
152.684 152.684 349.019
 --------------------------------------------------------------
 
          Ground-State Mulliken Net Atomic Charges

     Atom                 Charge (a.u.)
  ----------------------------------------
      1 B                     0.206779
      2 H                    -0.068924
      3 H                    -0.068927
      4 H                    -0.068927
  ----------------------------------------
  Sum of atomic charges =     0.000000

 -----------------------------------------------------------------
                    Cartesian Multipole Moments
 -----------------------------------------------------------------
    Charge (ESU x 10^10)
                 0.0000
    Dipole Moment (Debye)
         X       0.0000      Y       0.0000      Z       0.0000
       Tot       0.0000
    Quadrupole Moments (Debye-Ang)
        XX      -9.3413     XY      -0.0000     YY      -9.3414
        XZ      -0.0000     YZ      -0.0000     ZZ      -7.1291
    Octopole Moments (Debye-Ang^2)
       XXX       0.0000    XXY      -0.0620    XYY      -0.0000
       YYY       0.0622    XXZ       0.0000    XYZ       0.0000
       YYZ       0.0000    XZZ       0.0000    YZZ       0.0000
       ZZZ      -0.0000
    Hexadecapole Moments (Debye-Ang^3)
      XXXX     -24.3432   XXXY       0.0000   XXYY      -8.1143
      XYYY      -0.0000   YYYY     -24.3425   XXXZ      -0.0000
      XXYZ      -0.0000   XYYZ      -0.0000   YYYZ      -0.0000
      XXZZ      -5.5541   XYZZ      -0.0000   YYZZ      -5.5540
      XZZZ      -0.0000   YZZZ      -0.0000   ZZZZ      -7.2453
 -----------------------------------------------------------------
Archival summary:
1\1\n0065.mhg0\SP\ProcedureUnspecified\BasisUnspecified\13\yhljason\SatSep2602:57:442020SatSep2602:57:442020\0\\#,ProcedureUnspecified,BasisUnspecified,\\0,1\B\H,1,1.19\H,1,1.19003,2,119.999\H,1,1.19003,2,119.999,3,-180,0\\\@

 Total job time:  243.90s(wall), 1922.48s(cpu) 
 Sat Sep 26 02:57:44 2020

        *************************************************************
        *                                                           *
        *  Thank you very much for using Q-Chem.  Have a nice day.  *
        *                                                           *
        *************************************************************


