Q-Chem Developer Version!
                  Welcome to Q-Chem
     A Quantum Leap Into The Future Of Chemistry


 Q-Chem 5.1, Q-Chem, Inc., Pleasanton, CA (2018)

 Yihan Shao,  Zhengting Gan,  E. Epifanovsky,  A. T. B. Gilbert,  M. Wormit,  
 J. Kussmann,  A. W. Lange,  A. Behn,  Jia Deng,  Xintian Feng,  D. Ghosh,  
 M. Goldey,  P. R. Horn,  L. D. Jacobson,  I. Kaliman,  T. Kus,  A. Landau,  
 Jie Liu,  E. I. Proynov,  R. M. Richard,  R. P. Steele,  E. J. Sundstrom,  
 H. L. Woodcock III,  P. M. Zimmerman,  D. Zuev,  B. Albrecht,  E. Alguire,  
 S. A. Baeppler,  D. Barton,  Z. Benda,  Y. A. Bernard,  E. J. Berquist,  
 K. B. Bravaya,  H. Burton,  D. Casanova,  Chun-Min Chang,  Yunqing Chen,  
 A. Chien,  K. D. Closser,  M. P. Coons,  S. Coriani,  S. Dasgupta,  
 A. L. Dempwolff,  M. Diedenhofen,  Hainam Do,  R. G. Edgar,  Po-Tung Fang,  
 S. Faraji,  S. Fatehi,  Qingguo Feng,  K. D. Fenk,  J. Fosso-Tande,  
 Qinghui Ge,  A. Ghysels,  G. Gidofalvi,  J. Gomes,  J. Gonthier,  A. Gunina,  
 D. Hait,  M. W. D. Hanson-Heine,  P. H. P. Harbach,  A. W. Hauser,  
 J. E. Herr,  E. G. Hohenstein,  Z. C. Holden,  Kerwin Hui,  B. C. Huynh,  
 T.-C. Jagau,  Hyunjun Ji,  B. Kaduk,  K. Khistyaev,  Jaehoon Kim,  
 P. Klunzinger,  K. Koh,  D. Kosenkov,  L. Koulias,  T. Kowalczyk,  
 C. M. Krauter,  A. Kunitsa,  Ka Un Lao,  A. Laurent,  K. V. Lawler,  
 Joonho Lee,  D. Lefrancois,  S. Lehtola,  D. S. Levine,  Yi-Pei Li,  
 You-Sheng Lin,  Fenglai Liu,  E. Livshits,  A. Luenser,  P. Manohar,  
 E. Mansoor,  S. F. Manzer,  Shan-Ping Mao,  Yuezhi Mao,  N. Mardirossian,  
 A. V. Marenich,  T. Markovich,  L. A. Martinez-Martinez,  S. A. Maurer,  
 N. J. Mayhall,  S. C. McKenzie,  J.-M. Mewes,  A. F. Morrison,  
 J. W. Mullinax,  K. Nanda,  T. S. Nguyen-Beck,  R. Olivares-Amaya,  
 J. A. Parkhill,  T. M. Perrine,  F. Plasser,  P. Pokhilko,  S. Prager,  
 A. Prociuk,  E. Ramos,  D. R. Rehn,  F. Rob,  M. Schneider,  N. Sergueev,  
 S. M. Sharada,  S. Sharma,  D. W. Small,  T. Stauch,  T. Stein,  
 Yu-Chuan Su,  A. J. W. Thom,  A. Tkatchenko,  T. Tsuchimochi,  N. M. Tubman,  
 L. Vogt,  M. L. Vidal,  O. Vydrov,  M. A. Watson,  J. Wenzel,  
 M. de Wergifosse,  T. A. Wesolowski,  A. White,  J. Witte,  A. Yamada,  
 Jun Yang,  K. Yao,  S. Yeganeh,  S. R. Yost,  Zhi-Qiang You,  A. Zech,  
 Igor Ying Zhang,  Xing Zhang,  Yan Zhao,  Ying Zhu,  B. R. Brooks,  
 G. K. L. Chan,  C. J. Cramer,  M. S. Gordon,  W. J. Hehre,  A. Klamt,  
 M. W. Schmidt,  C. D. Sherrill,  D. G. Truhlar,  A. Aspuru-Guzik,  R. Baer,  
 A. T. Bell,  N. A. Besley,  Jeng-Da Chai,  A. E. DePrince, III,  
 R. A. DiStasio Jr.,  A. Dreuw,  B. D. Dunietz,  T. R. Furlani,  
 Chao-Ping Hsu,  Yousung Jung,  Jing Kong,  D. S. Lambrecht,  WanZhen Liang,  
 C. Ochsenfeld,  V. A. Rassolov,  L. V. Slipchenko,  J. E. Subotnik,  
 T. Van Voorhis,  J. M. Herbert,  A. I. Krylov,  P. M. W. Gill,  M. Head-Gordon

 Contributors to earlier versions of Q-Chem not listed above: 
 R. D. Adamson,  B. Austin,  J. Baker,  G. J. O. Beran,  K. Brandhorst,  
 S. T. Brown,  E. F. C. Byrd,  A. K. Chakraborty,  C.-L. Cheng,  
 Siu Hung Chien,  D. M. Chipman,  D. L. Crittenden,  H. Dachsel,  
 R. J. Doerksen,  A. D. Dutoi,  L. Fusti-Molnar,  W. A. Goddard III,  
 A. Golubeva-Zadorozhnaya,  S. R. Gwaltney,  G. Hawkins,  A. Heyden,  
 S. Hirata,  G. Kedziora,  F. J. Keil,  C. Kelley,  Jihan Kim,  R. A. King,  
 R. Z. Khaliullin,  P. P. Korambath,  W. Kurlancheek,  A. M. Lee,  M. S. Lee,  
 S. V. Levchenko,  Ching Yeh Lin,  D. Liotard,  R. C. Lochan,  I. Lotan,  
 P. E. Maslen,  N. Nair,  D. P. O'Neill,  D. Neuhauser,  E. Neuscamman,  
 C. M. Oana,  R. Olson,  B. Peters,  R. Peverati,  P. A. Pieniazek,  
 Y. M. Rhee,  J. Ritchie,  M. A. Rohrdanz,  E. Rosta,  N. J. Russ,  
 H. F. Schaefer III,  N. E. Schultz,  N. Shenvi,  A. C. Simmonett,  A. Sodt,  
 D. Stuck,  K. S. Thanthiriwatte,  V. Vanovschi,  Tao Wang,  A. Warshel,  
 C. F. Williams,  Q. Wu,  X. Xu,  W. Zhang

 Please cite Q-Chem as follows:
 Y. Shao et al., Mol. Phys. 113, 184-215 (2015)
 DOI: 10.1080/00268976.2014.952696

 Q-Chem 5.1.1 for Intel X86 EM64T Linux

 Parts of Q-Chem use Armadillo 8.300.2 (Tropical Shenanigans).
 http://arma.sourceforge.net/

 Q-Chem begins on Sat Sep 26 02:52:00 2020  

Host: n0033.mhg0
0

     Scratch files written to /local/scratch/users/yhljason/HNC_DSD-PBEPBE-D3_aug-cc-pcVQZ.inp20200926022628//
Input Ideriv = 0
Curr. Ideriv = -1
Max.  Ideriv = 0
Analytic post-HF gradients are not available with non-HF exchange
Input Ideriv = 0
Curr. Ideriv = 0
Max.  Ideriv = 0

Checking the input file for inconsistencies... 	...done.

--------------------------------------------------------------
User input:
--------------------------------------------------------------
$molecule
0 1
C1      0.0000  0.0000  -0.7405
N2      0.0000  0.0000  0.4321
H3      0.0000  0.0000  1.4183
$end

$rem
jobtype sp
method DSD-PBEPBE-D3
xc_grid 000099000590
basis aug-cc-pcVQZ
max_scf_cycles 200
thresh 14
scf_convergence 8
scf_algorithm gdm
symmetry false
sym_ignore true
unrestricted false
gen_scfman true
internal_stability_iter 15
internal_stability_davidson_iter 200
mem_total 128000
cc_memory 96000
cc_backend xm
mem_static 1500
n_frozen_core 0
$end


--------------------------------------------------------------
 Adding empirical dispersion correction 
 ----------------------------------------------------------------
 Doing -D3(BJ) with
 s6 =   0.78000
 s8 =   0.00000
 a1 =   0.00000
 a2 =   6.10000
 -D3 energy without 3body term =     -0.0007086565 hartrees
 ----------------------------------------------------------------
             Standard Nuclear Orientation (Angstroms)
    I     Atom           X                Y                Z
 ----------------------------------------------------------------
    1      C       0.0000000000     0.0000000000    -0.7405000000
    2      N       0.0000000000     0.0000000000     0.4321000000
    3      H       0.0000000000     0.0000000000     1.4183000000
 ----------------------------------------------------------------
 Nuclear Repulsion Energy =    24.1801044629 hartrees
 There are        7 alpha and        7 beta electrons
 Requested basis set is aug-cc-pCVQZ
 There are 72 shells and 264 basis functions

 Total QAlloc Memory Limit 128000 MB
 Mega-Array Size      1467 MB
 MEM_STATIC part      1500 MB

                       Distance Matrix (Angstroms)
             C (  1)   N (  2)
   N (  2)  1.172600
   H (  3)  2.158800  0.986200
 
 A cutoff of  1.0D-14 yielded   2578 shell pairs
 There are     35084 function pairs (     56122 Cartesian)
 
 -------------------------------------------------------
 OpenMP Integral Computing Module                       
 Release: version 1.0, May 2013, Q-Chem Inc. Pittsburgh 
 -------------------------------------------------------
 Integral Job Info:
 Integral job number is                      11
 Integral operator is                         1
 short-range coefficients                     0
 long-range coefficients              100000000
 Omega coefficients                           0
 if combine SR and LR in K                    0
 Integral screening is                        0
 Integral computing path is                   2
 max size of driver memory is           3200000
 size of driver memory is               1704330
 size of scratch memory is             18511652
 max col of scratch BK array              50625
 max len of scratch array in speh3         2114
 max len of scratch index in speh4           50
 max int batch size is                      520
 min int batch size is                       52
 fixed nKL is                                52
 max L of basis functions is                  4
 order of int derivative is                   0
 number of shells is                         72
 number of basis is                         333
 number of cartesian basis is               333
 number of contracted shell pairs          2578
 number of primitive shell pairs           5550
 maxK2 (contraction) of shell pair           81
 max number of K2 of shell pair               1
 max number of CS2 of shell pair            316
 max number of PS2 of shell pair            549
 mem total for path MDJ                  693712
 -------------------------------------------------------
 Smallest overlap matrix eigenvalue = 2.12E-05

 Scale SEOQF with 1.000000e-01/1.000000e-01/1.000000e-01

 Standard Electronic Orientation quadrupole field applied
 Nucleus-field energy     =    -0.0000000007 hartrees
 Guess from superposition of atomic densities
 Warning:  Energy on first SCF cycle will be non-variational
 SAD guess density has 14.000000 electrons

 -----------------------------------------------------------------------
  General SCF calculation program by
  Eric Jon Sundstrom, Paul Horn, Yuezhi Mao, Dmitri Zuev, Alec White,
  David Stuck, Shaama M.S., Shane Yost, Joonho Lee, David Small,
  Daniel Levine, Susi Lehtola, Hugh Burton, Evgeny Epifanovsky
 -----------------------------------------------------------------------
 Exchange:     0.6800 Hartree-Fock + 0.3200 PBE
 Correlation:  0.4900 PBE
 Using Euler-Maclaurin-Lebedev (99,590) quadrature formula
 Dispersion:   Grimme D3
Running Object-Oriented RKS (RHF)
We will preform up to 15 macro iterations over saddle points until a stable solution is found
Energy prior to optimization (guess energy) = -93.095654906827
Begin Timing: Total SCF Calculation
Begin Timing: SCF Single Stationary Point Calculation
begin iterations for algorithm: GDM          
the SCF tolerance is set to 1.00e-08
    1     -93.0956549068      2.69e-02     00000  Normal BFGS step
    2     -93.1060925877      1.56e-02     00000  Normal BFGS step
    3     -93.1082391958      8.03e-03     00000  Normal BFGS step
    4     -93.1084446566      4.00e-03     00000  Normal BFGS step
    5     -93.1085429757      1.76e-04     00000  Normal BFGS step
    6     -93.1085435812      4.40e-05     00000  Normal BFGS step
    7     -93.1085436081      8.15e-06     00000  Normal BFGS step
    8     -93.1085436091      9.78e-07     00000  Normal BFGS step
    9     -93.1085436092      2.81e-07     00000  Normal BFGS step
   10     -93.1085436092      2.38e-08     00000  Normal BFGS step
   11     -93.1085436092      2.24e-08     00000  Normal BFGS step
   12     -93.1085436092      2.82e-09     00000 Convergence criterion met
Timing for Single Stationary Point: 142.00s (wall), 1111.93s (cpu)
Begin Timing: Stability
===================================================
Beginning Test for Internal Stability
===================================================
generating davidson guess vectors based on koopmans excitations
    1      3.40e+00     00000 Davidson Iteration
    2      1.28e+00     00000 Davidson Iteration
    3      5.05e-01     00000 Davidson Iteration
    4      3.57e-01     00000 Davidson Iteration
    5      1.09e-01     00000 Davidson Iteration
    6      1.81e-02     00000 Davidson Iteration
    7      1.91e-02     00000 Davidson Iteration
    8      1.18e-02     00000 Davidson Iteration
    9      7.98e-03     00000 Davidson Iteration
   10      1.10e-02     00000 Davidson Iteration
   11      3.51e-03     00000 Davidson Iteration
   12      9.17e-04     00000 Davidson Iteration
   13      8.45e-04     00000 Davidson Iteration
   14      1.16e-03     00000 Davidson Iteration
   15      1.28e-03     00000 Davidson Iteration
   16      5.28e-04     00000 Davidson Iteration
   17      4.56e-04     00000 Davidson Iteration
   18      2.81e-04     00000 Davidson Iteration
   19      3.75e-05     00000 Davidson Iteration
   20      1.71e-04     00000 Davidson Iteration
   21      4.15e-05     00000 Davidson Converged
converged_eigenvalues
   1.1256
   1.1256
Threshold for negative eigenvalues: -1.0e-05
solution was a local minimum (stable)
===================================================
End Test for Internal Stability
===================================================
Our SCF solution is stable!
Timing for Total SCF: 569.00s (wall), 4489.32s (cpu)
 Total energy in the final basis set =      -93.1085436092
    ==================================================
              The end of Object-Oriented SCFman       
    ==================================================
 
 Components of the MP2 correlation energy:
        aaaa  correlation energy =        -0.0070524517 au
        abab  correlation energy =        -0.2259887357 au
        bbbb  correlation energy =        -0.0070524517 au
        non-Brillouin singles    =        -0.0000000000 au

 Total  MP2   correlation energy =                    -0.24009364 au
        MP2         total energy =                   -93.34863725 au
 
 --------------------------------------------------------------
 
                    Orbital Energies (a.u.)
 --------------------------------------------------------------
 
 Alpha MOs
 -- Occupied --
-15.104 -10.868  -1.146  -0.803  -0.472  -0.472  -0.429
 -- Virtual --
  0.012   0.063   0.063   0.066   0.086   0.086   0.092   0.097
  0.130   0.130   0.195   0.216   0.216   0.228   0.231   0.231
  0.263   0.310   0.318   0.318   0.346   0.346   0.359   0.359
  0.390   0.443   0.507   0.555   0.555   0.628   0.628   0.656
  0.656   0.675   0.702   0.730   0.730   0.735   0.735   0.747
  0.747   0.817   0.854   0.854   0.865   0.865   0.882   0.917
  0.929   0.929   1.059   1.059   1.111   1.205   1.238   1.238
  1.255   1.255   1.446   1.446   1.456   1.456   1.483   1.612
  1.612   1.668   1.668   1.677   1.732   1.746   1.746   1.850
  1.850   1.860   1.860   1.917   2.028   2.064   2.064   2.093
  2.093   2.149   2.201   2.201   2.303   2.303   2.366   2.366
  2.381   2.381   2.465   2.469   2.469   2.526   2.731   2.731
  2.749   2.751   2.751   2.856   2.856   2.877   2.877   2.900
  2.900   2.901   3.112   3.112   3.127   3.127   3.363   3.363
  3.390   3.469   3.469   3.620   3.620   3.709   3.989   4.185
  4.185   4.361   4.361   4.373   4.489   4.489   4.562   4.562
  4.853   5.089   5.184   5.184   5.492   5.820   5.820   5.828
  5.828   6.011   6.011   6.147   6.147   6.191   6.191   6.248
  6.358   6.358   6.504   6.504   6.629   6.629   6.931   7.072
  7.072   7.080   7.080   7.290   7.569   7.569   7.721   7.721
  7.721   7.915   7.915   7.961   8.086   8.086   8.140   8.140
  8.398   8.398   8.495   8.495   8.516   8.516   8.634   8.776
  9.032   9.032   9.449   9.449   9.471   9.471   9.636   9.636
  9.793  10.132  10.187  10.187  10.325  10.325  11.126  11.126
 11.324  11.697  13.202  13.202  14.046  14.391  16.723  19.367
 19.367  20.564  26.429  26.429  26.514  26.514  27.004  27.004
 27.991  28.941  36.621  36.781  36.781  37.822  37.822  39.311
 50.516  66.551  66.551  67.543  91.546  91.546  93.364  98.228
 98.228  98.248  98.248  98.310  98.310  98.349 111.638 111.638
111.663 111.663 111.707 111.707 111.813 114.683 114.683 114.973
114.973 115.495 122.520 156.226 156.226 156.789 156.789 157.502
166.647 224.565 224.565 225.385 308.678 308.678 310.197 508.474
686.871
 --------------------------------------------------------------
 
          Ground-State Mulliken Net Atomic Charges

     Atom                 Charge (a.u.)
  ----------------------------------------
      1 C                    -0.070739
      2 N                    -0.165503
      3 H                     0.236243
  ----------------------------------------
  Sum of atomic charges =    -0.000000

 -----------------------------------------------------------------
                    Cartesian Multipole Moments
 -----------------------------------------------------------------
    Charge (ESU x 10^10)
                 0.0000
    Dipole Moment (Debye)
         X      -0.0000      Y      -0.0000      Z       2.9161
       Tot       2.9161
    Quadrupole Moments (Debye-Ang)
        XX     -12.1172     XY      -0.0000     YY     -12.1172
        XZ       0.0000     YZ      -0.0000     ZZ     -10.3089
    Octopole Moments (Debye-Ang^2)
       XXX      -0.0000    XXY      -0.0000    XYY      -0.0000
       YYY      -0.0000    XXZ       1.4117    XYZ       0.0000
       YYZ       1.4117    XZZ      -0.0000    YZZ      -0.0000
       ZZZ      14.5428
    Hexadecapole Moments (Debye-Ang^3)
      XXXX     -12.8704   XXXY      -0.0000   XXYY      -4.2901
      XYYY      -0.0000   YYYY     -12.8704   XXXZ       0.0000
      XXYZ       0.0000   XYYZ       0.0000   YYYZ       0.0000
      XXZZ      -9.9363   XYZZ       0.0000   YYZZ      -9.9363
      XZZZ       0.0000   YZZZ      -0.0000   ZZZZ     -42.2108
 -----------------------------------------------------------------
Archival summary:
1\1\n0033.mhg0\SP\ProcedureUnspecified\BasisUnspecified\111\yhljason\SatSep2603:04:472020SatSep2603:04:472020\0\\#,ProcedureUnspecified,BasisUnspecified,\\0,1\N\H,1,0.9862\C,1,1.1726,2,180\\\@

 Total job time:  766.50s(wall), 6047.56s(cpu) 
 Sat Sep 26 03:04:47 2020

        *************************************************************
        *                                                           *
        *  Thank you very much for using Q-Chem.  Have a nice day.  *
        *                                                           *
        *************************************************************


 
User input: 2 of 7 
 
Q-Chem Developer Version!
                  Welcome to Q-Chem
     A Quantum Leap Into The Future Of Chemistry


 Q-Chem 5.1, Q-Chem, Inc., Pleasanton, CA (2018)

 Yihan Shao,  Zhengting Gan,  E. Epifanovsky,  A. T. B. Gilbert,  M. Wormit,  
 J. Kussmann,  A. W. Lange,  A. Behn,  Jia Deng,  Xintian Feng,  D. Ghosh,  
 M. Goldey,  P. R. Horn,  L. D. Jacobson,  I. Kaliman,  T. Kus,  A. Landau,  
 Jie Liu,  E. I. Proynov,  R. M. Richard,  R. P. Steele,  E. J. Sundstrom,  
 H. L. Woodcock III,  P. M. Zimmerman,  D. Zuev,  B. Albrecht,  E. Alguire,  
 S. A. Baeppler,  D. Barton,  Z. Benda,  Y. A. Bernard,  E. J. Berquist,  
 K. B. Bravaya,  H. Burton,  D. Casanova,  Chun-Min Chang,  Yunqing Chen,  
 A. Chien,  K. D. Closser,  M. P. Coons,  S. Coriani,  S. Dasgupta,  
 A. L. Dempwolff,  M. Diedenhofen,  Hainam Do,  R. G. Edgar,  Po-Tung Fang,  
 S. Faraji,  S. Fatehi,  Qingguo Feng,  K. D. Fenk,  J. Fosso-Tande,  
 Qinghui Ge,  A. Ghysels,  G. Gidofalvi,  J. Gomes,  J. Gonthier,  A. Gunina,  
 D. Hait,  M. W. D. Hanson-Heine,  P. H. P. Harbach,  A. W. Hauser,  
 J. E. Herr,  E. G. Hohenstein,  Z. C. Holden,  Kerwin Hui,  B. C. Huynh,  
 T.-C. Jagau,  Hyunjun Ji,  B. Kaduk,  K. Khistyaev,  Jaehoon Kim,  
 P. Klunzinger,  K. Koh,  D. Kosenkov,  L. Koulias,  T. Kowalczyk,  
 C. M. Krauter,  A. Kunitsa,  Ka Un Lao,  A. Laurent,  K. V. Lawler,  
 Joonho Lee,  D. Lefrancois,  S. Lehtola,  D. S. Levine,  Yi-Pei Li,  
 You-Sheng Lin,  Fenglai Liu,  E. Livshits,  A. Luenser,  P. Manohar,  
 E. Mansoor,  S. F. Manzer,  Shan-Ping Mao,  Yuezhi Mao,  N. Mardirossian,  
 A. V. Marenich,  T. Markovich,  L. A. Martinez-Martinez,  S. A. Maurer,  
 N. J. Mayhall,  S. C. McKenzie,  J.-M. Mewes,  A. F. Morrison,  
 J. W. Mullinax,  K. Nanda,  T. S. Nguyen-Beck,  R. Olivares-Amaya,  
 J. A. Parkhill,  T. M. Perrine,  F. Plasser,  P. Pokhilko,  S. Prager,  
 A. Prociuk,  E. Ramos,  D. R. Rehn,  F. Rob,  M. Schneider,  N. Sergueev,  
 S. M. Sharada,  S. Sharma,  D. W. Small,  T. Stauch,  T. Stein,  
 Yu-Chuan Su,  A. J. W. Thom,  A. Tkatchenko,  T. Tsuchimochi,  N. M. Tubman,  
 L. Vogt,  M. L. Vidal,  O. Vydrov,  M. A. Watson,  J. Wenzel,  
 M. de Wergifosse,  T. A. Wesolowski,  A. White,  J. Witte,  A. Yamada,  
 Jun Yang,  K. Yao,  S. Yeganeh,  S. R. Yost,  Zhi-Qiang You,  A. Zech,  
 Igor Ying Zhang,  Xing Zhang,  Yan Zhao,  Ying Zhu,  B. R. Brooks,  
 G. K. L. Chan,  C. J. Cramer,  M. S. Gordon,  W. J. Hehre,  A. Klamt,  
 M. W. Schmidt,  C. D. Sherrill,  D. G. Truhlar,  A. Aspuru-Guzik,  R. Baer,  
 A. T. Bell,  N. A. Besley,  Jeng-Da Chai,  A. E. DePrince, III,  
 R. A. DiStasio Jr.,  A. Dreuw,  B. D. Dunietz,  T. R. Furlani,  
 Chao-Ping Hsu,  Yousung Jung,  Jing Kong,  D. S. Lambrecht,  WanZhen Liang,  
 C. Ochsenfeld,  V. A. Rassolov,  L. V. Slipchenko,  J. E. Subotnik,  
 T. Van Voorhis,  J. M. Herbert,  A. I. Krylov,  P. M. W. Gill,  M. Head-Gordon

 Contributors to earlier versions of Q-Chem not listed above: 
 R. D. Adamson,  B. Austin,  J. Baker,  G. J. O. Beran,  K. Brandhorst,  
 S. T. Brown,  E. F. C. Byrd,  A. K. Chakraborty,  C.-L. Cheng,  
 Siu Hung Chien,  D. M. Chipman,  D. L. Crittenden,  H. Dachsel,  
 R. J. Doerksen,  A. D. Dutoi,  L. Fusti-Molnar,  W. A. Goddard III,  
 A. Golubeva-Zadorozhnaya,  S. R. Gwaltney,  G. Hawkins,  A. Heyden,  
 S. Hirata,  G. Kedziora,  F. J. Keil,  C. Kelley,  Jihan Kim,  R. A. King,  
 R. Z. Khaliullin,  P. P. Korambath,  W. Kurlancheek,  A. M. Lee,  M. S. Lee,  
 S. V. Levchenko,  Ching Yeh Lin,  D. Liotard,  R. C. Lochan,  I. Lotan,  
 P. E. Maslen,  N. Nair,  D. P. O'Neill,  D. Neuhauser,  E. Neuscamman,  
 C. M. Oana,  R. Olson,  B. Peters,  R. Peverati,  P. A. Pieniazek,  
 Y. M. Rhee,  J. Ritchie,  M. A. Rohrdanz,  E. Rosta,  N. J. Russ,  
 H. F. Schaefer III,  N. E. Schultz,  N. Shenvi,  A. C. Simmonett,  A. Sodt,  
 D. Stuck,  K. S. Thanthiriwatte,  V. Vanovschi,  Tao Wang,  A. Warshel,  
 C. F. Williams,  Q. Wu,  X. Xu,  W. Zhang

 Please cite Q-Chem as follows:
 Y. Shao et al., Mol. Phys. 113, 184-215 (2015)
 DOI: 10.1080/00268976.2014.952696

 Q-Chem 5.1.1 for Intel X86 EM64T Linux

 Parts of Q-Chem use Armadillo 8.300.2 (Tropical Shenanigans).
 http://arma.sourceforge.net/

 Q-Chem begins on Sat Sep 26 03:04:47 2020  

Host: n0033.mhg0
0

     Scratch files written to /local/scratch/users/yhljason/HNC_DSD-PBEPBE-D3_aug-cc-pcVQZ.inp20200926022628//
The previous job contains 0 fragments, simply inherited here
Input Ideriv = 0
Curr. Ideriv = -1
Max.  Ideriv = 0
Analytic post-HF gradients are not available with non-HF exchange
Input Ideriv = 0
Curr. Ideriv = 0
Max.  Ideriv = 0

Checking the input file for inconsistencies... 	...done.

--------------------------------------------------------------
User input:
--------------------------------------------------------------
$molecule
read
$end

$rem

jobtype sp
method DSD-PBEPBE-D3
xc_grid 000099000590
basis aug-cc-pcVQZ
max_scf_cycles 200
thresh 14
scf_convergence 8
mem_total 128000
cc_memory 96000
cc_backend xm
mem_static 1500
symmetry false
sym_ignore true
scf_guess read
unrestricted false
scf_algorithm gdm
n_frozen_core 0
$end

$multipole_field
XX 0.0001
$end


--------------------------------------------------------------
 Adding empirical dispersion correction 
 ----------------------------------------------------------------
 Doing -D3(BJ) with
 s6 =   0.78000
 s8 =   0.00000
 a1 =   0.00000
 a2 =   6.10000
 -D3 energy without 3body term =     -0.0007086565 hartrees
 ----------------------------------------------------------------
             Standard Nuclear Orientation (Angstroms)
    I     Atom           X                Y                Z
 ----------------------------------------------------------------
    1      C       0.0000000000     0.0000000000    -0.7405000000
    2      N       0.0000000000     0.0000000000     0.4321000000
    3      H       0.0000000000     0.0000000000     1.4183000000
 ----------------------------------------------------------------
 Nuclear Repulsion Energy =    24.1801044629 hartrees
 There are        7 alpha and        7 beta electrons
 Requested basis set is aug-cc-pCVQZ
 There are 72 shells and 264 basis functions

 Total QAlloc Memory Limit 128000 MB
 Mega-Array Size      1467 MB
 MEM_STATIC part      1500 MB

                       Distance Matrix (Angstroms)
             C (  1)   N (  2)
   N (  2)  1.172600
   H (  3)  2.158800  0.986200
 
 Applying Cartesian multipole field
    Component          Value
    ---------          -----
     (2,0,0)        1.00000E-04
 A cutoff of  1.0D-14 yielded   2578 shell pairs
 There are     35084 function pairs (     56122 Cartesian)
 
 -------------------------------------------------------
 OpenMP Integral Computing Module                       
 Release: version 1.0, May 2013, Q-Chem Inc. Pittsburgh 
 -------------------------------------------------------
 Integral Job Info:
 Integral job number is                      11
 Integral operator is                         1
 short-range coefficients                     0
 long-range coefficients              100000000
 Omega coefficients                           0
 if combine SR and LR in K                    0
 Integral screening is                        0
 Integral computing path is                   2
 max size of driver memory is           3200000
 size of driver memory is               1704330
 size of scratch memory is             18511652
 max col of scratch BK array              50625
 max len of scratch array in speh3         2114
 max len of scratch index in speh4           50
 max int batch size is                      520
 min int batch size is                       52
 fixed nKL is                                52
 max L of basis functions is                  4
 order of int derivative is                   0
 number of shells is                         72
 number of basis is                         333
 number of cartesian basis is               333
 number of contracted shell pairs          2578
 number of primitive shell pairs           5550
 maxK2 (contraction) of shell pair           81
 max number of K2 of shell pair               1
 max number of CS2 of shell pair            316
 max number of PS2 of shell pair            549
 mem total for path MDJ                  693712
 -------------------------------------------------------
 Smallest overlap matrix eigenvalue = 2.12E-05
 Guess MOs from SCF MO coefficient file

 -----------------------------------------------------------------------
  General SCF calculation program by
  Eric Jon Sundstrom, Paul Horn, Yuezhi Mao, Dmitri Zuev, Alec White,
  David Stuck, Shaama M.S., Shane Yost, Joonho Lee, David Small,
  Daniel Levine, Susi Lehtola, Hugh Burton, Evgeny Epifanovsky
 -----------------------------------------------------------------------
 Exchange:     0.6800 Hartree-Fock + 0.3200 PBE
 Correlation:  0.4900 PBE
 Using Euler-Maclaurin-Lebedev (99,590) quadrature formula
 Dispersion:   Grimme D3
 using 8 threads for integral computing
 -------------------------------------------------------
 OpenMP Integral computing Module                
 Release: version 2.0, May 2017, Q-Chem Inc. Pleasanton 
 -------------------------------------------------------
 -------------------------------------------------------
 OpenMP BLAS3 based DFT computing Module                
 Release: version 1.0, May 2013, Q-Chem Inc. Pittsburgh 
 -------------------------------------------------------
 A restricted SCF calculation will be
 performed using GDM
 SCF converges when RMS gradient is below 1.0e-08
 ---------------------------------------
  Cycle       Energy        RMS Gradient
 ---------------------------------------
    1     -93.1094444963      1.88e-04   Normal BFGS step
    2     -93.1094447887      4.25e-05   Normal BFGS step
    3     -93.1094448111      3.11e-05   Normal BFGS step
    4     -93.1094448148      1.63e-05   Normal BFGS step
    5     -93.1094448158      2.88e-06   Normal BFGS step
    6     -93.1094448159      1.08e-06   Normal BFGS step
    7     -93.1094448159      3.96e-07   Normal BFGS step
    8     -93.1094448159      5.94e-08   Normal BFGS step
    9     -93.1094448159      1.06e-08   Normal BFGS step
   10     -93.1094448159      7.62e-10  Convergence criterion met
 ---------------------------------------
 SCF time:   CPU 1305.77s  wall 167.00s 
 SCF   energy in the final basis set =      -93.1094448159
 Total energy in the final basis set =      -93.1094448159
 
 Components of the MP2 correlation energy:
        aaaa  correlation energy =        -0.0070526118 au
        abab  correlation energy =        -0.2259857014 au
        bbbb  correlation energy =        -0.0070526118 au
        non-Brillouin singles    =        -0.0000000000 au

 Total  MP2   correlation energy =                    -0.24009093 au
        MP2         total energy =                   -93.34953574 au
 
 --------------------------------------------------------------
 
                    Orbital Energies (a.u.)
 --------------------------------------------------------------
 
 Alpha MOs
 -- Occupied --
-15.104 -10.868  -1.147  -0.803  -0.472  -0.472  -0.430
 -- Virtual --
  0.010   0.060   0.062   0.065   0.084   0.085   0.090   0.095
  0.127   0.129   0.194   0.215   0.215   0.227   0.229   0.230
  0.262   0.309   0.316   0.317   0.344   0.345   0.358   0.358
  0.389   0.442   0.506   0.554   0.555   0.628   0.628   0.655
  0.656   0.675   0.702   0.729   0.729   0.734   0.735   0.746
  0.746   0.816   0.853   0.853   0.864   0.864   0.882   0.917
  0.928   0.929   1.058   1.058   1.111   1.205   1.237   1.238
  1.255   1.255   1.446   1.446   1.456   1.456   1.482   1.611
  1.612   1.667   1.667   1.676   1.731   1.746   1.746   1.850
  1.850   1.860   1.860   1.917   2.027   2.064   2.064   2.093
  2.093   2.149   2.200   2.200   2.303   2.303   2.365   2.365
  2.381   2.381   2.465   2.468   2.469   2.526   2.730   2.731
  2.748   2.750   2.750   2.855   2.855   2.877   2.877   2.900
  2.900   2.901   3.112   3.112   3.126   3.126   3.363   3.363
  3.390   3.469   3.469   3.620   3.620   3.708   3.989   4.185
  4.185   4.361   4.361   4.373   4.488   4.488   4.562   4.562
  4.853   5.088   5.184   5.184   5.491   5.820   5.820   5.828
  5.828   6.011   6.011   6.147   6.147   6.190   6.190   6.248
  6.358   6.358   6.504   6.504   6.629   6.629   6.931   7.072
  7.072   7.080   7.080   7.290   7.569   7.569   7.720   7.721
  7.721   7.915   7.915   7.960   8.086   8.086   8.140   8.140
  8.398   8.398   8.494   8.494   8.516   8.516   8.634   8.776
  9.031   9.031   9.449   9.449   9.470   9.470   9.636   9.636
  9.793  10.132  10.187  10.187  10.324  10.324  11.126  11.126
 11.324  11.697  13.202  13.202  14.045  14.390  16.723  19.367
 19.367  20.563  26.428  26.428  26.514  26.514  27.004  27.004
 27.990  28.941  36.621  36.780  36.780  37.822  37.822  39.311
 50.516  66.551  66.551  67.543  91.546  91.546  93.364  98.227
 98.227  98.248  98.248  98.309  98.309  98.348 111.638 111.638
111.663 111.663 111.706 111.706 111.813 114.682 114.682 114.973
114.973 115.495 122.520 156.226 156.226 156.789 156.789 157.501
166.647 224.565 224.565 225.385 308.677 308.677 310.196 508.473
686.871
 --------------------------------------------------------------
 
          Ground-State Mulliken Net Atomic Charges

     Atom                 Charge (a.u.)
  ----------------------------------------
      1 C                    -0.071867
      2 N                    -0.164433
      3 H                     0.236300
  ----------------------------------------
  Sum of atomic charges =     0.000000

 -----------------------------------------------------------------
                    Cartesian Multipole Moments
 -----------------------------------------------------------------
    Charge (ESU x 10^10)
                 0.0000
    Dipole Moment (Debye)
         X       0.0000      Y      -0.0000      Z       2.9166
       Tot       2.9166
    Quadrupole Moments (Debye-Ang)
        XX     -12.1258     XY      -0.0000     YY     -12.1189
        XZ       0.0000     YZ       0.0000     ZZ     -10.3093
    Octopole Moments (Debye-Ang^2)
       XXX       0.0000    XXY      -0.0000    XYY       0.0000
       YYY      -0.0000    XXZ       1.4148    XYZ      -0.0000
       YYZ       1.4120    XZZ       0.0000    YZZ       0.0000
       ZZZ      14.5448
    Hexadecapole Moments (Debye-Ang^3)
      XXXX     -12.9039   XXXY      -0.0000   XXYY      -4.2968
      XYYY      -0.0000   YYYY     -12.8771   XXXZ      -0.0000
      XXYZ      -0.0000   XYYZ       0.0000   YYYZ      -0.0000
      XXZZ      -9.9472   XYZZ      -0.0000   YYZZ      -9.9387
      XZZZ      -0.0000   YZZZ       0.0000   ZZZZ     -42.2158
 -----------------------------------------------------------------
Archival summary:
1\1\n0033.mhg0\SP\ProcedureUnspecified\BasisUnspecified\111\yhljason\SatSep2603:10:372020SatSep2603:10:372020\0\\#,ProcedureUnspecified,BasisUnspecified,\\0,1\N\H,1,0.9862\C,1,1.1726,2,180\\\@

 Total job time:  349.71s(wall), 2752.76s(cpu) 
 Sat Sep 26 03:10:37 2020

        *************************************************************
        *                                                           *
        *  Thank you very much for using Q-Chem.  Have a nice day.  *
        *                                                           *
        *************************************************************


 
User input: 3 of 7 
 
Q-Chem Developer Version!
                  Welcome to Q-Chem
     A Quantum Leap Into The Future Of Chemistry


 Q-Chem 5.1, Q-Chem, Inc., Pleasanton, CA (2018)

 Yihan Shao,  Zhengting Gan,  E. Epifanovsky,  A. T. B. Gilbert,  M. Wormit,  
 J. Kussmann,  A. W. Lange,  A. Behn,  Jia Deng,  Xintian Feng,  D. Ghosh,  
 M. Goldey,  P. R. Horn,  L. D. Jacobson,  I. Kaliman,  T. Kus,  A. Landau,  
 Jie Liu,  E. I. Proynov,  R. M. Richard,  R. P. Steele,  E. J. Sundstrom,  
 H. L. Woodcock III,  P. M. Zimmerman,  D. Zuev,  B. Albrecht,  E. Alguire,  
 S. A. Baeppler,  D. Barton,  Z. Benda,  Y. A. Bernard,  E. J. Berquist,  
 K. B. Bravaya,  H. Burton,  D. Casanova,  Chun-Min Chang,  Yunqing Chen,  
 A. Chien,  K. D. Closser,  M. P. Coons,  S. Coriani,  S. Dasgupta,  
 A. L. Dempwolff,  M. Diedenhofen,  Hainam Do,  R. G. Edgar,  Po-Tung Fang,  
 S. Faraji,  S. Fatehi,  Qingguo Feng,  K. D. Fenk,  J. Fosso-Tande,  
 Qinghui Ge,  A. Ghysels,  G. Gidofalvi,  J. Gomes,  J. Gonthier,  A. Gunina,  
 D. Hait,  M. W. D. Hanson-Heine,  P. H. P. Harbach,  A. W. Hauser,  
 J. E. Herr,  E. G. Hohenstein,  Z. C. Holden,  Kerwin Hui,  B. C. Huynh,  
 T.-C. Jagau,  Hyunjun Ji,  B. Kaduk,  K. Khistyaev,  Jaehoon Kim,  
 P. Klunzinger,  K. Koh,  D. Kosenkov,  L. Koulias,  T. Kowalczyk,  
 C. M. Krauter,  A. Kunitsa,  Ka Un Lao,  A. Laurent,  K. V. Lawler,  
 Joonho Lee,  D. Lefrancois,  S. Lehtola,  D. S. Levine,  Yi-Pei Li,  
 You-Sheng Lin,  Fenglai Liu,  E. Livshits,  A. Luenser,  P. Manohar,  
 E. Mansoor,  S. F. Manzer,  Shan-Ping Mao,  Yuezhi Mao,  N. Mardirossian,  
 A. V. Marenich,  T. Markovich,  L. A. Martinez-Martinez,  S. A. Maurer,  
 N. J. Mayhall,  S. C. McKenzie,  J.-M. Mewes,  A. F. Morrison,  
 J. W. Mullinax,  K. Nanda,  T. S. Nguyen-Beck,  R. Olivares-Amaya,  
 J. A. Parkhill,  T. M. Perrine,  F. Plasser,  P. Pokhilko,  S. Prager,  
 A. Prociuk,  E. Ramos,  D. R. Rehn,  F. Rob,  M. Schneider,  N. Sergueev,  
 S. M. Sharada,  S. Sharma,  D. W. Small,  T. Stauch,  T. Stein,  
 Yu-Chuan Su,  A. J. W. Thom,  A. Tkatchenko,  T. Tsuchimochi,  N. M. Tubman,  
 L. Vogt,  M. L. Vidal,  O. Vydrov,  M. A. Watson,  J. Wenzel,  
 M. de Wergifosse,  T. A. Wesolowski,  A. White,  J. Witte,  A. Yamada,  
 Jun Yang,  K. Yao,  S. Yeganeh,  S. R. Yost,  Zhi-Qiang You,  A. Zech,  
 Igor Ying Zhang,  Xing Zhang,  Yan Zhao,  Ying Zhu,  B. R. Brooks,  
 G. K. L. Chan,  C. J. Cramer,  M. S. Gordon,  W. J. Hehre,  A. Klamt,  
 M. W. Schmidt,  C. D. Sherrill,  D. G. Truhlar,  A. Aspuru-Guzik,  R. Baer,  
 A. T. Bell,  N. A. Besley,  Jeng-Da Chai,  A. E. DePrince, III,  
 R. A. DiStasio Jr.,  A. Dreuw,  B. D. Dunietz,  T. R. Furlani,  
 Chao-Ping Hsu,  Yousung Jung,  Jing Kong,  D. S. Lambrecht,  WanZhen Liang,  
 C. Ochsenfeld,  V. A. Rassolov,  L. V. Slipchenko,  J. E. Subotnik,  
 T. Van Voorhis,  J. M. Herbert,  A. I. Krylov,  P. M. W. Gill,  M. Head-Gordon

 Contributors to earlier versions of Q-Chem not listed above: 
 R. D. Adamson,  B. Austin,  J. Baker,  G. J. O. Beran,  K. Brandhorst,  
 S. T. Brown,  E. F. C. Byrd,  A. K. Chakraborty,  C.-L. Cheng,  
 Siu Hung Chien,  D. M. Chipman,  D. L. Crittenden,  H. Dachsel,  
 R. J. Doerksen,  A. D. Dutoi,  L. Fusti-Molnar,  W. A. Goddard III,  
 A. Golubeva-Zadorozhnaya,  S. R. Gwaltney,  G. Hawkins,  A. Heyden,  
 S. Hirata,  G. Kedziora,  F. J. Keil,  C. Kelley,  Jihan Kim,  R. A. King,  
 R. Z. Khaliullin,  P. P. Korambath,  W. Kurlancheek,  A. M. Lee,  M. S. Lee,  
 S. V. Levchenko,  Ching Yeh Lin,  D. Liotard,  R. C. Lochan,  I. Lotan,  
 P. E. Maslen,  N. Nair,  D. P. O'Neill,  D. Neuhauser,  E. Neuscamman,  
 C. M. Oana,  R. Olson,  B. Peters,  R. Peverati,  P. A. Pieniazek,  
 Y. M. Rhee,  J. Ritchie,  M. A. Rohrdanz,  E. Rosta,  N. J. Russ,  
 H. F. Schaefer III,  N. E. Schultz,  N. Shenvi,  A. C. Simmonett,  A. Sodt,  
 D. Stuck,  K. S. Thanthiriwatte,  V. Vanovschi,  Tao Wang,  A. Warshel,  
 C. F. Williams,  Q. Wu,  X. Xu,  W. Zhang

 Please cite Q-Chem as follows:
 Y. Shao et al., Mol. Phys. 113, 184-215 (2015)
 DOI: 10.1080/00268976.2014.952696

 Q-Chem 5.1.1 for Intel X86 EM64T Linux

 Parts of Q-Chem use Armadillo 8.300.2 (Tropical Shenanigans).
 http://arma.sourceforge.net/

 Q-Chem begins on Sat Sep 26 03:10:37 2020  

Host: n0033.mhg0
0

     Scratch files written to /local/scratch/users/yhljason/HNC_DSD-PBEPBE-D3_aug-cc-pcVQZ.inp20200926022628//
The previous job contains 0 fragments, simply inherited here
Input Ideriv = 0
Curr. Ideriv = -1
Max.  Ideriv = 0
Analytic post-HF gradients are not available with non-HF exchange
Input Ideriv = 0
Curr. Ideriv = 0
Max.  Ideriv = 0

Checking the input file for inconsistencies... 	...done.

--------------------------------------------------------------
User input:
--------------------------------------------------------------
$molecule
read
$end

$rem

jobtype sp
method DSD-PBEPBE-D3
xc_grid 000099000590
basis aug-cc-pcVQZ
max_scf_cycles 200
thresh 14
scf_convergence 8
mem_total 128000
cc_memory 96000
cc_backend xm
mem_static 1500
symmetry false
sym_ignore true
scf_guess read
unrestricted false
scf_algorithm gdm
n_frozen_core 0
$end

$multipole_field
XX -0.0001
$end


--------------------------------------------------------------
 Adding empirical dispersion correction 
 ----------------------------------------------------------------
 Doing -D3(BJ) with
 s6 =   0.78000
 s8 =   0.00000
 a1 =   0.00000
 a2 =   6.10000
 -D3 energy without 3body term =     -0.0007086565 hartrees
 ----------------------------------------------------------------
             Standard Nuclear Orientation (Angstroms)
    I     Atom           X                Y                Z
 ----------------------------------------------------------------
    1      C       0.0000000000     0.0000000000    -0.7405000000
    2      N       0.0000000000     0.0000000000     0.4321000000
    3      H       0.0000000000     0.0000000000     1.4183000000
 ----------------------------------------------------------------
 Nuclear Repulsion Energy =    24.1801044629 hartrees
 There are        7 alpha and        7 beta electrons
 Requested basis set is aug-cc-pCVQZ
 There are 72 shells and 264 basis functions

 Total QAlloc Memory Limit 128000 MB
 Mega-Array Size      1467 MB
 MEM_STATIC part      1500 MB

                       Distance Matrix (Angstroms)
             C (  1)   N (  2)
   N (  2)  1.172600
   H (  3)  2.158800  0.986200
 
 Applying Cartesian multipole field
    Component          Value
    ---------          -----
     (2,0,0)       -1.00000E-04
 A cutoff of  1.0D-14 yielded   2578 shell pairs
 There are     35084 function pairs (     56122 Cartesian)
 
 -------------------------------------------------------
 OpenMP Integral Computing Module                       
 Release: version 1.0, May 2013, Q-Chem Inc. Pittsburgh 
 -------------------------------------------------------
 Integral Job Info:
 Integral job number is                      11
 Integral operator is                         1
 short-range coefficients                     0
 long-range coefficients              100000000
 Omega coefficients                           0
 if combine SR and LR in K                    0
 Integral screening is                        0
 Integral computing path is                   2
 max size of driver memory is           3200000
 size of driver memory is               1704330
 size of scratch memory is             18511652
 max col of scratch BK array              50625
 max len of scratch array in speh3         2114
 max len of scratch index in speh4           50
 max int batch size is                      520
 min int batch size is                       52
 fixed nKL is                                52
 max L of basis functions is                  4
 order of int derivative is                   0
 number of shells is                         72
 number of basis is                         333
 number of cartesian basis is               333
 number of contracted shell pairs          2578
 number of primitive shell pairs           5550
 maxK2 (contraction) of shell pair           81
 max number of K2 of shell pair               1
 max number of CS2 of shell pair            316
 max number of PS2 of shell pair            549
 mem total for path MDJ                  693712
 -------------------------------------------------------
 Smallest overlap matrix eigenvalue = 2.12E-05
 Guess MOs from SCF MO coefficient file

 -----------------------------------------------------------------------
  General SCF calculation program by
  Eric Jon Sundstrom, Paul Horn, Yuezhi Mao, Dmitri Zuev, Alec White,
  David Stuck, Shaama M.S., Shane Yost, Joonho Lee, David Small,
  Daniel Levine, Susi Lehtola, Hugh Burton, Evgeny Epifanovsky
 -----------------------------------------------------------------------
 Exchange:     0.6800 Hartree-Fock + 0.3200 PBE
 Correlation:  0.4900 PBE
 Using Euler-Maclaurin-Lebedev (99,590) quadrature formula
 Dispersion:   Grimme D3
 using 8 threads for integral computing
 -------------------------------------------------------
 OpenMP Integral computing Module                
 Release: version 2.0, May 2017, Q-Chem Inc. Pleasanton 
 -------------------------------------------------------
 -------------------------------------------------------
 OpenMP BLAS3 based DFT computing Module                
 Release: version 1.0, May 2013, Q-Chem Inc. Pittsburgh 
 -------------------------------------------------------
 A restricted SCF calculation will be
 performed using GDM
 SCF converges when RMS gradient is below 1.0e-08
 ---------------------------------------
  Cycle       Energy        RMS Gradient
 ---------------------------------------
    1     -93.1076417619      3.68e-04   Normal BFGS step
    2     -93.1076429318      8.48e-05   Normal BFGS step
    3     -93.1076430211      6.00e-05   Normal BFGS step
    4     -93.1076430359      3.22e-05   Normal BFGS step
    5     -93.1076430396      5.50e-06   Normal BFGS step
    6     -93.1076430400      2.08e-06   Normal BFGS step
    7     -93.1076430401      7.81e-07   Normal BFGS step
    8     -93.1076430401      1.19e-07   Normal BFGS step
    9     -93.1076430401      2.13e-08   Normal BFGS step
   10     -93.1076430401      1.52e-09  Convergence criterion met
 ---------------------------------------
 SCF time:   CPU 1300.57s  wall 165.00s 
 SCF   energy in the final basis set =      -93.1076430401
 Total energy in the final basis set =      -93.1076430401
 
 Components of the MP2 correlation energy:
        aaaa  correlation energy =        -0.0070522936 au
        abab  correlation energy =        -0.2259917902 au
        bbbb  correlation energy =        -0.0070522936 au
        non-Brillouin singles    =        -0.0000000000 au

 Total  MP2   correlation energy =                    -0.24009638 au
        MP2         total energy =                   -93.34773942 au
 
 --------------------------------------------------------------
 
                    Orbital Energies (a.u.)
 --------------------------------------------------------------
 
 Alpha MOs
 -- Occupied --
-15.104 -10.868  -1.146  -0.803  -0.471  -0.471  -0.429
 -- Virtual --
  0.014   0.064   0.065   0.067   0.086   0.087   0.093   0.099
  0.130   0.132   0.197   0.217   0.217   0.229   0.232   0.233
  0.264   0.311   0.319   0.320   0.346   0.347   0.360   0.360
  0.391   0.444   0.508   0.555   0.556   0.629   0.629   0.657
  0.657   0.676   0.703   0.730   0.730   0.736   0.737   0.748
  0.748   0.817   0.854   0.854   0.865   0.865   0.883   0.918
  0.929   0.930   1.059   1.059   1.111   1.206   1.238   1.239
  1.255   1.255   1.446   1.446   1.456   1.457   1.483   1.612
  1.613   1.668   1.668   1.677   1.733   1.746   1.747   1.850
  1.850   1.860   1.861   1.918   2.028   2.064   2.064   2.093
  2.093   2.150   2.201   2.201   2.303   2.303   2.366   2.366
  2.381   2.381   2.465   2.469   2.469   2.526   2.731   2.731
  2.749   2.751   2.751   2.856   2.856   2.877   2.878   2.901
  2.901   2.902   3.112   3.112   3.127   3.127   3.363   3.363
  3.390   3.469   3.469   3.620   3.620   3.709   3.989   4.185
  4.185   4.362   4.362   4.373   4.489   4.489   4.562   4.563
  4.853   5.089   5.184   5.184   5.492   5.821   5.821   5.828
  5.828   6.011   6.011   6.147   6.147   6.191   6.191   6.248
  6.358   6.358   6.504   6.504   6.629   6.629   6.931   7.073
  7.073   7.080   7.080   7.291   7.570   7.570   7.721   7.721
  7.721   7.915   7.916   7.961   8.087   8.087   8.141   8.141
  8.398   8.398   8.495   8.495   8.516   8.516   8.635   8.776
  9.032   9.032   9.449   9.449   9.471   9.471   9.637   9.637
  9.794  10.132  10.187  10.187  10.325  10.325  11.126  11.126
 11.325  11.697  13.202  13.202  14.046  14.391  16.724  19.368
 19.368  20.564  26.429  26.429  26.514  26.515  27.005  27.005
 27.991  28.942  36.621  36.781  36.781  37.822  37.822  39.311
 50.517  66.551  66.551  67.544  91.546  91.546  93.365  98.228
 98.228  98.248  98.248  98.310  98.310  98.349 111.638 111.638
111.663 111.663 111.707 111.707 111.814 114.683 114.683 114.973
114.973 115.495 122.521 156.226 156.226 156.790 156.790 157.502
166.648 224.565 224.565 225.385 308.678 308.678 310.197 508.474
686.872
 --------------------------------------------------------------
 
          Ground-State Mulliken Net Atomic Charges

     Atom                 Charge (a.u.)
  ----------------------------------------
      1 C                    -0.069606
      2 N                    -0.166581
      3 H                     0.236187
  ----------------------------------------
  Sum of atomic charges =    -0.000000

 -----------------------------------------------------------------
                    Cartesian Multipole Moments
 -----------------------------------------------------------------
    Charge (ESU x 10^10)
                -0.0000
    Dipole Moment (Debye)
         X       0.0000      Y       0.0000      Z       2.9156
       Tot       2.9156
    Quadrupole Moments (Debye-Ang)
        XX     -12.1087     XY      -0.0000     YY     -12.1156
        XZ      -0.0000     YZ      -0.0000     ZZ     -10.3086
    Octopole Moments (Debye-Ang^2)
       XXX       0.0000    XXY       0.0000    XYY      -0.0000
       YYY       0.0000    XXZ       1.4086    XYZ       0.0000
       YYZ       1.4113    XZZ       0.0000    YZZ       0.0000
       ZZZ      14.5407
    Hexadecapole Moments (Debye-Ang^3)
      XXXX     -12.8372   XXXY      -0.0000   XXYY      -4.2835
      XYYY      -0.0000   YYYY     -12.8636   XXXZ      -0.0000
      XXYZ      -0.0000   XYYZ      -0.0000   YYYZ      -0.0000
      XXZZ      -9.9255   XYZZ       0.0000   YYZZ      -9.9339
      XZZZ      -0.0000   YZZZ      -0.0000   ZZZZ     -42.2058
 -----------------------------------------------------------------
Archival summary:
1\1\n0033.mhg0\SP\ProcedureUnspecified\BasisUnspecified\111\yhljason\SatSep2603:16:502020SatSep2603:16:502020\0\\#,ProcedureUnspecified,BasisUnspecified,\\0,1\N\H,1,0.9862\C,1,1.1726,2,180\\\@

 Total job time:  373.36s(wall), 2937.83s(cpu) 
 Sat Sep 26 03:16:50 2020

        *************************************************************
        *                                                           *
        *  Thank you very much for using Q-Chem.  Have a nice day.  *
        *                                                           *
        *************************************************************


 
User input: 4 of 7 
 
Q-Chem Developer Version!
                  Welcome to Q-Chem
     A Quantum Leap Into The Future Of Chemistry


 Q-Chem 5.1, Q-Chem, Inc., Pleasanton, CA (2018)

 Yihan Shao,  Zhengting Gan,  E. Epifanovsky,  A. T. B. Gilbert,  M. Wormit,  
 J. Kussmann,  A. W. Lange,  A. Behn,  Jia Deng,  Xintian Feng,  D. Ghosh,  
 M. Goldey,  P. R. Horn,  L. D. Jacobson,  I. Kaliman,  T. Kus,  A. Landau,  
 Jie Liu,  E. I. Proynov,  R. M. Richard,  R. P. Steele,  E. J. Sundstrom,  
 H. L. Woodcock III,  P. M. Zimmerman,  D. Zuev,  B. Albrecht,  E. Alguire,  
 S. A. Baeppler,  D. Barton,  Z. Benda,  Y. A. Bernard,  E. J. Berquist,  
 K. B. Bravaya,  H. Burton,  D. Casanova,  Chun-Min Chang,  Yunqing Chen,  
 A. Chien,  K. D. Closser,  M. P. Coons,  S. Coriani,  S. Dasgupta,  
 A. L. Dempwolff,  M. Diedenhofen,  Hainam Do,  R. G. Edgar,  Po-Tung Fang,  
 S. Faraji,  S. Fatehi,  Qingguo Feng,  K. D. Fenk,  J. Fosso-Tande,  
 Qinghui Ge,  A. Ghysels,  G. Gidofalvi,  J. Gomes,  J. Gonthier,  A. Gunina,  
 D. Hait,  M. W. D. Hanson-Heine,  P. H. P. Harbach,  A. W. Hauser,  
 J. E. Herr,  E. G. Hohenstein,  Z. C. Holden,  Kerwin Hui,  B. C. Huynh,  
 T.-C. Jagau,  Hyunjun Ji,  B. Kaduk,  K. Khistyaev,  Jaehoon Kim,  
 P. Klunzinger,  K. Koh,  D. Kosenkov,  L. Koulias,  T. Kowalczyk,  
 C. M. Krauter,  A. Kunitsa,  Ka Un Lao,  A. Laurent,  K. V. Lawler,  
 Joonho Lee,  D. Lefrancois,  S. Lehtola,  D. S. Levine,  Yi-Pei Li,  
 You-Sheng Lin,  Fenglai Liu,  E. Livshits,  A. Luenser,  P. Manohar,  
 E. Mansoor,  S. F. Manzer,  Shan-Ping Mao,  Yuezhi Mao,  N. Mardirossian,  
 A. V. Marenich,  T. Markovich,  L. A. Martinez-Martinez,  S. A. Maurer,  
 N. J. Mayhall,  S. C. McKenzie,  J.-M. Mewes,  A. F. Morrison,  
 J. W. Mullinax,  K. Nanda,  T. S. Nguyen-Beck,  R. Olivares-Amaya,  
 J. A. Parkhill,  T. M. Perrine,  F. Plasser,  P. Pokhilko,  S. Prager,  
 A. Prociuk,  E. Ramos,  D. R. Rehn,  F. Rob,  M. Schneider,  N. Sergueev,  
 S. M. Sharada,  S. Sharma,  D. W. Small,  T. Stauch,  T. Stein,  
 Yu-Chuan Su,  A. J. W. Thom,  A. Tkatchenko,  T. Tsuchimochi,  N. M. Tubman,  
 L. Vogt,  M. L. Vidal,  O. Vydrov,  M. A. Watson,  J. Wenzel,  
 M. de Wergifosse,  T. A. Wesolowski,  A. White,  J. Witte,  A. Yamada,  
 Jun Yang,  K. Yao,  S. Yeganeh,  S. R. Yost,  Zhi-Qiang You,  A. Zech,  
 Igor Ying Zhang,  Xing Zhang,  Yan Zhao,  Ying Zhu,  B. R. Brooks,  
 G. K. L. Chan,  C. J. Cramer,  M. S. Gordon,  W. J. Hehre,  A. Klamt,  
 M. W. Schmidt,  C. D. Sherrill,  D. G. Truhlar,  A. Aspuru-Guzik,  R. Baer,  
 A. T. Bell,  N. A. Besley,  Jeng-Da Chai,  A. E. DePrince, III,  
 R. A. DiStasio Jr.,  A. Dreuw,  B. D. Dunietz,  T. R. Furlani,  
 Chao-Ping Hsu,  Yousung Jung,  Jing Kong,  D. S. Lambrecht,  WanZhen Liang,  
 C. Ochsenfeld,  V. A. Rassolov,  L. V. Slipchenko,  J. E. Subotnik,  
 T. Van Voorhis,  J. M. Herbert,  A. I. Krylov,  P. M. W. Gill,  M. Head-Gordon

 Contributors to earlier versions of Q-Chem not listed above: 
 R. D. Adamson,  B. Austin,  J. Baker,  G. J. O. Beran,  K. Brandhorst,  
 S. T. Brown,  E. F. C. Byrd,  A. K. Chakraborty,  C.-L. Cheng,  
 Siu Hung Chien,  D. M. Chipman,  D. L. Crittenden,  H. Dachsel,  
 R. J. Doerksen,  A. D. Dutoi,  L. Fusti-Molnar,  W. A. Goddard III,  
 A. Golubeva-Zadorozhnaya,  S. R. Gwaltney,  G. Hawkins,  A. Heyden,  
 S. Hirata,  G. Kedziora,  F. J. Keil,  C. Kelley,  Jihan Kim,  R. A. King,  
 R. Z. Khaliullin,  P. P. Korambath,  W. Kurlancheek,  A. M. Lee,  M. S. Lee,  
 S. V. Levchenko,  Ching Yeh Lin,  D. Liotard,  R. C. Lochan,  I. Lotan,  
 P. E. Maslen,  N. Nair,  D. P. O'Neill,  D. Neuhauser,  E. Neuscamman,  
 C. M. Oana,  R. Olson,  B. Peters,  R. Peverati,  P. A. Pieniazek,  
 Y. M. Rhee,  J. Ritchie,  M. A. Rohrdanz,  E. Rosta,  N. J. Russ,  
 H. F. Schaefer III,  N. E. Schultz,  N. Shenvi,  A. C. Simmonett,  A. Sodt,  
 D. Stuck,  K. S. Thanthiriwatte,  V. Vanovschi,  Tao Wang,  A. Warshel,  
 C. F. Williams,  Q. Wu,  X. Xu,  W. Zhang

 Please cite Q-Chem as follows:
 Y. Shao et al., Mol. Phys. 113, 184-215 (2015)
 DOI: 10.1080/00268976.2014.952696

 Q-Chem 5.1.1 for Intel X86 EM64T Linux

 Parts of Q-Chem use Armadillo 8.300.2 (Tropical Shenanigans).
 http://arma.sourceforge.net/

 Q-Chem begins on Sat Sep 26 03:16:50 2020  

Host: n0033.mhg0
0

     Scratch files written to /local/scratch/users/yhljason/HNC_DSD-PBEPBE-D3_aug-cc-pcVQZ.inp20200926022628//
The previous job contains 0 fragments, simply inherited here
Input Ideriv = 0
Curr. Ideriv = -1
Max.  Ideriv = 0
Analytic post-HF gradients are not available with non-HF exchange
Input Ideriv = 0
Curr. Ideriv = 0
Max.  Ideriv = 0

Checking the input file for inconsistencies... 	...done.

--------------------------------------------------------------
User input:
--------------------------------------------------------------
$molecule
read
$end

$rem

jobtype sp
method DSD-PBEPBE-D3
xc_grid 000099000590
basis aug-cc-pcVQZ
max_scf_cycles 200
thresh 14
scf_convergence 8
mem_total 128000
cc_memory 96000
cc_backend xm
mem_static 1500
symmetry false
sym_ignore true
scf_guess read
unrestricted false
scf_algorithm gdm
n_frozen_core 0
$end

$multipole_field
YY 0.0001
$end


--------------------------------------------------------------
 Adding empirical dispersion correction 
 ----------------------------------------------------------------
 Doing -D3(BJ) with
 s6 =   0.78000
 s8 =   0.00000
 a1 =   0.00000
 a2 =   6.10000
 -D3 energy without 3body term =     -0.0007086565 hartrees
 ----------------------------------------------------------------
             Standard Nuclear Orientation (Angstroms)
    I     Atom           X                Y                Z
 ----------------------------------------------------------------
    1      C       0.0000000000     0.0000000000    -0.7405000000
    2      N       0.0000000000     0.0000000000     0.4321000000
    3      H       0.0000000000     0.0000000000     1.4183000000
 ----------------------------------------------------------------
 Nuclear Repulsion Energy =    24.1801044629 hartrees
 There are        7 alpha and        7 beta electrons
 Requested basis set is aug-cc-pCVQZ
 There are 72 shells and 264 basis functions

 Total QAlloc Memory Limit 128000 MB
 Mega-Array Size      1467 MB
 MEM_STATIC part      1500 MB

                       Distance Matrix (Angstroms)
             C (  1)   N (  2)
   N (  2)  1.172600
   H (  3)  2.158800  0.986200
 
 Applying Cartesian multipole field
    Component          Value
    ---------          -----
     (0,2,0)        1.00000E-04
 A cutoff of  1.0D-14 yielded   2578 shell pairs
 There are     35084 function pairs (     56122 Cartesian)
 
 -------------------------------------------------------
 OpenMP Integral Computing Module                       
 Release: version 1.0, May 2013, Q-Chem Inc. Pittsburgh 
 -------------------------------------------------------
 Integral Job Info:
 Integral job number is                      11
 Integral operator is                         1
 short-range coefficients                     0
 long-range coefficients              100000000
 Omega coefficients                           0
 if combine SR and LR in K                    0
 Integral screening is                        0
 Integral computing path is                   2
 max size of driver memory is           3200000
 size of driver memory is               1704330
 size of scratch memory is             18511652
 max col of scratch BK array              50625
 max len of scratch array in speh3         2114
 max len of scratch index in speh4           50
 max int batch size is                      520
 min int batch size is                       52
 fixed nKL is                                52
 max L of basis functions is                  4
 order of int derivative is                   0
 number of shells is                         72
 number of basis is                         333
 number of cartesian basis is               333
 number of contracted shell pairs          2578
 number of primitive shell pairs           5550
 maxK2 (contraction) of shell pair           81
 max number of K2 of shell pair               1
 max number of CS2 of shell pair            316
 max number of PS2 of shell pair            549
 mem total for path MDJ                  693712
 -------------------------------------------------------
 Smallest overlap matrix eigenvalue = 2.12E-05
 Guess MOs from SCF MO coefficient file

 -----------------------------------------------------------------------
  General SCF calculation program by
  Eric Jon Sundstrom, Paul Horn, Yuezhi Mao, Dmitri Zuev, Alec White,
  David Stuck, Shaama M.S., Shane Yost, Joonho Lee, David Small,
  Daniel Levine, Susi Lehtola, Hugh Burton, Evgeny Epifanovsky
 -----------------------------------------------------------------------
 Exchange:     0.6800 Hartree-Fock + 0.3200 PBE
 Correlation:  0.4900 PBE
 Using Euler-Maclaurin-Lebedev (99,590) quadrature formula
 Dispersion:   Grimme D3
 using 8 threads for integral computing
 -------------------------------------------------------
 OpenMP Integral computing Module                
 Release: version 2.0, May 2017, Q-Chem Inc. Pleasanton 
 -------------------------------------------------------
 -------------------------------------------------------
 OpenMP BLAS3 based DFT computing Module                
 Release: version 1.0, May 2013, Q-Chem Inc. Pittsburgh 
 -------------------------------------------------------
 A restricted SCF calculation will be
 performed using GDM
 SCF converges when RMS gradient is below 1.0e-08
 ---------------------------------------
  Cycle       Energy        RMS Gradient
 ---------------------------------------
    1     -93.1094440572      2.50e-04   Normal BFGS step
    2     -93.1094447403      8.12e-05   Normal BFGS step
    3     -93.1094448053      4.46e-05   Normal BFGS step
    4     -93.1094448127      2.46e-05   Normal BFGS step
    5     -93.1094448158      2.62e-06   Normal BFGS step
    6     -93.1094448159      4.22e-07   Normal BFGS step
    7     -93.1094448159      5.48e-08   Normal BFGS step
    8     -93.1094448159      1.03e-08   Normal BFGS step
    9     -93.1094448159      8.24e-10  Convergence criterion met
 ---------------------------------------
 SCF time:   CPU 1196.88s  wall 152.00s 
 SCF   energy in the final basis set =      -93.1094448159
 Total energy in the final basis set =      -93.1094448159
 
 Components of the MP2 correlation energy:
        aaaa  correlation energy =        -0.0070526118 au
        abab  correlation energy =        -0.2259857014 au
        bbbb  correlation energy =        -0.0070526118 au
        non-Brillouin singles    =        -0.0000000000 au

 Total  MP2   correlation energy =                    -0.24009093 au
        MP2         total energy =                   -93.34953574 au
 
 --------------------------------------------------------------
 
                    Orbital Energies (a.u.)
 --------------------------------------------------------------
 
 Alpha MOs
 -- Occupied --
-15.104 -10.868  -1.147  -0.803  -0.472  -0.472  -0.430
 -- Virtual --
  0.010   0.060   0.062   0.065   0.084   0.085   0.090   0.095
  0.127   0.129   0.194   0.215   0.215   0.227   0.229   0.230
  0.262   0.309   0.316   0.317   0.344   0.345   0.358   0.358
  0.389   0.442   0.506   0.554   0.555   0.628   0.628   0.655
  0.656   0.675   0.702   0.729   0.729   0.734   0.735   0.746
  0.746   0.816   0.853   0.853   0.864   0.864   0.882   0.917
  0.928   0.929   1.058   1.058   1.111   1.205   1.237   1.238
  1.255   1.255   1.446   1.446   1.456   1.456   1.482   1.611
  1.612   1.667   1.667   1.676   1.731   1.746   1.746   1.850
  1.850   1.860   1.860   1.917   2.027   2.064   2.064   2.093
  2.093   2.149   2.200   2.200   2.303   2.303   2.365   2.365
  2.381   2.381   2.465   2.468   2.469   2.526   2.730   2.731
  2.748   2.750   2.750   2.855   2.855   2.877   2.877   2.900
  2.900   2.901   3.112   3.112   3.126   3.126   3.363   3.363
  3.390   3.469   3.469   3.620   3.620   3.708   3.989   4.185
  4.185   4.361   4.361   4.373   4.488   4.488   4.562   4.562
  4.853   5.088   5.184   5.184   5.491   5.820   5.820   5.828
  5.828   6.011   6.011   6.147   6.147   6.190   6.190   6.248
  6.358   6.358   6.504   6.504   6.629   6.629   6.931   7.072
  7.072   7.080   7.080   7.290   7.569   7.569   7.720   7.721
  7.721   7.915   7.915   7.960   8.086   8.086   8.140   8.140
  8.398   8.398   8.494   8.494   8.516   8.516   8.634   8.776
  9.031   9.031   9.449   9.449   9.470   9.470   9.636   9.636
  9.793  10.132  10.187  10.187  10.324  10.324  11.126  11.126
 11.324  11.697  13.202  13.202  14.045  14.390  16.723  19.367
 19.367  20.563  26.428  26.428  26.514  26.514  27.004  27.004
 27.990  28.941  36.621  36.780  36.780  37.822  37.822  39.311
 50.516  66.551  66.551  67.543  91.546  91.546  93.364  98.227
 98.227  98.248  98.248  98.309  98.309  98.348 111.638 111.638
111.663 111.663 111.706 111.706 111.813 114.682 114.682 114.973
114.973 115.495 122.520 156.226 156.226 156.789 156.789 157.501
166.647 224.565 224.565 225.385 308.677 308.677 310.196 508.473
686.871
 --------------------------------------------------------------
 
          Ground-State Mulliken Net Atomic Charges

     Atom                 Charge (a.u.)
  ----------------------------------------
      1 C                    -0.071867
      2 N                    -0.164433
      3 H                     0.236300
  ----------------------------------------
  Sum of atomic charges =     0.000000

 -----------------------------------------------------------------
                    Cartesian Multipole Moments
 -----------------------------------------------------------------
    Charge (ESU x 10^10)
                 0.0000
    Dipole Moment (Debye)
         X       0.0000      Y      -0.0000      Z       2.9166
       Tot       2.9166
    Quadrupole Moments (Debye-Ang)
        XX     -12.1189     XY      -0.0000     YY     -12.1258
        XZ      -0.0000     YZ      -0.0000     ZZ     -10.3093
    Octopole Moments (Debye-Ang^2)
       XXX       0.0000    XXY      -0.0000    XYY       0.0000
       YYY      -0.0000    XXZ       1.4120    XYZ       0.0000
       YYZ       1.4148    XZZ       0.0000    YZZ      -0.0000
       ZZZ      14.5448
    Hexadecapole Moments (Debye-Ang^3)
      XXXX     -12.8771   XXXY      -0.0000   XXYY      -4.2968
      XYYY      -0.0000   YYYY     -12.9039   XXXZ      -0.0000
      XXYZ      -0.0000   XYYZ       0.0000   YYYZ      -0.0000
      XXZZ      -9.9387   XYZZ       0.0000   YYZZ      -9.9472
      XZZZ      -0.0000   YZZZ       0.0000   ZZZZ     -42.2158
 -----------------------------------------------------------------
Archival summary:
1\1\n0033.mhg0\SP\ProcedureUnspecified\BasisUnspecified\111\yhljason\SatSep2603:22:302020SatSep2603:22:302020\0\\#,ProcedureUnspecified,BasisUnspecified,\\0,1\N\H,1,0.9862\C,1,1.1726,2,180\\\@

 Total job time:  339.20s(wall), 2662.13s(cpu) 
 Sat Sep 26 03:22:30 2020

        *************************************************************
        *                                                           *
        *  Thank you very much for using Q-Chem.  Have a nice day.  *
        *                                                           *
        *************************************************************


 
User input: 5 of 7 
 
Q-Chem Developer Version!
                  Welcome to Q-Chem
     A Quantum Leap Into The Future Of Chemistry


 Q-Chem 5.1, Q-Chem, Inc., Pleasanton, CA (2018)

 Yihan Shao,  Zhengting Gan,  E. Epifanovsky,  A. T. B. Gilbert,  M. Wormit,  
 J. Kussmann,  A. W. Lange,  A. Behn,  Jia Deng,  Xintian Feng,  D. Ghosh,  
 M. Goldey,  P. R. Horn,  L. D. Jacobson,  I. Kaliman,  T. Kus,  A. Landau,  
 Jie Liu,  E. I. Proynov,  R. M. Richard,  R. P. Steele,  E. J. Sundstrom,  
 H. L. Woodcock III,  P. M. Zimmerman,  D. Zuev,  B. Albrecht,  E. Alguire,  
 S. A. Baeppler,  D. Barton,  Z. Benda,  Y. A. Bernard,  E. J. Berquist,  
 K. B. Bravaya,  H. Burton,  D. Casanova,  Chun-Min Chang,  Yunqing Chen,  
 A. Chien,  K. D. Closser,  M. P. Coons,  S. Coriani,  S. Dasgupta,  
 A. L. Dempwolff,  M. Diedenhofen,  Hainam Do,  R. G. Edgar,  Po-Tung Fang,  
 S. Faraji,  S. Fatehi,  Qingguo Feng,  K. D. Fenk,  J. Fosso-Tande,  
 Qinghui Ge,  A. Ghysels,  G. Gidofalvi,  J. Gomes,  J. Gonthier,  A. Gunina,  
 D. Hait,  M. W. D. Hanson-Heine,  P. H. P. Harbach,  A. W. Hauser,  
 J. E. Herr,  E. G. Hohenstein,  Z. C. Holden,  Kerwin Hui,  B. C. Huynh,  
 T.-C. Jagau,  Hyunjun Ji,  B. Kaduk,  K. Khistyaev,  Jaehoon Kim,  
 P. Klunzinger,  K. Koh,  D. Kosenkov,  L. Koulias,  T. Kowalczyk,  
 C. M. Krauter,  A. Kunitsa,  Ka Un Lao,  A. Laurent,  K. V. Lawler,  
 Joonho Lee,  D. Lefrancois,  S. Lehtola,  D. S. Levine,  Yi-Pei Li,  
 You-Sheng Lin,  Fenglai Liu,  E. Livshits,  A. Luenser,  P. Manohar,  
 E. Mansoor,  S. F. Manzer,  Shan-Ping Mao,  Yuezhi Mao,  N. Mardirossian,  
 A. V. Marenich,  T. Markovich,  L. A. Martinez-Martinez,  S. A. Maurer,  
 N. J. Mayhall,  S. C. McKenzie,  J.-M. Mewes,  A. F. Morrison,  
 J. W. Mullinax,  K. Nanda,  T. S. Nguyen-Beck,  R. Olivares-Amaya,  
 J. A. Parkhill,  T. M. Perrine,  F. Plasser,  P. Pokhilko,  S. Prager,  
 A. Prociuk,  E. Ramos,  D. R. Rehn,  F. Rob,  M. Schneider,  N. Sergueev,  
 S. M. Sharada,  S. Sharma,  D. W. Small,  T. Stauch,  T. Stein,  
 Yu-Chuan Su,  A. J. W. Thom,  A. Tkatchenko,  T. Tsuchimochi,  N. M. Tubman,  
 L. Vogt,  M. L. Vidal,  O. Vydrov,  M. A. Watson,  J. Wenzel,  
 M. de Wergifosse,  T. A. Wesolowski,  A. White,  J. Witte,  A. Yamada,  
 Jun Yang,  K. Yao,  S. Yeganeh,  S. R. Yost,  Zhi-Qiang You,  A. Zech,  
 Igor Ying Zhang,  Xing Zhang,  Yan Zhao,  Ying Zhu,  B. R. Brooks,  
 G. K. L. Chan,  C. J. Cramer,  M. S. Gordon,  W. J. Hehre,  A. Klamt,  
 M. W. Schmidt,  C. D. Sherrill,  D. G. Truhlar,  A. Aspuru-Guzik,  R. Baer,  
 A. T. Bell,  N. A. Besley,  Jeng-Da Chai,  A. E. DePrince, III,  
 R. A. DiStasio Jr.,  A. Dreuw,  B. D. Dunietz,  T. R. Furlani,  
 Chao-Ping Hsu,  Yousung Jung,  Jing Kong,  D. S. Lambrecht,  WanZhen Liang,  
 C. Ochsenfeld,  V. A. Rassolov,  L. V. Slipchenko,  J. E. Subotnik,  
 T. Van Voorhis,  J. M. Herbert,  A. I. Krylov,  P. M. W. Gill,  M. Head-Gordon

 Contributors to earlier versions of Q-Chem not listed above: 
 R. D. Adamson,  B. Austin,  J. Baker,  G. J. O. Beran,  K. Brandhorst,  
 S. T. Brown,  E. F. C. Byrd,  A. K. Chakraborty,  C.-L. Cheng,  
 Siu Hung Chien,  D. M. Chipman,  D. L. Crittenden,  H. Dachsel,  
 R. J. Doerksen,  A. D. Dutoi,  L. Fusti-Molnar,  W. A. Goddard III,  
 A. Golubeva-Zadorozhnaya,  S. R. Gwaltney,  G. Hawkins,  A. Heyden,  
 S. Hirata,  G. Kedziora,  F. J. Keil,  C. Kelley,  Jihan Kim,  R. A. King,  
 R. Z. Khaliullin,  P. P. Korambath,  W. Kurlancheek,  A. M. Lee,  M. S. Lee,  
 S. V. Levchenko,  Ching Yeh Lin,  D. Liotard,  R. C. Lochan,  I. Lotan,  
 P. E. Maslen,  N. Nair,  D. P. O'Neill,  D. Neuhauser,  E. Neuscamman,  
 C. M. Oana,  R. Olson,  B. Peters,  R. Peverati,  P. A. Pieniazek,  
 Y. M. Rhee,  J. Ritchie,  M. A. Rohrdanz,  E. Rosta,  N. J. Russ,  
 H. F. Schaefer III,  N. E. Schultz,  N. Shenvi,  A. C. Simmonett,  A. Sodt,  
 D. Stuck,  K. S. Thanthiriwatte,  V. Vanovschi,  Tao Wang,  A. Warshel,  
 C. F. Williams,  Q. Wu,  X. Xu,  W. Zhang

 Please cite Q-Chem as follows:
 Y. Shao et al., Mol. Phys. 113, 184-215 (2015)
 DOI: 10.1080/00268976.2014.952696

 Q-Chem 5.1.1 for Intel X86 EM64T Linux

 Parts of Q-Chem use Armadillo 8.300.2 (Tropical Shenanigans).
 http://arma.sourceforge.net/

 Q-Chem begins on Sat Sep 26 03:22:30 2020  

Host: n0033.mhg0
0

     Scratch files written to /local/scratch/users/yhljason/HNC_DSD-PBEPBE-D3_aug-cc-pcVQZ.inp20200926022628//
The previous job contains 0 fragments, simply inherited here
Input Ideriv = 0
Curr. Ideriv = -1
Max.  Ideriv = 0
Analytic post-HF gradients are not available with non-HF exchange
Input Ideriv = 0
Curr. Ideriv = 0
Max.  Ideriv = 0

Checking the input file for inconsistencies... 	...done.

--------------------------------------------------------------
User input:
--------------------------------------------------------------
$molecule
read
$end

$rem

jobtype sp
method DSD-PBEPBE-D3
xc_grid 000099000590
basis aug-cc-pcVQZ
max_scf_cycles 200
thresh 14
scf_convergence 8
mem_total 128000
cc_memory 96000
cc_backend xm
mem_static 1500
symmetry false
sym_ignore true
scf_guess read
unrestricted false
scf_algorithm gdm
n_frozen_core 0
$end

$multipole_field
YY -0.0001
$end


--------------------------------------------------------------
 Adding empirical dispersion correction 
 ----------------------------------------------------------------
 Doing -D3(BJ) with
 s6 =   0.78000
 s8 =   0.00000
 a1 =   0.00000
 a2 =   6.10000
 -D3 energy without 3body term =     -0.0007086565 hartrees
 ----------------------------------------------------------------
             Standard Nuclear Orientation (Angstroms)
    I     Atom           X                Y                Z
 ----------------------------------------------------------------
    1      C       0.0000000000     0.0000000000    -0.7405000000
    2      N       0.0000000000     0.0000000000     0.4321000000
    3      H       0.0000000000     0.0000000000     1.4183000000
 ----------------------------------------------------------------
 Nuclear Repulsion Energy =    24.1801044629 hartrees
 There are        7 alpha and        7 beta electrons
 Requested basis set is aug-cc-pCVQZ
 There are 72 shells and 264 basis functions

 Total QAlloc Memory Limit 128000 MB
 Mega-Array Size      1467 MB
 MEM_STATIC part      1500 MB

                       Distance Matrix (Angstroms)
             C (  1)   N (  2)
   N (  2)  1.172600
   H (  3)  2.158800  0.986200
 
 Applying Cartesian multipole field
    Component          Value
    ---------          -----
     (0,2,0)       -1.00000E-04
 A cutoff of  1.0D-14 yielded   2578 shell pairs
 There are     35084 function pairs (     56122 Cartesian)
 
 -------------------------------------------------------
 OpenMP Integral Computing Module                       
 Release: version 1.0, May 2013, Q-Chem Inc. Pittsburgh 
 -------------------------------------------------------
 Integral Job Info:
 Integral job number is                      11
 Integral operator is                         1
 short-range coefficients                     0
 long-range coefficients              100000000
 Omega coefficients                           0
 if combine SR and LR in K                    0
 Integral screening is                        0
 Integral computing path is                   2
 max size of driver memory is           3200000
 size of driver memory is               1704330
 size of scratch memory is             18511652
 max col of scratch BK array              50625
 max len of scratch array in speh3         2114
 max len of scratch index in speh4           50
 max int batch size is                      520
 min int batch size is                       52
 fixed nKL is                                52
 max L of basis functions is                  4
 order of int derivative is                   0
 number of shells is                         72
 number of basis is                         333
 number of cartesian basis is               333
 number of contracted shell pairs          2578
 number of primitive shell pairs           5550
 maxK2 (contraction) of shell pair           81
 max number of K2 of shell pair               1
 max number of CS2 of shell pair            316
 max number of PS2 of shell pair            549
 mem total for path MDJ                  693712
 -------------------------------------------------------
 Smallest overlap matrix eigenvalue = 2.12E-05
 Guess MOs from SCF MO coefficient file

 -----------------------------------------------------------------------
  General SCF calculation program by
  Eric Jon Sundstrom, Paul Horn, Yuezhi Mao, Dmitri Zuev, Alec White,
  David Stuck, Shaama M.S., Shane Yost, Joonho Lee, David Small,
  Daniel Levine, Susi Lehtola, Hugh Burton, Evgeny Epifanovsky
 -----------------------------------------------------------------------
 Exchange:     0.6800 Hartree-Fock + 0.3200 PBE
 Correlation:  0.4900 PBE
 Using Euler-Maclaurin-Lebedev (99,590) quadrature formula
 Dispersion:   Grimme D3
 using 8 threads for integral computing
 -------------------------------------------------------
 OpenMP Integral computing Module                
 Release: version 2.0, May 2017, Q-Chem Inc. Pleasanton 
 -------------------------------------------------------
 -------------------------------------------------------
 OpenMP BLAS3 based DFT computing Module                
 Release: version 1.0, May 2013, Q-Chem Inc. Pittsburgh 
 -------------------------------------------------------
 A restricted SCF calculation will be
 performed using GDM
 SCF converges when RMS gradient is below 1.0e-08
 ---------------------------------------
  Cycle       Energy        RMS Gradient
 ---------------------------------------
    1     -93.1076417619      3.68e-04   Normal BFGS step
    2     -93.1076429318      8.48e-05   Normal BFGS step
    3     -93.1076430211      6.00e-05   Normal BFGS step
    4     -93.1076430359      3.22e-05   Normal BFGS step
    5     -93.1076430396      5.50e-06   Normal BFGS step
    6     -93.1076430400      2.08e-06   Normal BFGS step
    7     -93.1076430401      7.81e-07   Normal BFGS step
    8     -93.1076430401      1.19e-07   Normal BFGS step
    9     -93.1076430401      2.13e-08   Normal BFGS step
   10     -93.1076430401      1.52e-09  Convergence criterion met
 ---------------------------------------
 SCF time:   CPU 1297.64s  wall 164.00s 
 SCF   energy in the final basis set =      -93.1076430401
 Total energy in the final basis set =      -93.1076430401
 
 Components of the MP2 correlation energy:
        aaaa  correlation energy =        -0.0070522936 au
        abab  correlation energy =        -0.2259917902 au
        bbbb  correlation energy =        -0.0070522936 au
        non-Brillouin singles    =        -0.0000000000 au

 Total  MP2   correlation energy =                    -0.24009638 au
        MP2         total energy =                   -93.34773942 au
 
 --------------------------------------------------------------
 
                    Orbital Energies (a.u.)
 --------------------------------------------------------------
 
 Alpha MOs
 -- Occupied --
-15.104 -10.868  -1.146  -0.803  -0.471  -0.471  -0.429
 -- Virtual --
  0.014   0.064   0.065   0.067   0.086   0.087   0.093   0.099
  0.130   0.132   0.197   0.217   0.217   0.229   0.232   0.233
  0.264   0.311   0.319   0.320   0.346   0.347   0.360   0.360
  0.391   0.444   0.508   0.555   0.556   0.629   0.629   0.657
  0.657   0.676   0.703   0.730   0.730   0.736   0.737   0.748
  0.748   0.817   0.854   0.854   0.865   0.865   0.883   0.918
  0.929   0.930   1.059   1.059   1.111   1.206   1.238   1.239
  1.255   1.255   1.446   1.446   1.456   1.457   1.483   1.612
  1.613   1.668   1.668   1.677   1.733   1.746   1.747   1.850
  1.850   1.860   1.861   1.918   2.028   2.064   2.064   2.093
  2.093   2.150   2.201   2.201   2.303   2.303   2.366   2.366
  2.381   2.381   2.465   2.469   2.469   2.526   2.731   2.731
  2.749   2.751   2.751   2.856   2.856   2.877   2.878   2.901
  2.901   2.902   3.112   3.112   3.127   3.127   3.363   3.363
  3.390   3.469   3.469   3.620   3.620   3.709   3.989   4.185
  4.185   4.362   4.362   4.373   4.489   4.489   4.562   4.563
  4.853   5.089   5.184   5.184   5.492   5.821   5.821   5.828
  5.828   6.011   6.011   6.147   6.147   6.191   6.191   6.248
  6.358   6.358   6.504   6.504   6.629   6.629   6.931   7.073
  7.073   7.080   7.080   7.291   7.570   7.570   7.721   7.721
  7.721   7.915   7.916   7.961   8.087   8.087   8.141   8.141
  8.398   8.398   8.495   8.495   8.516   8.516   8.635   8.776
  9.032   9.032   9.449   9.449   9.471   9.471   9.637   9.637
  9.794  10.132  10.187  10.187  10.325  10.325  11.126  11.126
 11.325  11.697  13.202  13.202  14.046  14.391  16.724  19.368
 19.368  20.564  26.429  26.429  26.514  26.515  27.005  27.005
 27.991  28.942  36.621  36.781  36.781  37.822  37.822  39.311
 50.517  66.551  66.551  67.544  91.546  91.546  93.365  98.228
 98.228  98.248  98.248  98.310  98.310  98.349 111.638 111.638
111.663 111.663 111.707 111.707 111.814 114.683 114.683 114.973
114.973 115.495 122.521 156.226 156.226 156.790 156.790 157.502
166.648 224.565 224.565 225.385 308.678 308.678 310.197 508.474
686.872
 --------------------------------------------------------------
 
          Ground-State Mulliken Net Atomic Charges

     Atom                 Charge (a.u.)
  ----------------------------------------
      1 C                    -0.069606
      2 N                    -0.166581
      3 H                     0.236187
  ----------------------------------------
  Sum of atomic charges =     0.000000

 -----------------------------------------------------------------
                    Cartesian Multipole Moments
 -----------------------------------------------------------------
    Charge (ESU x 10^10)
                 0.0000
    Dipole Moment (Debye)
         X       0.0000      Y      -0.0000      Z       2.9156
       Tot       2.9156
    Quadrupole Moments (Debye-Ang)
        XX     -12.1156     XY       0.0000     YY     -12.1087
        XZ      -0.0000     YZ       0.0000     ZZ     -10.3086
    Octopole Moments (Debye-Ang^2)
       XXX       0.0000    XXY      -0.0000    XYY       0.0000
       YYY      -0.0000    XXZ       1.4113    XYZ       0.0000
       YYZ       1.4086    XZZ       0.0000    YZZ       0.0000
       ZZZ      14.5407
    Hexadecapole Moments (Debye-Ang^3)
      XXXX     -12.8636   XXXY       0.0000   XXYY      -4.2835
      XYYY       0.0000   YYYY     -12.8372   XXXZ       0.0000
      XXYZ      -0.0000   XYYZ      -0.0000   YYYZ      -0.0000
      XXZZ      -9.9339   XYZZ       0.0000   YYZZ      -9.9255
      XZZZ      -0.0000   YZZZ       0.0000   ZZZZ     -42.2058
 -----------------------------------------------------------------
Archival summary:
1\1\n0033.mhg0\SP\ProcedureUnspecified\BasisUnspecified\111\yhljason\SatSep2603:28:122020SatSep2603:28:122020\0\\#,ProcedureUnspecified,BasisUnspecified,\\0,1\N\H,1,0.9862\C,1,1.1726,2,180\\\@

 Total job time:  342.15s(wall), 2691.10s(cpu) 
 Sat Sep 26 03:28:12 2020

        *************************************************************
        *                                                           *
        *  Thank you very much for using Q-Chem.  Have a nice day.  *
        *                                                           *
        *************************************************************


 
User input: 6 of 7 
 
Q-Chem Developer Version!
                  Welcome to Q-Chem
     A Quantum Leap Into The Future Of Chemistry


 Q-Chem 5.1, Q-Chem, Inc., Pleasanton, CA (2018)

 Yihan Shao,  Zhengting Gan,  E. Epifanovsky,  A. T. B. Gilbert,  M. Wormit,  
 J. Kussmann,  A. W. Lange,  A. Behn,  Jia Deng,  Xintian Feng,  D. Ghosh,  
 M. Goldey,  P. R. Horn,  L. D. Jacobson,  I. Kaliman,  T. Kus,  A. Landau,  
 Jie Liu,  E. I. Proynov,  R. M. Richard,  R. P. Steele,  E. J. Sundstrom,  
 H. L. Woodcock III,  P. M. Zimmerman,  D. Zuev,  B. Albrecht,  E. Alguire,  
 S. A. Baeppler,  D. Barton,  Z. Benda,  Y. A. Bernard,  E. J. Berquist,  
 K. B. Bravaya,  H. Burton,  D. Casanova,  Chun-Min Chang,  Yunqing Chen,  
 A. Chien,  K. D. Closser,  M. P. Coons,  S. Coriani,  S. Dasgupta,  
 A. L. Dempwolff,  M. Diedenhofen,  Hainam Do,  R. G. Edgar,  Po-Tung Fang,  
 S. Faraji,  S. Fatehi,  Qingguo Feng,  K. D. Fenk,  J. Fosso-Tande,  
[...]
 
                    Orbital Energies (a.u.)
 --------------------------------------------------------------
 
 Alpha MOs
 -- Occupied --
-15.104 -10.869  -1.147  -0.803  -0.472  -0.472  -0.430
 -- Virtual --
  0.008   0.061   0.061   0.061   0.084   0.084   0.089   0.093
  0.128   0.128   0.192   0.215   0.215   0.225   0.229   0.229
  0.260   0.307   0.316   0.316   0.344   0.344   0.359   0.359
  0.388   0.440   0.505   0.554   0.554   0.627   0.627   0.655
  0.655   0.673   0.700   0.729   0.729   0.734   0.734   0.746
  0.746   0.815   0.853   0.853   0.863   0.863   0.881   0.916
  0.928   0.928   1.058   1.058   1.110   1.204   1.237   1.237
  1.254   1.254   1.445   1.445   1.455   1.455   1.481   1.611
  1.611   1.667   1.667   1.675   1.731   1.745   1.745   1.849
  1.849   1.859   1.859   1.916   2.027   2.064   2.064   2.092
  2.092   2.149   2.200   2.200   2.302   2.302   2.365   2.365
  2.380   2.380   2.464   2.468   2.468   2.525   2.730   2.730
  2.747   2.750   2.750   2.855   2.855   2.876   2.876   2.900
  2.900   2.901   3.112   3.112   3.126   3.126   3.363   3.363
  3.389   3.468   3.468   3.620   3.620   3.708   3.988   4.184
  4.184   4.361   4.361   4.372   4.488   4.488   4.562   4.562
  4.852   5.088   5.183   5.183   5.491   5.820   5.820   5.828
  5.828   6.010   6.010   6.146   6.146   6.190   6.190   6.248
  6.357   6.357   6.504   6.504   6.628   6.628   6.931   7.072
  7.072   7.080   7.080   7.290   7.569   7.569   7.720   7.720
  7.720   7.915   7.915   7.960   8.086   8.086   8.140   8.140
  8.397   8.397   8.494   8.494   8.516   8.516   8.634   8.775
  9.031   9.031   9.448   9.448   9.470   9.470   9.636   9.636
  9.793  10.131  10.187  10.187  10.324  10.324  11.126  11.126
 11.324  11.696  13.201  13.201  14.045  14.390  16.723  19.367
 19.367  20.563  26.428  26.428  26.514  26.514  27.004  27.004
 27.990  28.941  36.620  36.780  36.780  37.821  37.821  39.311
 50.516  66.550  66.550  67.543  91.546  91.546  93.364  98.227
 98.227  98.247  98.247  98.309  98.309  98.348 111.638 111.638
111.662 111.662 111.706 111.706 111.813 114.682 114.682 114.973
114.973 115.494 122.520 156.225 156.225 156.789 156.789 157.501
166.647 224.565 224.565 225.384 308.677 308.677 310.196 508.473
686.871
 --------------------------------------------------------------
 
          Ground-State Mulliken Net Atomic Charges

     Atom                 Charge (a.u.)
  ----------------------------------------
      1 C                    -0.069662
      2 N                    -0.166369
      3 H                     0.236032
  ----------------------------------------
  Sum of atomic charges =    -0.000000

 -----------------------------------------------------------------
                    Cartesian Multipole Moments
 -----------------------------------------------------------------
    Charge (ESU x 10^10)
                -0.0000
    Dipole Moment (Debye)
         X       0.0000      Y      -0.0000      Z       2.9190
       Tot       2.9190
    Quadrupole Moments (Debye-Ang)
        XX     -12.1176     XY      -0.0000     YY     -12.1176
        XZ      -0.0000     YZ      -0.0000     ZZ     -10.3337
    Octopole Moments (Debye-Ang^2)
       XXX       0.0000    XXY      -0.0000    XYY       0.0000
       YYY      -0.0000    XXZ       1.4148    XYZ       0.0000
       YYZ       1.4148    XZZ       0.0000    YZZ      -0.0000
       ZZZ      14.5707
    Hexadecapole Moments (Debye-Ang^3)
      XXXX     -12.8721   XXXY      -0.0000   XXYY      -4.2907
      XYYY      -0.0000   YYYY     -12.8721   XXXZ      -0.0000
      XXYZ      -0.0000   XYYZ      -0.0000   YYYZ      -0.0000
      XXZZ      -9.9519   XYZZ      -0.0000   YYZZ      -9.9519
      XZZZ      -0.0000   YZZZ      -0.0000   ZZZZ     -42.3624
 -----------------------------------------------------------------
Archival summary:
1\1\n0033.mhg0\SP\ProcedureUnspecified\BasisUnspecified\111\yhljason\SatSep2603:34:342020SatSep2603:34:342020\0\\#,ProcedureUnspecified,BasisUnspecified,\\0,1\N\H,1,0.9862\C,1,1.1726,2,180\\\@

 Total job time:  381.58s(wall), 3016.63s(cpu) 
 Sat Sep 26 03:34:34 2020

        *************************************************************
        *                                                           *
        *  Thank you very much for using Q-Chem.  Have a nice day.  *
        *                                                           *
        *************************************************************


 
User input: 7 of 7 
 
Q-Chem Developer Version!
                  Welcome to Q-Chem
     A Quantum Leap Into The Future Of Chemistry


 Q-Chem 5.1, Q-Chem, Inc., Pleasanton, CA (2018)

 Yihan Shao,  Zhengting Gan,  E. Epifanovsky,  A. T. B. Gilbert,  M. Wormit,  
 J. Kussmann,  A. W. Lange,  A. Behn,  Jia Deng,  Xintian Feng,  D. Ghosh,  
 M. Goldey,  P. R. Horn,  L. D. Jacobson,  I. Kaliman,  T. Kus,  A. Landau,  
 Jie Liu,  E. I. Proynov,  R. M. Richard,  R. P. Steele,  E. J. Sundstrom,  
 H. L. Woodcock III,  P. M. Zimmerman,  D. Zuev,  B. Albrecht,  E. Alguire,  
 S. A. Baeppler,  D. Barton,  Z. Benda,  Y. A. Bernard,  E. J. Berquist,  
 K. B. Bravaya,  H. Burton,  D. Casanova,  Chun-Min Chang,  Yunqing Chen,  
 A. Chien,  K. D. Closser,  M. P. Coons,  S. Coriani,  S. Dasgupta,  
 A. L. Dempwolff,  M. Diedenhofen,  Hainam Do,  R. G. Edgar,  Po-Tung Fang,  
 S. Faraji,  S. Fatehi,  Qingguo Feng,  K. D. Fenk,  J. Fosso-Tande,  
 Qinghui Ge,  A. Ghysels,  G. Gidofalvi,  J. Gomes,  J. Gonthier,  A. Gunina,  
 D. Hait,  M. W. D. Hanson-Heine,  P. H. P. Harbach,  A. W. Hauser,  
 J. E. Herr,  E. G. Hohenstein,  Z. C. Holden,  Kerwin Hui,  B. C. Huynh,  
 T.-C. Jagau,  Hyunjun Ji,  B. Kaduk,  K. Khistyaev,  Jaehoon Kim,  
 P. Klunzinger,  K. Koh,  D. Kosenkov,  L. Koulias,  T. Kowalczyk,  
 C. M. Krauter,  A. Kunitsa,  Ka Un Lao,  A. Laurent,  K. V. Lawler,  
 Joonho Lee,  D. Lefrancois,  S. Lehtola,  D. S. Levine,  Yi-Pei Li,  
 You-Sheng Lin,  Fenglai Liu,  E. Livshits,  A. Luenser,  P. Manohar,  
 E. Mansoor,  S. F. Manzer,  Shan-Ping Mao,  Yuezhi Mao,  N. Mardirossian,  
 A. V. Marenich,  T. Markovich,  L. A. Martinez-Martinez,  S. A. Maurer,  
 N. J. Mayhall,  S. C. McKenzie,  J.-M. Mewes,  A. F. Morrison,  
 J. W. Mullinax,  K. Nanda,  T. S. Nguyen-Beck,  R. Olivares-Amaya,  
 J. A. Parkhill,  T. M. Perrine,  F. Plasser,  P. Pokhilko,  S. Prager,  
 A. Prociuk,  E. Ramos,  D. R. Rehn,  F. Rob,  M. Schneider,  N. Sergueev,  
 S. M. Sharada,  S. Sharma,  D. W. Small,  T. Stauch,  T. Stein,  
 Yu-Chuan Su,  A. J. W. Thom,  A. Tkatchenko,  T. Tsuchimochi,  N. M. Tubman,  
 L. Vogt,  M. L. Vidal,  O. Vydrov,  M. A. Watson,  J. Wenzel,  
 M. de Wergifosse,  T. A. Wesolowski,  A. White,  J. Witte,  A. Yamada,  
 Jun Yang,  K. Yao,  S. Yeganeh,  S. R. Yost,  Zhi-Qiang You,  A. Zech,  
 Igor Ying Zhang,  Xing Zhang,  Yan Zhao,  Ying Zhu,  B. R. Brooks,  
 G. K. L. Chan,  C. J. Cramer,  M. S. Gordon,  W. J. Hehre,  A. Klamt,  
 M. W. Schmidt,  C. D. Sherrill,  D. G. Truhlar,  A. Aspuru-Guzik,  R. Baer,  
 A. T. Bell,  N. A. Besley,  Jeng-Da Chai,  A. E. DePrince, III,  
 R. A. DiStasio Jr.,  A. Dreuw,  B. D. Dunietz,  T. R. Furlani,  
 Chao-Ping Hsu,  Yousung Jung,  Jing Kong,  D. S. Lambrecht,  WanZhen Liang,  
 C. Ochsenfeld,  V. A. Rassolov,  L. V. Slipchenko,  J. E. Subotnik,  
 T. Van Voorhis,  J. M. Herbert,  A. I. Krylov,  P. M. W. Gill,  M. Head-Gordon

 Contributors to earlier versions of Q-Chem not listed above: 
 R. D. Adamson,  B. Austin,  J. Baker,  G. J. O. Beran,  K. Brandhorst,  
 S. T. Brown,  E. F. C. Byrd,  A. K. Chakraborty,  C.-L. Cheng,  
 Siu Hung Chien,  D. M. Chipman,  D. L. Crittenden,  H. Dachsel,  
 R. J. Doerksen,  A. D. Dutoi,  L. Fusti-Molnar,  W. A. Goddard III,  
 A. Golubeva-Zadorozhnaya,  S. R. Gwaltney,  G. Hawkins,  A. Heyden,  
 S. Hirata,  G. Kedziora,  F. J. Keil,  C. Kelley,  Jihan Kim,  R. A. King,  
 R. Z. Khaliullin,  P. P. Korambath,  W. Kurlancheek,  A. M. Lee,  M. S. Lee,  
 S. V. Levchenko,  Ching Yeh Lin,  D. Liotard,  R. C. Lochan,  I. Lotan,  
 P. E. Maslen,  N. Nair,  D. P. O'Neill,  D. Neuhauser,  E. Neuscamman,  
 C. M. Oana,  R. Olson,  B. Peters,  R. Peverati,  P. A. Pieniazek,  
 Y. M. Rhee,  J. Ritchie,  M. A. Rohrdanz,  E. Rosta,  N. J. Russ,  
 H. F. Schaefer III,  N. E. Schultz,  N. Shenvi,  A. C. Simmonett,  A. Sodt,  
 D. Stuck,  K. S. Thanthiriwatte,  V. Vanovschi,  Tao Wang,  A. Warshel,  
 C. F. Williams,  Q. Wu,  X. Xu,  W. Zhang

 Please cite Q-Chem as follows:
 Y. Shao et al., Mol. Phys. 113, 184-215 (2015)
 DOI: 10.1080/00268976.2014.952696

 Q-Chem 5.1.1 for Intel X86 EM64T Linux

 Parts of Q-Chem use Armadillo 8.300.2 (Tropical Shenanigans).
 http://arma.sourceforge.net/

 Q-Chem begins on Sat Sep 26 03:34:34 2020  

Host: n0033.mhg0
0

     Scratch files written to /local/scratch/users/yhljason/HNC_DSD-PBEPBE-D3_aug-cc-pcVQZ.inp20200926022628//
The previous job contains 0 fragments, simply inherited here
Input Ideriv = 0
Curr. Ideriv = -1
Max.  Ideriv = 0
Analytic post-HF gradients are not available with non-HF exchange
Input Ideriv = 0
Curr. Ideriv = 0
Max.  Ideriv = 0

Checking the input file for inconsistencies... 	...done.

--------------------------------------------------------------
User input:
--------------------------------------------------------------
$molecule
read
$end

$rem

jobtype sp
method DSD-PBEPBE-D3
xc_grid 000099000590
basis aug-cc-pcVQZ
max_scf_cycles 200
thresh 14
scf_convergence 8
mem_total 128000
cc_memory 96000
cc_backend xm
mem_static 1500
symmetry false
sym_ignore true
scf_guess read
unrestricted false
scf_algorithm gdm
n_frozen_core 0
$end

$multipole_field
ZZ -0.0001
$end

--------------------------------------------------------------
 Adding empirical dispersion correction 
 ----------------------------------------------------------------
 Doing -D3(BJ) with
 s6 =   0.78000
 s8 =   0.00000
 a1 =   0.00000
 a2 =   6.10000
 -D3 energy without 3body term =     -0.0007086565 hartrees
 ----------------------------------------------------------------
             Standard Nuclear Orientation (Angstroms)
    I     Atom           X                Y                Z
 ----------------------------------------------------------------
    1      C       0.0000000000     0.0000000000    -0.7405000000
    2      N       0.0000000000     0.0000000000     0.4321000000
    3      H       0.0000000000     0.0000000000     1.4183000000
 ----------------------------------------------------------------
 Nuclear Repulsion Energy =    24.1801044629 hartrees
 There are        7 alpha and        7 beta electrons
 Requested basis set is aug-cc-pCVQZ
 There are 72 shells and 264 basis functions

 Total QAlloc Memory Limit 128000 MB
 Mega-Array Size      1467 MB
 MEM_STATIC part      1500 MB

                       Distance Matrix (Angstroms)
             C (  1)   N (  2)
   N (  2)  1.172600
   H (  3)  2.158800  0.986200
 
 Applying Cartesian multipole field
    Component          Value
    ---------          -----
     (0,0,2)       -1.00000E-04
 Nucleus-field energy     =    -0.0023599701 hartrees
 A cutoff of  1.0D-14 yielded   2578 shell pairs
 There are     35084 function pairs (     56122 Cartesian)
 
 -------------------------------------------------------
 OpenMP Integral Computing Module                       
 Release: version 1.0, May 2013, Q-Chem Inc. Pittsburgh 
 -------------------------------------------------------
 Integral Job Info:
 Integral job number is                      11
 Integral operator is                         1
 short-range coefficients                     0
 long-range coefficients              100000000
 Omega coefficients                           0
 if combine SR and LR in K                    0
 Integral screening is                        0
 Integral computing path is                   2
 max size of driver memory is           3200000
 size of driver memory is               1704330
 size of scratch memory is             18511652
 max col of scratch BK array              50625
 max len of scratch array in speh3         2114
 max len of scratch index in speh4           50
 max int batch size is                      520
 min int batch size is                       52
 fixed nKL is                                52
 max L of basis functions is                  4
 order of int derivative is                   0
 number of shells is                         72
 number of basis is                         333
 number of cartesian basis is               333
 number of contracted shell pairs          2578
 number of primitive shell pairs           5550
 maxK2 (contraction) of shell pair           81
 max number of K2 of shell pair               1
 max number of CS2 of shell pair            316
 max number of PS2 of shell pair            549
 mem total for path MDJ                  693712
 -------------------------------------------------------
 Smallest overlap matrix eigenvalue = 2.12E-05
 Guess MOs from SCF MO coefficient file

 -----------------------------------------------------------------------
  General SCF calculation program by
  Eric Jon Sundstrom, Paul Horn, Yuezhi Mao, Dmitri Zuev, Alec White,
  David Stuck, Shaama M.S., Shane Yost, Joonho Lee, David Small,
  Daniel Levine, Susi Lehtola, Hugh Burton, Evgeny Epifanovsky
 -----------------------------------------------------------------------
 Exchange:     0.6800 Hartree-Fock + 0.3200 PBE
 Correlation:  0.4900 PBE
 Using Euler-Maclaurin-Lebedev (99,590) quadrature formula
 Dispersion:   Grimme D3
 using 8 threads for integral computing
 -------------------------------------------------------
 OpenMP Integral computing Module                
 Release: version 2.0, May 2017, Q-Chem Inc. Pleasanton 
 -------------------------------------------------------
 -------------------------------------------------------
 OpenMP BLAS3 based DFT computing Module                
 Release: version 1.0, May 2013, Q-Chem Inc. Pittsburgh 
 -------------------------------------------------------
 A restricted SCF calculation will be
 performed using GDM
 SCF converges when RMS gradient is below 1.0e-08
 ---------------------------------------
  Cycle       Energy        RMS Gradient
 ---------------------------------------
    1     -93.1077743957      5.95e-04   Normal BFGS step
    2     -93.1077777065      1.92e-04   Normal BFGS step
    3     -93.1077780180      8.39e-05   Normal BFGS step
    4     -93.1077780696      4.91e-05   Normal BFGS step
    5     -93.1077780841      6.23e-06   Normal BFGS step
    6     -93.1077780848      7.67e-07   Normal BFGS step
    7     -93.1077780848      1.19e-07   Normal BFGS step
    8     -93.1077780848      1.77e-08   Normal BFGS step
    9     -93.1077780848      1.60e-09  Convergence criterion met
 ---------------------------------------
 SCF time:   CPU 1178.70s  wall 149.00s 
 SCF   energy in the final basis set =      -93.1077780848
 Total energy in the final basis set =      -93.1077780848
 
 Components of the MP2 correlation energy:
        aaaa  correlation energy =        -0.0070520193 au
        abab  correlation energy =        -0.2259770832 au
        bbbb  correlation energy =        -0.0070520193 au
        non-Brillouin singles    =        -0.0000000000 au

 Total  MP2   correlation energy =                    -0.24008112 au
        MP2         total energy =                   -93.34785921 au
 
 --------------------------------------------------------------
 
                    Orbital Energies (a.u.)
 --------------------------------------------------------------
 
 Alpha MOs
 -- Occupied --
-15.103 -10.867  -1.146  -0.802  -0.471  -0.471  -0.429
 -- Virtual --
  0.016   0.064   0.064   0.071   0.087   0.087   0.094   0.101
  0.131   0.131   0.198   0.217   0.217   0.231   0.233   0.233
  0.266   0.313   0.320   0.320   0.347   0.347   0.360   0.360
  0.392   0.445   0.509   0.556   0.556   0.630   0.630   0.658
  0.658   0.677   0.704   0.730   0.730   0.736   0.736   0.748
  0.748   0.818   0.854   0.854   0.866   0.866   0.884   0.919
  0.930   0.930   1.059   1.059   1.112   1.207   1.239   1.239
  1.256   1.256   1.447   1.447   1.457   1.457   1.484   1.613
  1.613   1.668   1.668   1.678   1.733   1.747   1.747   1.851
  1.851   1.861   1.861   1.919   2.029   2.064   2.064   2.093
  2.093   2.150   2.201   2.201   2.304   2.304   2.366   2.366
  2.382   2.382   2.466   2.470   2.470   2.527   2.732   2.732
  2.750   2.751   2.751   2.856   2.856   2.878   2.878   2.901
  2.901   2.902   3.113   3.113   3.127   3.127   3.364   3.364
  3.391   3.470   3.470   3.621   3.621   3.710   3.990   4.186
  4.186   4.362   4.362   4.373   4.489   4.489   4.563   4.563
  4.854   5.089   5.185   5.185   5.492   5.821   5.821   5.828
  5.828   6.011   6.011   6.148   6.148   6.191   6.191   6.249
  6.358   6.358   6.505   6.505   6.630   6.630   6.932   7.073
  7.073   7.081   7.081   7.291   7.570   7.570   7.721   7.722
  7.722   7.916   7.916   7.961   8.087   8.087   8.141   8.141
  8.399   8.399   8.495   8.495   8.517   8.517   8.635   8.777
  9.032   9.032   9.449   9.449   9.471   9.471   9.637   9.637
  9.794  10.133  10.188  10.188  10.325  10.325  11.127  11.127
 11.325  11.697  13.202  13.202  14.046  14.391  16.724  19.368
 19.368  20.564  26.429  26.429  26.515  26.515  27.005  27.005
 27.991  28.942  36.621  36.781  36.781  37.822  37.822  39.312
 50.517  66.551  66.551  67.544  91.547  91.547  93.365  98.228
 98.228  98.248  98.248  98.310  98.310  98.349 111.639 111.639
111.663 111.663 111.707 111.707 111.814 114.683 114.683 114.974
114.974 115.496 122.521 156.226 156.226 156.790 156.790 157.502
166.648 224.566 224.566 225.386 308.678 308.678 310.197 508.474
686.872
 --------------------------------------------------------------
 
          Ground-State Mulliken Net Atomic Charges

     Atom                 Charge (a.u.)
  ----------------------------------------
      1 C                    -0.071733
      2 N                    -0.164749
      3 H                     0.236482
  ----------------------------------------
  Sum of atomic charges =     0.000000

 -----------------------------------------------------------------
                    Cartesian Multipole Moments
 -----------------------------------------------------------------
    Charge (ESU x 10^10)
                 0.0000
    Dipole Moment (Debye)
         X      -0.0000      Y       0.0000      Z       2.9132
       Tot       2.9132
    Quadrupole Moments (Debye-Ang)
        XX     -12.1169     XY      -0.0000     YY     -12.1169
        XZ      -0.0000     YZ       0.0000     ZZ     -10.2842
    Octopole Moments (Debye-Ang^2)
       XXX      -0.0000    XXY       0.0000    XYY      -0.0000
       YYY       0.0000    XXZ       1.4086    XYZ       0.0000
       YYZ       1.4086    XZZ      -0.0000    YZZ       0.0000
       ZZZ      14.5153
    Hexadecapole Moments (Debye-Ang^3)
      XXXX     -12.8687   XXXY      -0.0000   XXYY      -4.2896
      XYYY      -0.0000   YYYY     -12.8687   XXXZ      -0.0000
      XXYZ      -0.0000   XYYZ      -0.0000   YYYZ      -0.0000
      XXZZ      -9.9209   XYZZ      -0.0000   YYZZ      -9.9209
      XZZZ      -0.0000   YZZZ      -0.0000   ZZZZ     -42.0611
 -----------------------------------------------------------------
Archival summary:
1\1\n0033.mhg0\SP\ProcedureUnspecified\BasisUnspecified\111\yhljason\SatSep2603:40:102020SatSep2603:40:102020\0\\#,ProcedureUnspecified,BasisUnspecified,\\0,1\N\H,1,0.9862\C,1,1.1726,2,180\\\@

 Total job time:  336.30s(wall), 2657.62s(cpu) 
 Sat Sep 26 03:40:10 2020

        *************************************************************
        *                                                           *
        *  Thank you very much for using Q-Chem.  Have a nice day.  *
        *                                                           *
        *************************************************************


