Q-Chem Developer Version!
                  Welcome to Q-Chem
     A Quantum Leap Into The Future Of Chemistry


 Q-Chem 5.1, Q-Chem, Inc., Pleasanton, CA (2018)

 Yihan Shao,  Zhengting Gan,  E. Epifanovsky,  A. T. B. Gilbert,  M. Wormit,  
 J. Kussmann,  A. W. Lange,  A. Behn,  Jia Deng,  Xintian Feng,  D. Ghosh,  
 M. Goldey,  P. R. Horn,  L. D. Jacobson,  I. Kaliman,  T. Kus,  A. Landau,  
 Jie Liu,  E. I. Proynov,  R. M. Richard,  R. P. Steele,  E. J. Sundstrom,  
 H. L. Woodcock III,  P. M. Zimmerman,  D. Zuev,  B. Albrecht,  E. Alguire,  
 S. A. Baeppler,  D. Barton,  Z. Benda,  Y. A. Bernard,  E. J. Berquist,  
 K. B. Bravaya,  H. Burton,  D. Casanova,  Chun-Min Chang,  Yunqing Chen,  
 A. Chien,  K. D. Closser,  M. P. Coons,  S. Coriani,  S. Dasgupta,  
 A. L. Dempwolff,  M. Diedenhofen,  Hainam Do,  R. G. Edgar,  Po-Tung Fang,  
 S. Faraji,  S. Fatehi,  Qingguo Feng,  K. D. Fenk,  J. Fosso-Tande,  
 Qinghui Ge,  A. Ghysels,  G. Gidofalvi,  J. Gomes,  J. Gonthier,  A. Gunina,  
 D. Hait,  M. W. D. Hanson-Heine,  P. H. P. Harbach,  A. W. Hauser,  
 J. E. Herr,  E. G. Hohenstein,  Z. C. Holden,  Kerwin Hui,  B. C. Huynh,  
 T.-C. Jagau,  Hyunjun Ji,  B. Kaduk,  K. Khistyaev,  Jaehoon Kim,  
 P. Klunzinger,  K. Koh,  D. Kosenkov,  L. Koulias,  T. Kowalczyk,  
 C. M. Krauter,  A. Kunitsa,  Ka Un Lao,  A. Laurent,  K. V. Lawler,  
 Joonho Lee,  D. Lefrancois,  S. Lehtola,  D. S. Levine,  Yi-Pei Li,  
 You-Sheng Lin,  Fenglai Liu,  E. Livshits,  A. Luenser,  P. Manohar,  
 E. Mansoor,  S. F. Manzer,  Shan-Ping Mao,  Yuezhi Mao,  N. Mardirossian,  
 A. V. Marenich,  T. Markovich,  L. A. Martinez-Martinez,  S. A. Maurer,  
 N. J. Mayhall,  S. C. McKenzie,  J.-M. Mewes,  A. F. Morrison,  
 J. W. Mullinax,  K. Nanda,  T. S. Nguyen-Beck,  R. Olivares-Amaya,  
 J. A. Parkhill,  T. M. Perrine,  F. Plasser,  P. Pokhilko,  S. Prager,  
 A. Prociuk,  E. Ramos,  D. R. Rehn,  F. Rob,  M. Schneider,  N. Sergueev,  
 S. M. Sharada,  S. Sharma,  D. W. Small,  T. Stauch,  T. Stein,  
 Yu-Chuan Su,  A. J. W. Thom,  A. Tkatchenko,  T. Tsuchimochi,  N. M. Tubman,  
 L. Vogt,  M. L. Vidal,  O. Vydrov,  M. A. Watson,  J. Wenzel,  
 M. de Wergifosse,  T. A. Wesolowski,  A. White,  J. Witte,  A. Yamada,  
 Jun Yang,  K. Yao,  S. Yeganeh,  S. R. Yost,  Zhi-Qiang You,  A. Zech,  
 Igor Ying Zhang,  Xing Zhang,  Yan Zhao,  Ying Zhu,  B. R. Brooks,  
 G. K. L. Chan,  C. J. Cramer,  M. S. Gordon,  W. J. Hehre,  A. Klamt,  
 M. W. Schmidt,  C. D. Sherrill,  D. G. Truhlar,  A. Aspuru-Guzik,  R. Baer,  
 A. T. Bell,  N. A. Besley,  Jeng-Da Chai,  A. E. DePrince, III,  
 R. A. DiStasio Jr.,  A. Dreuw,  B. D. Dunietz,  T. R. Furlani,  
 Chao-Ping Hsu,  Yousung Jung,  Jing Kong,  D. S. Lambrecht,  WanZhen Liang,  
 C. Ochsenfeld,  V. A. Rassolov,  L. V. Slipchenko,  J. E. Subotnik,  
 T. Van Voorhis,  J. M. Herbert,  A. I. Krylov,  P. M. W. Gill,  M. Head-Gordon

 Contributors to earlier versions of Q-Chem not listed above: 
 R. D. Adamson,  B. Austin,  J. Baker,  G. J. O. Beran,  K. Brandhorst,  
 S. T. Brown,  E. F. C. Byrd,  A. K. Chakraborty,  C.-L. Cheng,  
 Siu Hung Chien,  D. M. Chipman,  D. L. Crittenden,  H. Dachsel,  
 R. J. Doerksen,  A. D. Dutoi,  L. Fusti-Molnar,  W. A. Goddard III,  
 A. Golubeva-Zadorozhnaya,  S. R. Gwaltney,  G. Hawkins,  A. Heyden,  
 S. Hirata,  G. Kedziora,  F. J. Keil,  C. Kelley,  Jihan Kim,  R. A. King,  
 R. Z. Khaliullin,  P. P. Korambath,  W. Kurlancheek,  A. M. Lee,  M. S. Lee,  
 S. V. Levchenko,  Ching Yeh Lin,  D. Liotard,  R. C. Lochan,  I. Lotan,  
 P. E. Maslen,  N. Nair,  D. P. O'Neill,  D. Neuhauser,  E. Neuscamman,  
 C. M. Oana,  R. Olson,  B. Peters,  R. Peverati,  P. A. Pieniazek,  
 Y. M. Rhee,  J. Ritchie,  M. A. Rohrdanz,  E. Rosta,  N. J. Russ,  
 H. F. Schaefer III,  N. E. Schultz,  N. Shenvi,  A. C. Simmonett,  A. Sodt,  
 D. Stuck,  K. S. Thanthiriwatte,  V. Vanovschi,  Tao Wang,  A. Warshel,  
 C. F. Williams,  Q. Wu,  X. Xu,  W. Zhang

 Please cite Q-Chem as follows:
 Y. Shao et al., Mol. Phys. 113, 184-215 (2015)
 DOI: 10.1080/00268976.2014.952696

 Q-Chem 5.1.1 for Intel X86 EM64T Linux

 Parts of Q-Chem use Armadillo 8.300.2 (Tropical Shenanigans).
 http://arma.sourceforge.net/

 Q-Chem begins on Mon Sep 28 08:35:57 2020  

Host: n0065.mhg0
0

     Scratch files written to /local/scratch/users/yhljason/SiH3_DSD-PBEPBE-D3_aug-cc-pcVQZ.inp20200928025505//
Input Ideriv = 0
Curr. Ideriv = -1
Max.  Ideriv = 0
Input Ideriv = 1
Curr. Ideriv = 0
Max.  Ideriv = 0

Checking the input file for inconsistencies... 	...done.

--------------------------------------------------------------
User input:
--------------------------------------------------------------
$molecule
0 2
Si1   0.0000   0.0000   0.0819
H2 0.0000   1.3928   -0.3820
H3 1.2062   -0.6964  -0.3820
H4 -1.2062  -0.6964  -0.3820
$end

$rem
jobtype sp
method DSD-PBEPBE-D3
xc_grid 000099000590
basis aug-cc-pcVQZ
max_scf_cycles 200
thresh 14
scf_convergence 8
scf_algorithm gdm
symmetry false
sym_ignore true
unrestricted false
gen_scfman true
internal_stability_iter 15
internal_stability_davidson_iter 200
mem_total 128000
cc_memory 96000
cc_backend xm
mem_static 1500
n_frozen_core 0
$end


--------------------------------------------------------------
 Adding empirical dispersion correction 
 ----------------------------------------------------------------
 Doing -D3(BJ) with
 s6 =   0.78000
 s8 =   0.00000
 a1 =   0.00000
 a2 =   6.10000
 -D3 energy without 3body term =     -0.0012555667 hartrees
 ----------------------------------------------------------------
             Standard Nuclear Orientation (Angstroms)
    I     Atom           X                Y                Z
 ----------------------------------------------------------------
    1      Si      0.0000000000     0.0000000000     0.0819000000
    2      H       0.0000000000     1.3928000000    -0.3820000000
    3      H       1.2062000000    -0.6964000000    -0.3820000000
    4      H      -1.2062000000    -0.6964000000    -0.3820000000
 ----------------------------------------------------------------
 Nuclear Repulsion Energy =    15.7965147676 hartrees
 There are        9 alpha and        8 beta electrons
 Requested basis set is aug-cc-pCVQZ
 There are 76 shells and 272 basis functions

 Total QAlloc Memory Limit 128000 MB
 Mega-Array Size      1467 MB
 MEM_STATIC part      1500 MB

                       Distance Matrix (Angstroms)
             Si(  1)   H (  2)   H (  3)
   H (  2)  1.468024
   H (  3)  1.468024  2.412400
   H (  4)  1.468024  2.412400  2.412400
 
 A cutoff of  1.0D-14 yielded   2926 shell pairs
 There are     37690 function pairs (     58743 Cartesian)
 
 -------------------------------------------------------
 OpenMP Integral Computing Module                       
 Release: version 1.0, May 2013, Q-Chem Inc. Pittsburgh 
 -------------------------------------------------------
 Integral Job Info:
 Integral job number is                      11
 Integral operator is                         1
 short-range coefficients                     0
 long-range coefficients              100000000
 Omega coefficients                           0
 if combine SR and LR in K                    0
 Integral screening is                        0
 Integral computing path is                   2
 max size of driver memory is           3200000
 size of driver memory is               1704330
 size of scratch memory is             29435624
 max col of scratch BK array              50625
 max len of scratch array in speh3         2114
 max len of scratch index in speh4           50
 max int batch size is                      520
 min int batch size is                       52
 fixed nKL is                                22
 max L of basis functions is                  4
 order of int derivative is                   0
 number of shells is                         76
 number of basis is                         339
 number of cartesian basis is               339
 number of contracted shell pairs          2926
 number of primitive shell pairs           8726
 maxK2 (contraction) of shell pair          169
 max number of K2 of shell pair               1
 max number of CS2 of shell pair            370
 max number of PS2 of shell pair           1014
 mem total for path MDJ                  695312
 -------------------------------------------------------
 Smallest overlap matrix eigenvalue = 3.18E-05

 Scale SEOQF with 1.000000e-01/1.000000e-01/1.000000e-01

 Standard Electronic Orientation quadrupole field applied
 Nucleus-field energy     =     0.0000000003 hartrees
 Guess from superposition of atomic densities
 Warning:  Energy on first SCF cycle will be non-variational
 SAD guess density has 17.000000 electrons

 -----------------------------------------------------------------------
  General SCF calculation program by
  Eric Jon Sundstrom, Paul Horn, Yuezhi Mao, Dmitri Zuev, Alec White,
  David Stuck, Shaama M.S., Shane Yost, Joonho Lee, David Small,
  Daniel Levine, Susi Lehtola, Hugh Burton, Evgeny Epifanovsky
 -----------------------------------------------------------------------
 Exchange:     0.6800 Hartree-Fock + 0.3200 PBE
 Correlation:  0.4900 PBE
 Using Euler-Maclaurin-Lebedev (99,590) quadrature formula
 Dispersion:   Grimme D3
Running Object-Oriented ROKS (ROHF)
ROHF occupied orbitals are orthonormal
ROHF occupied orbitals are orthogonal to virtual orbitals
ROHF virtual orbitals are orthonormal
We will preform up to 15 macro iterations over saddle points until a stable solution is found
Energy prior to optimization (guess energy) = -290.083650435990
Begin Timing: Total SCF Calculation
Begin Timing: SCF Single Stationary Point Calculation
begin iterations for algorithm: GDM          
the SCF tolerance is set to 1.00e-08
    1    -290.0836504360      6.20e-01     00000  Descent step
    2    -290.3225422549      3.79e-01     00000  Descent step
    3    -290.4512875732      1.47e-01     00000  Dog-leg BFGS step
    4    -290.5118265790      2.76e-01     00000  Dog-leg BFGS step
    5    -290.6367791280      6.65e-01     00000  Descent step
    6    -290.8387675302      3.70e-01     00000  Descent step
    7    -290.8627279294      2.11e-01     00000  Normal BFGS step
    8    -290.8813682437      2.21e-02     00000  Normal BFGS step
    9    -290.8817593701      1.99e-02     00000  Normal BFGS step
   10    -290.8822122191      3.06e-03     00000  Normal BFGS step
   11    -290.8822292637      9.03e-04     00000  Normal BFGS step
   12    -290.8822328669      1.58e-04     00000  Normal BFGS step
   13    -290.8822329571      4.18e-05     00000  Normal BFGS step
   14    -290.8822329657      6.58e-06     00000  Normal BFGS step
   15    -290.8822329660      2.81e-06     00000  Normal BFGS step
   16    -290.8822329661      9.91e-07     00000  Normal BFGS step
   17    -290.8822329661      1.82e-07     00000  Normal BFGS step
   18    -290.8822329661      1.33e-07     00000  Normal BFGS step
   19    -290.8822329661      8.35e-08     00000  Normal BFGS step
   20    -290.8822329661      2.62e-09     00000 Convergence criterion met
The disked orbital energies are calculated using alpha and beta Focks
Timing for Single Stationary Point: 614.00s (wall), 4855.13s (cpu)
Begin Timing: Stability
===================================================
Beginning Test for Internal Stability
===================================================
generating davidson guess vectors based on koopmans-like excitations
    1      2.58e-01     00000 Davidson Iteration
    2      1.13e-01     00000 Davidson Iteration
    3      2.38e-01     00000 Davidson Iteration
    4      1.55e-01     00000 Davidson Iteration
    5      9.40e-02     00000 Davidson Iteration
    6      4.07e-02     00000 Davidson Iteration
    7      1.18e-02     00000 Davidson Iteration
    8      2.86e-03     00000 Davidson Iteration
    9      1.31e-03     00000 Davidson Iteration
   10      5.39e-04     00000 Davidson Iteration
   11      2.22e-04     00000 Davidson Iteration
   12      3.03e-04     00000 Davidson Iteration
   13      1.77e-04     00000 Davidson Iteration
   14      3.25e-05     00000 Davidson Converged
converged_eigenvalues
   0.3942
   0.3942
Threshold for negative eigenvalues: -1.0e-05
solution was a local minimum (stable)
===================================================
End Test for Internal Stability
===================================================
Our SCF solution is stable!
The disked orbital energies are calculated using alpha and beta Focks
Timing for Total SCF: 1275.00s (wall), 10101.62s (cpu)
 Total energy in the final basis set =     -290.8822329661
<S^2> =          0.750000000
    ==================================================
              The end of Object-Oriented SCFman       
    ==================================================
 
 Components of the MP2 correlation energy:
        aaaa  correlation energy =        -0.0082502815 au
        abab  correlation energy =        -0.2267927382 au
        bbbb  correlation energy =        -0.0069071745 au
        non-Brillouin singles    =        -0.0009119264 au

 Total  MP2   correlation energy =                    -0.24286212 au
        MP2         total energy =                  -291.12509509 au
 
 --------------------------------------------------------------
 
                    Orbital Energies (a.u.)
 --------------------------------------------------------------
 
 Alpha MOs
 -- Occupied --
-67.701  -5.794  -4.003  -3.995  -3.995  -0.656  -0.446  -0.446
 -0.299
 -- Virtual --
  0.017   0.035   0.035   0.040   0.057   0.057   0.093   0.093
  0.086   0.100   0.099   0.099   0.173   0.173   0.177   0.173
  0.197   0.197   0.221   0.221   0.234   0.235   0.260   0.260
  0.288   0.297   0.297   0.338   0.355   0.355   0.363   0.389
  0.409   0.410   0.410   0.420   0.420   0.451   0.451   0.449
  0.565   0.589   0.628   0.628   0.659   0.659   0.671   0.671
  0.686   0.741   0.741   0.761   0.770   0.770   0.811   0.849
  0.849   0.837   0.869   0.868   0.868   0.909   0.909   0.982
  0.974   0.974   0.995   1.031   1.031   1.046   1.071   1.143
  1.143   1.139   1.165   1.165   1.183   1.198   1.271   1.271
  1.429   1.429   1.442   1.456   1.456   1.489   1.494   1.494
  1.634   1.634   1.634   1.695   1.766   1.766   1.817   1.848
  1.848   1.869   1.907   1.907   1.921   1.921   1.950   1.986
  2.008   2.008   2.061   2.061   2.085   2.106   2.132   2.132
  2.187   2.187   2.237   2.266   2.310   2.348   2.348   2.444
  2.444   2.450   2.477   2.494   2.494   2.567   2.567   2.628
  2.635   2.635   2.635   2.635   2.674   2.773   2.773   2.782
  2.779   2.954   2.954   3.030   3.037   3.080   3.080   3.313
  3.313   3.323   3.360   3.360   3.359   3.358   3.541   3.541
  3.827   3.827   3.844   3.900   3.900   4.020   4.040   4.040
  4.081   4.451   4.919   4.919   6.060   6.360   6.360   6.556
  6.556   6.558   6.577   6.577   6.603   6.639   6.691   6.691
  6.774   6.824   6.824   6.836   6.958   6.958   6.996   7.016
  7.016   7.282   7.300   7.300   7.539   7.719   7.719   7.992
  7.992   8.004   8.389   8.389   8.440   8.456   8.494   8.494
  8.538   8.538   8.602   8.670   8.720   8.720   9.035   9.035
  9.102   9.233   9.290   9.290   9.460   9.460   9.523   9.907
  9.907   9.933  11.885  12.455  12.455  13.830  13.948  13.948
 14.047  14.047  14.256  14.369  19.217  21.737  21.737  22.022
 22.396  22.396  32.805  33.262  33.262  38.738  38.740  38.740
 38.742  38.742  38.744  38.748  38.752  38.752  48.127  48.164
 48.164  48.233  48.233  48.323  48.369  55.651  64.342  64.342
 64.505  64.808  64.808 101.612 101.980 101.980 269.572
 
 Beta MOs
 -- Occupied --
-67.697  -5.787  -3.986  -3.992  -3.992  -0.625  -0.434  -0.434
 -- Virtual --
  0.001   0.020   0.037   0.037   0.046   0.059   0.059   0.096
  0.096   0.099   0.106   0.114   0.114   0.176   0.176   0.185
  0.188   0.202   0.202   0.232   0.232   0.236   0.253   0.272
  0.272   0.295   0.309   0.309   0.345   0.366   0.366   0.369
  0.409   0.413   0.416   0.416   0.433   0.433   0.454   0.454
  0.478   0.576   0.591   0.637   0.637   0.664   0.664   0.680
  0.680   0.692   0.753   0.753   0.767   0.781   0.781   0.818
  0.851   0.851   0.866   0.871   0.877   0.877   0.918   0.918
  0.986   0.992   0.992   1.005   1.052   1.052   1.067   1.094
  1.154   1.154   1.159   1.173   1.173   1.196   1.208   1.283
  1.283   1.439   1.439   1.448   1.465   1.465   1.501   1.501
  1.501   1.636   1.640   1.640   1.713   1.770   1.770   1.821
  1.852   1.852   1.879   1.912   1.912   1.926   1.926   1.956
  1.990   2.012   2.012   2.068   2.068   2.091   2.113   2.141
  2.141   2.193   2.193   2.245   2.269   2.330   2.366   2.366
  2.454   2.454   2.460   2.482   2.500   2.500   2.580   2.580
  2.639   2.642   2.642   2.648   2.648   2.684   2.784   2.784
  2.789   2.800   2.960   2.960   3.038   3.041   3.094   3.094
  3.323   3.323   3.339   3.364   3.364   3.365   3.367   3.547
  3.547   3.834   3.834   3.850   3.907   3.907   4.027   4.045
  4.045   4.084   4.475   4.924   4.924   6.069   6.363   6.363
  6.558   6.558   6.560   6.579   6.579   6.606   6.642   6.693
  6.693   6.776   6.826   6.826   6.839   6.962   6.962   7.001
  7.019   7.019   7.285   7.305   7.305   7.544   7.723   7.723
  7.995   7.995   8.007   8.391   8.391   8.442   8.459   8.496
  8.496   8.541   8.541   8.604   8.672   8.722   8.722   9.038
  9.038   9.106   9.235   9.293   9.293   9.463   9.463   9.526
  9.910   9.910   9.937  11.898  12.457  12.457  13.832  13.950
 13.950  14.049  14.049  14.257  14.371  19.221  21.743  21.743
 22.030  22.400  22.400  32.814  33.264  33.264  38.740  38.741
 38.741  38.743  38.743  38.745  38.750  38.753  38.753  48.132
 48.169  48.169  48.237  48.237  48.324  48.372  55.655  64.346
 64.346  64.513  64.810  64.810 101.618 101.981 101.981 269.574
 --------------------------------------------------------------
 
          Ground-State Mulliken Net Atomic Charges

     Atom                 Charge (a.u.)
  ----------------------------------------
      1 Si                    0.208844
      2 H                    -0.069615
      3 H                    -0.069615
      4 H                    -0.069615
  ----------------------------------------
  Sum of atomic charges =     0.000000

 -----------------------------------------------------------------
                    Cartesian Multipole Moments
 -----------------------------------------------------------------
    Charge (ESU x 10^10)
                 0.0000
    Dipole Moment (Debye)
         X       0.0000      Y      -0.0000      Z      -0.0043
       Tot       0.0043
    Quadrupole Moments (Debye-Ang)
        XX     -15.8987     XY      -0.0000     YY     -15.8987
        XZ      -0.0000     YZ      -0.0000     ZZ     -16.3220
    Octopole Moments (Debye-Ang^2)
       XXX       0.0000    XXY       0.8796    XYY       0.0000
       YYY      -0.8796    XXZ       0.3592    XYZ       0.0000
       YYZ       0.3592    XZZ       0.0000    YZZ      -0.0000
       ZZZ      -2.0466
    Hexadecapole Moments (Debye-Ang^3)
      XXXX     -41.9903   XXXY      -0.0000   XXYY     -13.9968
      XYYY      -0.0000   YYYY     -41.9903   XXXZ      -0.0000
      XXYZ       0.2357   XYYZ      -0.0000   YYYZ      -0.2357
      XXZZ     -12.4566   XYZZ       0.0000   YYZZ     -12.4566
      XZZZ      -0.0000   YZZZ      -0.0000   ZZZZ     -33.5766
 -----------------------------------------------------------------
Archival summary:
1\1\n0065.mhg0\SP\ROProcedureUnspecified\BasisUnspecified\i13(2)\yhljason\MonSep2809:07:262020MonSep2809:07:262020\0\\#,ROProcedureUnspecified,BasisUnspecified,\\0,2\Si\H,1,1.46802\H,1,1.46802,2,110.5\H,1,1.46802,2,110.5,3,122.613,0\\\@

 Total job time:  1888.37s(wall), 14975.42s(cpu) 
 Mon Sep 28 09:07:26 2020

        *************************************************************
        *                                                           *
        *  Thank you very much for using Q-Chem.  Have a nice day.  *
        *                                                           *
        *************************************************************


 
User input: 2 of 7 
 
Q-Chem Developer Version!
                  Welcome to Q-Chem
     A Quantum Leap Into The Future Of Chemistry


 Q-Chem 5.1, Q-Chem, Inc., Pleasanton, CA (2018)

 Yihan Shao,  Zhengting Gan,  E. Epifanovsky,  A. T. B. Gilbert,  M. Wormit,  
 J. Kussmann,  A. W. Lange,  A. Behn,  Jia Deng,  Xintian Feng,  D. Ghosh,  
 M. Goldey,  P. R. Horn,  L. D. Jacobson,  I. Kaliman,  T. Kus,  A. Landau,  
 Jie Liu,  E. I. Proynov,  R. M. Richard,  R. P. Steele,  E. J. Sundstrom,  
 H. L. Woodcock III,  P. M. Zimmerman,  D. Zuev,  B. Albrecht,  E. Alguire,  
 S. A. Baeppler,  D. Barton,  Z. Benda,  Y. A. Bernard,  E. J. Berquist,  
 K. B. Bravaya,  H. Burton,  D. Casanova,  Chun-Min Chang,  Yunqing Chen,  
 A. Chien,  K. D. Closser,  M. P. Coons,  S. Coriani,  S. Dasgupta,  
 A. L. Dempwolff,  M. Diedenhofen,  Hainam Do,  R. G. Edgar,  Po-Tung Fang,  
 S. Faraji,  S. Fatehi,  Qingguo Feng,  K. D. Fenk,  J. Fosso-Tande,  
 Qinghui Ge,  A. Ghysels,  G. Gidofalvi,  J. Gomes,  J. Gonthier,  A. Gunina,  
 D. Hait,  M. W. D. Hanson-Heine,  P. H. P. Harbach,  A. W. Hauser,  
 J. E. Herr,  E. G. Hohenstein,  Z. C. Holden,  Kerwin Hui,  B. C. Huynh,  
 T.-C. Jagau,  Hyunjun Ji,  B. Kaduk,  K. Khistyaev,  Jaehoon Kim,  
 P. Klunzinger,  K. Koh,  D. Kosenkov,  L. Koulias,  T. Kowalczyk,  
 C. M. Krauter,  A. Kunitsa,  Ka Un Lao,  A. Laurent,  K. V. Lawler,  
 Joonho Lee,  D. Lefrancois,  S. Lehtola,  D. S. Levine,  Yi-Pei Li,  
 You-Sheng Lin,  Fenglai Liu,  E. Livshits,  A. Luenser,  P. Manohar,  
 E. Mansoor,  S. F. Manzer,  Shan-Ping Mao,  Yuezhi Mao,  N. Mardirossian,  
 A. V. Marenich,  T. Markovich,  L. A. Martinez-Martinez,  S. A. Maurer,  
 N. J. Mayhall,  S. C. McKenzie,  J.-M. Mewes,  A. F. Morrison,  
 J. W. Mullinax,  K. Nanda,  T. S. Nguyen-Beck,  R. Olivares-Amaya,  
 J. A. Parkhill,  T. M. Perrine,  F. Plasser,  P. Pokhilko,  S. Prager,  
 A. Prociuk,  E. Ramos,  D. R. Rehn,  F. Rob,  M. Schneider,  N. Sergueev,  
 S. M. Sharada,  S. Sharma,  D. W. Small,  T. Stauch,  T. Stein,  
 Yu-Chuan Su,  A. J. W. Thom,  A. Tkatchenko,  T. Tsuchimochi,  N. M. Tubman,  
 L. Vogt,  M. L. Vidal,  O. Vydrov,  M. A. Watson,  J. Wenzel,  
 M. de Wergifosse,  T. A. Wesolowski,  A. White,  J. Witte,  A. Yamada,  
 Jun Yang,  K. Yao,  S. Yeganeh,  S. R. Yost,  Zhi-Qiang You,  A. Zech,  
 Igor Ying Zhang,  Xing Zhang,  Yan Zhao,  Ying Zhu,  B. R. Brooks,  
 G. K. L. Chan,  C. J. Cramer,  M. S. Gordon,  W. J. Hehre,  A. Klamt,  
 M. W. Schmidt,  C. D. Sherrill,  D. G. Truhlar,  A. Aspuru-Guzik,  R. Baer,  
 A. T. Bell,  N. A. Besley,  Jeng-Da Chai,  A. E. DePrince, III,  
 R. A. DiStasio Jr.,  A. Dreuw,  B. D. Dunietz,  T. R. Furlani,  
 Chao-Ping Hsu,  Yousung Jung,  Jing Kong,  D. S. Lambrecht,  WanZhen Liang,  
 C. Ochsenfeld,  V. A. Rassolov,  L. V. Slipchenko,  J. E. Subotnik,  
 T. Van Voorhis,  J. M. Herbert,  A. I. Krylov,  P. M. W. Gill,  M. Head-Gordon

 Contributors to earlier versions of Q-Chem not listed above: 
 R. D. Adamson,  B. Austin,  J. Baker,  G. J. O. Beran,  K. Brandhorst,  
 S. T. Brown,  E. F. C. Byrd,  A. K. Chakraborty,  C.-L. Cheng,  
 Siu Hung Chien,  D. M. Chipman,  D. L. Crittenden,  H. Dachsel,  
 R. J. Doerksen,  A. D. Dutoi,  L. Fusti-Molnar,  W. A. Goddard III,  
 A. Golubeva-Zadorozhnaya,  S. R. Gwaltney,  G. Hawkins,  A. Heyden,  
 S. Hirata,  G. Kedziora,  F. J. Keil,  C. Kelley,  Jihan Kim,  R. A. King,  
 R. Z. Khaliullin,  P. P. Korambath,  W. Kurlancheek,  A. M. Lee,  M. S. Lee,  
 S. V. Levchenko,  Ching Yeh Lin,  D. Liotard,  R. C. Lochan,  I. Lotan,  
 P. E. Maslen,  N. Nair,  D. P. O'Neill,  D. Neuhauser,  E. Neuscamman,  
 C. M. Oana,  R. Olson,  B. Peters,  R. Peverati,  P. A. Pieniazek,  
 Y. M. Rhee,  J. Ritchie,  M. A. Rohrdanz,  E. Rosta,  N. J. Russ,  
 H. F. Schaefer III,  N. E. Schultz,  N. Shenvi,  A. C. Simmonett,  A. Sodt,  
 D. Stuck,  K. S. Thanthiriwatte,  V. Vanovschi,  Tao Wang,  A. Warshel,  
 C. F. Williams,  Q. Wu,  X. Xu,  W. Zhang

 Please cite Q-Chem as follows:
 Y. Shao et al., Mol. Phys. 113, 184-215 (2015)
 DOI: 10.1080/00268976.2014.952696

 Q-Chem 5.1.1 for Intel X86 EM64T Linux

 Parts of Q-Chem use Armadillo 8.300.2 (Tropical Shenanigans).
 http://arma.sourceforge.net/

 Q-Chem begins on Mon Sep 28 09:07:26 2020  

Host: n0065.mhg0
0

     Scratch files written to /local/scratch/users/yhljason/SiH3_DSD-PBEPBE-D3_aug-cc-pcVQZ.inp20200928025505//
The previous job contains 0 fragments, simply inherited here
Input Ideriv = 0
Curr. Ideriv = -1
Max.  Ideriv = 0
Input Ideriv = 1
Curr. Ideriv = 0
Max.  Ideriv = 0

Checking the input file for inconsistencies... 	...done.

--------------------------------------------------------------
User input:
--------------------------------------------------------------
$molecule
read
$end

$rem

jobtype sp
method DSD-PBEPBE-D3
xc_grid 000099000590
basis aug-cc-pcVQZ
max_scf_cycles 200
thresh 14
scf_convergence 8
mem_total 128000
cc_memory 96000
cc_backend xm
mem_static 1500
symmetry false
sym_ignore true
scf_guess read
unrestricted false
scf_algorithm gdm
n_frozen_core 0
$end

$multipole_field
XX 0.0001
$end


--------------------------------------------------------------
 Adding empirical dispersion correction 
 ----------------------------------------------------------------
 Doing -D3(BJ) with
 s6 =   0.78000
 s8 =   0.00000
 a1 =   0.00000
 a2 =   6.10000
 -D3 energy without 3body term =     -0.0012555667 hartrees
 ----------------------------------------------------------------
             Standard Nuclear Orientation (Angstroms)
    I     Atom           X                Y                Z
 ----------------------------------------------------------------
    1      Si      0.0000000000     0.0000000000     0.0819000000
    2      H       0.0000000000     1.3928000000    -0.3820000000
    3      H       1.2062000000    -0.6964000000    -0.3820000000
    4      H      -1.2062000000    -0.6964000000    -0.3820000000
 ----------------------------------------------------------------
 Nuclear Repulsion Energy =    15.7965147676 hartrees
 There are        9 alpha and        8 beta electrons
 Requested basis set is aug-cc-pCVQZ
 There are 76 shells and 272 basis functions

 Total QAlloc Memory Limit 128000 MB
 Mega-Array Size      1467 MB
 MEM_STATIC part      1500 MB

                       Distance Matrix (Angstroms)
             Si(  1)   H (  2)   H (  3)
   H (  2)  1.468024
   H (  3)  1.468024  2.412400
   H (  4)  1.468024  2.412400  2.412400
 
 Applying Cartesian multipole field
    Component          Value
    ---------          -----
     (2,0,0)        1.00000E-04
 Nucleus-field energy     =     0.0010391216 hartrees
 A cutoff of  1.0D-14 yielded   2926 shell pairs
 There are     37690 function pairs (     58743 Cartesian)
 
 -------------------------------------------------------
 OpenMP Integral Computing Module                       
 Release: version 1.0, May 2013, Q-Chem Inc. Pittsburgh 
 -------------------------------------------------------
 Integral Job Info:
 Integral job number is                      11
 Integral operator is                         1
 short-range coefficients                     0
 long-range coefficients              100000000
 Omega coefficients                           0
 if combine SR and LR in K                    0
 Integral screening is                        0
 Integral computing path is                   2
 max size of driver memory is           3200000
 size of driver memory is               1704330
 size of scratch memory is             29435624
 max col of scratch BK array              50625
 max len of scratch array in speh3         2114
 max len of scratch index in speh4           50
 max int batch size is                      520
 min int batch size is                       52
 fixed nKL is                                22
 max L of basis functions is                  4
 order of int derivative is                   0
 number of shells is                         76
 number of basis is                         339
 number of cartesian basis is               339
 number of contracted shell pairs          2926
 number of primitive shell pairs           8726
 maxK2 (contraction) of shell pair          169
 max number of K2 of shell pair               1
 max number of CS2 of shell pair            370
 max number of PS2 of shell pair           1014
 mem total for path MDJ                  695312
 -------------------------------------------------------
 Smallest overlap matrix eigenvalue = 3.18E-05
 Guess MOs from SCF MO coefficient file
 Reading MOs from coefficient file
 Reading MOs from coefficient file
 A restricted hybrid HF-DFT SCF calculation will be
 performed using Geometric Direct Minimization
 Exchange:     0.6800 Hartree-Fock + 0.3200 PBE
 Correlation:  0.4900 PBE
 Using Euler-Maclaurin-Lebedev (99,590) quadrature formula
 Dispersion:   Grimme D3
 SCF converges when RMS gradient is below 1.0E-08
Using Q-Chem read-in guess as SCF_GUESS READ specified.

 using 8 threads for integral computing
 -------------------------------------------------------
 OpenMP Integral computing Module                
 Release: version 2.0, May 2017, Q-Chem Inc. Pleasanton 
 -------------------------------------------------------
TIMEINFO->: J/JK contribution 203.57 sec.
 -------------------------------------------------------
 OpenMP BLAS3 based DFT computing Module                
 Release: version 1.0, May 2013, Q-Chem Inc. Pittsburgh 
 -------------------------------------------------------
 ---------------------------------------
  Cycle       Energy        RMS Gradient
 ---------------------------------------
    1    -290.8834149984      6.06E-04 Normal BFGS step
TIMEINFO->: J/JK contribution 210.24 sec.
    2    -290.8834161775      3.20E-04 Normal BFGS step
TIMEINFO->: J/JK contribution 211.55 sec.
    3    -290.8834162747      1.80E-04 Normal BFGS step
TIMEINFO->: J/JK contribution 207.60 sec.
    4    -290.8834162862      4.51E-05 Normal BFGS step
TIMEINFO->: J/JK contribution 224.42 sec.
    5    -290.8834162877      9.91E-06 Normal BFGS step
TIMEINFO->: J/JK contribution 196.27 sec.
    6    -290.8834162878      5.57E-06 Normal BFGS step
TIMEINFO->: J/JK contribution 200.73 sec.
    7    -290.8834162878      1.74E-06 Normal BFGS step
TIMEINFO->: J/JK contribution 211.48 sec.
    8    -290.8834162878      2.66E-07 Normal BFGS step
TIMEINFO->: J/JK contribution 194.52 sec.
    9    -290.8834162878      4.97E-08 Normal BFGS step
TIMEINFO->: J/JK contribution 177.37 sec.
   10    -290.8834162878      2.28E-08 Normal BFGS step
TIMEINFO->: J/JK contribution 182.01 sec.
   GDM::WARNING energy changes are now smaller than effective accuracy.
   GDM::        calculation will continue, but THRESH should be increased
   GDM::        or SCF_CONVERGENCE decreased.
   GDM::        effective_thresh =   9.000000000000000E-011
   11    -290.8834162878      1.16E-08 Normal BFGS step
TIMEINFO->: J/JK contribution 172.96 sec.
   12    -290.8834162878      2.36E-09 Convergence criterion met
 ---------------------------------------
 SCF time:  CPU 2784.47 s  wall 352.32 s
 SCF   energy in the final basis set = -290.88341629
 Total energy in the final basis set = -290.88341629
 
 Components of the MP2 correlation energy:
        aaaa  correlation energy =        -0.0082500766 au
        abab  correlation energy =        -0.2267860327 au
        bbbb  correlation energy =        -0.0069068654 au
        non-Brillouin singles    =        -0.0009114915 au

 Total  MP2   correlation energy =                    -0.24285447 au
        MP2         total energy =                  -291.12627075 au
 
 --------------------------------------------------------------
 
                    Orbital Energies (a.u.)
 --------------------------------------------------------------
 
 Alpha MOs
 -- Occupied --
-67.702  -5.794  -3.995  -3.995  -4.004  -0.657  -0.447  -0.446
 -0.299
 -- Virtual --
  0.014   0.030   0.033   0.038   0.052   0.054   0.084   0.090
  0.091   0.096   0.095   0.097   0.169   0.171   0.168   0.178
  0.194   0.194   0.218   0.219   0.233   0.234   0.258   0.259
  0.287   0.296   0.296   0.336   0.354   0.355   0.361   0.389
  0.408   0.408   0.408   0.419   0.420   0.449   0.450   0.448
  0.564   0.587   0.626   0.627   0.657   0.657   0.671   0.671
  0.685   0.739   0.739   0.760   0.770   0.770   0.809   0.837
  0.848   0.848   0.868   0.867   0.868   0.908   0.908   0.974
  0.974   0.980   0.994   1.031   1.031   1.043   1.071   1.140
  1.142   1.143   1.165   1.165   1.183   1.197   1.270   1.270
  1.427   1.427   1.441   1.456   1.456   1.488   1.494   1.494
  1.633   1.633   1.634   1.694   1.766   1.766   1.817   1.847
  1.847   1.869   1.906   1.907   1.920   1.920   1.950   1.986
  2.007   2.007   2.060   2.060   2.084   2.105   2.131   2.131
  2.186   2.186   2.236   2.265   2.310   2.347   2.347   2.443
  2.443   2.449   2.476   2.494   2.494   2.567   2.567   2.627
  2.634   2.634   2.634   2.634   2.674   2.773   2.773   2.781
  2.780   2.954   2.954   3.029   3.036   3.079   3.080   3.313
  3.313   3.323   3.359   3.359   3.359   3.359   3.541   3.541
  3.827   3.827   3.844   3.900   3.900   4.019   4.039   4.040
  4.080   4.451   4.918   4.918   6.059   6.359   6.359   6.556
  6.556   6.557   6.576   6.576   6.602   6.639   6.690   6.690
  6.773   6.823   6.823   6.836   6.958   6.958   6.996   7.016
  7.016   7.282   7.300   7.300   7.539   7.719   7.719   7.991
  7.991   8.003   8.388   8.388   8.439   8.455   8.493   8.493
  8.537   8.537   8.601   8.669   8.719   8.719   9.035   9.035
  9.102   9.233   9.290   9.290   9.459   9.460   9.522   9.907
  9.907   9.933  11.884  12.454  12.454  13.830  13.947  13.947
 14.047  14.047  14.256  14.369  19.217  21.737  21.737  22.021
 22.396  22.396  32.805  33.261  33.261  38.738  38.739  38.739
 38.741  38.741  38.744  38.748  38.752  38.752  48.127  48.164
 48.164  48.233  48.233  48.323  48.369  55.651  64.341  64.341
 64.505  64.807  64.807 101.612 101.979 101.979 269.571
 
 Beta MOs
 -- Occupied --
-67.698  -5.788  -3.992  -3.992  -3.986  -0.625  -0.435  -0.435
 -- Virtual --
  0.001   0.017   0.032   0.035   0.044   0.055   0.056   0.098
  0.094   0.095   0.103   0.112   0.113   0.172   0.175   0.186
  0.185   0.200   0.200   0.231   0.232   0.234   0.252   0.270
  0.270   0.294   0.307   0.307   0.344   0.364   0.365   0.367
  0.407   0.411   0.415   0.415   0.430   0.431   0.452   0.453
  0.477   0.575   0.590   0.636   0.636   0.663   0.663   0.679
  0.679   0.691   0.752   0.752   0.765   0.780   0.780   0.818
  0.865   0.850   0.850   0.871   0.875   0.876   0.917   0.917
  0.991   0.991   0.986   1.004   1.050   1.051   1.067   1.093
  1.158   1.153   1.154   1.172   1.172   1.195   1.207   1.282
  1.282   1.438   1.438   1.447   1.463   1.464   1.500   1.501
  1.501   1.635   1.639   1.640   1.712   1.769   1.769   1.820
  1.851   1.851   1.878   1.911   1.911   1.925   1.925   1.956
  1.989   2.011   2.011   2.068   2.068   2.091   2.113   2.140
  2.140   2.192   2.192   2.244   2.268   2.329   2.366   2.366
  2.454   2.454   2.459   2.481   2.499   2.500   2.579   2.579
  2.639   2.641   2.641   2.648   2.648   2.684   2.783   2.783
  2.788   2.799   2.959   2.959   3.037   3.040   3.093   3.094
  3.322   3.323   3.338   3.364   3.365   3.364   3.365   3.547
  3.547   3.833   3.833   3.849   3.907   3.907   4.026   4.044
  4.044   4.083   4.474   4.924   4.924   6.069   6.363   6.363
  6.558   6.558   6.559   6.579   6.579   6.605   6.641   6.692
  6.693   6.776   6.826   6.826   6.838   6.961   6.961   7.000
  7.018   7.019   7.284   7.305   7.305   7.544   7.723   7.723
  7.994   7.994   8.006   8.391   8.391   8.442   8.458   8.496
  8.496   8.540   8.540   8.604   8.672   8.722   8.722   9.038
  9.038   9.105   9.235   9.292   9.292   9.462   9.462   9.525
  9.910   9.910   9.936  11.897  12.457  12.457  13.832  13.949
 13.949  14.049  14.049  14.257  14.370  19.221  21.742  21.742
 22.030  22.400  22.400  32.814  33.263  33.263  38.740  38.741
 38.741  38.743  38.743  38.745  38.749  38.752  38.752  48.132
 48.169  48.169  48.237  48.237  48.324  48.371  55.654  64.346
 64.346  64.512  64.810  64.810 101.617 101.981 101.981 269.574
 --------------------------------------------------------------
 
          Ground-State Mulliken Net Atomic Charges

     Atom                 Charge (a.u.)
  ----------------------------------------
      1 Si                    0.209345
      2 H                    -0.068688
      3 H                    -0.070329
      4 H                    -0.070329
  ----------------------------------------
  Sum of atomic charges =     0.000000

 -----------------------------------------------------------------
                    Cartesian Multipole Moments
 -----------------------------------------------------------------
    Charge (ESU x 10^10)
                 0.0000
    Dipole Moment (Debye)
         X      -0.0000      Y       0.0031      Z      -0.0031
       Tot       0.0044
    Quadrupole Moments (Debye-Ang)
        XX     -15.9335     XY       0.0000     YY     -15.8985
        XZ       0.0000     YZ      -0.0011     ZZ     -16.3237
    Octopole Moments (Debye-Ang^2)
       XXX       0.0000    XXY       0.8968    XYY      -0.0000
       YYY      -0.8695    XXZ       0.3678    XYZ      -0.0000
       YYZ       0.3595    XZZ      -0.0000    YZZ       0.0025
       ZZZ      -2.0438
    Hexadecapole Moments (Debye-Ang^3)
      XXXX     -42.1910   XXXY       0.0000   XXYY     -14.0321
      XYYY       0.0000   YYYY     -41.9910   XXXZ       0.0000
      XXYZ       0.2293   XYYZ       0.0000   YYYZ      -0.2393
      XXZZ     -12.4896   XYZZ       0.0000   YYZZ     -12.4603
      XZZZ       0.0000   YZZZ      -0.0014   ZZZZ     -33.5929
 -----------------------------------------------------------------
Archival summary:
1\1\n0065.mhg0\SP\ROProcedureUnspecified\BasisUnspecified\i13(2)\yhljason\MonSep2809:23:272020MonSep2809:23:272020\0\\#,ROProcedureUnspecified,BasisUnspecified,\\0,2\Si\H,1,1.46802\H,1,1.46802,2,110.5\H,1,1.46802,2,110.5,3,122.613,0\\\@

 Total job time:  960.73s(wall), 7586.06s(cpu) 
 Mon Sep 28 09:23:27 2020

        *************************************************************
        *                                                           *
        *  Thank you very much for using Q-Chem.  Have a nice day.  *
        *                                                           *
        *************************************************************


 
User input: 3 of 7 
 
Q-Chem Developer Version!
                  Welcome to Q-Chem
     A Quantum Leap Into The Future Of Chemistry


 Q-Chem 5.1, Q-Chem, Inc., Pleasanton, CA (2018)

 Yihan Shao,  Zhengting Gan,  E. Epifanovsky,  A. T. B. Gilbert,  M. Wormit,  
 J. Kussmann,  A. W. Lange,  A. Behn,  Jia Deng,  Xintian Feng,  D. Ghosh,  
 M. Goldey,  P. R. Horn,  L. D. Jacobson,  I. Kaliman,  T. Kus,  A. Landau,  
 Jie Liu,  E. I. Proynov,  R. M. Richard,  R. P. Steele,  E. J. Sundstrom,  
 H. L. Woodcock III,  P. M. Zimmerman,  D. Zuev,  B. Albrecht,  E. Alguire,  
 S. A. Baeppler,  D. Barton,  Z. Benda,  Y. A. Bernard,  E. J. Berquist,  
 K. B. Bravaya,  H. Burton,  D. Casanova,  Chun-Min Chang,  Yunqing Chen,  
 A. Chien,  K. D. Closser,  M. P. Coons,  S. Coriani,  S. Dasgupta,  
 A. L. Dempwolff,  M. Diedenhofen,  Hainam Do,  R. G. Edgar,  Po-Tung Fang,  
 S. Faraji,  S. Fatehi,  Qingguo Feng,  K. D. Fenk,  J. Fosso-Tande,  
 Qinghui Ge,  A. Ghysels,  G. Gidofalvi,  J. Gomes,  J. Gonthier,  A. Gunina,  
 D. Hait,  M. W. D. Hanson-Heine,  P. H. P. Harbach,  A. W. Hauser,  
 J. E. Herr,  E. G. Hohenstein,  Z. C. Holden,  Kerwin Hui,  B. C. Huynh,  
 T.-C. Jagau,  Hyunjun Ji,  B. Kaduk,  K. Khistyaev,  Jaehoon Kim,  
 P. Klunzinger,  K. Koh,  D. Kosenkov,  L. Koulias,  T. Kowalczyk,  
 C. M. Krauter,  A. Kunitsa,  Ka Un Lao,  A. Laurent,  K. V. Lawler,  
 Joonho Lee,  D. Lefrancois,  S. Lehtola,  D. S. Levine,  Yi-Pei Li,  
 You-Sheng Lin,  Fenglai Liu,  E. Livshits,  A. Luenser,  P. Manohar,  
 E. Mansoor,  S. F. Manzer,  Shan-Ping Mao,  Yuezhi Mao,  N. Mardirossian,  
 A. V. Marenich,  T. Markovich,  L. A. Martinez-Martinez,  S. A. Maurer,  
 N. J. Mayhall,  S. C. McKenzie,  J.-M. Mewes,  A. F. Morrison,  
 J. W. Mullinax,  K. Nanda,  T. S. Nguyen-Beck,  R. Olivares-Amaya,  
 J. A. Parkhill,  T. M. Perrine,  F. Plasser,  P. Pokhilko,  S. Prager,  
 A. Prociuk,  E. Ramos,  D. R. Rehn,  F. Rob,  M. Schneider,  N. Sergueev,  
 S. M. Sharada,  S. Sharma,  D. W. Small,  T. Stauch,  T. Stein,  
 Yu-Chuan Su,  A. J. W. Thom,  A. Tkatchenko,  T. Tsuchimochi,  N. M. Tubman,  
 L. Vogt,  M. L. Vidal,  O. Vydrov,  M. A. Watson,  J. Wenzel,  
 M. de Wergifosse,  T. A. Wesolowski,  A. White,  J. Witte,  A. Yamada,  
 Jun Yang,  K. Yao,  S. Yeganeh,  S. R. Yost,  Zhi-Qiang You,  A. Zech,  
 Igor Ying Zhang,  Xing Zhang,  Yan Zhao,  Ying Zhu,  B. R. Brooks,  
 G. K. L. Chan,  C. J. Cramer,  M. S. Gordon,  W. J. Hehre,  A. Klamt,  
 M. W. Schmidt,  C. D. Sherrill,  D. G. Truhlar,  A. Aspuru-Guzik,  R. Baer,  
 A. T. Bell,  N. A. Besley,  Jeng-Da Chai,  A. E. DePrince, III,  
 R. A. DiStasio Jr.,  A. Dreuw,  B. D. Dunietz,  T. R. Furlani,  
 Chao-Ping Hsu,  Yousung Jung,  Jing Kong,  D. S. Lambrecht,  WanZhen Liang,  
 C. Ochsenfeld,  V. A. Rassolov,  L. V. Slipchenko,  J. E. Subotnik,  
 T. Van Voorhis,  J. M. Herbert,  A. I. Krylov,  P. M. W. Gill,  M. Head-Gordon

 Contributors to earlier versions of Q-Chem not listed above: 
 R. D. Adamson,  B. Austin,  J. Baker,  G. J. O. Beran,  K. Brandhorst,  
 S. T. Brown,  E. F. C. Byrd,  A. K. Chakraborty,  C.-L. Cheng,  
 Siu Hung Chien,  D. M. Chipman,  D. L. Crittenden,  H. Dachsel,  
 R. J. Doerksen,  A. D. Dutoi,  L. Fusti-Molnar,  W. A. Goddard III,  
 A. Golubeva-Zadorozhnaya,  S. R. Gwaltney,  G. Hawkins,  A. Heyden,  
 S. Hirata,  G. Kedziora,  F. J. Keil,  C. Kelley,  Jihan Kim,  R. A. King,  
 R. Z. Khaliullin,  P. P. Korambath,  W. Kurlancheek,  A. M. Lee,  M. S. Lee,  
 S. V. Levchenko,  Ching Yeh Lin,  D. Liotard,  R. C. Lochan,  I. Lotan,  
 P. E. Maslen,  N. Nair,  D. P. O'Neill,  D. Neuhauser,  E. Neuscamman,  
 C. M. Oana,  R. Olson,  B. Peters,  R. Peverati,  P. A. Pieniazek,  
 Y. M. Rhee,  J. Ritchie,  M. A. Rohrdanz,  E. Rosta,  N. J. Russ,  
 H. F. Schaefer III,  N. E. Schultz,  N. Shenvi,  A. C. Simmonett,  A. Sodt,  
 D. Stuck,  K. S. Thanthiriwatte,  V. Vanovschi,  Tao Wang,  A. Warshel,  
 C. F. Williams,  Q. Wu,  X. Xu,  W. Zhang

 Please cite Q-Chem as follows:
 Y. Shao et al., Mol. Phys. 113, 184-215 (2015)
 DOI: 10.1080/00268976.2014.952696

 Q-Chem 5.1.1 for Intel X86 EM64T Linux

 Parts of Q-Chem use Armadillo 8.300.2 (Tropical Shenanigans).
 http://arma.sourceforge.net/

 Q-Chem begins on Mon Sep 28 09:23:27 2020  

Host: n0065.mhg0
0

     Scratch files written to /local/scratch/users/yhljason/SiH3_DSD-PBEPBE-D3_aug-cc-pcVQZ.inp20200928025505//
The previous job contains 0 fragments, simply inherited here
Input Ideriv = 0
Curr. Ideriv = -1
Max.  Ideriv = 0
Input Ideriv = 1
Curr. Ideriv = 0
Max.  Ideriv = 0

Checking the input file for inconsistencies... 	...done.

--------------------------------------------------------------
User input:
--------------------------------------------------------------
$molecule
read
$end

$rem

jobtype sp
method DSD-PBEPBE-D3
xc_grid 000099000590
basis aug-cc-pcVQZ
max_scf_cycles 200
thresh 14
scf_convergence 8
mem_total 128000
cc_memory 96000
cc_backend xm
mem_static 1500
symmetry false
sym_ignore true
scf_guess read
unrestricted false
scf_algorithm gdm
n_frozen_core 0
$end

$multipole_field
XX -0.0001
$end


--------------------------------------------------------------
 Adding empirical dispersion correction 
 ----------------------------------------------------------------
 Doing -D3(BJ) with
 s6 =   0.78000
 s8 =   0.00000
 a1 =   0.00000
 a2 =   6.10000
 -D3 energy without 3body term =     -0.0012555667 hartrees
 ----------------------------------------------------------------
             Standard Nuclear Orientation (Angstroms)
    I     Atom           X                Y                Z
 ----------------------------------------------------------------
    1      Si      0.0000000000     0.0000000000     0.0819000000
    2      H       0.0000000000     1.3928000000    -0.3820000000
    3      H       1.2062000000    -0.6964000000    -0.3820000000
    4      H      -1.2062000000    -0.6964000000    -0.3820000000
 ----------------------------------------------------------------
 Nuclear Repulsion Energy =    15.7965147676 hartrees
 There are        9 alpha and        8 beta electrons
 Requested basis set is aug-cc-pCVQZ
 There are 76 shells and 272 basis functions

 Total QAlloc Memory Limit 128000 MB
 Mega-Array Size      1467 MB
 MEM_STATIC part      1500 MB

                       Distance Matrix (Angstroms)
             Si(  1)   H (  2)   H (  3)
   H (  2)  1.468024
   H (  3)  1.468024  2.412400
   H (  4)  1.468024  2.412400  2.412400
 
 Applying Cartesian multipole field
    Component          Value
    ---------          -----
     (2,0,0)       -1.00000E-04
 Nucleus-field energy     =    -0.0010391216 hartrees
 A cutoff of  1.0D-14 yielded   2926 shell pairs
 There are     37690 function pairs (     58743 Cartesian)
 
 -------------------------------------------------------
 OpenMP Integral Computing Module                       
 Release: version 1.0, May 2013, Q-Chem Inc. Pittsburgh 
 -------------------------------------------------------
 Integral Job Info:
 Integral job number is                      11
 Integral operator is                         1
 short-range coefficients                     0
 long-range coefficients              100000000
 Omega coefficients                           0
 if combine SR and LR in K                    0
 Integral screening is                        0
 Integral computing path is                   2
 max size of driver memory is           3200000
 size of driver memory is               1704330
 size of scratch memory is             29435624
 max col of scratch BK array              50625
 max len of scratch array in speh3         2114
 max len of scratch index in speh4           50
 max int batch size is                      520
 min int batch size is                       52
 fixed nKL is                                22
 max L of basis functions is                  4
 order of int derivative is                   0
 number of shells is                         76
 number of basis is                         339
 number of cartesian basis is               339
 number of contracted shell pairs          2926
 number of primitive shell pairs           8726
 maxK2 (contraction) of shell pair          169
 max number of K2 of shell pair               1
 max number of CS2 of shell pair            370
 max number of PS2 of shell pair           1014
 mem total for path MDJ                  695312
 -------------------------------------------------------
 Smallest overlap matrix eigenvalue = 3.18E-05
 Guess MOs from SCF MO coefficient file
 Reading MOs from coefficient file
 Reading MOs from coefficient file
 A restricted hybrid HF-DFT SCF calculation will be
 performed using Geometric Direct Minimization
 Exchange:     0.6800 Hartree-Fock + 0.3200 PBE
 Correlation:  0.4900 PBE
 Using Euler-Maclaurin-Lebedev (99,590) quadrature formula
 Dispersion:   Grimme D3
 SCF converges when RMS gradient is below 1.0E-08
Using Q-Chem read-in guess as SCF_GUESS READ specified.

 using 8 threads for integral computing
 -------------------------------------------------------
 OpenMP Integral computing Module                
 Release: version 2.0, May 2017, Q-Chem Inc. Pleasanton 
 -------------------------------------------------------
TIMEINFO->: J/JK contribution 203.55 sec.
 -------------------------------------------------------
 OpenMP BLAS3 based DFT computing Module                
 Release: version 1.0, May 2013, Q-Chem Inc. Pittsburgh 
 -------------------------------------------------------
 ---------------------------------------
  Cycle       Energy        RMS Gradient
 ---------------------------------------
    1    -290.8810470588      1.18E-03 Normal BFGS step
TIMEINFO->: J/JK contribution 210.56 sec.
    2    -290.8810517848      6.20E-04 Normal BFGS step
TIMEINFO->: J/JK contribution 198.54 sec.
    3    -290.8810521687      3.42E-04 Normal BFGS step
TIMEINFO->: J/JK contribution 209.30 sec.
    4    -290.8810522108      8.85E-05 Normal BFGS step
TIMEINFO->: J/JK contribution 204.06 sec.
    5    -290.8810522162      1.48E-05 Normal BFGS step
TIMEINFO->: J/JK contribution 196.53 sec.
    6    -290.8810522165      7.94E-06 Normal BFGS step
TIMEINFO->: J/JK contribution 196.90 sec.
    7    -290.8810522165      3.07E-06 Normal BFGS step
TIMEINFO->: J/JK contribution 203.32 sec.
    8    -290.8810522165      4.05E-07 Normal BFGS step
TIMEINFO->: J/JK contribution 197.89 sec.
   GDM::WARNING energy changes are now smaller than effective accuracy.
   GDM::        calculation will continue, but THRESH should be increased
   GDM::        or SCF_CONVERGENCE decreased.
   GDM::        effective_thresh =   9.000000000000000E-011
    9    -290.8810522165      8.43E-08 Normal BFGS step
TIMEINFO->: J/JK contribution 190.63 sec.
   GDM::WARNING energy changes are now smaller than effective accuracy.
   GDM::        calculation will continue, but THRESH should be increased
   GDM::        or SCF_CONVERGENCE decreased.
   GDM::        effective_thresh =   9.000000000000000E-011
   10    -290.8810522165      2.94E-08 Normal BFGS step
TIMEINFO->: J/JK contribution 178.07 sec.
   11    -290.8810522165      1.81E-08 Normal BFGS step
TIMEINFO->: J/JK contribution 175.06 sec.
   GDM::WARNING energy changes are now smaller than effective accuracy.
   GDM::        calculation will continue, but THRESH should be increased
   GDM::        or SCF_CONVERGENCE decreased.
   GDM::        effective_thresh =   9.000000000000000E-011
   12    -290.8810522165      5.78E-09 Convergence criterion met
 ---------------------------------------
 SCF time:  CPU 2752.13 s  wall 348.34 s
 SCF   energy in the final basis set = -290.88105222
 Total energy in the final basis set = -290.88105222
 
 Components of the MP2 correlation energy:
        aaaa  correlation energy =        -0.0082504899 au
        abab  correlation energy =        -0.2267994639 au
        bbbb  correlation energy =        -0.0069074851 au
        non-Brillouin singles    =        -0.0009123615 au

 Total  MP2   correlation energy =                    -0.24286980 au
        MP2         total energy =                  -291.12392202 au
 
 --------------------------------------------------------------
 
                    Orbital Energies (a.u.)
 --------------------------------------------------------------
 
 Alpha MOs
 -- Occupied --
-67.701  -5.793  -3.994  -3.994  -4.003  -0.656  -0.446  -0.445
 -0.298
 -- Virtual --
  0.020   0.036   0.040   0.041   0.059   0.060   0.085   0.093
  0.094   0.100   0.103   0.101   0.174   0.170   0.176   0.182
  0.198   0.198   0.221   0.222   0.236   0.236   0.261   0.262
  0.289   0.298   0.299   0.339   0.358   0.358   0.364   0.391
  0.411   0.411   0.411   0.422   0.422   0.452   0.454   0.450
  0.566   0.590   0.628   0.629   0.659   0.659   0.672   0.673
  0.687   0.741   0.742   0.762   0.773   0.773   0.811   0.839
  0.850   0.850   0.869   0.869   0.870   0.910   0.910   0.975
  0.976   0.982   0.996   1.032   1.032   1.044   1.072   1.141
  1.144   1.144   1.166   1.167   1.185   1.199   1.272   1.272
  1.429   1.429   1.443   1.457   1.457   1.490   1.495   1.495
  1.635   1.635   1.636   1.696   1.767   1.767   1.818   1.849
  1.849   1.871   1.908   1.908   1.922   1.922   1.951   1.987
  2.008   2.008   2.062   2.062   2.086   2.106   2.132   2.133
  2.187   2.187   2.238   2.266   2.311   2.348   2.349   2.444
  2.444   2.450   2.477   2.495   2.495   2.568   2.568   2.629
  2.635   2.636   2.635   2.635   2.675   2.774   2.774   2.782
  2.781   2.955   2.955   3.030   3.037   3.081   3.081   3.314
  3.314   3.324   3.360   3.360   3.360   3.361   3.542   3.542
  3.828   3.828   3.845   3.901   3.901   4.020   4.041   4.041
  4.082   4.452   4.919   4.919   6.060   6.360   6.360   6.557
  6.557   6.558   6.577   6.577   6.603   6.640   6.691   6.691
  6.774   6.824   6.824   6.837   6.959   6.959   6.997   7.017
  7.017   7.283   7.301   7.301   7.540   7.720   7.720   7.992
  7.992   8.004   8.389   8.389   8.440   8.456   8.494   8.494
  8.538   8.538   8.602   8.670   8.720   8.720   9.036   9.036
  9.103   9.234   9.291   9.291   9.461   9.461   9.524   9.908
  9.908   9.934  11.885  12.455  12.455  13.831  13.948  13.948
 14.048  14.048  14.257  14.370  19.218  21.738  21.738  22.022
 22.397  22.397  32.806  33.262  33.262  38.739  38.740  38.740
 38.742  38.742  38.745  38.749  38.753  38.753  48.128  48.165
 48.165  48.234  48.234  48.324  48.370  55.652  64.342  64.342
 64.506  64.808  64.808 101.613 101.980 101.980 269.572
 
 Beta MOs
 -- Occupied --
-67.696  -5.787  -3.991  -3.991  -3.985  -0.624  -0.434  -0.434
 -- Virtual --
  0.002   0.023   0.039   0.042   0.048   0.062   0.064   0.100
  0.098   0.099   0.111   0.114   0.117   0.178   0.188   0.180
  0.188   0.204   0.204   0.233   0.234   0.238   0.254   0.272
  0.273   0.296   0.310   0.310   0.347   0.367   0.368   0.370
  0.409   0.414   0.418   0.419   0.433   0.433   0.456   0.457
  0.479   0.577   0.592   0.638   0.638   0.665   0.665   0.680
  0.680   0.693   0.754   0.754   0.768   0.782   0.782   0.819
  0.866   0.852   0.852   0.872   0.877   0.878   0.919   0.919
  0.992   0.993   0.988   1.006   1.052   1.052   1.068   1.094
  1.159   1.155   1.155   1.174   1.174   1.196   1.208   1.283
  1.283   1.440   1.440   1.448   1.465   1.465   1.502   1.502
  1.502   1.637   1.641   1.642   1.713   1.771   1.771   1.822
  1.853   1.853   1.879   1.913   1.913   1.927   1.927   1.957
  1.990   2.013   2.013   2.069   2.069   2.092   2.114   2.141
  2.141   2.194   2.194   2.245   2.270   2.330   2.367   2.367
  2.455   2.455   2.460   2.482   2.501   2.501   2.580   2.580
  2.640   2.642   2.643   2.649   2.649   2.685   2.784   2.784
  2.790   2.800   2.961   2.961   3.038   3.041   3.095   3.095
  3.324   3.324   3.339   3.366   3.365   3.366   3.365   3.548
  3.548   3.835   3.835   3.850   3.908   3.908   4.028   4.045
  4.045   4.084   4.475   4.925   4.925   6.070   6.364   6.364
  6.559   6.559   6.560   6.580   6.580   6.606   6.643   6.694
  6.694   6.777   6.827   6.827   6.839   6.962   6.962   7.001
  7.020   7.020   7.285   7.306   7.306   7.545   7.724   7.724
  7.995   7.995   8.007   8.392   8.392   8.443   8.460   8.497
  8.497   8.541   8.541   8.605   8.673   8.723   8.723   9.039
  9.039   9.106   9.236   9.293   9.293   9.463   9.464   9.526
  9.911   9.911   9.937  11.898  12.458  12.458  13.833  13.950
 13.950  14.050  14.050  14.258  14.371  19.222  21.743  21.743
 22.031  22.401  22.401  32.815  33.264  33.264  38.741  38.742
 38.742  38.744  38.744  38.746  38.750  38.753  38.753  48.133
 48.170  48.170  48.238  48.238  48.325  48.372  55.655  64.347
 64.347  64.513  64.811  64.811 101.618 101.982 101.982 269.575
 --------------------------------------------------------------
 
          Ground-State Mulliken Net Atomic Charges

     Atom                 Charge (a.u.)
  ----------------------------------------
      1 Si                    0.208363
      2 H                    -0.070535
      3 H                    -0.068914
      4 H                    -0.068914
  ----------------------------------------
  Sum of atomic charges =     0.000000

 -----------------------------------------------------------------
                    Cartesian Multipole Moments
 -----------------------------------------------------------------
    Charge (ESU x 10^10)
                 0.0000
    Dipole Moment (Debye)
         X      -0.0000      Y      -0.0030      Z      -0.0055
       Tot       0.0063
    Quadrupole Moments (Debye-Ang)
        XX     -15.8643     XY       0.0000     YY     -15.8990
        XZ       0.0000     YZ       0.0011     ZZ     -16.3204
    Octopole Moments (Debye-Ang^2)
       XXX      -0.0000    XXY       0.8625    XYY      -0.0000
       YYY      -0.8895    XXZ       0.3508    XYZ      -0.0000
       YYZ       0.3590    XZZ      -0.0000    YZZ      -0.0025
       ZZZ      -2.0493
    Hexadecapole Moments (Debye-Ang^3)
      XXXX     -41.7922   XXXY       0.0000   XXYY     -13.9618
      XYYY       0.0000   YYYY     -41.9898   XXXZ       0.0000
      XXYZ       0.2420   XYYZ       0.0000   YYYZ      -0.2322
      XXZZ     -12.4240   XYZZ       0.0000   YYZZ     -12.4529
      XZZZ      -0.0000   YZZZ       0.0013   ZZZZ     -33.5607
 -----------------------------------------------------------------
Archival summary:
1\1\n0065.mhg0\SP\ROProcedureUnspecified\BasisUnspecified\i13(2)\yhljason\MonSep2809:39:372020MonSep2809:39:372020\0\\#,ROProcedureUnspecified,BasisUnspecified,\\0,2\Si\H,1,1.46802\H,1,1.46802,2,110.5\H,1,1.46802,2,110.5,3,122.613,0\\\@

 Total job time:  969.72s(wall), 7657.79s(cpu) 
 Mon Sep 28 09:39:37 2020

        *************************************************************
        *                                                           *
        *  Thank you very much for using Q-Chem.  Have a nice day.  *
        *                                                           *
        *************************************************************


 
User input: 4 of 7 
 
Q-Chem Developer Version!
                  Welcome to Q-Chem
     A Quantum Leap Into The Future Of Chemistry


 Q-Chem 5.1, Q-Chem, Inc., Pleasanton, CA (2018)

 Yihan Shao,  Zhengting Gan,  E. Epifanovsky,  A. T. B. Gilbert,  M. Wormit,  
 J. Kussmann,  A. W. Lange,  A. Behn,  Jia Deng,  Xintian Feng,  D. Ghosh,  
 M. Goldey,  P. R. Horn,  L. D. Jacobson,  I. Kaliman,  T. Kus,  A. Landau,  
 Jie Liu,  E. I. Proynov,  R. M. Richard,  R. P. Steele,  E. J. Sundstrom,  
 H. L. Woodcock III,  P. M. Zimmerman,  D. Zuev,  B. Albrecht,  E. Alguire,  
 S. A. Baeppler,  D. Barton,  Z. Benda,  Y. A. Bernard,  E. J. Berquist,  
 K. B. Bravaya,  H. Burton,  D. Casanova,  Chun-Min Chang,  Yunqing Chen,  
 A. Chien,  K. D. Closser,  M. P. Coons,  S. Coriani,  S. Dasgupta,  
 A. L. Dempwolff,  M. Diedenhofen,  Hainam Do,  R. G. Edgar,  Po-Tung Fang,  
 S. Faraji,  S. Fatehi,  Qingguo Feng,  K. D. Fenk,  J. Fosso-Tande,  
 Qinghui Ge,  A. Ghysels,  G. Gidofalvi,  J. Gomes,  J. Gonthier,  A. Gunina,  
 D. Hait,  M. W. D. Hanson-Heine,  P. H. P. Harbach,  A. W. Hauser,  
 J. E. Herr,  E. G. Hohenstein,  Z. C. Holden,  Kerwin Hui,  B. C. Huynh,  
 T.-C. Jagau,  Hyunjun Ji,  B. Kaduk,  K. Khistyaev,  Jaehoon Kim,  
 P. Klunzinger,  K. Koh,  D. Kosenkov,  L. Koulias,  T. Kowalczyk,  
 C. M. Krauter,  A. Kunitsa,  Ka Un Lao,  A. Laurent,  K. V. Lawler,  
 Joonho Lee,  D. Lefrancois,  S. Lehtola,  D. S. Levine,  Yi-Pei Li,  
 You-Sheng Lin,  Fenglai Liu,  E. Livshits,  A. Luenser,  P. Manohar,  
 E. Mansoor,  S. F. Manzer,  Shan-Ping Mao,  Yuezhi Mao,  N. Mardirossian,  
 A. V. Marenich,  T. Markovich,  L. A. Martinez-Martinez,  S. A. Maurer,  
 N. J. Mayhall,  S. C. McKenzie,  J.-M. Mewes,  A. F. Morrison,  
 J. W. Mullinax,  K. Nanda,  T. S. Nguyen-Beck,  R. Olivares-Amaya,  
 J. A. Parkhill,  T. M. Perrine,  F. Plasser,  P. Pokhilko,  S. Prager,  
 A. Prociuk,  E. Ramos,  D. R. Rehn,  F. Rob,  M. Schneider,  N. Sergueev,  
 S. M. Sharada,  S. Sharma,  D. W. Small,  T. Stauch,  T. Stein,  
 Yu-Chuan Su,  A. J. W. Thom,  A. Tkatchenko,  T. Tsuchimochi,  N. M. Tubman,  
 L. Vogt,  M. L. Vidal,  O. Vydrov,  M. A. Watson,  J. Wenzel,  
 M. de Wergifosse,  T. A. Wesolowski,  A. White,  J. Witte,  A. Yamada,  
 Jun Yang,  K. Yao,  S. Yeganeh,  S. R. Yost,  Zhi-Qiang You,  A. Zech,  
 Igor Ying Zhang,  Xing Zhang,  Yan Zhao,  Ying Zhu,  B. R. Brooks,  
 G. K. L. Chan,  C. J. Cramer,  M. S. Gordon,  W. J. Hehre,  A. Klamt,  
 M. W. Schmidt,  C. D. Sherrill,  D. G. Truhlar,  A. Aspuru-Guzik,  R. Baer,  
 A. T. Bell,  N. A. Besley,  Jeng-Da Chai,  A. E. DePrince, III,  
 R. A. DiStasio Jr.,  A. Dreuw,  B. D. Dunietz,  T. R. Furlani,  
 Chao-Ping Hsu,  Yousung Jung,  Jing Kong,  D. S. Lambrecht,  WanZhen Liang,  
 C. Ochsenfeld,  V. A. Rassolov,  L. V. Slipchenko,  J. E. Subotnik,  
 T. Van Voorhis,  J. M. Herbert,  A. I. Krylov,  P. M. W. Gill,  M. Head-Gordon

 Contributors to earlier versions of Q-Chem not listed above: 
 R. D. Adamson,  B. Austin,  J. Baker,  G. J. O. Beran,  K. Brandhorst,  
 S. T. Brown,  E. F. C. Byrd,  A. K. Chakraborty,  C.-L. Cheng,  
 Siu Hung Chien,  D. M. Chipman,  D. L. Crittenden,  H. Dachsel,  
 R. J. Doerksen,  A. D. Dutoi,  L. Fusti-Molnar,  W. A. Goddard III,  
 A. Golubeva-Zadorozhnaya,  S. R. Gwaltney,  G. Hawkins,  A. Heyden,  
 S. Hirata,  G. Kedziora,  F. J. Keil,  C. Kelley,  Jihan Kim,  R. A. King,  
 R. Z. Khaliullin,  P. P. Korambath,  W. Kurlancheek,  A. M. Lee,  M. S. Lee,  
 S. V. Levchenko,  Ching Yeh Lin,  D. Liotard,  R. C. Lochan,  I. Lotan,  
 P. E. Maslen,  N. Nair,  D. P. O'Neill,  D. Neuhauser,  E. Neuscamman,  
 C. M. Oana,  R. Olson,  B. Peters,  R. Peverati,  P. A. Pieniazek,  
 Y. M. Rhee,  J. Ritchie,  M. A. Rohrdanz,  E. Rosta,  N. J. Russ,  
 H. F. Schaefer III,  N. E. Schultz,  N. Shenvi,  A. C. Simmonett,  A. Sodt,  
 D. Stuck,  K. S. Thanthiriwatte,  V. Vanovschi,  Tao Wang,  A. Warshel,  
 C. F. Williams,  Q. Wu,  X. Xu,  W. Zhang

 Please cite Q-Chem as follows:
 Y. Shao et al., Mol. Phys. 113, 184-215 (2015)
 DOI: 10.1080/00268976.2014.952696

 Q-Chem 5.1.1 for Intel X86 EM64T Linux

 Parts of Q-Chem use Armadillo 8.300.2 (Tropical Shenanigans).
 http://arma.sourceforge.net/

 Q-Chem begins on Mon Sep 28 09:39:37 2020  

Host: n0065.mhg0
0

     Scratch files written to /local/scratch/users/yhljason/SiH3_DSD-PBEPBE-D3_aug-cc-pcVQZ.inp20200928025505//
The previous job contains 0 fragments, simply inherited here
Input Ideriv = 0
Curr. Ideriv = -1
Max.  Ideriv = 0
Input Ideriv = 1
Curr. Ideriv = 0
Max.  Ideriv = 0

Checking the input file for inconsistencies... 	...done.

--------------------------------------------------------------
User input:
--------------------------------------------------------------
$molecule
read
$end

$rem

jobtype sp
method DSD-PBEPBE-D3
xc_grid 000099000590
basis aug-cc-pcVQZ
max_scf_cycles 200
thresh 14
scf_convergence 8
mem_total 128000
cc_memory 96000
cc_backend xm
mem_static 1500
symmetry false
sym_ignore true
scf_guess read
unrestricted false
scf_algorithm gdm
n_frozen_core 0
$end

$multipole_field
YY 0.0001
$end


--------------------------------------------------------------
 Adding empirical dispersion correction 
 ----------------------------------------------------------------
 Doing -D3(BJ) with
 s6 =   0.78000
 s8 =   0.00000
 a1 =   0.00000
 a2 =   6.10000
 -D3 energy without 3body term =     -0.0012555667 hartrees
 ----------------------------------------------------------------
             Standard Nuclear Orientation (Angstroms)
    I     Atom           X                Y                Z
 ----------------------------------------------------------------
    1      Si      0.0000000000     0.0000000000     0.0819000000
    2      H       0.0000000000     1.3928000000    -0.3820000000
    3      H       1.2062000000    -0.6964000000    -0.3820000000
    4      H      -1.2062000000    -0.6964000000    -0.3820000000
 ----------------------------------------------------------------
 Nuclear Repulsion Energy =    15.7965147676 hartrees
 There are        9 alpha and        8 beta electrons
 Requested basis set is aug-cc-pCVQZ
 There are 76 shells and 272 basis functions

 Total QAlloc Memory Limit 128000 MB
 Mega-Array Size      1467 MB
 MEM_STATIC part      1500 MB

                       Distance Matrix (Angstroms)
             Si(  1)   H (  2)   H (  3)
   H (  2)  1.468024
   H (  3)  1.468024  2.412400
   H (  4)  1.468024  2.412400  2.412400
 
 Applying Cartesian multipole field
    Component          Value
    ---------          -----
     (0,2,0)        1.00000E-04
 Nucleus-field energy     =     0.0010391219 hartrees
 A cutoff of  1.0D-14 yielded   2926 shell pairs
 There are     37690 function pairs (     58743 Cartesian)
 
 -------------------------------------------------------
 OpenMP Integral Computing Module                       
 Release: version 1.0, May 2013, Q-Chem Inc. Pittsburgh 
 -------------------------------------------------------
 Integral Job Info:
 Integral job number is                      11
 Integral operator is                         1
 short-range coefficients                     0
 long-range coefficients              100000000
 Omega coefficients                           0
 if combine SR and LR in K                    0
 Integral screening is                        0
 Integral computing path is                   2
 max size of driver memory is           3200000
 size of driver memory is               1704330
 size of scratch memory is             29435624
 max col of scratch BK array              50625
 max len of scratch array in speh3         2114
 max len of scratch index in speh4           50
 max int batch size is                      520
 min int batch size is                       52
 fixed nKL is                                22
 max L of basis functions is                  4
 order of int derivative is                   0
 number of shells is                         76
 number of basis is                         339
 number of cartesian basis is               339
 number of contracted shell pairs          2926
 number of primitive shell pairs           8726
 maxK2 (contraction) of shell pair          169
 max number of K2 of shell pair               1
 max number of CS2 of shell pair            370
 max number of PS2 of shell pair           1014
 mem total for path MDJ                  695312
 -------------------------------------------------------
 Smallest overlap matrix eigenvalue = 3.18E-05
 Guess MOs from SCF MO coefficient file
 Reading MOs from coefficient file
 Reading MOs from coefficient file
 A restricted hybrid HF-DFT SCF calculation will be
 performed using Geometric Direct Minimization
 Exchange:     0.6800 Hartree-Fock + 0.3200 PBE
 Correlation:  0.4900 PBE
 Using Euler-Maclaurin-Lebedev (99,590) quadrature formula
 Dispersion:   Grimme D3
 SCF converges when RMS gradient is below 1.0E-08
Using Q-Chem read-in guess as SCF_GUESS READ specified.

 using 8 threads for integral computing
 -------------------------------------------------------
 OpenMP Integral computing Module                
 Release: version 2.0, May 2017, Q-Chem Inc. Pleasanton 
 -------------------------------------------------------
TIMEINFO->: J/JK contribution 206.42 sec.
 -------------------------------------------------------
 OpenMP BLAS3 based DFT computing Module                
 Release: version 1.0, May 2013, Q-Chem Inc. Pittsburgh 
 -------------------------------------------------------
 ---------------------------------------
  Cycle       Energy        RMS Gradient
 ---------------------------------------
    1    -290.8834137398      8.52E-04 Normal BFGS step
TIMEINFO->: J/JK contribution 210.01 sec.
    2    -290.8834159775      6.35E-04 Normal BFGS step
TIMEINFO->: J/JK contribution 199.57 sec.
    3    -290.8834162625      2.47E-04 Normal BFGS step
TIMEINFO->: J/JK contribution 203.70 sec.
    4    -290.8834162823      7.32E-05 Normal BFGS step
TIMEINFO->: J/JK contribution 201.16 sec.
    5    -290.8834162872      1.29E-05 Normal BFGS step
TIMEINFO->: J/JK contribution 205.00 sec.
    6    -290.8834162873      9.59E-06 Normal BFGS step
TIMEINFO->: J/JK contribution 193.74 sec.
    7    -290.8834162873      1.35E-06 Normal BFGS step
TIMEINFO->: J/JK contribution 195.16 sec.
    8    -290.8834162873      4.16E-07 Normal BFGS step
TIMEINFO->: J/JK contribution 195.45 sec.
    9    -290.8834162873      5.40E-08 Normal BFGS step
TIMEINFO->: J/JK contribution 177.25 sec.
   GDM::WARNING energy changes are now smaller than effective accuracy.
   GDM::        calculation will continue, but THRESH should be increased
   GDM::        or SCF_CONVERGENCE decreased.
   GDM::        effective_thresh =   9.000000000000000E-011
   10    -290.8834162873      1.18E-08 Normal BFGS step
TIMEINFO->: J/JK contribution 170.09 sec.
   GDM::WARNING energy changes are now smaller than effective accuracy.
   GDM::        calculation will continue, but THRESH should be increased
   GDM::        or SCF_CONVERGENCE decreased.
   GDM::        effective_thresh =   9.000000000000000E-011
   11    -290.8834162873      3.48E-09 Convergence criterion met
 ---------------------------------------
 SCF time:  CPU 2498.96 s  wall 316.48 s
 SCF   energy in the final basis set = -290.88341629
 Total energy in the final basis set = -290.88341629
 
 Components of the MP2 correlation energy:
        aaaa  correlation energy =        -0.0082500766 au
        abab  correlation energy =        -0.2267860327 au
        bbbb  correlation energy =        -0.0069068654 au
        non-Brillouin singles    =        -0.0009114915 au

 Total  MP2   correlation energy =                    -0.24285447 au
        MP2         total energy =                  -291.12627075 au
 
 --------------------------------------------------------------
 
                    Orbital Energies (a.u.)
 --------------------------------------------------------------
 
 Alpha MOs
 -- Occupied --
-67.702  -5.794  -3.995  -3.995  -4.004  -0.657  -0.447  -0.446
 -0.299
 -- Virtual --
  0.014   0.030   0.033   0.038   0.052   0.054   0.084   0.090
  0.091   0.096   0.096   0.096   0.169   0.171   0.167   0.178
  0.194   0.194   0.218   0.219   0.233   0.234   0.258   0.259
  0.287   0.296   0.296   0.336   0.354   0.355   0.361   0.389
  0.408   0.408   0.408   0.419   0.420   0.449   0.450   0.448
  0.564   0.587   0.626   0.627   0.657   0.657   0.671   0.671
  0.685   0.739   0.739   0.760   0.770   0.770   0.809   0.837
  0.848   0.848   0.868   0.867   0.868   0.908   0.908   0.974
  0.974   0.980   0.994   1.031   1.031   1.043   1.071   1.140
  1.142   1.143   1.165   1.165   1.183   1.197   1.270   1.270
  1.427   1.427   1.441   1.456   1.456   1.488   1.494   1.494
  1.633   1.633   1.634   1.694   1.766   1.766   1.817   1.847
  1.847   1.869   1.906   1.907   1.920   1.920   1.950   1.986
  2.007   2.007   2.060   2.060   2.084   2.105   2.131   2.131
  2.186   2.186   2.236   2.265   2.310   2.347   2.347   2.443
  2.443   2.449   2.476   2.494   2.494   2.567   2.567   2.627
  2.634   2.634   2.634   2.634   2.674   2.773   2.773   2.781
  2.780   2.954   2.954   3.029   3.036   3.079   3.080   3.313
  3.313   3.323   3.359   3.359   3.358   3.359   3.541   3.541
  3.827   3.827   3.844   3.900   3.900   4.019   4.039   4.040
  4.080   4.451   4.918   4.918   6.059   6.359   6.359   6.555
  6.556   6.557   6.576   6.576   6.602   6.639   6.690   6.690
  6.773   6.823   6.823   6.836   6.958   6.958   6.996   7.016
  7.016   7.282   7.300   7.300   7.539   7.719   7.719   7.991
  7.991   8.003   8.388   8.388   8.439   8.455   8.493   8.493
  8.537   8.537   8.601   8.669   8.719   8.719   9.035   9.035
  9.102   9.233   9.290   9.290   9.459   9.460   9.522   9.907
  9.907   9.933  11.884  12.454  12.454  13.830  13.947  13.947
 14.047  14.047  14.256  14.369  19.217  21.737  21.737  22.021
 22.396  22.396  32.805  33.261  33.261  38.738  38.739  38.739
 38.741  38.741  38.744  38.748  38.752  38.752  48.127  48.164
 48.164  48.233  48.233  48.323  48.369  55.651  64.341  64.341
 64.505  64.807  64.807 101.612 101.979 101.979 269.571
 
 Beta MOs
 -- Occupied --
-67.698  -5.788  -3.992  -3.992  -3.986  -0.625  -0.435  -0.435
 -- Virtual --
  0.001   0.017   0.032   0.035   0.044   0.055   0.056   0.098
  0.094   0.095   0.104   0.111   0.113   0.172   0.174   0.186
  0.185   0.200   0.200   0.231   0.232   0.234   0.252   0.270
  0.270   0.294   0.307   0.307   0.344   0.364   0.365   0.367
  0.407   0.411   0.415   0.415   0.430   0.431   0.452   0.453
  0.477   0.575   0.590   0.636   0.636   0.663   0.663   0.679
  0.679   0.691   0.752   0.752   0.765   0.780   0.780   0.818
  0.865   0.850   0.850   0.871   0.875   0.876   0.917   0.917
  0.991   0.991   0.986   1.004   1.050   1.051   1.067   1.093
  1.158   1.153   1.154   1.172   1.172   1.195   1.207   1.282
  1.282   1.438   1.438   1.447   1.463   1.464   1.500   1.501
  1.501   1.635   1.639   1.640   1.712   1.769   1.769   1.820
  1.851   1.851   1.878   1.911   1.911   1.925   1.925   1.956
  1.989   2.011   2.011   2.068   2.068   2.091   2.113   2.140
  2.140   2.192   2.192   2.244   2.268   2.329   2.366   2.366
  2.454   2.454   2.459   2.481   2.499   2.500   2.579   2.579
  2.639   2.641   2.641   2.648   2.648   2.684   2.783   2.783
  2.788   2.799   2.959   2.959   3.037   3.040   3.093   3.094
  3.322   3.323   3.338   3.364   3.364   3.366   3.364   3.547
  3.547   3.833   3.833   3.849   3.907   3.907   4.026   4.044
  4.044   4.083   4.474   4.924   4.924   6.069   6.363   6.363
  6.558   6.558   6.559   6.579   6.579   6.605   6.641   6.692
  6.693   6.776   6.826   6.826   6.838   6.961   6.961   7.000
  7.018   7.019   7.284   7.305   7.305   7.544   7.723   7.723
  7.994   7.994   8.006   8.391   8.391   8.442   8.458   8.496
  8.496   8.540   8.540   8.604   8.672   8.722   8.722   9.038
  9.038   9.105   9.235   9.292   9.292   9.462   9.462   9.525
  9.910   9.910   9.936  11.897  12.457  12.457  13.832  13.949
 13.949  14.049  14.049  14.257  14.370  19.221  21.742  21.742
 22.030  22.400  22.400  32.814  33.263  33.263  38.740  38.741
 38.741  38.743  38.743  38.745  38.749  38.752  38.752  48.132
 48.169  48.169  48.237  48.237  48.324  48.371  55.654  64.346
 64.346  64.512  64.810  64.810 101.617 101.981 101.981 269.574
 --------------------------------------------------------------
 
          Ground-State Mulliken Net Atomic Charges

     Atom                 Charge (a.u.)
  ----------------------------------------
      1 Si                    0.209345
      2 H                    -0.070878
      3 H                    -0.069234
      4 H                    -0.069234
  ----------------------------------------
  Sum of atomic charges =     0.000000

 -----------------------------------------------------------------
                    Cartesian Multipole Moments
 -----------------------------------------------------------------
    Charge (ESU x 10^10)
                 0.0000
    Dipole Moment (Debye)
         X      -0.0000      Y      -0.0031      Z      -0.0031
       Tot       0.0044
    Quadrupole Moments (Debye-Ang)
        XX     -15.8985     XY      -0.0000     YY     -15.9335
        XZ      -0.0000     YZ       0.0011     ZZ     -16.3237
    Octopole Moments (Debye-Ang^2)
       XXX       0.0000    XXY       0.8831    XYY       0.0000
       YYY      -0.9105    XXZ       0.3595    XYZ       0.0000
       YYZ       0.3678    XZZ      -0.0000    YZZ      -0.0025
       ZZZ      -2.0438
    Hexadecapole Moments (Debye-Ang^3)
      XXXX     -41.9937   XXXY      -0.0000   XXYY     -14.0294
      XYYY      -0.0000   YYYY     -42.1938   XXXZ      -0.0000
      XXYZ       0.2343   XYYZ      -0.0000   YYYZ      -0.2243
      XXZZ     -12.4603   XYZZ       0.0000   YYZZ     -12.4896
      XZZZ      -0.0000   YZZZ       0.0014   ZZZZ     -33.5929
 -----------------------------------------------------------------
Archival summary:
1\1\n0065.mhg0\SP\ROProcedureUnspecified\BasisUnspecified\i13(2)\yhljason\MonSep2809:55:122020MonSep2809:55:122020\0\\#,ROProcedureUnspecified,BasisUnspecified,\\0,2\Si\H,1,1.46802\H,1,1.46802,2,110.5\H,1,1.46802,2,110.5,3,122.613,0\\\@

 Total job time:  935.53s(wall), 7378.84s(cpu) 
 Mon Sep 28 09:55:12 2020

        *************************************************************
        *                                                           *
        *  Thank you very much for using Q-Chem.  Have a nice day.  *
        *                                                           *
        *************************************************************


 
User input: 5 of 7 
 
Q-Chem Developer Version!
                  Welcome to Q-Chem
     A Quantum Leap Into The Future Of Chemistry


 Q-Chem 5.1, Q-Chem, Inc., Pleasanton, CA (2018)

 Yihan Shao,  Zhengting Gan,  E. Epifanovsky,  A. T. B. Gilbert,  M. Wormit,  
 J. Kussmann,  A. W. Lange,  A. Behn,  Jia Deng,  Xintian Feng,  D. Ghosh,  
 M. Goldey,  P. R. Horn,  L. D. Jacobson,  I. Kaliman,  T. Kus,  A. Landau,  
 Jie Liu,  E. I. Proynov,  R. M. Richard,  R. P. Steele,  E. J. Sundstrom,  
 H. L. Woodcock III,  P. M. Zimmerman,  D. Zuev,  B. Albrecht,  E. Alguire,  
 S. A. Baeppler,  D. Barton,  Z. Benda,  Y. A. Bernard,  E. J. Berquist,  
 K. B. Bravaya,  H. Burton,  D. Casanova,  Chun-Min Chang,  Yunqing Chen,  
 A. Chien,  K. D. Closser,  M. P. Coons,  S. Coriani,  S. Dasgupta,  
 A. L. Dempwolff,  M. Diedenhofen,  Hainam Do,  R. G. Edgar,  Po-Tung Fang,  
 S. Faraji,  S. Fatehi,  Qingguo Feng,  K. D. Fenk,  J. Fosso-Tande,  
 Qinghui Ge,  A. Ghysels,  G. Gidofalvi,  J. Gomes,  J. Gonthier,  A. Gunina,  
 D. Hait,  M. W. D. Hanson-Heine,  P. H. P. Harbach,  A. W. Hauser,  
 J. E. Herr,  E. G. Hohenstein,  Z. C. Holden,  Kerwin Hui,  B. C. Huynh,  
 T.-C. Jagau,  Hyunjun Ji,  B. Kaduk,  K. Khistyaev,  Jaehoon Kim,  
 P. Klunzinger,  K. Koh,  D. Kosenkov,  L. Koulias,  T. Kowalczyk,  
 C. M. Krauter,  A. Kunitsa,  Ka Un Lao,  A. Laurent,  K. V. Lawler,  
 Joonho Lee,  D. Lefrancois,  S. Lehtola,  D. S. Levine,  Yi-Pei Li,  
 You-Sheng Lin,  Fenglai Liu,  E. Livshits,  A. Luenser,  P. Manohar,  
 E. Mansoor,  S. F. Manzer,  Shan-Ping Mao,  Yuezhi Mao,  N. Mardirossian,  
 A. V. Marenich,  T. Markovich,  L. A. Martinez-Martinez,  S. A. Maurer,  
 N. J. Mayhall,  S. C. McKenzie,  J.-M. Mewes,  A. F. Morrison,  
 J. W. Mullinax,  K. Nanda,  T. S. Nguyen-Beck,  R. Olivares-Amaya,  
 J. A. Parkhill,  T. M. Perrine,  F. Plasser,  P. Pokhilko,  S. Prager,  
 A. Prociuk,  E. Ramos,  D. R. Rehn,  F. Rob,  M. Schneider,  N. Sergueev,  
 S. M. Sharada,  S. Sharma,  D. W. Small,  T. Stauch,  T. Stein,  
 Yu-Chuan Su,  A. J. W. Thom,  A. Tkatchenko,  T. Tsuchimochi,  N. M. Tubman,  
 L. Vogt,  M. L. Vidal,  O. Vydrov,  M. A. Watson,  J. Wenzel,  
 M. de Wergifosse,  T. A. Wesolowski,  A. White,  J. Witte,  A. Yamada,  
 Jun Yang,  K. Yao,  S. Yeganeh,  S. R. Yost,  Zhi-Qiang You,  A. Zech,  
 Igor Ying Zhang,  Xing Zhang,  Yan Zhao,  Ying Zhu,  B. R. Brooks,  
 G. K. L. Chan,  C. J. Cramer,  M. S. Gordon,  W. J. Hehre,  A. Klamt,  
 M. W. Schmidt,  C. D. Sherrill,  D. G. Truhlar,  A. Aspuru-Guzik,  R. Baer,  
 A. T. Bell,  N. A. Besley,  Jeng-Da Chai,  A. E. DePrince, III,  
 R. A. DiStasio Jr.,  A. Dreuw,  B. D. Dunietz,  T. R. Furlani,  
 Chao-Ping Hsu,  Yousung Jung,  Jing Kong,  D. S. Lambrecht,  WanZhen Liang,  
 C. Ochsenfeld,  V. A. Rassolov,  L. V. Slipchenko,  J. E. Subotnik,  
 T. Van Voorhis,  J. M. Herbert,  A. I. Krylov,  P. M. W. Gill,  M. Head-Gordon

 Contributors to earlier versions of Q-Chem not listed above: 
 R. D. Adamson,  B. Austin,  J. Baker,  G. J. O. Beran,  K. Brandhorst,  
 S. T. Brown,  E. F. C. Byrd,  A. K. Chakraborty,  C.-L. Cheng,  
 Siu Hung Chien,  D. M. Chipman,  D. L. Crittenden,  H. Dachsel,  
 R. J. Doerksen,  A. D. Dutoi,  L. Fusti-Molnar,  W. A. Goddard III,  
 A. Golubeva-Zadorozhnaya,  S. R. Gwaltney,  G. Hawkins,  A. Heyden,  
 S. Hirata,  G. Kedziora,  F. J. Keil,  C. Kelley,  Jihan Kim,  R. A. King,  
 R. Z. Khaliullin,  P. P. Korambath,  W. Kurlancheek,  A. M. Lee,  M. S. Lee,  
[...]
    Dipole Moment (Debye)
         X      -0.0000      Y      -0.0000      Z      -0.0080
       Tot       0.0080
    Quadrupole Moments (Debye-Ang)
        XX     -15.9004     XY       0.0000     YY     -15.9004
        XZ       0.0000     YZ      -0.0000     ZZ     -16.3553
    Octopole Moments (Debye-Ang^2)
       XXX      -0.0000    XXY       0.8773    XYY      -0.0000
       YYY      -0.8773    XXZ       0.3554    XYZ      -0.0000
       YYZ       0.3554    XZZ      -0.0000    YZZ      -0.0000
       ZZZ      -2.0872
    Hexadecapole Moments (Debye-Ang^3)
      XXXX     -42.0052   XXXY       0.0000   XXYY     -14.0017
      XYYY       0.0000   YYYY     -42.0052   XXXZ       0.0000
      XXYZ       0.2346   XYYZ       0.0000   YYYZ      -0.2346
      XXZZ     -12.4968   XYZZ       0.0000   YYZZ     -12.4968
      XZZZ       0.0000   YZZZ      -0.0000   ZZZZ     -33.8168
 -----------------------------------------------------------------
Archival summary:
1\1\n0065.mhg0\SP\ROProcedureUnspecified\BasisUnspecified\i13(2)\yhljason\MonSep2810:27:312020MonSep2810:27:312020\0\\#,ROProcedureUnspecified,BasisUnspecified,\\0,2\Si\H,1,1.46802\H,1,1.46802,2,110.5\H,1,1.46802,2,110.5,3,122.613,0\\\@

 Total job time:  972.76s(wall), 7672.53s(cpu) 
 Mon Sep 28 10:27:31 2020

        *************************************************************
        *                                                           *
        *  Thank you very much for using Q-Chem.  Have a nice day.  *
        *                                                           *
        *************************************************************


 
User input: 7 of 7 
 
Q-Chem Developer Version!
                  Welcome to Q-Chem
     A Quantum Leap Into The Future Of Chemistry


 Q-Chem 5.1, Q-Chem, Inc., Pleasanton, CA (2018)

 Yihan Shao,  Zhengting Gan,  E. Epifanovsky,  A. T. B. Gilbert,  M. Wormit,  
 J. Kussmann,  A. W. Lange,  A. Behn,  Jia Deng,  Xintian Feng,  D. Ghosh,  
 M. Goldey,  P. R. Horn,  L. D. Jacobson,  I. Kaliman,  T. Kus,  A. Landau,  
 Jie Liu,  E. I. Proynov,  R. M. Richard,  R. P. Steele,  E. J. Sundstrom,  
 H. L. Woodcock III,  P. M. Zimmerman,  D. Zuev,  B. Albrecht,  E. Alguire,  
 S. A. Baeppler,  D. Barton,  Z. Benda,  Y. A. Bernard,  E. J. Berquist,  
 K. B. Bravaya,  H. Burton,  D. Casanova,  Chun-Min Chang,  Yunqing Chen,  
 A. Chien,  K. D. Closser,  M. P. Coons,  S. Coriani,  S. Dasgupta,  
 A. L. Dempwolff,  M. Diedenhofen,  Hainam Do,  R. G. Edgar,  Po-Tung Fang,  
 S. Faraji,  S. Fatehi,  Qingguo Feng,  K. D. Fenk,  J. Fosso-Tande,  
 Qinghui Ge,  A. Ghysels,  G. Gidofalvi,  J. Gomes,  J. Gonthier,  A. Gunina,  
 D. Hait,  M. W. D. Hanson-Heine,  P. H. P. Harbach,  A. W. Hauser,  
 J. E. Herr,  E. G. Hohenstein,  Z. C. Holden,  Kerwin Hui,  B. C. Huynh,  
 T.-C. Jagau,  Hyunjun Ji,  B. Kaduk,  K. Khistyaev,  Jaehoon Kim,  
 P. Klunzinger,  K. Koh,  D. Kosenkov,  L. Koulias,  T. Kowalczyk,  
 C. M. Krauter,  A. Kunitsa,  Ka Un Lao,  A. Laurent,  K. V. Lawler,  
 Joonho Lee,  D. Lefrancois,  S. Lehtola,  D. S. Levine,  Yi-Pei Li,  
 You-Sheng Lin,  Fenglai Liu,  E. Livshits,  A. Luenser,  P. Manohar,  
 E. Mansoor,  S. F. Manzer,  Shan-Ping Mao,  Yuezhi Mao,  N. Mardirossian,  
 A. V. Marenich,  T. Markovich,  L. A. Martinez-Martinez,  S. A. Maurer,  
 N. J. Mayhall,  S. C. McKenzie,  J.-M. Mewes,  A. F. Morrison,  
 J. W. Mullinax,  K. Nanda,  T. S. Nguyen-Beck,  R. Olivares-Amaya,  
 J. A. Parkhill,  T. M. Perrine,  F. Plasser,  P. Pokhilko,  S. Prager,  
 A. Prociuk,  E. Ramos,  D. R. Rehn,  F. Rob,  M. Schneider,  N. Sergueev,  
 S. M. Sharada,  S. Sharma,  D. W. Small,  T. Stauch,  T. Stein,  
 Yu-Chuan Su,  A. J. W. Thom,  A. Tkatchenko,  T. Tsuchimochi,  N. M. Tubman,  
 L. Vogt,  M. L. Vidal,  O. Vydrov,  M. A. Watson,  J. Wenzel,  
 M. de Wergifosse,  T. A. Wesolowski,  A. White,  J. Witte,  A. Yamada,  
 Jun Yang,  K. Yao,  S. Yeganeh,  S. R. Yost,  Zhi-Qiang You,  A. Zech,  
 Igor Ying Zhang,  Xing Zhang,  Yan Zhao,  Ying Zhu,  B. R. Brooks,  
 G. K. L. Chan,  C. J. Cramer,  M. S. Gordon,  W. J. Hehre,  A. Klamt,  
 M. W. Schmidt,  C. D. Sherrill,  D. G. Truhlar,  A. Aspuru-Guzik,  R. Baer,  
 A. T. Bell,  N. A. Besley,  Jeng-Da Chai,  A. E. DePrince, III,  
 R. A. DiStasio Jr.,  A. Dreuw,  B. D. Dunietz,  T. R. Furlani,  
 Chao-Ping Hsu,  Yousung Jung,  Jing Kong,  D. S. Lambrecht,  WanZhen Liang,  
 C. Ochsenfeld,  V. A. Rassolov,  L. V. Slipchenko,  J. E. Subotnik,  
 T. Van Voorhis,  J. M. Herbert,  A. I. Krylov,  P. M. W. Gill,  M. Head-Gordon

 Contributors to earlier versions of Q-Chem not listed above: 
 R. D. Adamson,  B. Austin,  J. Baker,  G. J. O. Beran,  K. Brandhorst,  
 S. T. Brown,  E. F. C. Byrd,  A. K. Chakraborty,  C.-L. Cheng,  
 Siu Hung Chien,  D. M. Chipman,  D. L. Crittenden,  H. Dachsel,  
 R. J. Doerksen,  A. D. Dutoi,  L. Fusti-Molnar,  W. A. Goddard III,  
 A. Golubeva-Zadorozhnaya,  S. R. Gwaltney,  G. Hawkins,  A. Heyden,  
 S. Hirata,  G. Kedziora,  F. J. Keil,  C. Kelley,  Jihan Kim,  R. A. King,  
 R. Z. Khaliullin,  P. P. Korambath,  W. Kurlancheek,  A. M. Lee,  M. S. Lee,  
 S. V. Levchenko,  Ching Yeh Lin,  D. Liotard,  R. C. Lochan,  I. Lotan,  
 P. E. Maslen,  N. Nair,  D. P. O'Neill,  D. Neuhauser,  E. Neuscamman,  
 C. M. Oana,  R. Olson,  B. Peters,  R. Peverati,  P. A. Pieniazek,  
 Y. M. Rhee,  J. Ritchie,  M. A. Rohrdanz,  E. Rosta,  N. J. Russ,  
 H. F. Schaefer III,  N. E. Schultz,  N. Shenvi,  A. C. Simmonett,  A. Sodt,  
 D. Stuck,  K. S. Thanthiriwatte,  V. Vanovschi,  Tao Wang,  A. Warshel,  
 C. F. Williams,  Q. Wu,  X. Xu,  W. Zhang

 Please cite Q-Chem as follows:
 Y. Shao et al., Mol. Phys. 113, 184-215 (2015)
 DOI: 10.1080/00268976.2014.952696

 Q-Chem 5.1.1 for Intel X86 EM64T Linux

 Parts of Q-Chem use Armadillo 8.300.2 (Tropical Shenanigans).
 http://arma.sourceforge.net/

 Q-Chem begins on Mon Sep 28 10:27:31 2020  

Host: n0065.mhg0
0

     Scratch files written to /local/scratch/users/yhljason/SiH3_DSD-PBEPBE-D3_aug-cc-pcVQZ.inp20200928025505//
The previous job contains 0 fragments, simply inherited here
Input Ideriv = 0
Curr. Ideriv = -1
Max.  Ideriv = 0
Input Ideriv = 1
Curr. Ideriv = 0
Max.  Ideriv = 0

Checking the input file for inconsistencies... 	...done.

--------------------------------------------------------------
User input:
--------------------------------------------------------------
$molecule
read
$end

$rem

jobtype sp
method DSD-PBEPBE-D3
xc_grid 000099000590
basis aug-cc-pcVQZ
max_scf_cycles 200
thresh 14
scf_convergence 8
mem_total 128000
cc_memory 96000
cc_backend xm
mem_static 1500
symmetry false
sym_ignore true
scf_guess read
unrestricted false
scf_algorithm gdm
n_frozen_core 0
$end

$multipole_field
ZZ -0.0001
$end

--------------------------------------------------------------
 Adding empirical dispersion correction 
 ----------------------------------------------------------------
 Doing -D3(BJ) with
 s6 =   0.78000
 s8 =   0.00000
 a1 =   0.00000
 a2 =   6.10000
 -D3 energy without 3body term =     -0.0012555667 hartrees
 ----------------------------------------------------------------
             Standard Nuclear Orientation (Angstroms)
    I     Atom           X                Y                Z
 ----------------------------------------------------------------
    1      Si      0.0000000000     0.0000000000     0.0819000000
    2      H       0.0000000000     1.3928000000    -0.3820000000
    3      H       1.2062000000    -0.6964000000    -0.3820000000
    4      H      -1.2062000000    -0.6964000000    -0.3820000000
 ----------------------------------------------------------------
 Nuclear Repulsion Energy =    15.7965147676 hartrees
 There are        9 alpha and        8 beta electrons
 Requested basis set is aug-cc-pCVQZ
 There are 76 shells and 272 basis functions

 Total QAlloc Memory Limit 128000 MB
 Mega-Array Size      1467 MB
 MEM_STATIC part      1500 MB

                       Distance Matrix (Angstroms)
             Si(  1)   H (  2)   H (  3)
   H (  2)  1.468024
   H (  3)  1.468024  2.412400
   H (  4)  1.468024  2.412400  2.412400
 
 Applying Cartesian multipole field
    Component          Value
    ---------          -----
     (0,0,2)       -1.00000E-04
 Nucleus-field energy     =    -0.0001898659 hartrees
 A cutoff of  1.0D-14 yielded   2926 shell pairs
 There are     37690 function pairs (     58743 Cartesian)
 
 -------------------------------------------------------
 OpenMP Integral Computing Module                       
 Release: version 1.0, May 2013, Q-Chem Inc. Pittsburgh 
 -------------------------------------------------------
 Integral Job Info:
 Integral job number is                      11
 Integral operator is                         1
 short-range coefficients                     0
 long-range coefficients              100000000
 Omega coefficients                           0
 if combine SR and LR in K                    0
 Integral screening is                        0
 Integral computing path is                   2
 max size of driver memory is           3200000
 size of driver memory is               1704330
 size of scratch memory is             29435624
 max col of scratch BK array              50625
 max len of scratch array in speh3         2114
 max len of scratch index in speh4           50
 max int batch size is                      520
 min int batch size is                       52
 fixed nKL is                                22
 max L of basis functions is                  4
 order of int derivative is                   0
 number of shells is                         76
 number of basis is                         339
 number of cartesian basis is               339
 number of contracted shell pairs          2926
 number of primitive shell pairs           8726
 maxK2 (contraction) of shell pair          169
 max number of K2 of shell pair               1
 max number of CS2 of shell pair            370
 max number of PS2 of shell pair           1014
 mem total for path MDJ                  695312
 -------------------------------------------------------
 Smallest overlap matrix eigenvalue = 3.18E-05
 Guess MOs from SCF MO coefficient file
 Reading MOs from coefficient file
 Reading MOs from coefficient file
 A restricted hybrid HF-DFT SCF calculation will be
 performed using Geometric Direct Minimization
 Exchange:     0.6800 Hartree-Fock + 0.3200 PBE
 Correlation:  0.4900 PBE
 Using Euler-Maclaurin-Lebedev (99,590) quadrature formula
 Dispersion:   Grimme D3
 SCF converges when RMS gradient is below 1.0E-08
Using Q-Chem read-in guess as SCF_GUESS READ specified.

 using 8 threads for integral computing
 -------------------------------------------------------
 OpenMP Integral computing Module                
 Release: version 2.0, May 2017, Q-Chem Inc. Pleasanton 
 -------------------------------------------------------
TIMEINFO->: J/JK contribution 207.11 sec.
 -------------------------------------------------------
 OpenMP BLAS3 based DFT computing Module                
 Release: version 1.0, May 2013, Q-Chem Inc. Pittsburgh 
 -------------------------------------------------------
 ---------------------------------------
  Cycle       Energy        RMS Gradient
 ---------------------------------------
    1    -290.8810157496      1.89E-03 Normal BFGS step
TIMEINFO->: J/JK contribution 212.39 sec.
    2    -290.8810198867      1.35E-03 Normal BFGS step
TIMEINFO->: J/JK contribution 201.47 sec.
    3    -290.8810206208      3.06E-04 Normal BFGS step
TIMEINFO->: J/JK contribution 203.56 sec.
    4    -290.8810206738      7.93E-05 Normal BFGS step
TIMEINFO->: J/JK contribution 202.16 sec.
    5    -290.8810206793      8.12E-06 Normal BFGS step
TIMEINFO->: J/JK contribution 197.31 sec.
    6    -290.8810206794      3.24E-06 Normal BFGS step
TIMEINFO->: J/JK contribution 194.69 sec.
    7    -290.8810206794      1.90E-06 Normal BFGS step
TIMEINFO->: J/JK contribution 192.03 sec.
    8    -290.8810206794      7.06E-07 Normal BFGS step
TIMEINFO->: J/JK contribution 189.04 sec.
    9    -290.8810206794      3.60E-08 Normal BFGS step
TIMEINFO->: J/JK contribution 183.81 sec.
   GDM::WARNING energy changes are now smaller than effective accuracy.
   GDM::        calculation will continue, but THRESH should be increased
   GDM::        or SCF_CONVERGENCE decreased.
   GDM::        effective_thresh =   9.000000000000000E-011
   10    -290.8810206794      9.60E-09 Convergence criterion met
 ---------------------------------------
 SCF time:  CPU 2301.15 s  wall 291.51 s
 SCF   energy in the final basis set = -290.88102068
 Total energy in the final basis set = -290.88102068
 
 Components of the MP2 correlation energy:
        aaaa  correlation energy =        -0.0082506497 au
        abab  correlation energy =        -0.2267959735 au
        bbbb  correlation energy =        -0.0069069246 au
        non-Brillouin singles    =        -0.0009125649 au

 Total  MP2   correlation energy =                    -0.24286611 au
        MP2         total energy =                  -291.12388679 au
 
 --------------------------------------------------------------
 
                    Orbital Energies (a.u.)
 --------------------------------------------------------------
 
 Alpha MOs
 -- Occupied --
-67.701  -5.793  -3.994  -3.994  -4.003  -0.656  -0.446  -0.446
 -0.298
 -- Virtual --
  0.019   0.037   0.037   0.045   0.058   0.058   0.087   0.094
  0.094   0.102   0.099   0.099   0.174   0.174   0.172   0.181
  0.198   0.198   0.222   0.222   0.235   0.237   0.262   0.262
  0.289   0.298   0.298   0.339   0.357   0.357   0.364   0.391
  0.410   0.411   0.411   0.422   0.422   0.452   0.452   0.451
  0.566   0.589   0.628   0.628   0.659   0.659   0.673   0.673
  0.687   0.741   0.741   0.762   0.772   0.772   0.811   0.839
  0.849   0.849   0.869   0.869   0.869   0.910   0.910   0.975
  0.975   0.982   0.995   1.032   1.032   1.045   1.072   1.141
  1.144   1.144   1.166   1.166   1.185   1.199   1.272   1.272
  1.429   1.429   1.443   1.457   1.457   1.489   1.495   1.495
  1.635   1.635   1.635   1.696   1.767   1.767   1.818   1.848
  1.848   1.870   1.908   1.908   1.921   1.921   1.951   1.987
  2.008   2.008   2.061   2.061   2.085   2.106   2.132   2.132
  2.187   2.187   2.238   2.266   2.311   2.348   2.348   2.444
  2.444   2.450   2.477   2.495   2.495   2.568   2.568   2.628
  2.635   2.635   2.635   2.635   2.675   2.774   2.774   2.782
  2.780   2.955   2.955   3.030   3.037   3.080   3.080   3.314
  3.314   3.324   3.360   3.360   3.360   3.359   3.542   3.542
  3.828   3.828   3.845   3.901   3.901   4.020   4.040   4.040
  4.081   4.452   4.919   4.919   6.060   6.360   6.360   6.556
  6.556   6.558   6.577   6.577   6.603   6.640   6.691   6.691
  6.774   6.824   6.824   6.836   6.959   6.959   6.996   7.017
  7.017   7.283   7.301   7.301   7.539   7.720   7.720   7.992
  7.992   8.004   8.389   8.389   8.440   8.456   8.494   8.494
  8.538   8.538   8.602   8.670   8.720   8.720   9.036   9.036
  9.103   9.233   9.291   9.291   9.460   9.460   9.523   9.908
  9.908   9.934  11.885  12.455  12.455  13.831  13.948  13.948
 14.048  14.048  14.257  14.370  19.218  21.738  21.738  22.022
 22.397  22.397  32.806  33.262  33.262  38.739  38.740  38.740
 38.742  38.742  38.745  38.749  38.752  38.753  48.128  48.165
 48.165  48.234  48.234  48.324  48.370  55.652  64.342  64.342
 64.506  64.808  64.808 101.613 101.980 101.980 269.572
 
 Beta MOs
 -- Occupied --
-67.697  -5.787  -3.991  -3.991  -3.985  -0.624  -0.434  -0.434
 -- Virtual --
  0.002   0.023   0.039   0.039   0.052   0.061   0.061   0.102
  0.099   0.099   0.107   0.116   0.116   0.177   0.177   0.191
  0.188   0.204   0.204   0.234   0.234   0.236   0.255   0.273
  0.273   0.296   0.310   0.310   0.347   0.367   0.367   0.370
  0.410   0.414   0.418   0.418   0.433   0.433   0.455   0.455
  0.480   0.577   0.591   0.638   0.638   0.665   0.665   0.680
  0.680   0.693   0.754   0.754   0.767   0.782   0.782   0.820
  0.867   0.852   0.852   0.872   0.877   0.877   0.919   0.919
  0.992   0.992   0.987   1.006   1.052   1.052   1.068   1.094
  1.159   1.155   1.155   1.174   1.174   1.196   1.208   1.283
  1.283   1.440   1.440   1.448   1.465   1.465   1.502   1.502
  1.502   1.636   1.641   1.641   1.713   1.771   1.771   1.821
  1.853   1.853   1.879   1.912   1.912   1.927   1.927   1.957
  1.990   2.013   2.013   2.069   2.069   2.092   2.114   2.141
  2.141   2.193   2.193   2.245   2.270   2.330   2.367   2.367
  2.455   2.455   2.460   2.482   2.501   2.501   2.580   2.580
  2.640   2.642   2.642   2.649   2.649   2.685   2.784   2.784
  2.789   2.800   2.960   2.960   3.038   3.041   3.094   3.094
  3.324   3.324   3.339   3.366   3.365   3.365   3.368   3.548
  3.548   3.834   3.834   3.850   3.908   3.908   4.027   4.045
  4.045   4.084   4.475   4.925   4.925   6.070   6.363   6.363
  6.559   6.559   6.560   6.579   6.579   6.606   6.642   6.693
  6.693   6.777   6.827   6.827   6.839   6.962   6.962   7.001
  7.019   7.019   7.285   7.306   7.306   7.544   7.723   7.723
  7.995   7.995   8.007   8.392   8.392   8.443   8.459   8.497
  8.497   8.541   8.541   8.605   8.672   8.723   8.723   9.039
  9.039   9.106   9.236   9.293   9.293   9.463   9.463   9.526
  9.911   9.911   9.937  11.898  12.458  12.458  13.833  13.950
 13.950  14.050  14.050  14.257  14.371  19.222  21.743  21.743
 22.031  22.401  22.401  32.815  33.264  33.264  38.741  38.742
 38.742  38.744  38.744  38.746  38.750  38.753  38.753  48.132
 48.169  48.169  48.238  48.238  48.325  48.372  55.655  64.347
 64.347  64.513  64.811  64.811 101.618 101.982 101.982 269.575
 --------------------------------------------------------------
 
          Ground-State Mulliken Net Atomic Charges

     Atom                 Charge (a.u.)
  ----------------------------------------
      1 Si                    0.213448
      2 H                    -0.071150
      3 H                    -0.071149
      4 H                    -0.071149
  ----------------------------------------
  Sum of atomic charges =     0.000000

 -----------------------------------------------------------------
                    Cartesian Multipole Moments
 -----------------------------------------------------------------
    Charge (ESU x 10^10)
                 0.0000
    Dipole Moment (Debye)
         X       0.0000      Y      -0.0000      Z      -0.0007
       Tot       0.0007
    Quadrupole Moments (Debye-Ang)
        XX     -15.8971     XY      -0.0000     YY     -15.8971
        XZ      -0.0000     YZ      -0.0000     ZZ     -16.2894
    Octopole Moments (Debye-Ang^2)
       XXX       0.0000    XXY       0.8818    XYY       0.0000
       YYY      -0.8818    XXZ       0.3628    XYZ       0.0000
       YYZ       0.3628    XZZ       0.0000    YZZ      -0.0000
       ZZZ      -2.0074
    Hexadecapole Moments (Debye-Ang^3)
      XXXX     -41.9760   XXXY      -0.0000   XXYY     -13.9920
      XYYY      -0.0000   YYYY     -41.9760   XXXZ      -0.0000
      XXYZ       0.2368   XYYZ      -0.0000   YYYZ      -0.2368
      XXZZ     -12.4174   XYZZ      -0.0000   YYZZ     -12.4174
      XZZZ      -0.0000   YZZZ      -0.0000   ZZZZ     -33.3439
 -----------------------------------------------------------------
Archival summary:
1\1\n0065.mhg0\SP\ROProcedureUnspecified\BasisUnspecified\i13(2)\yhljason\MonSep2810:42:402020MonSep2810:42:402020\0\\#,ROProcedureUnspecified,BasisUnspecified,\\0,2\Si\H,1,1.46802\H,1,1.46802,2,110.5\H,1,1.46802,2,110.5,3,122.613,0\\\@

 Total job time:  908.43s(wall), 7169.98s(cpu) 
 Mon Sep 28 10:42:40 2020

        *************************************************************
        *                                                           *
        *  Thank you very much for using Q-Chem.  Have a nice day.  *
        *                                                           *
        *************************************************************


