                  Welcome to Q-Chem
     A Quantum Leap Into The Future Of Chemistry


 Q-Chem 5.3 (devel), Q-Chem, Inc., Pleasanton, CA (2020)

 Yihan Shao,  Zhengting Gan,  E. Epifanovsky,  A. T. B. Gilbert,  M. Wormit,  
 J. Kussmann,  A. W. Lange,  A. Behn,  Jia Deng,  Xintian Feng,  D. Ghosh,  
 M. Goldey,  P. R. Horn,  L. D. Jacobson,  I. Kaliman,  T. Kus,  A. Landau,  
 Jie Liu,  E. I. Proynov,  R. M. Richard,  R. P. Steele,  E. J. Sundstrom,  
 H. L. Woodcock III,  P. M. Zimmerman,  D. Zuev,  B. Alam,  B. Albrecht,  
 E. Alguire,  S. A. Baeppler,  D. Barton,  Z. Benda,  Y. A. Bernard,  
 E. J. Berquist,  K. B. Bravaya,  H. Burton,  K. Carter-Fenk,  D. Casanova,  
 Chun-Min Chang,  Yunqing Chen,  A. Chien,  K. D. Closser,  M. P. Coons,  
 S. Coriani,  S. Dasgupta,  A. L. Dempwolff,  M. Diedenhofen,  Hainam Do,  
 R. G. Edgar,  Po-Tung Fang,  S. Faraji,  S. Fatehi,  Qingguo Feng,  
 J. Fosso-Tande,  J. Gayvert,  Qinghui Ge,  A. Ghysels,  G. Gidofalvi,  
 J. Gomes,  J. Gonthier,  A. Gunina,  D. Hait,  M. W. D. Hanson-Heine,  
 P. H. P. Harbach,  A. W. Hauser,  M. F. Herbst,  J. E. Herr,  
 E. G. Hohenstein,  Z. C. Holden,  Kerwin Hui,  B. C. Huynh,  T.-C. Jagau,  
 Hyunjun Ji,  B. Kaduk,  K. Khistyaev,  Jaehoon Kim,  P. Klunzinger,  K. Koh,  
 D. Kosenkov,  L. Koulias,  T. Kowalczyk,  C. M. Krauter,  A. Kunitsa,  
 Ka Un Lao,  A. Laurent,  K. V. Lawler,  Joonho Lee,  D. Lefrancois,  
 S. Lehtola,  D. S. Levine,  Yi-Pei Li,  You-Sheng Lin,  Fenglai Liu,  
 Kuan-Yu Liu,  E. Livshits,  M. Loipersberger,  A. Luenser,  P. Manohar,  
 E. Mansoor,  S. F. Manzer,  Shan-Ping Mao,  Yuezhi Mao,  N. Mardirossian,  
 A. V. Marenich,  T. Markovich,  L. A. Martinez-Martinez,  S. A. Maurer,  
 N. J. Mayhall,  S. C. McKenzie,  J.-M. Mewes,  P. Morgante,  A. F. Morrison,  
 J. W. Mullinax,  K. Nanda,  T. S. Nguyen-Beck,  R. Olivares-Amaya,  
 K. J. Oosterbaan,  J. A. Parkhill,  S. K. Paul,  F. Pavosevic,  Zheng Pei,  
 T. M. Perrine,  F. Plasser,  P. Pokhilko,  S. Prager,  A. Prociuk,  
 E. Ramos,  B. Rana,  D. R. Rehn,  F. Rob,  M. Scheurer,  M. Schneider,  
 N. Sergueev,  S. M. Sharada,  S. Sharma,  D. W. Small,  T. Stauch,  
 C. J. Stein,  T. Stein,  Yu-Chuan Su,  S. P. Veccham,  Zhen Tao,  
 A. J. W. Thom,  A. Tkatchenko,  T. Tsuchimochi,  N. M. Tubman,  L. Vogt,  
 M. L. Vidal,  O. Vydrov,  M. A. Watson,  J. Wenzel,  M. de Wergifosse,  
 T. A. Wesolowski,  A. White,  J. Witte,  A. Yamada,  Jun Yang,  K. Yao,  
 S. Yeganeh,  S. R. Yost,  Zhi-Qiang You,  A. Zech,  Igor Ying Zhang,  
 Xing Zhang,  Yan Zhao,  Ying Zhu,  B. R. Brooks,  G. K. L. Chan,  
 C. J. Cramer,  M. S. Gordon,  W. J. Hehre,  A. Klamt,  M. W. Schmidt,  
 C. D. Sherrill,  D. G. Truhlar,  A. Aspuru-Guzik,  R. Baer,  A. T. Bell,  
 N. A. Besley,  Jeng-Da Chai,  A. E. DePrince, III,  R. A. DiStasio Jr.,  
 A. Dreuw,  B. D. Dunietz,  T. R. Furlani,  Chao-Ping Hsu,  Yousung Jung,  
 Jing Kong,  D. S. Lambrecht,  WanZhen Liang,  C. Ochsenfeld,  
 V. A. Rassolov,  L. V. Slipchenko,  J. E. Subotnik,  T. Van Voorhis,  
 J. M. Herbert,  A. I. Krylov,  P. M. W. Gill,  M. Head-Gordon

 Contributors to earlier versions of Q-Chem not listed above: 
 R. D. Adamson,  B. Austin,  J. Baker,  G. J. O. Beran,  K. Brandhorst,  
 S. T. Brown,  E. F. C. Byrd,  A. K. Chakraborty,  C.-L. Cheng,  
 Siu Hung Chien,  D. M. Chipman,  D. L. Crittenden,  H. Dachsel,  
 R. J. Doerksen,  A. D. Dutoi,  L. Fusti-Molnar,  W. A. Goddard III,  
 A. Golubeva-Zadorozhnaya,  S. R. Gwaltney,  G. Hawkins,  A. Heyden,  
 S. Hirata,  G. Kedziora,  F. J. Keil,  C. Kelley,  Jihan Kim,  R. A. King,  
 R. Z. Khaliullin,  P. P. Korambath,  W. Kurlancheek,  A. M. Lee,  M. S. Lee,  
 S. V. Levchenko,  Ching Yeh Lin,  D. Liotard,  R. C. Lochan,  I. Lotan,  
 P. E. Maslen,  N. Nair,  D. P. O'Neill,  D. Neuhauser,  E. Neuscamman,  
 C. M. Oana,  R. Olson,  B. Peters,  R. Peverati,  P. A. Pieniazek,  
 Y. M. Rhee,  J. Ritchie,  M. A. Rohrdanz,  E. Rosta,  N. J. Russ,  
 H. F. Schaefer III,  N. E. Schultz,  N. Shenvi,  A. C. Simmonett,  A. Sodt,  
 D. Stuck,  K. S. Thanthiriwatte,  V. Vanovschi,  Tao Wang,  A. Warshel,  
 C. F. Williams,  Q. Wu,  X. Xu,  W. Zhang

 Please cite Q-Chem as follows:
 Y. Shao et al., Mol. Phys. 113, 184-215 (2015)
 DOI: 10.1080/00268976.2014.952696

 Q-Chem 5.3.0 for Intel X86 EM64T Linux

 Parts of Q-Chem use Armadillo 9.800.1 (Horizon Scraper).
 http://arma.sourceforge.net/

 Q-Chem begins on Thu Oct  1 22:50:35 2020  

n0065.mhg0
Host: 0

     Scratch files written to /local/scratch/users/yhljason/SiH4_DSD-PBEPBE-D3_aug-cc-pcVQZ.inp20201001170114//
Processing $rem in /clusterfs/mhg/diptarka/qchem_transmom//config/preferences:
Processing $rem in /global/home/users/yhljason/.qchemrc:
Analytic post-HF gradients are not available with non-HF exchange

Checking the input file for inconsistencies... 	...done.

--------------------------------------------------------------
User input:
--------------------------------------------------------------
$molecule 
0 1
Si1	0.0000	0.0000	0.0000
H2	0.8544	0.8544	0.8544
H3	-0.8544	-0.8544	0.8544
H4	-0.8544	0.8544	-0.8544
H5	0.8544	-0.8544	-0.8544
$end

$rem
jobtype sp
method DSD-PBEPBE-D3
xc_grid 000099000590
basis aug-cc-pcVQZ
max_scf_cycles 200
thresh 14
scf_convergence 8
scf_algorithm gdm
symmetry false
sym_ignore true
unrestricted false
gen_scfman true
internal_stability_iter 15
internal_stability_davidson_iter 200
mem_total 128000
cc_memory 96000
cc_backend xm
mem_static 1500
n_frozen_core 0
$end


--------------------------------------------------------------
 Adding empirical dispersion correction 
 ----------------------------------------------------------------
 Doing -D3(BJ) with
 s6 =   0.78000
 s8 =   0.00000
 a1 =   0.00000
 a2 =   6.10000
 -D3 energy without 3body term =     -0.0015234728 hartrees
 ----------------------------------------------------------------
             Standard Nuclear Orientation (Angstroms)
    I     Atom           X                Y                Z
 ----------------------------------------------------------------
    1      Si      0.0000000000     0.0000000000     0.0000000000
    2      H       0.8544000000     0.8544000000     0.8544000000
    3      H      -0.8544000000    -0.8544000000     0.8544000000
    4      H      -0.8544000000     0.8544000000    -0.8544000000
    5      H       0.8544000000    -0.8544000000    -0.8544000000
 ----------------------------------------------------------------
 Nuclear Repulsion Energy =          21.33708639 hartrees
 There are        9 alpha and        9 beta electrons
 Requested basis set is aug-cc-pCVQZ
 There are 90 shells and 318 basis functions

 Total QAlloc Memory Limit 128000 MB
 Mega-Array Size      1467 MB
 MEM_STATIC part      1500 MB

                       Distance Matrix (Angstroms)
             Si(  1)   H (  2)   H (  3)   H (  4)
   H (  2)  1.479864
   H (  3)  1.479864  2.416608
   H (  4)  1.479864  2.416608  2.416608
   H (  5)  1.479864  2.416608  2.416608  2.416608

 A cutoff of  1.0D-14 yielded   4095 shell pairs
 There are     51367 function pairs (     79075 Cartesian)
 Smallest overlap matrix eigenvalue = 7.27E-06

 Scale SEOQF with 1.000000e-01/1.000000e-01/1.000000e-01

 Standard Electronic Orientation quadrupole field applied
 Guess from superposition of atomic densities
 Warning:  Energy on first SCF cycle will be non-variational
 SAD guess density has 18.000000 electrons

 -----------------------------------------------------------------------
  General SCF calculation program by
  Eric Jon Sundstrom, Paul Horn, Yuezhi Mao, Dmitri Zuev, Alec White,
  David Stuck, Shaama M.S., Shane Yost, Joonho Lee, David Small,
  Daniel Levine, Susi Lehtola, Hugh Burton, Evgeny Epifanovsky,
  Bang C. Huynh
 -----------------------------------------------------------------------
 Exchange:     0.6800 Hartree-Fock + 0.3200 PBE
 Correlation:  0.4900 PBE
 Using Euler-Maclaurin-Lebedev (99,590) quadrature formula
 Dispersion:   Grimme D3
Running Object-Oriented RKS (RHF)
 using 8 threads for integral computing
 -------------------------------------------------------
 OpenMP Integral computing Module                
 Release: version 2.0, May 2017, Q-Chem Inc. Pleasanton 
 -------------------------------------------------------
 using 8 threads for integral computing
 -------------------------------------------------------
 OpenMP Integral computing Module                
 Release: version 2.0, May 2017, Q-Chem Inc. Pleasanton 
 -------------------------------------------------------
We will preform up to 15 macro iterations over saddle points until a stable solution is found
Energy prior to optimization (guess energy) = -291.511978126679
Begin Timing: Total SCF Calculation
Begin Timing: SCF Single Stationary Point Calculation
begin iterations for algorithm: GDM          
the SCF tolerance is set to 1.00e-08
    1    -291.5119781267      2.33e-02     00000  Normal BFGS step
    2    -291.5182606135      5.66e-03     00000  Normal BFGS step
    3    -291.5186654384      1.04e-03     00000  Normal BFGS step
    4    -291.5186697647      1.49e-04     00000  Normal BFGS step
    5    -291.5186701202      2.23e-05     00000  Normal BFGS step
    6    -291.5186701271      4.62e-06     00000  Normal BFGS step
    7    -291.5186701273      4.32e-07     00000  Normal BFGS step
    8    -291.5186701273      4.45e-08     00000  Normal BFGS step
    9    -291.5186701273      4.63e-09     00000 Convergence criterion met
Timing for Single Stationary Point: 313.00s (wall), 2468.23s (cpu)
Begin Timing: Stability
===================================================
Beginning Test for Internal Stability
===================================================
generating davidson guess vectors based on koopmans excitations
    1      1.33e+00     00000 Davidson Iteration
    2      1.02e+00     00000 Davidson Iteration
    3      1.13e-01     00000 Davidson Iteration
    4      3.25e-02     00000 Davidson Iteration
    5      1.94e-02     00000 Davidson Iteration
    6      8.20e-03     00000 Davidson Iteration
    7      3.25e-03     00000 Davidson Iteration
    8      1.83e-03     00000 Davidson Iteration
    9      1.05e-03     00000 Davidson Iteration
   10      3.09e-04     00000 Davidson Iteration
   11      2.37e-04     00000 Davidson Iteration
   12      2.62e-04     00000 Davidson Iteration
   13      7.39e-04     00000 Davidson Iteration
   14      9.33e-05     00000 Davidson Iteration
   15      2.48e-05     00000 Davidson Iteration
   16      1.02e-02     00000 Davidson Iteration
   17      8.23e-03     00000 Davidson Iteration
   18      4.05e-03     00000 Davidson Iteration
   19      1.23e-03     00000 Davidson Iteration
   20      5.54e-04     00000 Davidson Iteration
   21      2.27e-04     00000 Davidson Iteration
   22      9.48e-05     00000 Davidson Converged
converged_eigenvalues
   1.4071
   1.4071
   1.3789
Threshold for negative eigenvalues: -1.0e-05
solution was a local minimum (stable)
===================================================
End Test for Internal Stability
===================================================
Timing for Internal Stability: 1217.00s (wall), 9512.11s (cpu)
Our SCF solution is stable!
Timing for Total SCF: 1530.00s (wall), 11980.38s (cpu)
 Total energy in the final basis set =     -291.5186701273
    ==================================================
              The end of Object-Oriented SCFman       
    ==================================================

 Components of the MP2 correlation energy:
        aaaa  correlation energy =        -0.0076231278 au
        abab  correlation energy =        -0.2436124966 au
        bbbb  correlation energy =        -0.0076231278 au
        non-Brillouin singles    =        -0.0000000000 au

 Total  MP2   correlation energy =                    -0.25885875 au
        MP2         total energy =                  -291.77752888 au

 --------------------------------------------------------------

                    Orbital Energies (a.u.)
 --------------------------------------------------------------

 Alpha MOs
 -- Occupied --
-67.6896  -5.7818  -3.9853  -3.9853  -3.9853  -0.6610  -0.4347  -0.4347
 -0.4347
 -- Virtual --
  0.0178   0.0356   0.0356   0.0356   0.0575   0.0575   0.0575   0.0921
  0.0921   0.1006   0.1006   0.1006   0.1006   0.1710   0.1743   0.1743
  0.1743   0.1932   0.1932   0.1932   0.2186   0.2186   0.2361   0.2361
  0.2361   0.2973   0.2973   0.2973   0.3091   0.3246   0.3246   0.3246
  0.3416   0.4082   0.4082   0.4082   0.4090   0.4090   0.4090   0.4250
  0.4250   0.4304   0.4539   0.4539   0.4539   0.5910   0.5910   0.5910
  0.6153   0.6153   0.6537   0.6882   0.6882   0.6882   0.7246   0.7246
  0.7246   0.7991   0.7991   0.7991   0.8000   0.8000   0.8583   0.8583
  0.8583   0.8657   0.8657   0.8657   0.8796   0.9215   0.9215   0.9215
  0.9273   0.9273   0.9366   0.9800   0.9800   0.9800   1.1086   1.1086
  1.1086   1.1449   1.1925   1.1925   1.1925   1.1972   1.1972   1.1972
  1.2903   1.2903   1.3948   1.4523   1.4523   1.4523   1.4623   1.4623
  1.5033   1.5033   1.5033   1.6278   1.6278   1.6278   1.6438   1.6438
  1.6438   1.7938   1.8122   1.8122   1.8122   1.9542   1.9542   1.9552
  1.9552   1.9552   1.9612   1.9612   1.9612   1.9612   1.9820   1.9820
  1.9820   1.9983   1.9983   2.0622   2.0799   2.0799   2.0799   2.1723
  2.1723   2.1723   2.2050   2.2050   2.2050   2.2194   2.3124   2.3124
  2.3124   2.3692   2.4894   2.4894   2.5147   2.5147   2.5147   2.5482
  2.5482   2.5482   2.6458   2.6458   2.6458   2.6688   2.6688   2.7092
  2.7653   2.7653   2.7653   2.7997   2.7997   2.7997   2.9444   2.9444
  3.0284   3.0284   3.0284   3.0881   3.0881   3.0881   3.0967   3.3248
  3.3248   3.3248   3.3656   3.3656   3.3656   3.4506   3.4506   3.4506
  3.6518   3.6518   3.8176   3.8176   3.8783   3.8975   3.8975   3.8975
  4.0729   4.0729   4.0729   4.0893   4.0893   4.0893   4.3939   4.9710
  4.9710   4.9710   6.3231   6.3231   6.5584   6.5668   6.5668   6.5668
  6.5818   6.6093   6.6093   6.6093   6.6603   6.6603   6.6603   6.6886
  6.8154   6.8154   6.8154   6.8603   6.8603   6.8603   6.8847   6.8847
  6.8847   7.0605   7.0605   7.2744   7.2744   7.2744   7.3939   7.3939
  7.4217   7.7899   7.7899   7.7899   8.0369   8.0369   8.0369   8.2650
  8.3758   8.3758   8.4829   8.4829   8.4829   8.4942   8.4942   8.4942
  8.6481   8.6481   8.6481   8.6612   8.6612   8.6612   8.8482   8.8482
  9.1705   9.1705   9.1705   9.2509   9.2509   9.2509   9.3793   9.3793
  9.4979   9.4979   9.4979   9.7692   9.9422   9.9422   9.9422   9.9972
 12.5251  12.5251  12.5251  14.0312  14.0312  14.0312  14.2380  14.2380
 14.2380  14.6727  19.9717  21.7750  21.7750  22.4243  22.4243  22.4243
 33.3083  33.3083  33.3083  38.7532  38.7532  38.7532  38.7541  38.7541
 38.7560  38.7600  38.7600  38.7600  48.2197  48.2197  48.2197  48.3200
 48.3200  48.3200  48.5288  56.4197  64.3707  64.3707  64.8274  64.8274
 64.8274 102.0215 102.0215 102.0215 272.5059
 --------------------------------------------------------------

          Ground-State Mulliken Net Atomic Charges

     Atom                 Charge (a.u.)
  ----------------------------------------
      1 Si                    0.250846
      2 H                    -0.062712
      3 H                    -0.062712
      4 H                    -0.062712
      5 H                    -0.062712
  ----------------------------------------
  Sum of atomic charges =     0.000000

 -----------------------------------------------------------------
                    Cartesian Multipole Moments
 -----------------------------------------------------------------
    Charge (ESU x 10^10)
                 0.0000
    Dipole Moment (Debye)
         X      -0.0000      Y      -0.0000      Z      -0.0000
       Tot       0.0000
    Quadrupole Moments (Debye-Ang)
        XX     -16.6119     XY       0.0000     YY     -16.6119
        XZ      -0.0000     YZ       0.0000     ZZ     -16.6119
    Octopole Moments (Debye-Ang^2)
       XXX      -0.0000    XXY      -0.0000    XYY       0.0000
       YYY      -0.0000    XXZ      -0.0000    XYZ      -1.2423
       YYZ      -0.0000    XZZ      -0.0000    YZZ      -0.0000
       ZZZ       0.0000
    Hexadecapole Moments (Debye-Ang^3)
      XXXX     -42.7043   XXXY       0.0000   XXYY     -14.0041
      XYYY       0.0000   YYYY     -42.7043   XXXZ      -0.0000
      XXYZ       0.0000   XYYZ      -0.0000   YYYZ       0.0000
      XXZZ     -14.0041   XYZZ      -0.0000   YYZZ     -14.0041
      XZZZ      -0.0000   YZZZ      -0.0000   ZZZZ     -42.7043
 -----------------------------------------------------------------
Archival summary:
1\1\n0065.mhg0\SP\ProcedureUnspecified\BasisUnspecified\i14\yhljason\ThuOct123:24:592020ThuOct123:24:592020\0\\#,ProcedureUnspecified,BasisUnspecified,\\0,1\Si\H,1,1.47986\H,1,1.47986,2,109.471\H,1,1.47986,2,109.471,3,120,0\H,1,1.47986,2,109.471,3,-120,0\\\@

 Total job time:  2063.89s(wall), 14835.57s(cpu) 
 Thu Oct  1 23:24:59 2020

        *************************************************************
        *                                                           *
        *  Thank you very much for using Q-Chem.  Have a nice day.  *
        *                                                           *
        *************************************************************


 
User input: 2 of 7 
 
                  Welcome to Q-Chem
     A Quantum Leap Into The Future Of Chemistry


 Q-Chem 5.3 (devel), Q-Chem, Inc., Pleasanton, CA (2020)

 Yihan Shao,  Zhengting Gan,  E. Epifanovsky,  A. T. B. Gilbert,  M. Wormit,  
 J. Kussmann,  A. W. Lange,  A. Behn,  Jia Deng,  Xintian Feng,  D. Ghosh,  
 M. Goldey,  P. R. Horn,  L. D. Jacobson,  I. Kaliman,  T. Kus,  A. Landau,  
 Jie Liu,  E. I. Proynov,  R. M. Richard,  R. P. Steele,  E. J. Sundstrom,  
 H. L. Woodcock III,  P. M. Zimmerman,  D. Zuev,  B. Alam,  B. Albrecht,  
 E. Alguire,  S. A. Baeppler,  D. Barton,  Z. Benda,  Y. A. Bernard,  
 E. J. Berquist,  K. B. Bravaya,  H. Burton,  K. Carter-Fenk,  D. Casanova,  
 Chun-Min Chang,  Yunqing Chen,  A. Chien,  K. D. Closser,  M. P. Coons,  
 S. Coriani,  S. Dasgupta,  A. L. Dempwolff,  M. Diedenhofen,  Hainam Do,  
 R. G. Edgar,  Po-Tung Fang,  S. Faraji,  S. Fatehi,  Qingguo Feng,  
 J. Fosso-Tande,  J. Gayvert,  Qinghui Ge,  A. Ghysels,  G. Gidofalvi,  
 J. Gomes,  J. Gonthier,  A. Gunina,  D. Hait,  M. W. D. Hanson-Heine,  
 P. H. P. Harbach,  A. W. Hauser,  M. F. Herbst,  J. E. Herr,  
 E. G. Hohenstein,  Z. C. Holden,  Kerwin Hui,  B. C. Huynh,  T.-C. Jagau,  
 Hyunjun Ji,  B. Kaduk,  K. Khistyaev,  Jaehoon Kim,  P. Klunzinger,  K. Koh,  
 D. Kosenkov,  L. Koulias,  T. Kowalczyk,  C. M. Krauter,  A. Kunitsa,  
 Ka Un Lao,  A. Laurent,  K. V. Lawler,  Joonho Lee,  D. Lefrancois,  
 S. Lehtola,  D. S. Levine,  Yi-Pei Li,  You-Sheng Lin,  Fenglai Liu,  
 Kuan-Yu Liu,  E. Livshits,  M. Loipersberger,  A. Luenser,  P. Manohar,  
 E. Mansoor,  S. F. Manzer,  Shan-Ping Mao,  Yuezhi Mao,  N. Mardirossian,  
 A. V. Marenich,  T. Markovich,  L. A. Martinez-Martinez,  S. A. Maurer,  
 N. J. Mayhall,  S. C. McKenzie,  J.-M. Mewes,  P. Morgante,  A. F. Morrison,  
 J. W. Mullinax,  K. Nanda,  T. S. Nguyen-Beck,  R. Olivares-Amaya,  
 K. J. Oosterbaan,  J. A. Parkhill,  S. K. Paul,  F. Pavosevic,  Zheng Pei,  
 T. M. Perrine,  F. Plasser,  P. Pokhilko,  S. Prager,  A. Prociuk,  
 E. Ramos,  B. Rana,  D. R. Rehn,  F. Rob,  M. Scheurer,  M. Schneider,  
 N. Sergueev,  S. M. Sharada,  S. Sharma,  D. W. Small,  T. Stauch,  
 C. J. Stein,  T. Stein,  Yu-Chuan Su,  S. P. Veccham,  Zhen Tao,  
 A. J. W. Thom,  A. Tkatchenko,  T. Tsuchimochi,  N. M. Tubman,  L. Vogt,  
 M. L. Vidal,  O. Vydrov,  M. A. Watson,  J. Wenzel,  M. de Wergifosse,  
 T. A. Wesolowski,  A. White,  J. Witte,  A. Yamada,  Jun Yang,  K. Yao,  
 S. Yeganeh,  S. R. Yost,  Zhi-Qiang You,  A. Zech,  Igor Ying Zhang,  
 Xing Zhang,  Yan Zhao,  Ying Zhu,  B. R. Brooks,  G. K. L. Chan,  
 C. J. Cramer,  M. S. Gordon,  W. J. Hehre,  A. Klamt,  M. W. Schmidt,  
 C. D. Sherrill,  D. G. Truhlar,  A. Aspuru-Guzik,  R. Baer,  A. T. Bell,  
 N. A. Besley,  Jeng-Da Chai,  A. E. DePrince, III,  R. A. DiStasio Jr.,  
 A. Dreuw,  B. D. Dunietz,  T. R. Furlani,  Chao-Ping Hsu,  Yousung Jung,  
 Jing Kong,  D. S. Lambrecht,  WanZhen Liang,  C. Ochsenfeld,  
 V. A. Rassolov,  L. V. Slipchenko,  J. E. Subotnik,  T. Van Voorhis,  
 J. M. Herbert,  A. I. Krylov,  P. M. W. Gill,  M. Head-Gordon

 Contributors to earlier versions of Q-Chem not listed above: 
 R. D. Adamson,  B. Austin,  J. Baker,  G. J. O. Beran,  K. Brandhorst,  
 S. T. Brown,  E. F. C. Byrd,  A. K. Chakraborty,  C.-L. Cheng,  
 Siu Hung Chien,  D. M. Chipman,  D. L. Crittenden,  H. Dachsel,  
 R. J. Doerksen,  A. D. Dutoi,  L. Fusti-Molnar,  W. A. Goddard III,  
 A. Golubeva-Zadorozhnaya,  S. R. Gwaltney,  G. Hawkins,  A. Heyden,  
 S. Hirata,  G. Kedziora,  F. J. Keil,  C. Kelley,  Jihan Kim,  R. A. King,  
 R. Z. Khaliullin,  P. P. Korambath,  W. Kurlancheek,  A. M. Lee,  M. S. Lee,  
 S. V. Levchenko,  Ching Yeh Lin,  D. Liotard,  R. C. Lochan,  I. Lotan,  
 P. E. Maslen,  N. Nair,  D. P. O'Neill,  D. Neuhauser,  E. Neuscamman,  
 C. M. Oana,  R. Olson,  B. Peters,  R. Peverati,  P. A. Pieniazek,  
 Y. M. Rhee,  J. Ritchie,  M. A. Rohrdanz,  E. Rosta,  N. J. Russ,  
 H. F. Schaefer III,  N. E. Schultz,  N. Shenvi,  A. C. Simmonett,  A. Sodt,  
 D. Stuck,  K. S. Thanthiriwatte,  V. Vanovschi,  Tao Wang,  A. Warshel,  
 C. F. Williams,  Q. Wu,  X. Xu,  W. Zhang

 Please cite Q-Chem as follows:
 Y. Shao et al., Mol. Phys. 113, 184-215 (2015)
 DOI: 10.1080/00268976.2014.952696

 Q-Chem 5.3.0 for Intel X86 EM64T Linux

 Parts of Q-Chem use Armadillo 9.800.1 (Horizon Scraper).
 http://arma.sourceforge.net/

 Q-Chem begins on Thu Oct  1 23:24:59 2020  

n0065.mhg0
Host: 0

     Scratch files written to /local/scratch/users/yhljason/SiH4_DSD-PBEPBE-D3_aug-cc-pcVQZ.inp20201001170114//
Processing $rem in /clusterfs/mhg/diptarka/qchem_transmom//config/preferences:
Processing $rem in /global/home/users/yhljason/.qchemrc:
The previous job contains 0 fragments, simply inherited here
Analytic post-HF gradients are not available with non-HF exchange

Checking the input file for inconsistencies... 	...done.

--------------------------------------------------------------
User input:
--------------------------------------------------------------
$molecule
read
$end

$rem

jobtype sp
method DSD-PBEPBE-D3
xc_grid 000099000590
basis aug-cc-pcVQZ
max_scf_cycles 200
thresh 14
scf_convergence 8
mem_total 128000
cc_memory 96000
cc_backend xm
mem_static 1500
symmetry false
sym_ignore true
scf_guess read
unrestricted false
scf_algorithm gdm
n_frozen_core 0
$end

$multipole_field
XX 0.0001
$end


--------------------------------------------------------------
 Adding empirical dispersion correction 
 ----------------------------------------------------------------
 Doing -D3(BJ) with
 s6 =   0.78000
 s8 =   0.00000
 a1 =   0.00000
 a2 =   6.10000
 -D3 energy without 3body term =     -0.0015234728 hartrees
 ----------------------------------------------------------------
             Standard Nuclear Orientation (Angstroms)
    I     Atom           X                Y                Z
 ----------------------------------------------------------------
    1      Si      0.0000000000     0.0000000000     0.0000000000
    2      H       0.8544000000     0.8544000000     0.8544000000
    3      H      -0.8544000000    -0.8544000000     0.8544000000
    4      H      -0.8544000000     0.8544000000    -0.8544000000
    5      H       0.8544000000    -0.8544000000    -0.8544000000
 ----------------------------------------------------------------
 Nuclear Repulsion Energy =          21.33708639 hartrees
 There are        9 alpha and        9 beta electrons
 Requested basis set is aug-cc-pCVQZ
 There are 90 shells and 318 basis functions

 Total QAlloc Memory Limit 128000 MB
 Mega-Array Size      1467 MB
 MEM_STATIC part      1500 MB

                       Distance Matrix (Angstroms)
             Si(  1)   H (  2)   H (  3)   H (  4)
   H (  2)  1.479864
   H (  3)  1.479864  2.416608
   H (  4)  1.479864  2.416608  2.416608
   H (  5)  1.479864  2.416608  2.416608  2.416608

 Applying Cartesian multipole field
    Component          Value
    ---------          -----
     (2,0,0)        1.00000E-04
 Nucleus-field energy     =     0.0010427500 hartrees
 A cutoff of  1.0D-14 yielded   4095 shell pairs
 There are     51367 function pairs (     79075 Cartesian)
 Smallest overlap matrix eigenvalue = 7.27E-06
 Guess MOs from SCF MO coefficient file

 -----------------------------------------------------------------------
  General SCF calculation program by
  Eric Jon Sundstrom, Paul Horn, Yuezhi Mao, Dmitri Zuev, Alec White,
  David Stuck, Shaama M.S., Shane Yost, Joonho Lee, David Small,
  Daniel Levine, Susi Lehtola, Hugh Burton, Evgeny Epifanovsky,
  Bang C. Huynh
 -----------------------------------------------------------------------
 Exchange:     0.6800 Hartree-Fock + 0.3200 PBE
 Correlation:  0.4900 PBE
 Using Euler-Maclaurin-Lebedev (99,590) quadrature formula
 Dispersion:   Grimme D3
 using 8 threads for integral computing
 -------------------------------------------------------
 OpenMP Integral computing Module                
 Release: version 2.0, May 2017, Q-Chem Inc. Pleasanton 
 -------------------------------------------------------
 A restricted SCF calculation will be
 performed using GDM
 SCF converges when RMS gradient is below 1.0e-08
 ---------------------------------------
  Cycle       Energy        RMS Gradient
 ---------------------------------------
    1    -291.5199051835      3.22e-04   Normal BFGS step
    2    -291.5199063207      6.44e-05   Normal BFGS step
    3    -291.5199063745      1.07e-05   Normal BFGS step
    4    -291.5199063762      1.48e-06   Normal BFGS step
    5    -291.5199063763      4.58e-07   Normal BFGS step
    6    -291.5199063763      6.81e-08   Normal BFGS step
    7    -291.5199063763      5.76e-09  Convergence criterion met
 ---------------------------------------
 SCF time:   CPU 2241.49s  wall 285.00s 
 SCF   energy in the final basis set =     -291.5199063763
 Total energy in the final basis set =     -291.5199063763

 Components of the MP2 correlation energy:
        aaaa  correlation energy =        -0.0076228925 au
        abab  correlation energy =        -0.2436057528 au
        bbbb  correlation energy =        -0.0076228925 au
        non-Brillouin singles    =        -0.0000000000 au

 Total  MP2   correlation energy =                    -0.25885154 au
        MP2         total energy =                  -291.77875791 au

 --------------------------------------------------------------

                    Orbital Energies (a.u.)
 --------------------------------------------------------------

 Alpha MOs
 -- Occupied --
-67.6901  -5.7822  -3.9858  -3.9858  -3.9858  -0.6614  -0.4352  -0.4351
 -0.4351
 -- Virtual --
  0.0151   0.0302   0.0338   0.0338   0.0538   0.0538   0.0558   0.0893
  0.0915   0.0979   0.0984   0.0986   0.0986   0.1693   0.1714   0.1726
  0.1726   0.1909   0.1909   0.1916   0.2164   0.2180   0.2346   0.2346
  0.2348   0.2955   0.2963   0.2963   0.3077   0.3228   0.3232   0.3232
  0.3402   0.4066   0.4066   0.4076   0.4076   0.4076   0.4079   0.4235
  0.4241   0.4292   0.4519   0.4525   0.4525   0.5900   0.5900   0.5902
  0.6144   0.6144   0.6525   0.6868   0.6875   0.6875   0.7234   0.7236
  0.7236   0.7979   0.7979   0.7983   0.7988   0.7992   0.8573   0.8573
  0.8575   0.8649   0.8649   0.8650   0.8785   0.9205   0.9205   0.9205
  0.9264   0.9268   0.9357   0.9792   0.9792   0.9792   1.1076   1.1080
  1.1080   1.1442   1.1914   1.1919   1.1919   1.1964   1.1964   1.1967
  1.2896   1.2896   1.3940   1.4515   1.4515   1.4517   1.4614   1.4616
  1.5026   1.5026   1.5026   1.6271   1.6271   1.6272   1.6429   1.6431
  1.6431   1.7932   1.8115   1.8115   1.8115   1.9533   1.9535   1.9545
  1.9545   1.9546   1.9605   1.9605   1.9605   1.9605   1.9814   1.9815
  1.9815   1.9975   1.9976   2.0616   2.0792   2.0793   2.0793   2.1715
  2.1716   2.1716   2.2044   2.2045   2.2045   2.2188   2.3117   2.3117
  2.3117   2.3686   2.4889   2.4890   2.5141   2.5141   2.5141   2.5477
  2.5477   2.5478   2.6451   2.6452   2.6452   2.6682   2.6682   2.7086
  2.7647   2.7647   2.7648   2.7991   2.7991   2.7992   2.9438   2.9439
  3.0278   3.0278   3.0278   3.0875   3.0875   3.0875   3.0962   3.3242
  3.3243   3.3243   3.3650   3.3650   3.3651   3.4500   3.4500   3.4500
  3.6513   3.6513   3.8170   3.8171   3.8777   3.8970   3.8970   3.8970
  4.0723   4.0724   4.0724   4.0888   4.0888   4.0888   4.3934   4.9705
  4.9706   4.9706   6.3226   6.3226   6.5579   6.5663   6.5663   6.5664
  6.5813   6.6088   6.6088   6.6088   6.6599   6.6599   6.6599   6.6881
  6.8149   6.8149   6.8149   6.8598   6.8598   6.8598   6.8842   6.8842
  6.8842   7.0600   7.0601   7.2739   7.2739   7.2740   7.3934   7.3934
  7.4212   7.7894   7.7894   7.7894   8.0363   8.0363   8.0364   8.2645
  8.3753   8.3753   8.4824   8.4824   8.4824   8.4937   8.4937   8.4937
  8.6476   8.6477   8.6477   8.6608   8.6608   8.6608   8.8478   8.8478
  9.1700   9.1700   9.1700   9.2504   9.2504   9.2504   9.3788   9.3788
  9.4974   9.4974   9.4974   9.7687   9.9417   9.9418   9.9418   9.9967
 12.5246  12.5246  12.5246  14.0308  14.0308  14.0308  14.2375  14.2375
 14.2375  14.6722  19.9712  21.7745  21.7745  22.4239  22.4239  22.4239
 33.3079  33.3079  33.3079  38.7527  38.7527  38.7527  38.7537  38.7537
 38.7556  38.7596  38.7596  38.7596  48.2192  48.2192  48.2192  48.3196
 48.3196  48.3196  48.5283  56.4192  64.3702  64.3702  64.8270  64.8270
 64.8270 102.0210 102.0210 102.0210 272.5054
 --------------------------------------------------------------

          Ground-State Mulliken Net Atomic Charges

     Atom                 Charge (a.u.)
  ----------------------------------------
      1 Si                    0.249703
      2 H                    -0.062426
      3 H                    -0.062426
      4 H                    -0.062426
      5 H                    -0.062426
  ----------------------------------------
  Sum of atomic charges =     0.000000

 -----------------------------------------------------------------
                    Cartesian Multipole Moments
 -----------------------------------------------------------------
    Charge (ESU x 10^10)
                 0.0000
    Dipole Moment (Debye)
         X      -0.0000      Y      -0.0000      Z      -0.0000
       Tot       0.0000
    Quadrupole Moments (Debye-Ang)
        XX     -16.6441     XY      -0.0000     YY     -16.6127
        XZ      -0.0000     YZ       0.0000     ZZ     -16.6127
    Octopole Moments (Debye-Ang^2)
       XXX      -0.0000    XXY      -0.0000    XYY       0.0000
       YYY       0.0000    XXZ      -0.0000    XYZ      -1.2504
       YYZ      -0.0000    XZZ       0.0000    YZZ      -0.0000
       ZZZ       0.0000
    Hexadecapole Moments (Debye-Ang^3)
      XXXX     -42.8659   XXXY      -0.0000   XXYY     -14.0410
      XYYY      -0.0000   YYYY     -42.7129   XXXZ      -0.0000
      XXYZ      -0.0000   XYYZ      -0.0000   YYYZ       0.0000
      XXZZ     -14.0410   XYZZ      -0.0000   YYZZ     -14.0061
      XZZZ      -0.0000   YZZZ       0.0000   ZZZZ     -42.7129
 -----------------------------------------------------------------
Archival summary:
1\1\n0065.mhg0\SP\ProcedureUnspecified\BasisUnspecified\i14\yhljason\ThuOct123:37:562020ThuOct123:37:562020\0\\#,ProcedureUnspecified,BasisUnspecified,\\0,1\Si\H,1,1.47986\H,1,1.47986,2,109.471\H,1,1.47986,2,109.471,3,120,0\H,1,1.47986,2,109.471,3,-120,0\\\@

 Total job time:  776.83s(wall), 4718.27s(cpu) 
 Thu Oct  1 23:37:56 2020

        *************************************************************
        *                                                           *
        *  Thank you very much for using Q-Chem.  Have a nice day.  *
        *                                                           *
        *************************************************************


 
User input: 3 of 7 
 
                  Welcome to Q-Chem
     A Quantum Leap Into The Future Of Chemistry


 Q-Chem 5.3 (devel), Q-Chem, Inc., Pleasanton, CA (2020)

 Yihan Shao,  Zhengting Gan,  E. Epifanovsky,  A. T. B. Gilbert,  M. Wormit,  
 J. Kussmann,  A. W. Lange,  A. Behn,  Jia Deng,  Xintian Feng,  D. Ghosh,  
 M. Goldey,  P. R. Horn,  L. D. Jacobson,  I. Kaliman,  T. Kus,  A. Landau,  
 Jie Liu,  E. I. Proynov,  R. M. Richard,  R. P. Steele,  E. J. Sundstrom,  
 H. L. Woodcock III,  P. M. Zimmerman,  D. Zuev,  B. Alam,  B. Albrecht,  
 E. Alguire,  S. A. Baeppler,  D. Barton,  Z. Benda,  Y. A. Bernard,  
 E. J. Berquist,  K. B. Bravaya,  H. Burton,  K. Carter-Fenk,  D. Casanova,  
 Chun-Min Chang,  Yunqing Chen,  A. Chien,  K. D. Closser,  M. P. Coons,  
 S. Coriani,  S. Dasgupta,  A. L. Dempwolff,  M. Diedenhofen,  Hainam Do,  
 R. G. Edgar,  Po-Tung Fang,  S. Faraji,  S. Fatehi,  Qingguo Feng,  
 J. Fosso-Tande,  J. Gayvert,  Qinghui Ge,  A. Ghysels,  G. Gidofalvi,  
 J. Gomes,  J. Gonthier,  A. Gunina,  D. Hait,  M. W. D. Hanson-Heine,  
 P. H. P. Harbach,  A. W. Hauser,  M. F. Herbst,  J. E. Herr,  
 E. G. Hohenstein,  Z. C. Holden,  Kerwin Hui,  B. C. Huynh,  T.-C. Jagau,  
 Hyunjun Ji,  B. Kaduk,  K. Khistyaev,  Jaehoon Kim,  P. Klunzinger,  K. Koh,  
 D. Kosenkov,  L. Koulias,  T. Kowalczyk,  C. M. Krauter,  A. Kunitsa,  
 Ka Un Lao,  A. Laurent,  K. V. Lawler,  Joonho Lee,  D. Lefrancois,  
 S. Lehtola,  D. S. Levine,  Yi-Pei Li,  You-Sheng Lin,  Fenglai Liu,  
 Kuan-Yu Liu,  E. Livshits,  M. Loipersberger,  A. Luenser,  P. Manohar,  
 E. Mansoor,  S. F. Manzer,  Shan-Ping Mao,  Yuezhi Mao,  N. Mardirossian,  
 A. V. Marenich,  T. Markovich,  L. A. Martinez-Martinez,  S. A. Maurer,  
 N. J. Mayhall,  S. C. McKenzie,  J.-M. Mewes,  P. Morgante,  A. F. Morrison,  
 J. W. Mullinax,  K. Nanda,  T. S. Nguyen-Beck,  R. Olivares-Amaya,  
 K. J. Oosterbaan,  J. A. Parkhill,  S. K. Paul,  F. Pavosevic,  Zheng Pei,  
 T. M. Perrine,  F. Plasser,  P. Pokhilko,  S. Prager,  A. Prociuk,  
 E. Ramos,  B. Rana,  D. R. Rehn,  F. Rob,  M. Scheurer,  M. Schneider,  
 N. Sergueev,  S. M. Sharada,  S. Sharma,  D. W. Small,  T. Stauch,  
 C. J. Stein,  T. Stein,  Yu-Chuan Su,  S. P. Veccham,  Zhen Tao,  
 A. J. W. Thom,  A. Tkatchenko,  T. Tsuchimochi,  N. M. Tubman,  L. Vogt,  
 M. L. Vidal,  O. Vydrov,  M. A. Watson,  J. Wenzel,  M. de Wergifosse,  
 T. A. Wesolowski,  A. White,  J. Witte,  A. Yamada,  Jun Yang,  K. Yao,  
 S. Yeganeh,  S. R. Yost,  Zhi-Qiang You,  A. Zech,  Igor Ying Zhang,  
 Xing Zhang,  Yan Zhao,  Ying Zhu,  B. R. Brooks,  G. K. L. Chan,  
 C. J. Cramer,  M. S. Gordon,  W. J. Hehre,  A. Klamt,  M. W. Schmidt,  
 C. D. Sherrill,  D. G. Truhlar,  A. Aspuru-Guzik,  R. Baer,  A. T. Bell,  
 N. A. Besley,  Jeng-Da Chai,  A. E. DePrince, III,  R. A. DiStasio Jr.,  
 A. Dreuw,  B. D. Dunietz,  T. R. Furlani,  Chao-Ping Hsu,  Yousung Jung,  
 Jing Kong,  D. S. Lambrecht,  WanZhen Liang,  C. Ochsenfeld,  
 V. A. Rassolov,  L. V. Slipchenko,  J. E. Subotnik,  T. Van Voorhis,  
 J. M. Herbert,  A. I. Krylov,  P. M. W. Gill,  M. Head-Gordon

 Contributors to earlier versions of Q-Chem not listed above: 
 R. D. Adamson,  B. Austin,  J. Baker,  G. J. O. Beran,  K. Brandhorst,  
 S. T. Brown,  E. F. C. Byrd,  A. K. Chakraborty,  C.-L. Cheng,  
 Siu Hung Chien,  D. M. Chipman,  D. L. Crittenden,  H. Dachsel,  
 R. J. Doerksen,  A. D. Dutoi,  L. Fusti-Molnar,  W. A. Goddard III,  
 A. Golubeva-Zadorozhnaya,  S. R. Gwaltney,  G. Hawkins,  A. Heyden,  
 S. Hirata,  G. Kedziora,  F. J. Keil,  C. Kelley,  Jihan Kim,  R. A. King,  
 R. Z. Khaliullin,  P. P. Korambath,  W. Kurlancheek,  A. M. Lee,  M. S. Lee,  
 S. V. Levchenko,  Ching Yeh Lin,  D. Liotard,  R. C. Lochan,  I. Lotan,  
 P. E. Maslen,  N. Nair,  D. P. O'Neill,  D. Neuhauser,  E. Neuscamman,  
 C. M. Oana,  R. Olson,  B. Peters,  R. Peverati,  P. A. Pieniazek,  
 Y. M. Rhee,  J. Ritchie,  M. A. Rohrdanz,  E. Rosta,  N. J. Russ,  
 H. F. Schaefer III,  N. E. Schultz,  N. Shenvi,  A. C. Simmonett,  A. Sodt,  
 D. Stuck,  K. S. Thanthiriwatte,  V. Vanovschi,  Tao Wang,  A. Warshel,  
 C. F. Williams,  Q. Wu,  X. Xu,  W. Zhang

 Please cite Q-Chem as follows:
 Y. Shao et al., Mol. Phys. 113, 184-215 (2015)
 DOI: 10.1080/00268976.2014.952696

 Q-Chem 5.3.0 for Intel X86 EM64T Linux

 Parts of Q-Chem use Armadillo 9.800.1 (Horizon Scraper).
 http://arma.sourceforge.net/

 Q-Chem begins on Thu Oct  1 23:37:56 2020  

n0065.mhg0
Host: 0

     Scratch files written to /local/scratch/users/yhljason/SiH4_DSD-PBEPBE-D3_aug-cc-pcVQZ.inp20201001170114//
Processing $rem in /clusterfs/mhg/diptarka/qchem_transmom//config/preferences:
Processing $rem in /global/home/users/yhljason/.qchemrc:
The previous job contains 0 fragments, simply inherited here
Analytic post-HF gradients are not available with non-HF exchange

Checking the input file for inconsistencies... 	...done.

--------------------------------------------------------------
User input:
--------------------------------------------------------------
$molecule
read
$end

$rem

jobtype sp
method DSD-PBEPBE-D3
xc_grid 000099000590
basis aug-cc-pcVQZ
max_scf_cycles 200
thresh 14
scf_convergence 8
mem_total 128000
cc_memory 96000
cc_backend xm
mem_static 1500
symmetry false
sym_ignore true
scf_guess read
unrestricted false
scf_algorithm gdm
n_frozen_core 0
$end

$multipole_field
XX -0.0001
$end


--------------------------------------------------------------
 Adding empirical dispersion correction 
 ----------------------------------------------------------------
 Doing -D3(BJ) with
 s6 =   0.78000
 s8 =   0.00000
 a1 =   0.00000
 a2 =   6.10000
 -D3 energy without 3body term =     -0.0015234728 hartrees
 ----------------------------------------------------------------
             Standard Nuclear Orientation (Angstroms)
    I     Atom           X                Y                Z
 ----------------------------------------------------------------
    1      Si      0.0000000000     0.0000000000     0.0000000000
    2      H       0.8544000000     0.8544000000     0.8544000000
    3      H      -0.8544000000    -0.8544000000     0.8544000000
    4      H      -0.8544000000     0.8544000000    -0.8544000000
    5      H       0.8544000000    -0.8544000000    -0.8544000000
 ----------------------------------------------------------------
 Nuclear Repulsion Energy =          21.33708639 hartrees
 There are        9 alpha and        9 beta electrons
 Requested basis set is aug-cc-pCVQZ
 There are 90 shells and 318 basis functions

 Total QAlloc Memory Limit 128000 MB
 Mega-Array Size      1467 MB
 MEM_STATIC part      1500 MB

                       Distance Matrix (Angstroms)
             Si(  1)   H (  2)   H (  3)   H (  4)
   H (  2)  1.479864
   H (  3)  1.479864  2.416608
   H (  4)  1.479864  2.416608  2.416608
   H (  5)  1.479864  2.416608  2.416608  2.416608

 Applying Cartesian multipole field
    Component          Value
    ---------          -----
     (2,0,0)       -1.00000E-04
 Nucleus-field energy     =    -0.0010427500 hartrees
 A cutoff of  1.0D-14 yielded   4095 shell pairs
 There are     51367 function pairs (     79075 Cartesian)
 Smallest overlap matrix eigenvalue = 7.27E-06
 Guess MOs from SCF MO coefficient file

 -----------------------------------------------------------------------
  General SCF calculation program by
  Eric Jon Sundstrom, Paul Horn, Yuezhi Mao, Dmitri Zuev, Alec White,
  David Stuck, Shaama M.S., Shane Yost, Joonho Lee, David Small,
  Daniel Levine, Susi Lehtola, Hugh Burton, Evgeny Epifanovsky,
  Bang C. Huynh
 -----------------------------------------------------------------------
 Exchange:     0.6800 Hartree-Fock + 0.3200 PBE
 Correlation:  0.4900 PBE
 Using Euler-Maclaurin-Lebedev (99,590) quadrature formula
 Dispersion:   Grimme D3
 using 8 threads for integral computing
 -------------------------------------------------------
 OpenMP Integral computing Module                
 Release: version 2.0, May 2017, Q-Chem Inc. Pleasanton 
 -------------------------------------------------------
 A restricted SCF calculation will be
 performed using GDM
 SCF converges when RMS gradient is below 1.0e-08
 ---------------------------------------
  Cycle       Energy        RMS Gradient
 ---------------------------------------
    1    -291.5174314871      6.74e-04   Normal BFGS step
    2    -291.5174360369      1.22e-04   Normal BFGS step
    3    -291.5174362512      2.13e-05   Normal BFGS step
    4    -291.5174362582      2.96e-06   Normal BFGS step
    5    -291.5174362584      9.13e-07   Normal BFGS step
    6    -291.5174362584      1.34e-07   Normal BFGS step
    7    -291.5174362584      1.14e-08   Normal BFGS step
    8    -291.5174362584      2.81e-09  Convergence criterion met
 ---------------------------------------
 SCF time:   CPU 2447.50s  wall 311.00s 
 SCF   energy in the final basis set =     -291.5174362584
 Total energy in the final basis set =     -291.5174362584

 Components of the MP2 correlation energy:
        aaaa  correlation energy =        -0.0076233654 au
        abab  correlation energy =        -0.2436192502 au
        bbbb  correlation energy =        -0.0076233654 au
        non-Brillouin singles    =        -0.0000000000 au

 Total  MP2   correlation energy =                    -0.25886598 au
        MP2         total energy =                  -291.77630224 au

 --------------------------------------------------------------

                    Orbital Energies (a.u.)
 --------------------------------------------------------------

 Alpha MOs
 -- Occupied --
-67.6892  -5.7813  -3.9849  -3.9849  -3.9849  -0.6606  -0.4343  -0.4343
 -0.4342
 -- Virtual --
  0.0203   0.0374   0.0374   0.0408   0.0593   0.0612   0.0612   0.0928
  0.0950   0.1026   0.1026   0.1028   0.1032   0.1727   0.1760   0.1760
  0.1773   0.1947   0.1954   0.1954   0.2192   0.2208   0.2374   0.2376
  0.2376   0.2984   0.2984   0.2991   0.3105   0.3261   0.3261   0.3265
  0.3430   0.4089   0.4096   0.4096   0.4102   0.4107   0.4107   0.4259
  0.4265   0.4316   0.4552   0.4552   0.4558   0.5919   0.5921   0.5921
  0.6163   0.6163   0.6549   0.6889   0.6889   0.6896   0.7255   0.7255
  0.7257   0.7999   0.8002   0.8002   0.8008   0.8013   0.8590   0.8593
  0.8593   0.8665   0.8666   0.8666   0.8807   0.9225   0.9225   0.9225
  0.9279   0.9283   0.9374   0.9808   0.9808   0.9808   1.1092   1.1092
  1.1095   1.1456   1.1930   1.1930   1.1935   1.1977   1.1980   1.1980
  1.2910   1.2910   1.3957   1.4529   1.4531   1.4531   1.4629   1.4631
  1.5040   1.5041   1.5041   1.6285   1.6286   1.6286   1.6445   1.6445
  1.6447   1.7944   1.8128   1.8129   1.8129   1.9549   1.9550   1.9557
  1.9558   1.9558   1.9618   1.9619   1.9619   1.9620   1.9826   1.9826
  1.9827   1.9989   1.9990   2.0629   2.0806   2.0806   2.0806   2.1730
  2.1730   2.1731   2.2056   2.2056   2.2056   2.2200   2.3131   2.3131
  2.3131   2.3697   2.4899   2.4900   2.5153   2.5153   2.5153   2.5487
  2.5488   2.5488   2.6464   2.6464   2.6465   2.6693   2.6693   2.7098
  2.7658   2.7658   2.7658   2.8003   2.8003   2.8003   2.9449   2.9450
  3.0289   3.0289   3.0290   3.0886   3.0886   3.0886   3.0973   3.3253
  3.3253   3.3254   3.3661   3.3662   3.3662   3.4511   3.4511   3.4511
  3.6523   3.6523   3.8181   3.8183   3.8789   3.8981   3.8981   3.8981
  4.0734   4.0734   4.0735   4.0898   4.0898   4.0898   4.3944   4.9715
  4.9715   4.9716   6.3235   6.3236   6.5589   6.5673   6.5673   6.5673
  6.5823   6.6097   6.6097   6.6097   6.6608   6.6608   6.6608   6.6891
  6.8159   6.8159   6.8159   6.8608   6.8608   6.8608   6.8851   6.8851
  6.8851   7.0610   7.0610   7.2749   7.2749   7.2749   7.3943   7.3943
  7.4222   7.7903   7.7903   7.7903   8.0373   8.0374   8.0374   8.2655
  8.3763   8.3763   8.4833   8.4833   8.4833   8.4947   8.4947   8.4947
  8.6486   8.6486   8.6486   8.6617   8.6617   8.6617   8.8487   8.8487
  9.1710   9.1710   9.1710   9.2514   9.2514   9.2514   9.3797   9.3798
  9.4984   9.4984   9.4984   9.7697   9.9427   9.9427   9.9427   9.9977
 12.5255  12.5255  12.5255  14.0317  14.0317  14.0317  14.2384  14.2384
 14.2384  14.6731  19.9721  21.7754  21.7754  22.4248  22.4248  22.4248
 33.3088  33.3088  33.3088  38.7536  38.7536  38.7536  38.7546  38.7546
 38.7565  38.7605  38.7605  38.7605  48.2202  48.2202  48.2202  48.3205
 48.3205  48.3205  48.5293  56.4201  64.3712  64.3712  64.8279  64.8279
 64.8279 102.0219 102.0219 102.0219 272.5063
 --------------------------------------------------------------

          Ground-State Mulliken Net Atomic Charges

     Atom                 Charge (a.u.)
  ----------------------------------------
      1 Si                    0.251934
      2 H                    -0.062983
      3 H                    -0.062983
      4 H                    -0.062983
      5 H                    -0.062983
  ----------------------------------------
  Sum of atomic charges =     0.000000

 -----------------------------------------------------------------
                    Cartesian Multipole Moments
 -----------------------------------------------------------------
    Charge (ESU x 10^10)
                -0.0000
    Dipole Moment (Debye)
         X       0.0000      Y      -0.0000      Z      -0.0000
       Tot       0.0000
    Quadrupole Moments (Debye-Ang)
        XX     -16.5800     XY      -0.0000     YY     -16.6111
        XZ      -0.0000     YZ       0.0000     ZZ     -16.6111
    Octopole Moments (Debye-Ang^2)
       XXX      -0.0000    XXY       0.0000    XYY       0.0000
       YYY      -0.0000    XXZ      -0.0000    XYZ      -1.2341
       YYZ      -0.0000    XZZ       0.0000    YZZ      -0.0000
       ZZZ      -0.0000
    Hexadecapole Moments (Debye-Ang^3)
      XXXX     -42.5447   XXXY      -0.0000   XXYY     -13.9676
      XYYY      -0.0000   YYYY     -42.6960   XXXZ      -0.0000
      XXYZ       0.0000   XYYZ      -0.0000   YYYZ       0.0000
      XXZZ     -13.9676   XYZZ      -0.0000   YYZZ     -14.0022
      XZZZ      -0.0000   YZZZ       0.0000   ZZZZ     -42.6960
 -----------------------------------------------------------------
Archival summary:
1\1\n0065.mhg0\SP\ProcedureUnspecified\BasisUnspecified\i14\yhljason\ThuOct123:51:062020ThuOct123:51:062020\0\\#,ProcedureUnspecified,BasisUnspecified,\\0,1\Si\H,1,1.47986\H,1,1.47986,2,109.471\H,1,1.47986,2,109.471,3,120,0\H,1,1.47986,2,109.471,3,-120,0\\\@

 Total job time:  789.78s(wall), 4860.92s(cpu) 
 Thu Oct  1 23:51:06 2020

        *************************************************************
        *                                                           *
        *  Thank you very much for using Q-Chem.  Have a nice day.  *
        *                                                           *
        *************************************************************


 
User input: 4 of 7 
 
                  Welcome to Q-Chem
     A Quantum Leap Into The Future Of Chemistry


 Q-Chem 5.3 (devel), Q-Chem, Inc., Pleasanton, CA (2020)

 Yihan Shao,  Zhengting Gan,  E. Epifanovsky,  A. T. B. Gilbert,  M. Wormit,  
 J. Kussmann,  A. W. Lange,  A. Behn,  Jia Deng,  Xintian Feng,  D. Ghosh,  
 M. Goldey,  P. R. Horn,  L. D. Jacobson,  I. Kaliman,  T. Kus,  A. Landau,  
 Jie Liu,  E. I. Proynov,  R. M. Richard,  R. P. Steele,  E. J. Sundstrom,  
 H. L. Woodcock III,  P. M. Zimmerman,  D. Zuev,  B. Alam,  B. Albrecht,  
 E. Alguire,  S. A. Baeppler,  D. Barton,  Z. Benda,  Y. A. Bernard,  
 E. J. Berquist,  K. B. Bravaya,  H. Burton,  K. Carter-Fenk,  D. Casanova,  
 Chun-Min Chang,  Yunqing Chen,  A. Chien,  K. D. Closser,  M. P. Coons,  
 S. Coriani,  S. Dasgupta,  A. L. Dempwolff,  M. Diedenhofen,  Hainam Do,  
 R. G. Edgar,  Po-Tung Fang,  S. Faraji,  S. Fatehi,  Qingguo Feng,  
 J. Fosso-Tande,  J. Gayvert,  Qinghui Ge,  A. Ghysels,  G. Gidofalvi,  
 J. Gomes,  J. Gonthier,  A. Gunina,  D. Hait,  M. W. D. Hanson-Heine,  
 P. H. P. Harbach,  A. W. Hauser,  M. F. Herbst,  J. E. Herr,  
 E. G. Hohenstein,  Z. C. Holden,  Kerwin Hui,  B. C. Huynh,  T.-C. Jagau,  
 Hyunjun Ji,  B. Kaduk,  K. Khistyaev,  Jaehoon Kim,  P. Klunzinger,  K. Koh,  
 D. Kosenkov,  L. Koulias,  T. Kowalczyk,  C. M. Krauter,  A. Kunitsa,  
 Ka Un Lao,  A. Laurent,  K. V. Lawler,  Joonho Lee,  D. Lefrancois,  
 S. Lehtola,  D. S. Levine,  Yi-Pei Li,  You-Sheng Lin,  Fenglai Liu,  
 Kuan-Yu Liu,  E. Livshits,  M. Loipersberger,  A. Luenser,  P. Manohar,  
 E. Mansoor,  S. F. Manzer,  Shan-Ping Mao,  Yuezhi Mao,  N. Mardirossian,  
 A. V. Marenich,  T. Markovich,  L. A. Martinez-Martinez,  S. A. Maurer,  
 N. J. Mayhall,  S. C. McKenzie,  J.-M. Mewes,  P. Morgante,  A. F. Morrison,  
 J. W. Mullinax,  K. Nanda,  T. S. Nguyen-Beck,  R. Olivares-Amaya,  
 K. J. Oosterbaan,  J. A. Parkhill,  S. K. Paul,  F. Pavosevic,  Zheng Pei,  
 T. M. Perrine,  F. Plasser,  P. Pokhilko,  S. Prager,  A. Prociuk,  
 E. Ramos,  B. Rana,  D. R. Rehn,  F. Rob,  M. Scheurer,  M. Schneider,  
 N. Sergueev,  S. M. Sharada,  S. Sharma,  D. W. Small,  T. Stauch,  
 C. J. Stein,  T. Stein,  Yu-Chuan Su,  S. P. Veccham,  Zhen Tao,  
 A. J. W. Thom,  A. Tkatchenko,  T. Tsuchimochi,  N. M. Tubman,  L. Vogt,  
 M. L. Vidal,  O. Vydrov,  M. A. Watson,  J. Wenzel,  M. de Wergifosse,  
 T. A. Wesolowski,  A. White,  J. Witte,  A. Yamada,  Jun Yang,  K. Yao,  
 S. Yeganeh,  S. R. Yost,  Zhi-Qiang You,  A. Zech,  Igor Ying Zhang,  
 Xing Zhang,  Yan Zhao,  Ying Zhu,  B. R. Brooks,  G. K. L. Chan,  
 C. J. Cramer,  M. S. Gordon,  W. J. Hehre,  A. Klamt,  M. W. Schmidt,  
 C. D. Sherrill,  D. G. Truhlar,  A. Aspuru-Guzik,  R. Baer,  A. T. Bell,  
 N. A. Besley,  Jeng-Da Chai,  A. E. DePrince, III,  R. A. DiStasio Jr.,  
 A. Dreuw,  B. D. Dunietz,  T. R. Furlani,  Chao-Ping Hsu,  Yousung Jung,  
 Jing Kong,  D. S. Lambrecht,  WanZhen Liang,  C. Ochsenfeld,  
 V. A. Rassolov,  L. V. Slipchenko,  J. E. Subotnik,  T. Van Voorhis,  
 J. M. Herbert,  A. I. Krylov,  P. M. W. Gill,  M. Head-Gordon

 Contributors to earlier versions of Q-Chem not listed above: 
 R. D. Adamson,  B. Austin,  J. Baker,  G. J. O. Beran,  K. Brandhorst,  
 S. T. Brown,  E. F. C. Byrd,  A. K. Chakraborty,  C.-L. Cheng,  
 Siu Hung Chien,  D. M. Chipman,  D. L. Crittenden,  H. Dachsel,  
 R. J. Doerksen,  A. D. Dutoi,  L. Fusti-Molnar,  W. A. Goddard III,  
 A. Golubeva-Zadorozhnaya,  S. R. Gwaltney,  G. Hawkins,  A. Heyden,  
 S. Hirata,  G. Kedziora,  F. J. Keil,  C. Kelley,  Jihan Kim,  R. A. King,  
 R. Z. Khaliullin,  P. P. Korambath,  W. Kurlancheek,  A. M. Lee,  M. S. Lee,  
 S. V. Levchenko,  Ching Yeh Lin,  D. Liotard,  R. C. Lochan,  I. Lotan,  
 P. E. Maslen,  N. Nair,  D. P. O'Neill,  D. Neuhauser,  E. Neuscamman,  
 C. M. Oana,  R. Olson,  B. Peters,  R. Peverati,  P. A. Pieniazek,  
 Y. M. Rhee,  J. Ritchie,  M. A. Rohrdanz,  E. Rosta,  N. J. Russ,  
 H. F. Schaefer III,  N. E. Schultz,  N. Shenvi,  A. C. Simmonett,  A. Sodt,  
 D. Stuck,  K. S. Thanthiriwatte,  V. Vanovschi,  Tao Wang,  A. Warshel,  
 C. F. Williams,  Q. Wu,  X. Xu,  W. Zhang

 Please cite Q-Chem as follows:
 Y. Shao et al., Mol. Phys. 113, 184-215 (2015)
 DOI: 10.1080/00268976.2014.952696

 Q-Chem 5.3.0 for Intel X86 EM64T Linux

 Parts of Q-Chem use Armadillo 9.800.1 (Horizon Scraper).
 http://arma.sourceforge.net/

 Q-Chem begins on Thu Oct  1 23:51:06 2020  

n0065.mhg0
Host: 0

     Scratch files written to /local/scratch/users/yhljason/SiH4_DSD-PBEPBE-D3_aug-cc-pcVQZ.inp20201001170114//
Processing $rem in /clusterfs/mhg/diptarka/qchem_transmom//config/preferences:
Processing $rem in /global/home/users/yhljason/.qchemrc:
The previous job contains 0 fragments, simply inherited here
Analytic post-HF gradients are not available with non-HF exchange

Checking the input file for inconsistencies... 	...done.

--------------------------------------------------------------
User input:
--------------------------------------------------------------
$molecule
read
$end

$rem

jobtype sp
method DSD-PBEPBE-D3
xc_grid 000099000590
basis aug-cc-pcVQZ
max_scf_cycles 200
thresh 14
scf_convergence 8
mem_total 128000
cc_memory 96000
cc_backend xm
mem_static 1500
symmetry false
sym_ignore true
scf_guess read
unrestricted false
scf_algorithm gdm
n_frozen_core 0
$end

$multipole_field
YY 0.0001
$end


--------------------------------------------------------------
 Adding empirical dispersion correction 
 ----------------------------------------------------------------
 Doing -D3(BJ) with
 s6 =   0.78000
 s8 =   0.00000
 a1 =   0.00000
 a2 =   6.10000
 -D3 energy without 3body term =     -0.0015234728 hartrees
 ----------------------------------------------------------------
             Standard Nuclear Orientation (Angstroms)
    I     Atom           X                Y                Z
 ----------------------------------------------------------------
    1      Si      0.0000000000     0.0000000000     0.0000000000
    2      H       0.8544000000     0.8544000000     0.8544000000
    3      H      -0.8544000000    -0.8544000000     0.8544000000
    4      H      -0.8544000000     0.8544000000    -0.8544000000
    5      H       0.8544000000    -0.8544000000    -0.8544000000
 ----------------------------------------------------------------
 Nuclear Repulsion Energy =          21.33708639 hartrees
 There are        9 alpha and        9 beta electrons
 Requested basis set is aug-cc-pCVQZ
 There are 90 shells and 318 basis functions

 Total QAlloc Memory Limit 128000 MB
 Mega-Array Size      1467 MB
 MEM_STATIC part      1500 MB

                       Distance Matrix (Angstroms)
             Si(  1)   H (  2)   H (  3)   H (  4)
   H (  2)  1.479864
   H (  3)  1.479864  2.416608
   H (  4)  1.479864  2.416608  2.416608
   H (  5)  1.479864  2.416608  2.416608  2.416608

 Applying Cartesian multipole field
    Component          Value
    ---------          -----
     (0,2,0)        1.00000E-04
 Nucleus-field energy     =     0.0010427500 hartrees
 A cutoff of  1.0D-14 yielded   4095 shell pairs
 There are     51367 function pairs (     79075 Cartesian)
 Smallest overlap matrix eigenvalue = 7.27E-06
 Guess MOs from SCF MO coefficient file

 -----------------------------------------------------------------------
  General SCF calculation program by
  Eric Jon Sundstrom, Paul Horn, Yuezhi Mao, Dmitri Zuev, Alec White,
  David Stuck, Shaama M.S., Shane Yost, Joonho Lee, David Small,
  Daniel Levine, Susi Lehtola, Hugh Burton, Evgeny Epifanovsky,
  Bang C. Huynh
 -----------------------------------------------------------------------
 Exchange:     0.6800 Hartree-Fock + 0.3200 PBE
 Correlation:  0.4900 PBE
 Using Euler-Maclaurin-Lebedev (99,590) quadrature formula
 Dispersion:   Grimme D3
 using 8 threads for integral computing
 -------------------------------------------------------
 OpenMP Integral computing Module                
 Release: version 2.0, May 2017, Q-Chem Inc. Pleasanton 
 -------------------------------------------------------
 A restricted SCF calculation will be
 performed using GDM
 SCF converges when RMS gradient is below 1.0e-08
 ---------------------------------------
  Cycle       Energy        RMS Gradient
 ---------------------------------------
    1    -291.5199039403      5.25e-04   Normal BFGS step
    2    -291.5199062511      1.10e-04   Normal BFGS step
    3    -291.5199063733      1.18e-05   Normal BFGS step
    4    -291.5199063762      3.02e-06   Normal BFGS step
    5    -291.5199063763      7.39e-07   Normal BFGS step
    6    -291.5199063763      1.39e-07   Normal BFGS step
    7    -291.5199063763      8.45e-09  Convergence criterion met
 ---------------------------------------
 SCF time:   CPU 2159.08s  wall 274.00s 
 SCF   energy in the final basis set =     -291.5199063763
 Total energy in the final basis set =     -291.5199063763

 Components of the MP2 correlation energy:
        aaaa  correlation energy =        -0.0076228925 au
        abab  correlation energy =        -0.2436057528 au
        bbbb  correlation energy =        -0.0076228925 au
        non-Brillouin singles    =        -0.0000000000 au

 Total  MP2   correlation energy =                    -0.25885154 au
        MP2         total energy =                  -291.77875791 au

 --------------------------------------------------------------

                    Orbital Energies (a.u.)
 --------------------------------------------------------------

 Alpha MOs
 -- Occupied --
-67.6901  -5.7822  -3.9858  -3.9858  -3.9858  -0.6614  -0.4352  -0.4351
 -0.4351
 -- Virtual --
  0.0151   0.0302   0.0338   0.0338   0.0538   0.0538   0.0558   0.0893
  0.0915   0.0979   0.0984   0.0986   0.0986   0.1693   0.1714   0.1726
  0.1726   0.1909   0.1909   0.1916   0.2164   0.2180   0.2346   0.2346
  0.2348   0.2955   0.2963   0.2963   0.3077   0.3228   0.3232   0.3232
  0.3402   0.4066   0.4066   0.4076   0.4076   0.4076   0.4079   0.4235
  0.4241   0.4292   0.4519   0.4525   0.4525   0.5900   0.5900   0.5902
  0.6144   0.6144   0.6525   0.6868   0.6875   0.6875   0.7234   0.7236
  0.7236   0.7979   0.7979   0.7983   0.7988   0.7992   0.8573   0.8573
  0.8575   0.8649   0.8649   0.8650   0.8785   0.9205   0.9205   0.9205
  0.9264   0.9268   0.9357   0.9792   0.9792   0.9792   1.1076   1.1080
  1.1080   1.1442   1.1914   1.1919   1.1919   1.1964   1.1964   1.1967
  1.2896   1.2896   1.3940   1.4515   1.4515   1.4517   1.4614   1.4616
  1.5026   1.5026   1.5026   1.6271   1.6271   1.6272   1.6429   1.6431
  1.6431   1.7932   1.8115   1.8115   1.8115   1.9533   1.9535   1.9545
  1.9545   1.9546   1.9605   1.9605   1.9605   1.9605   1.9814   1.9815
  1.9815   1.9975   1.9976   2.0616   2.0792   2.0793   2.0793   2.1715
  2.1716   2.1716   2.2044   2.2045   2.2045   2.2188   2.3117   2.3117
  2.3117   2.3686   2.4889   2.4890   2.5141   2.5141   2.5141   2.5477
  2.5477   2.5478   2.6451   2.6452   2.6452   2.6682   2.6682   2.7086
  2.7647   2.7647   2.7648   2.7991   2.7991   2.7992   2.9438   2.9439
  3.0278   3.0278   3.0278   3.0875   3.0875   3.0875   3.0962   3.3242
  3.3243   3.3243   3.3650   3.3650   3.3651   3.4500   3.4500   3.4500
  3.6513   3.6513   3.8170   3.8171   3.8777   3.8970   3.8970   3.8970
  4.0723   4.0724   4.0724   4.0888   4.0888   4.0888   4.3934   4.9705
  4.9706   4.9706   6.3226   6.3226   6.5579   6.5663   6.5663   6.5664
  6.5813   6.6088   6.6088   6.6088   6.6599   6.6599   6.6599   6.6881
  6.8149   6.8149   6.8149   6.8598   6.8598   6.8598   6.8842   6.8842
  6.8842   7.0600   7.0601   7.2739   7.2739   7.2740   7.3934   7.3934
  7.4212   7.7894   7.7894   7.7894   8.0363   8.0363   8.0364   8.2645
  8.3753   8.3753   8.4824   8.4824   8.4824   8.4937   8.4937   8.4937
  8.6476   8.6477   8.6477   8.6608   8.6608   8.6608   8.8478   8.8478
  9.1700   9.1700   9.1700   9.2504   9.2504   9.2504   9.3788   9.3788
  9.4974   9.4974   9.4974   9.7687   9.9417   9.9418   9.9418   9.9967
 12.5246  12.5246  12.5246  14.0308  14.0308  14.0308  14.2375  14.2375
 14.2375  14.6722  19.9712  21.7745  21.7745  22.4239  22.4239  22.4239
 33.3079  33.3079  33.3079  38.7527  38.7527  38.7527  38.7537  38.7537
 38.7556  38.7596  38.7596  38.7596  48.2192  48.2192  48.2192  48.3196
 48.3196  48.3196  48.5283  56.4192  64.3702  64.3702  64.8270  64.8270
 64.8270 102.0210 102.0210 102.0210 272.5054
 --------------------------------------------------------------

          Ground-State Mulliken Net Atomic Charges

     Atom                 Charge (a.u.)
  ----------------------------------------
      1 Si                    0.249703
      2 H                    -0.062426
      3 H                    -0.062426
      4 H                    -0.062426
      5 H                    -0.062426
  ----------------------------------------
  Sum of atomic charges =     0.000000

 -----------------------------------------------------------------
                    Cartesian Multipole Moments
 -----------------------------------------------------------------
    Charge (ESU x 10^10)
                -0.0000
    Dipole Moment (Debye)
         X       0.0000      Y       0.0000      Z       0.0000
       Tot       0.0000
    Quadrupole Moments (Debye-Ang)
        XX     -16.6127     XY      -0.0000     YY     -16.6441
        XZ       0.0000     YZ       0.0000     ZZ     -16.6127
    Octopole Moments (Debye-Ang^2)
       XXX       0.0000    XXY       0.0000    XYY       0.0000
       YYY      -0.0000    XXZ      -0.0000    XYZ      -1.2504
       YYZ      -0.0000    XZZ       0.0000    YZZ       0.0000
       ZZZ       0.0000
    Hexadecapole Moments (Debye-Ang^3)
      XXXX     -42.7129   XXXY      -0.0000   XXYY     -14.0410
      XYYY      -0.0000   YYYY     -42.8659   XXXZ      -0.0000
      XXYZ       0.0000   XYYZ      -0.0000   YYYZ       0.0000
      XXZZ     -14.0061   XYZZ       0.0000   YYZZ     -14.0410
      XZZZ      -0.0000   YZZZ       0.0000   ZZZZ     -42.7129
 -----------------------------------------------------------------
Archival summary:
1\1\n0065.mhg0\SP\ProcedureUnspecified\BasisUnspecified\i14\yhljason\FriOct200:03:292020FriOct200:03:292020\0\\#,ProcedureUnspecified,BasisUnspecified,\\0,1\Si\H,1,1.47986\H,1,1.47986,2,109.471\H,1,1.47986,2,109.471,3,120,0\H,1,1.47986,2,109.471,3,-120,0\\\@

 Total job time:  743.17s(wall), 4529.69s(cpu) 
 Fri Oct  2 00:03:29 2020

        *************************************************************
        *                                                           *
        *  Thank you very much for using Q-Chem.  Have a nice day.  *
        *                                                           *
        *************************************************************


 
User input: 5 of 7 
 
                  Welcome to Q-Chem
     A Quantum Leap Into The Future Of Chemistry


 Q-Chem 5.3 (devel), Q-Chem, Inc., Pleasanton, CA (2020)

 Yihan Shao,  Zhengting Gan,  E. Epifanovsky,  A. T. B. Gilbert,  M. Wormit,  
 J. Kussmann,  A. W. Lange,  A. Behn,  Jia Deng,  Xintian Feng,  D. Ghosh,  
 M. Goldey,  P. R. Horn,  L. D. Jacobson,  I. Kaliman,  T. Kus,  A. Landau,  
 Jie Liu,  E. I. Proynov,  R. M. Richard,  R. P. Steele,  E. J. Sundstrom,  
 H. L. Woodcock III,  P. M. Zimmerman,  D. Zuev,  B. Alam,  B. Albrecht,  
 E. Alguire,  S. A. Baeppler,  D. Barton,  Z. Benda,  Y. A. Bernard,  
 E. J. Berquist,  K. B. Bravaya,  H. Burton,  K. Carter-Fenk,  D. Casanova,  
 Chun-Min Chang,  Yunqing Chen,  A. Chien,  K. D. Closser,  M. P. Coons,  
 S. Coriani,  S. Dasgupta,  A. L. Dempwolff,  M. Diedenhofen,  Hainam Do,  
 R. G. Edgar,  Po-Tung Fang,  S. Faraji,  S. Fatehi,  Qingguo Feng,  
 J. Fosso-Tande,  J. Gayvert,  Qinghui Ge,  A. Ghysels,  G. Gidofalvi,  
 J. Gomes,  J. Gonthier,  A. Gunina,  D. Hait,  M. W. D. Hanson-Heine,  
 P. H. P. Harbach,  A. W. Hauser,  M. F. Herbst,  J. E. Herr,  
 E. G. Hohenstein,  Z. C. Holden,  Kerwin Hui,  B. C. Huynh,  T.-C. Jagau,  
 Hyunjun Ji,  B. Kaduk,  K. Khistyaev,  Jaehoon Kim,  P. Klunzinger,  K. Koh,  
 D. Kosenkov,  L. Koulias,  T. Kowalczyk,  C. M. Krauter,  A. Kunitsa,  
 Ka Un Lao,  A. Laurent,  K. V. Lawler,  Joonho Lee,  D. Lefrancois,  
 S. Lehtola,  D. S. Levine,  Yi-Pei Li,  You-Sheng Lin,  Fenglai Liu,  
 Kuan-Yu Liu,  E. Livshits,  M. Loipersberger,  A. Luenser,  P. Manohar,  
 E. Mansoor,  S. F. Manzer,  Shan-Ping Mao,  Yuezhi Mao,  N. Mardirossian,  
 A. V. Marenich,  T. Markovich,  L. A. Martinez-Martinez,  S. A. Maurer,  
 N. J. Mayhall,  S. C. McKenzie,  J.-M. Mewes,  P. Morgante,  A. F. Morrison,  
 J. W. Mullinax,  K. Nanda,  T. S. Nguyen-Beck,  R. Olivares-Amaya,  
 K. J. Oosterbaan,  J. A. Parkhill,  S. K. Paul,  F. Pavosevic,  Zheng Pei,  
 T. M. Perrine,  F. Plasser,  P. Pokhilko,  S. Prager,  A. Prociuk,  
 E. Ramos,  B. Rana,  D. R. Rehn,  F. Rob,  M. Scheurer,  M. Schneider,  
 N. Sergueev,  S. M. Sharada,  S. Sharma,  D. W. Small,  T. Stauch,  
 C. J. Stein,  T. Stein,  Yu-Chuan Su,  S. P. Veccham,  Zhen Tao,  
 A. J. W. Thom,  A. Tkatchenko,  T. Tsuchimochi,  N. M. Tubman,  L. Vogt,  
 M. L. Vidal,  O. Vydrov,  M. A. Watson,  J. Wenzel,  M. de Wergifosse,  
 T. A. Wesolowski,  A. White,  J. Witte,  A. Yamada,  Jun Yang,  K. Yao,  
 S. Yeganeh,  S. R. Yost,  Zhi-Qiang You,  A. Zech,  Igor Ying Zhang,  
 Xing Zhang,  Yan Zhao,  Ying Zhu,  B. R. Brooks,  G. K. L. Chan,  
 C. J. Cramer,  M. S. Gordon,  W. J. Hehre,  A. Klamt,  M. W. Schmidt,  
 C. D. Sherrill,  D. G. Truhlar,  A. Aspuru-Guzik,  R. Baer,  A. T. Bell,  
 N. A. Besley,  Jeng-Da Chai,  A. E. DePrince, III,  R. A. DiStasio Jr.,  
 A. Dreuw,  B. D. Dunietz,  T. R. Furlani,  Chao-Ping Hsu,  Yousung Jung,  
 Jing Kong,  D. S. Lambrecht,  WanZhen Liang,  C. Ochsenfeld,  
 V. A. Rassolov,  L. V. Slipchenko,  J. E. Subotnik,  T. Van Voorhis,  
 J. M. Herbert,  A. I. Krylov,  P. M. W. Gill,  M. Head-Gordon

 Contributors to earlier versions of Q-Chem not listed above: 
 R. D. Adamson,  B. Austin,  J. Baker,  G. J. O. Beran,  K. Brandhorst,  
 S. T. Brown,  E. F. C. Byrd,  A. K. Chakraborty,  C.-L. Cheng,  
 Siu Hung Chien,  D. M. Chipman,  D. L. Crittenden,  H. Dachsel,  
 R. J. Doerksen,  A. D. Dutoi,  L. Fusti-Molnar,  W. A. Goddard III,  
 A. Golubeva-Zadorozhnaya,  S. R. Gwaltney,  G. Hawkins,  A. Heyden,  
 S. Hirata,  G. Kedziora,  F. J. Keil,  C. Kelley,  Jihan Kim,  R. A. King,  
 R. Z. Khaliullin,  P. P. Korambath,  W. Kurlancheek,  A. M. Lee,  M. S. Lee,  
 S. V. Levchenko,  Ching Yeh Lin,  D. Liotard,  R. C. Lochan,  I. Lotan,  
 P. E. Maslen,  N. Nair,  D. P. O'Neill,  D. Neuhauser,  E. Neuscamman,  
 C. M. Oana,  R. Olson,  B. Peters,  R. Peverati,  P. A. Pieniazek,  
 Y. M. Rhee,  J. Ritchie,  M. A. Rohrdanz,  E. Rosta,  N. J. Russ,  
 H. F. Schaefer III,  N. E. Schultz,  N. Shenvi,  A. C. Simmonett,  A. Sodt,  
 D. Stuck,  K. S. Thanthiriwatte,  V. Vanovschi,  Tao Wang,  A. Warshel,  
 C. F. Williams,  Q. Wu,  X. Xu,  W. Zhang

 Please cite Q-Chem as follows:
 Y. Shao et al., Mol. Phys. 113, 184-215 (2015)
 DOI: 10.1080/00268976.2014.952696

 Q-Chem 5.3.0 for Intel X86 EM64T Linux

 Parts of Q-Chem use Armadillo 9.800.1 (Horizon Scraper).
 http://arma.sourceforge.net/

 Q-Chem begins on Fri Oct  2 00:03:29 2020  

n0065.mhg0
Host: 0

     Scratch files written to /local/scratch/users/yhljason/SiH4_DSD-PBEPBE-D3_aug-cc-pcVQZ.inp20201001170114//
Processing $rem in /clusterfs/mhg/diptarka/qchem_transmom//config/preferences:
Processing $rem in /global/home/users/yhljason/.qchemrc:
The previous job contains 0 fragments, simply inherited here
Analytic post-HF gradients are not available with non-HF exchange

Checking the input file for inconsistencies... 	...done.

--------------------------------------------------------------
User input:
--------------------------------------------------------------
$molecule
read
$end

$rem

jobtype sp
method DSD-PBEPBE-D3
xc_grid 000099000590
basis aug-cc-pcVQZ
max_scf_cycles 200
thresh 14
scf_convergence 8
mem_total 128000
cc_memory 96000
cc_backend xm
mem_static 1500
symmetry false
sym_ignore true
scf_guess read
unrestricted false
scf_algorithm gdm
n_frozen_core 0
$end

$multipole_field
YY -0.0001
$end


--------------------------------------------------------------
 Adding empirical dispersion correction 
 ----------------------------------------------------------------
 Doing -D3(BJ) with
 s6 =   0.78000
 s8 =   0.00000
 a1 =   0.00000
 a2 =   6.10000
 -D3 energy without 3body term =     -0.0015234728 hartrees
 ----------------------------------------------------------------
             Standard Nuclear Orientation (Angstroms)
    I     Atom           X                Y                Z
 ----------------------------------------------------------------
    1      Si      0.0000000000     0.0000000000     0.0000000000
    2      H       0.8544000000     0.8544000000     0.8544000000
    3      H      -0.8544000000    -0.8544000000     0.8544000000
    4      H      -0.8544000000     0.8544000000    -0.8544000000
    5      H       0.8544000000    -0.8544000000    -0.8544000000
 ----------------------------------------------------------------
 Nuclear Repulsion Energy =          21.33708639 hartrees
 There are        9 alpha and        9 beta electrons
 Requested basis set is aug-cc-pCVQZ
 There are 90 shells and 318 basis functions

 Total QAlloc Memory Limit 128000 MB
 Mega-Array Size      1467 MB
 MEM_STATIC part      1500 MB

                       Distance Matrix (Angstroms)
             Si(  1)   H (  2)   H (  3)   H (  4)
   H (  2)  1.479864
   H (  3)  1.479864  2.416608
   H (  4)  1.479864  2.416608  2.416608
   H (  5)  1.479864  2.416608  2.416608  2.416608

 Applying Cartesian multipole field
    Component          Value
    ---------          -----
     (0,2,0)       -1.00000E-04
 Nucleus-field energy     =    -0.0010427500 hartrees
 A cutoff of  1.0D-14 yielded   4095 shell pairs
 There are     51367 function pairs (     79075 Cartesian)
 Smallest overlap matrix eigenvalue = 7.27E-06
 Guess MOs from SCF MO coefficient file

 -----------------------------------------------------------------------
  General SCF calculation program by
  Eric Jon Sundstrom, Paul Horn, Yuezhi Mao, Dmitri Zuev, Alec White,
  David Stuck, Shaama M.S., Shane Yost, Joonho Lee, David Small,
  Daniel Levine, Susi Lehtola, Hugh Burton, Evgeny Epifanovsky,
  Bang C. Huynh
 -----------------------------------------------------------------------
 Exchange:     0.6800 Hartree-Fock + 0.3200 PBE
 Correlation:  0.4900 PBE
 Using Euler-Maclaurin-Lebedev (99,590) quadrature formula
 Dispersion:   Grimme D3
 using 8 threads for integral computing
 -------------------------------------------------------
 OpenMP Integral computing Module                
 Release: version 2.0, May 2017, Q-Chem Inc. Pleasanton 
 -------------------------------------------------------
 A restricted SCF calculation will be
 performed using GDM
 SCF converges when RMS gradient is below 1.0e-08
 ---------------------------------------
  Cycle       Energy        RMS Gradient
 ---------------------------------------
    1    -291.5174314871      6.74e-04   Normal BFGS step
    2    -291.5174360369      1.22e-04   Normal BFGS step
    3    -291.5174362512      2.13e-05   Normal BFGS step
    4    -291.5174362582      2.96e-06   Normal BFGS step
    5    -291.5174362584      9.13e-07   Normal BFGS step
    6    -291.5174362584      1.34e-07   Normal BFGS step
    7    -291.5174362584      1.14e-08   Normal BFGS step
    8    -291.5174362584      2.81e-09  Convergence criterion met
 ---------------------------------------
 SCF time:   CPU 2387.84s  wall 303.00s 
 SCF   energy in the final basis set =     -291.5174362584
 Total energy in the final basis set =     -291.5174362584

 Components of the MP2 correlation energy:
        aaaa  correlation energy =        -0.0076233654 au
        abab  correlation energy =        -0.2436192502 au
        bbbb  correlation energy =        -0.0076233654 au
        non-Brillouin singles    =        -0.0000000000 au

 Total  MP2   correlation energy =                    -0.25886598 au
        MP2         total energy =                  -291.77630224 au

 --------------------------------------------------------------

                    Orbital Energies (a.u.)
 --------------------------------------------------------------

 Alpha MOs
 -- Occupied --
-67.6892  -5.7813  -3.9849  -3.9849  -3.9849  -0.6606  -0.4343  -0.4343
 -0.4342
 -- Virtual --
  0.0203   0.0374   0.0374   0.0408   0.0593   0.0612   0.0612   0.0928
  0.0950   0.1026   0.1026   0.1028   0.1032   0.1727   0.1760   0.1760
  0.1773   0.1947   0.1954   0.1954   0.2192   0.2208   0.2374   0.2376
  0.2376   0.2984   0.2984   0.2991   0.3105   0.3261   0.3261   0.3265
  0.3430   0.4089   0.4096   0.4096   0.4102   0.4107   0.4107   0.4259
  0.4265   0.4316   0.4552   0.4552   0.4558   0.5919   0.5921   0.5921
  0.6163   0.6163   0.6549   0.6889   0.6889   0.6896   0.7255   0.7255
  0.7257   0.7999   0.8002   0.8002   0.8008   0.8013   0.8590   0.8593
  0.8593   0.8665   0.8666   0.8666   0.8807   0.9225   0.9225   0.9225
  0.9279   0.9283   0.9374   0.9808   0.9808   0.9808   1.1092   1.1092
  1.1095   1.1456   1.1930   1.1930   1.1935   1.1977   1.1980   1.1980
  1.2910   1.2910   1.3957   1.4529   1.4531   1.4531   1.4629   1.4631
  1.5040   1.5041   1.5041   1.6285   1.6286   1.6286   1.6445   1.6445
  1.6447   1.7944   1.8128   1.8129   1.8129   1.9549   1.9550   1.9557
  1.9558   1.9558   1.9618   1.9619   1.9619   1.9620   1.9826   1.9826
  1.9827   1.9989   1.9990   2.0629   2.0806   2.0806   2.0806   2.1730
  2.1730   2.1731   2.2056   2.2056   2.2056   2.2200   2.3131   2.3131
  2.3131   2.3697   2.4899   2.4900   2.5153   2.5153   2.5153   2.5487
  2.5488   2.5488   2.6464   2.6464   2.6465   2.6693   2.6693   2.7098
  2.7658   2.7658   2.7658   2.8003   2.8003   2.8003   2.9449   2.9450
  3.0289   3.0289   3.0290   3.0886   3.0886   3.0886   3.0973   3.3253
  3.3253   3.3254   3.3661   3.3662   3.3662   3.4511   3.4511   3.4511
  3.6523   3.6523   3.8181   3.8183   3.8789   3.8981   3.8981   3.8981
  4.0734   4.0734   4.0735   4.0898   4.0898   4.0898   4.3944   4.9715
  4.9715   4.9716   6.3235   6.3236   6.5589   6.5673   6.5673   6.5673
  6.5823   6.6097   6.6097   6.6097   6.6608   6.6608   6.6608   6.6891
  6.8159   6.8159   6.8159   6.8608   6.8608   6.8608   6.8851   6.8851
  6.8851   7.0610   7.0610   7.2749   7.2749   7.2749   7.3943   7.3943
  7.4222   7.7903   7.7903   7.7903   8.0373   8.0374   8.0374   8.2655
  8.3763   8.3763   8.4833   8.4833   8.4833   8.4947   8.4947   8.4947
  8.6486   8.6486   8.6486   8.6617   8.6617   8.6617   8.8487   8.8487
  9.1710   9.1710   9.1710   9.2514   9.2514   9.2514   9.3797   9.3798
  9.4984   9.4984   9.4984   9.7697   9.9427   9.9427   9.9427   9.9977
 12.5255  12.5255  12.5255  14.0317  14.0317  14.0317  14.2384  14.2384
 14.2384  14.6731  19.9721  21.7754  21.7754  22.4248  22.4248  22.4248
 33.3088  33.3088  33.3088  38.7536  38.7536  38.7536  38.7546  38.7546
 38.7565  38.7605  38.7605  38.7605  48.2202  48.2202  48.2202  48.3205
 48.3205  48.3205  48.5293  56.4201  64.3712  64.3712  64.8279  64.8279
 64.8279 102.0219 102.0219 102.0219 272.5063
 --------------------------------------------------------------

          Ground-State Mulliken Net Atomic Charges

     Atom                 Charge (a.u.)
  ----------------------------------------
      1 Si                    0.251934
      2 H                    -0.062983
      3 H                    -0.062983
      4 H                    -0.062983
      5 H                    -0.062983
  ----------------------------------------
  Sum of atomic charges =     0.000000

 -----------------------------------------------------------------
                    Cartesian Multipole Moments
 -----------------------------------------------------------------
    Charge (ESU x 10^10)
                -0.0000
    Dipole Moment (Debye)
         X      -0.0000      Y      -0.0000      Z       0.0000
       Tot       0.0000
    Quadrupole Moments (Debye-Ang)
        XX     -16.6111     XY       0.0000     YY     -16.5800
        XZ       0.0000     YZ       0.0000     ZZ     -16.6111
    Octopole Moments (Debye-Ang^2)
       XXX       0.0000    XXY      -0.0000    XYY      -0.0000
       YYY      -0.0000    XXZ       0.0000    XYZ      -1.2341
       YYZ       0.0000    XZZ       0.0000    YZZ       0.0000
       ZZZ       0.0000
    Hexadecapole Moments (Debye-Ang^3)
      XXXX     -42.6960   XXXY       0.0000   XXYY     -13.9676
      XYYY       0.0000   YYYY     -42.5447   XXXZ      -0.0000
      XXYZ       0.0000   XYYZ      -0.0000   YYYZ       0.0000
      XXZZ     -14.0022   XYZZ       0.0000   YYZZ     -13.9676
      XZZZ      -0.0000   YZZZ       0.0000   ZZZZ     -42.6960
 -----------------------------------------------------------------
Archival summary:
1\1\n0065.mhg0\SP\ProcedureUnspecified\BasisUnspecified\i14\yhljason\FriOct200:16:362020FriOct200:16:362020\0\\#,ProcedureUnspecified,BasisUnspecified,\\0,1\Si\H,1,1.47986\H,1,1.47986,2,109.471\H,1,1.47986,2,109.471,3,120,0\H,1,1.47986,2,109.471,3,-120,0\\\@

 Total job time:  786.33s(wall), 4807.42s(cpu) 
 Fri Oct  2 00:16:36 2020

        *************************************************************
        *                                                           *
        *  Thank you very much for using Q-Chem.  Have a nice day.  *
        *                                                           *
        *************************************************************


 
User input: 6 of 7 
 
                  Welcome to Q-Chem
     A Quantum Leap Into The Future Of Chemistry


 Q-Chem 5.3 (devel), Q-Chem, Inc., Pleasanton, CA (2020)

 Yihan Shao,  Zhengting Gan,  E. Epifanovsky,  A. T. B. Gilbert,  M. Wormit,  
 J. Kussmann,  A. W. Lange,  A. Behn,  Jia Deng,  Xintian Feng,  D. Ghosh,  
 M. Goldey,  P. R. Horn,  L. D. Jacobson,  I. Kaliman,  T. Kus,  A. Landau,  
 Jie Liu,  E. I. Proynov,  R. M. Richard,  R. P. Steele,  E. J. Sundstrom,  
 H. L. Woodcock III,  P. M. Zimmerman,  D. Zuev,  B. Alam,  B. Albrecht,  
 E. Alguire,  S. A. Baeppler,  D. Barton,  Z. Benda,  Y. A. Bernard,  
 E. J. Berquist,  K. B. Bravaya,  H. Burton,  K. Carter-Fenk,  D. Casanova,  
 Chun-Min Chang,  Yunqing Chen,  A. Chien,  K. D. Closser,  M. P. Coons,  
 S. Coriani,  S. Dasgupta,  A. L. Dempwolff,  M. Diedenhofen,  Hainam Do,  
 R. G. Edgar,  Po-Tung Fang,  S. Faraji,  S. Fatehi,  Qingguo Feng,  
 J. Fosso-Tande,  J. Gayvert,  Qinghui Ge,  A. Ghysels,  G. Gidofalvi,  
 J. Gomes,  J. Gonthier,  A. Gunina,  D. Hait,  M. W. D. Hanson-Heine,  
 P. H. P. Harbach,  A. W. Hauser,  M. F. Herbst,  J. E. Herr,  
 E. G. Hohenstein,  Z. C. Holden,  Kerwin Hui,  B. C. Huynh,  T.-C. Jagau,  
 Hyunjun Ji,  B. Kaduk,  K. Khistyaev,  Jaehoon Kim,  P. Klunzinger,  K. Koh,  
 D. Kosenkov,  L. Koulias,  T. Kowalczyk,  C. M. Krauter,  A. Kunitsa,  
 Ka Un Lao,  A. Laurent,  K. V. Lawler,  Joonho Lee,  D. Lefrancois,  
 S. Lehtola,  D. S. Levine,  Yi-Pei Li,  You-Sheng Lin,  Fenglai Liu,  
 Kuan-Yu Liu,  E. Livshits,  M. Loipersberger,  A. Luenser,  P. Manohar,  
 E. Mansoor,  S. F. Manzer,  Shan-Ping Mao,  Yuezhi Mao,  N. Mardirossian,  
 A. V. Marenich,  T. Markovich,  L. A. Martinez-Martinez,  S. A. Maurer,  
 N. J. Mayhall,  S. C. McKenzie,  J.-M. Mewes,  P. Morgante,  A. F. Morrison,  
 J. W. Mullinax,  K. Nanda,  T. S. Nguyen-Beck,  R. Olivares-Amaya,  
 K. J. Oosterbaan,  J. A. Parkhill,  S. K. Paul,  F. Pavosevic,  Zheng Pei,  
 T. M. Perrine,  F. Plasser,  P. Pokhilko,  S. Prager,  A. Prociuk,  
 E. Ramos,  B. Rana,  D. R. Rehn,  F. Rob,  M. Scheurer,  M. Schneider,  
 N. Sergueev,  S. M. Sharada,  S. Sharma,  D. W. Small,  T. Stauch,  
 C. J. Stein,  T. Stein,  Yu-Chuan Su,  S. P. Veccham,  Zhen Tao,  
 A. J. W. Thom,  A. Tkatchenko,  T. Tsuchimochi,  N. M. Tubman,  L. Vogt,  
 M. L. Vidal,  O. Vydrov,  M. A. Watson,  J. Wenzel,  M. de Wergifosse,  
 T. A. Wesolowski,  A. White,  J. Witte,  A. Yamada,  Jun Yang,  K. Yao,  
 S. Yeganeh,  S. R. Yost,  Zhi-Qiang You,  A. Zech,  Igor Ying Zhang,  
 Xing Zhang,  Yan Zhao,  Ying Zhu,  B. R. Brooks,  G. K. L. Chan,  
 C. J. Cramer,  M. S. Gordon,  W. J. Hehre,  A. Klamt,  M. W. Schmidt,  
 C. D. Sherrill,  D. G. Truhlar,  A. Aspuru-Guzik,  R. Baer,  A. T. Bell,  
 N. A. Besley,  Jeng-Da Chai,  A. E. DePrince, III,  R. A. DiStasio Jr.,  
 A. Dreuw,  B. D. Dunietz,  T. R. Furlani,  Chao-Ping Hsu,  Yousung Jung,  
 Jing Kong,  D. S. Lambrecht,  WanZhen Liang,  C. Ochsenfeld,  
 V. A. Rassolov,  L. V. Slipchenko,  J. E. Subotnik,  T. Van Voorhis,  
 J. M. Herbert,  A. I. Krylov,  P. M. W. Gill,  M. Head-Gordon

 Contributors to earlier versions of Q-Chem not listed above: 
 R. D. Adamson,  B. Austin,  J. Baker,  G. J. O. Beran,  K. Brandhorst,  
 S. T. Brown,  E. F. C. Byrd,  A. K. Chakraborty,  C.-L. Cheng,  
[...]
  0.0915   0.0979   0.0984   0.0986   0.0986   0.1693   0.1714   0.1726
  0.1726   0.1909   0.1909   0.1916   0.2164   0.2180   0.2346   0.2346
  0.2348   0.2955   0.2963   0.2963   0.3077   0.3228   0.3232   0.3232
  0.3402   0.4066   0.4066   0.4076   0.4076   0.4076   0.4079   0.4235
  0.4241   0.4292   0.4519   0.4525   0.4525   0.5900   0.5900   0.5902
  0.6144   0.6144   0.6525   0.6868   0.6875   0.6875   0.7234   0.7236
  0.7236   0.7979   0.7979   0.7983   0.7988   0.7992   0.8573   0.8573
  0.8575   0.8649   0.8649   0.8650   0.8785   0.9205   0.9205   0.9205
  0.9264   0.9268   0.9357   0.9792   0.9792   0.9792   1.1076   1.1080
  1.1080   1.1442   1.1914   1.1919   1.1919   1.1964   1.1964   1.1967
  1.2896   1.2896   1.3940   1.4515   1.4515   1.4517   1.4614   1.4616
  1.5026   1.5026   1.5026   1.6271   1.6271   1.6272   1.6429   1.6431
  1.6431   1.7932   1.8115   1.8115   1.8115   1.9533   1.9535   1.9545
  1.9545   1.9546   1.9605   1.9605   1.9605   1.9605   1.9814   1.9815
  1.9815   1.9975   1.9976   2.0616   2.0792   2.0793   2.0793   2.1715
  2.1716   2.1716   2.2044   2.2045   2.2045   2.2188   2.3117   2.3117
  2.3117   2.3686   2.4889   2.4890   2.5141   2.5141   2.5141   2.5477
  2.5477   2.5478   2.6451   2.6452   2.6452   2.6682   2.6682   2.7086
  2.7647   2.7647   2.7648   2.7991   2.7991   2.7992   2.9438   2.9439
  3.0278   3.0278   3.0278   3.0875   3.0875   3.0875   3.0962   3.3242
  3.3243   3.3243   3.3650   3.3650   3.3651   3.4500   3.4500   3.4500
  3.6513   3.6513   3.8170   3.8171   3.8777   3.8970   3.8970   3.8970
  4.0723   4.0724   4.0724   4.0888   4.0888   4.0888   4.3934   4.9705
  4.9706   4.9706   6.3226   6.3226   6.5579   6.5663   6.5663   6.5664
  6.5813   6.6088   6.6088   6.6088   6.6599   6.6599   6.6599   6.6881
  6.8149   6.8149   6.8149   6.8598   6.8598   6.8598   6.8842   6.8842
  6.8842   7.0600   7.0601   7.2739   7.2739   7.2740   7.3934   7.3934
  7.4212   7.7894   7.7894   7.7894   8.0363   8.0363   8.0364   8.2645
  8.3753   8.3753   8.4824   8.4824   8.4824   8.4937   8.4937   8.4937
  8.6476   8.6477   8.6477   8.6608   8.6608   8.6608   8.8478   8.8478
  9.1700   9.1700   9.1700   9.2504   9.2504   9.2504   9.3788   9.3788
  9.4974   9.4974   9.4974   9.7687   9.9417   9.9418   9.9418   9.9967
 12.5246  12.5246  12.5246  14.0308  14.0308  14.0308  14.2375  14.2375
 14.2375  14.6722  19.9712  21.7745  21.7745  22.4239  22.4239  22.4239
 33.3079  33.3079  33.3079  38.7527  38.7527  38.7527  38.7537  38.7537
 38.7556  38.7596  38.7596  38.7596  48.2192  48.2192  48.2192  48.3196
 48.3196  48.3196  48.5283  56.4192  64.3702  64.3702  64.8270  64.8270
 64.8270 102.0210 102.0210 102.0210 272.5054
 --------------------------------------------------------------

          Ground-State Mulliken Net Atomic Charges

     Atom                 Charge (a.u.)
  ----------------------------------------
      1 Si                    0.249703
      2 H                    -0.062426
      3 H                    -0.062426
      4 H                    -0.062426
      5 H                    -0.062426
  ----------------------------------------
  Sum of atomic charges =     0.000000

 -----------------------------------------------------------------
                    Cartesian Multipole Moments
 -----------------------------------------------------------------
    Charge (ESU x 10^10)
                -0.0000
    Dipole Moment (Debye)
         X       0.0000      Y       0.0000      Z       0.0000
       Tot       0.0000
    Quadrupole Moments (Debye-Ang)
        XX     -16.6127     XY       0.0000     YY     -16.6127
        XZ       0.0000     YZ       0.0000     ZZ     -16.6441
    Octopole Moments (Debye-Ang^2)
       XXX      -0.0000    XXY       0.0000    XYY       0.0000
       YYY       0.0000    XXZ       0.0000    XYZ      -1.2504
       YYZ       0.0000    XZZ       0.0000    YZZ       0.0000
       ZZZ       0.0000
    Hexadecapole Moments (Debye-Ang^3)
      XXXX     -42.7129   XXXY      -0.0000   XXYY     -14.0061
      XYYY      -0.0000   YYYY     -42.7129   XXXZ      -0.0000
      XXYZ      -0.0000   XYYZ      -0.0000   YYYZ       0.0000
      XXZZ     -14.0410   XYZZ       0.0000   YYZZ     -14.0410
      XZZZ       0.0000   YZZZ       0.0000   ZZZZ     -42.8659
 -----------------------------------------------------------------
Archival summary:
1\1\n0065.mhg0\SP\ProcedureUnspecified\BasisUnspecified\i14\yhljason\FriOct200:29:332020FriOct200:29:332020\0\\#,ProcedureUnspecified,BasisUnspecified,\\0,1\Si\H,1,1.47986\H,1,1.47986,2,109.471\H,1,1.47986,2,109.471,3,120,0\H,1,1.47986,2,109.471,3,-120,0\\\@

 Total job time:  777.51s(wall), 4730.02s(cpu) 
 Fri Oct  2 00:29:33 2020

        *************************************************************
        *                                                           *
        *  Thank you very much for using Q-Chem.  Have a nice day.  *
        *                                                           *
        *************************************************************


 
User input: 7 of 7 
 
                  Welcome to Q-Chem
     A Quantum Leap Into The Future Of Chemistry


 Q-Chem 5.3 (devel), Q-Chem, Inc., Pleasanton, CA (2020)

 Yihan Shao,  Zhengting Gan,  E. Epifanovsky,  A. T. B. Gilbert,  M. Wormit,  
 J. Kussmann,  A. W. Lange,  A. Behn,  Jia Deng,  Xintian Feng,  D. Ghosh,  
 M. Goldey,  P. R. Horn,  L. D. Jacobson,  I. Kaliman,  T. Kus,  A. Landau,  
 Jie Liu,  E. I. Proynov,  R. M. Richard,  R. P. Steele,  E. J. Sundstrom,  
 H. L. Woodcock III,  P. M. Zimmerman,  D. Zuev,  B. Alam,  B. Albrecht,  
 E. Alguire,  S. A. Baeppler,  D. Barton,  Z. Benda,  Y. A. Bernard,  
 E. J. Berquist,  K. B. Bravaya,  H. Burton,  K. Carter-Fenk,  D. Casanova,  
 Chun-Min Chang,  Yunqing Chen,  A. Chien,  K. D. Closser,  M. P. Coons,  
 S. Coriani,  S. Dasgupta,  A. L. Dempwolff,  M. Diedenhofen,  Hainam Do,  
 R. G. Edgar,  Po-Tung Fang,  S. Faraji,  S. Fatehi,  Qingguo Feng,  
 J. Fosso-Tande,  J. Gayvert,  Qinghui Ge,  A. Ghysels,  G. Gidofalvi,  
 J. Gomes,  J. Gonthier,  A. Gunina,  D. Hait,  M. W. D. Hanson-Heine,  
 P. H. P. Harbach,  A. W. Hauser,  M. F. Herbst,  J. E. Herr,  
 E. G. Hohenstein,  Z. C. Holden,  Kerwin Hui,  B. C. Huynh,  T.-C. Jagau,  
 Hyunjun Ji,  B. Kaduk,  K. Khistyaev,  Jaehoon Kim,  P. Klunzinger,  K. Koh,  
 D. Kosenkov,  L. Koulias,  T. Kowalczyk,  C. M. Krauter,  A. Kunitsa,  
 Ka Un Lao,  A. Laurent,  K. V. Lawler,  Joonho Lee,  D. Lefrancois,  
 S. Lehtola,  D. S. Levine,  Yi-Pei Li,  You-Sheng Lin,  Fenglai Liu,  
 Kuan-Yu Liu,  E. Livshits,  M. Loipersberger,  A. Luenser,  P. Manohar,  
 E. Mansoor,  S. F. Manzer,  Shan-Ping Mao,  Yuezhi Mao,  N. Mardirossian,  
 A. V. Marenich,  T. Markovich,  L. A. Martinez-Martinez,  S. A. Maurer,  
 N. J. Mayhall,  S. C. McKenzie,  J.-M. Mewes,  P. Morgante,  A. F. Morrison,  
 J. W. Mullinax,  K. Nanda,  T. S. Nguyen-Beck,  R. Olivares-Amaya,  
 K. J. Oosterbaan,  J. A. Parkhill,  S. K. Paul,  F. Pavosevic,  Zheng Pei,  
 T. M. Perrine,  F. Plasser,  P. Pokhilko,  S. Prager,  A. Prociuk,  
 E. Ramos,  B. Rana,  D. R. Rehn,  F. Rob,  M. Scheurer,  M. Schneider,  
 N. Sergueev,  S. M. Sharada,  S. Sharma,  D. W. Small,  T. Stauch,  
 C. J. Stein,  T. Stein,  Yu-Chuan Su,  S. P. Veccham,  Zhen Tao,  
 A. J. W. Thom,  A. Tkatchenko,  T. Tsuchimochi,  N. M. Tubman,  L. Vogt,  
 M. L. Vidal,  O. Vydrov,  M. A. Watson,  J. Wenzel,  M. de Wergifosse,  
 T. A. Wesolowski,  A. White,  J. Witte,  A. Yamada,  Jun Yang,  K. Yao,  
 S. Yeganeh,  S. R. Yost,  Zhi-Qiang You,  A. Zech,  Igor Ying Zhang,  
 Xing Zhang,  Yan Zhao,  Ying Zhu,  B. R. Brooks,  G. K. L. Chan,  
 C. J. Cramer,  M. S. Gordon,  W. J. Hehre,  A. Klamt,  M. W. Schmidt,  
 C. D. Sherrill,  D. G. Truhlar,  A. Aspuru-Guzik,  R. Baer,  A. T. Bell,  
 N. A. Besley,  Jeng-Da Chai,  A. E. DePrince, III,  R. A. DiStasio Jr.,  
 A. Dreuw,  B. D. Dunietz,  T. R. Furlani,  Chao-Ping Hsu,  Yousung Jung,  
 Jing Kong,  D. S. Lambrecht,  WanZhen Liang,  C. Ochsenfeld,  
 V. A. Rassolov,  L. V. Slipchenko,  J. E. Subotnik,  T. Van Voorhis,  
 J. M. Herbert,  A. I. Krylov,  P. M. W. Gill,  M. Head-Gordon

 Contributors to earlier versions of Q-Chem not listed above: 
 R. D. Adamson,  B. Austin,  J. Baker,  G. J. O. Beran,  K. Brandhorst,  
 S. T. Brown,  E. F. C. Byrd,  A. K. Chakraborty,  C.-L. Cheng,  
 Siu Hung Chien,  D. M. Chipman,  D. L. Crittenden,  H. Dachsel,  
 R. J. Doerksen,  A. D. Dutoi,  L. Fusti-Molnar,  W. A. Goddard III,  
 A. Golubeva-Zadorozhnaya,  S. R. Gwaltney,  G. Hawkins,  A. Heyden,  
 S. Hirata,  G. Kedziora,  F. J. Keil,  C. Kelley,  Jihan Kim,  R. A. King,  
 R. Z. Khaliullin,  P. P. Korambath,  W. Kurlancheek,  A. M. Lee,  M. S. Lee,  
 S. V. Levchenko,  Ching Yeh Lin,  D. Liotard,  R. C. Lochan,  I. Lotan,  
 P. E. Maslen,  N. Nair,  D. P. O'Neill,  D. Neuhauser,  E. Neuscamman,  
 C. M. Oana,  R. Olson,  B. Peters,  R. Peverati,  P. A. Pieniazek,  
 Y. M. Rhee,  J. Ritchie,  M. A. Rohrdanz,  E. Rosta,  N. J. Russ,  
 H. F. Schaefer III,  N. E. Schultz,  N. Shenvi,  A. C. Simmonett,  A. Sodt,  
 D. Stuck,  K. S. Thanthiriwatte,  V. Vanovschi,  Tao Wang,  A. Warshel,  
 C. F. Williams,  Q. Wu,  X. Xu,  W. Zhang

 Please cite Q-Chem as follows:
 Y. Shao et al., Mol. Phys. 113, 184-215 (2015)
 DOI: 10.1080/00268976.2014.952696

 Q-Chem 5.3.0 for Intel X86 EM64T Linux

 Parts of Q-Chem use Armadillo 9.800.1 (Horizon Scraper).
 http://arma.sourceforge.net/

 Q-Chem begins on Fri Oct  2 00:29:34 2020  

n0065.mhg0
Host: 0

     Scratch files written to /local/scratch/users/yhljason/SiH4_DSD-PBEPBE-D3_aug-cc-pcVQZ.inp20201001170114//
Processing $rem in /clusterfs/mhg/diptarka/qchem_transmom//config/preferences:
Processing $rem in /global/home/users/yhljason/.qchemrc:
The previous job contains 0 fragments, simply inherited here
Analytic post-HF gradients are not available with non-HF exchange

Checking the input file for inconsistencies... 	...done.

--------------------------------------------------------------
User input:
--------------------------------------------------------------
$molecule
read
$end

$rem

jobtype sp
method DSD-PBEPBE-D3
xc_grid 000099000590
basis aug-cc-pcVQZ
max_scf_cycles 200
thresh 14
scf_convergence 8
mem_total 128000
cc_memory 96000
cc_backend xm
mem_static 1500
symmetry false
sym_ignore true
scf_guess read
unrestricted false
scf_algorithm gdm
n_frozen_core 0
$end

$multipole_field
ZZ -0.0001
$end


--------------------------------------------------------------
 Adding empirical dispersion correction 
 ----------------------------------------------------------------
 Doing -D3(BJ) with
 s6 =   0.78000
 s8 =   0.00000
 a1 =   0.00000
 a2 =   6.10000
 -D3 energy without 3body term =     -0.0015234728 hartrees
 ----------------------------------------------------------------
             Standard Nuclear Orientation (Angstroms)
    I     Atom           X                Y                Z
 ----------------------------------------------------------------
    1      Si      0.0000000000     0.0000000000     0.0000000000
    2      H       0.8544000000     0.8544000000     0.8544000000
    3      H      -0.8544000000    -0.8544000000     0.8544000000
    4      H      -0.8544000000     0.8544000000    -0.8544000000
    5      H       0.8544000000    -0.8544000000    -0.8544000000
 ----------------------------------------------------------------
 Nuclear Repulsion Energy =          21.33708639 hartrees
 There are        9 alpha and        9 beta electrons
 Requested basis set is aug-cc-pCVQZ
 There are 90 shells and 318 basis functions

 Total QAlloc Memory Limit 128000 MB
 Mega-Array Size      1467 MB
 MEM_STATIC part      1500 MB

                       Distance Matrix (Angstroms)
             Si(  1)   H (  2)   H (  3)   H (  4)
   H (  2)  1.479864
   H (  3)  1.479864  2.416608
   H (  4)  1.479864  2.416608  2.416608
   H (  5)  1.479864  2.416608  2.416608  2.416608

 Applying Cartesian multipole field
    Component          Value
    ---------          -----
     (0,0,2)       -1.00000E-04
 Nucleus-field energy     =    -0.0010427500 hartrees
 A cutoff of  1.0D-14 yielded   4095 shell pairs
 There are     51367 function pairs (     79075 Cartesian)
 Smallest overlap matrix eigenvalue = 7.27E-06
 Guess MOs from SCF MO coefficient file

 -----------------------------------------------------------------------
  General SCF calculation program by
  Eric Jon Sundstrom, Paul Horn, Yuezhi Mao, Dmitri Zuev, Alec White,
  David Stuck, Shaama M.S., Shane Yost, Joonho Lee, David Small,
  Daniel Levine, Susi Lehtola, Hugh Burton, Evgeny Epifanovsky,
  Bang C. Huynh
 -----------------------------------------------------------------------
 Exchange:     0.6800 Hartree-Fock + 0.3200 PBE
 Correlation:  0.4900 PBE
 Using Euler-Maclaurin-Lebedev (99,590) quadrature formula
 Dispersion:   Grimme D3
 using 8 threads for integral computing
 -------------------------------------------------------
 OpenMP Integral computing Module                
 Release: version 2.0, May 2017, Q-Chem Inc. Pleasanton 
 -------------------------------------------------------
 A restricted SCF calculation will be
 performed using GDM
 SCF converges when RMS gradient is below 1.0e-08
 ---------------------------------------
  Cycle       Energy        RMS Gradient
 ---------------------------------------
    1    -291.5174314871      6.74e-04   Normal BFGS step
    2    -291.5174360369      1.22e-04   Normal BFGS step
    3    -291.5174362512      2.13e-05   Normal BFGS step
    4    -291.5174362582      2.96e-06   Normal BFGS step
    5    -291.5174362584      9.13e-07   Normal BFGS step
    6    -291.5174362584      1.34e-07   Normal BFGS step
    7    -291.5174362584      1.14e-08   Normal BFGS step
    8    -291.5174362584      2.81e-09  Convergence criterion met
 ---------------------------------------
 SCF time:   CPU 2462.41s  wall 312.00s 
 SCF   energy in the final basis set =     -291.5174362584
 Total energy in the final basis set =     -291.5174362584

 Components of the MP2 correlation energy:
        aaaa  correlation energy =        -0.0076233654 au
        abab  correlation energy =        -0.2436192502 au
        bbbb  correlation energy =        -0.0076233654 au
        non-Brillouin singles    =        -0.0000000000 au

 Total  MP2   correlation energy =                    -0.25886598 au
        MP2         total energy =                  -291.77630224 au

 --------------------------------------------------------------

                    Orbital Energies (a.u.)
 --------------------------------------------------------------

 Alpha MOs
 -- Occupied --
-67.6892  -5.7813  -3.9849  -3.9849  -3.9849  -0.6606  -0.4343  -0.4343
 -0.4342
 -- Virtual --
  0.0203   0.0374   0.0374   0.0408   0.0593   0.0612   0.0612   0.0928
  0.0950   0.1026   0.1026   0.1028   0.1032   0.1727   0.1760   0.1760
  0.1773   0.1947   0.1954   0.1954   0.2192   0.2208   0.2374   0.2376
  0.2376   0.2984   0.2984   0.2991   0.3105   0.3261   0.3261   0.3265
  0.3430   0.4089   0.4096   0.4096   0.4102   0.4107   0.4107   0.4259
  0.4265   0.4316   0.4552   0.4552   0.4558   0.5919   0.5921   0.5921
  0.6163   0.6163   0.6549   0.6889   0.6889   0.6896   0.7255   0.7255
  0.7257   0.7999   0.8002   0.8002   0.8008   0.8013   0.8590   0.8593
  0.8593   0.8665   0.8666   0.8666   0.8807   0.9225   0.9225   0.9225
  0.9279   0.9283   0.9374   0.9808   0.9808   0.9808   1.1092   1.1092
  1.1095   1.1456   1.1930   1.1930   1.1935   1.1977   1.1980   1.1980
  1.2910   1.2910   1.3957   1.4529   1.4531   1.4531   1.4629   1.4631
  1.5040   1.5041   1.5041   1.6285   1.6286   1.6286   1.6445   1.6445
  1.6447   1.7944   1.8128   1.8129   1.8129   1.9549   1.9550   1.9557
  1.9558   1.9558   1.9618   1.9619   1.9619   1.9620   1.9826   1.9826
  1.9827   1.9989   1.9990   2.0629   2.0806   2.0806   2.0806   2.1730
  2.1730   2.1731   2.2056   2.2056   2.2056   2.2200   2.3131   2.3131
  2.3131   2.3697   2.4899   2.4900   2.5153   2.5153   2.5153   2.5487
  2.5488   2.5488   2.6464   2.6464   2.6465   2.6693   2.6693   2.7098
  2.7658   2.7658   2.7658   2.8003   2.8003   2.8003   2.9449   2.9450
  3.0289   3.0289   3.0290   3.0886   3.0886   3.0886   3.0973   3.3253
  3.3253   3.3254   3.3661   3.3662   3.3662   3.4511   3.4511   3.4511
  3.6523   3.6523   3.8181   3.8183   3.8789   3.8981   3.8981   3.8981
  4.0734   4.0734   4.0735   4.0898   4.0898   4.0898   4.3944   4.9715
  4.9715   4.9716   6.3235   6.3236   6.5589   6.5673   6.5673   6.5673
  6.5823   6.6097   6.6097   6.6097   6.6608   6.6608   6.6608   6.6891
  6.8159   6.8159   6.8159   6.8608   6.8608   6.8608   6.8851   6.8851
  6.8851   7.0610   7.0610   7.2749   7.2749   7.2749   7.3943   7.3943
  7.4222   7.7903   7.7903   7.7903   8.0373   8.0374   8.0374   8.2655
  8.3763   8.3763   8.4833   8.4833   8.4833   8.4947   8.4947   8.4947
  8.6486   8.6486   8.6486   8.6617   8.6617   8.6617   8.8487   8.8487
  9.1710   9.1710   9.1710   9.2514   9.2514   9.2514   9.3797   9.3798
  9.4984   9.4984   9.4984   9.7697   9.9427   9.9427   9.9427   9.9977
 12.5255  12.5255  12.5255  14.0317  14.0317  14.0317  14.2384  14.2384
 14.2384  14.6731  19.9721  21.7754  21.7754  22.4248  22.4248  22.4248
 33.3088  33.3088  33.3088  38.7536  38.7536  38.7536  38.7546  38.7546
 38.7565  38.7605  38.7605  38.7605  48.2202  48.2202  48.2202  48.3205
 48.3205  48.3205  48.5293  56.4201  64.3712  64.3712  64.8279  64.8279
 64.8279 102.0219 102.0219 102.0219 272.5063
 --------------------------------------------------------------

          Ground-State Mulliken Net Atomic Charges

     Atom                 Charge (a.u.)
  ----------------------------------------
      1 Si                    0.251934
      2 H                    -0.062983
      3 H                    -0.062983
      4 H                    -0.062983
      5 H                    -0.062983
  ----------------------------------------
  Sum of atomic charges =     0.000000

 -----------------------------------------------------------------
                    Cartesian Multipole Moments
 -----------------------------------------------------------------
    Charge (ESU x 10^10)
                -0.0000
    Dipole Moment (Debye)
         X       0.0000      Y       0.0000      Z      -0.0000
       Tot       0.0000
    Quadrupole Moments (Debye-Ang)
        XX     -16.6111     XY      -0.0000     YY     -16.6111
        XZ      -0.0000     YZ       0.0000     ZZ     -16.5800
    Octopole Moments (Debye-Ang^2)
       XXX       0.0000    XXY       0.0000    XYY       0.0000
       YYY       0.0000    XXZ      -0.0000    XYZ      -1.2341
       YYZ      -0.0000    XZZ       0.0000    YZZ       0.0000
       ZZZ      -0.0000
    Hexadecapole Moments (Debye-Ang^3)
      XXXX     -42.6960   XXXY      -0.0000   XXYY     -14.0022
      XYYY      -0.0000   YYYY     -42.6960   XXXZ       0.0000
      XXYZ       0.0000   XYYZ       0.0000   YYYZ       0.0000
      XXZZ     -13.9676   XYZZ      -0.0000   YYZZ     -13.9676
      XZZZ       0.0000   YZZZ       0.0000   ZZZZ     -42.5447
 -----------------------------------------------------------------
Archival summary:
1\1\n0065.mhg0\SP\ProcedureUnspecified\BasisUnspecified\i14\yhljason\FriOct200:42:302020FriOct200:42:302020\0\\#,ProcedureUnspecified,BasisUnspecified,\\0,1\Si\H,1,1.47986\H,1,1.47986,2,109.471\H,1,1.47986,2,109.471,3,120,0\H,1,1.47986,2,109.471,3,-120,0\\\@

 Total job time:  776.22s(wall), 4822.62s(cpu) 
 Fri Oct  2 00:42:30 2020

        *************************************************************
        *                                                           *
        *  Thank you very much for using Q-Chem.  Have a nice day.  *
        *                                                           *
        *************************************************************


