Q-Chem Developer Version!
                  Welcome to Q-Chem
     A Quantum Leap Into The Future Of Chemistry


 Q-Chem 5.1, Q-Chem, Inc., Pleasanton, CA (2018)

 Yihan Shao,  Zhengting Gan,  E. Epifanovsky,  A. T. B. Gilbert,  M. Wormit,  
 J. Kussmann,  A. W. Lange,  A. Behn,  Jia Deng,  Xintian Feng,  D. Ghosh,  
 M. Goldey,  P. R. Horn,  L. D. Jacobson,  I. Kaliman,  T. Kus,  A. Landau,  
 Jie Liu,  E. I. Proynov,  R. M. Richard,  R. P. Steele,  E. J. Sundstrom,  
 H. L. Woodcock III,  P. M. Zimmerman,  D. Zuev,  B. Albrecht,  E. Alguire,  
 S. A. Baeppler,  D. Barton,  Z. Benda,  Y. A. Bernard,  E. J. Berquist,  
 K. B. Bravaya,  H. Burton,  D. Casanova,  Chun-Min Chang,  Yunqing Chen,  
 A. Chien,  K. D. Closser,  M. P. Coons,  S. Coriani,  S. Dasgupta,  
 A. L. Dempwolff,  M. Diedenhofen,  Hainam Do,  R. G. Edgar,  Po-Tung Fang,  
 S. Faraji,  S. Fatehi,  Qingguo Feng,  K. D. Fenk,  J. Fosso-Tande,  
 Qinghui Ge,  A. Ghysels,  G. Gidofalvi,  J. Gomes,  J. Gonthier,  A. Gunina,  
 D. Hait,  M. W. D. Hanson-Heine,  P. H. P. Harbach,  A. W. Hauser,  
 J. E. Herr,  E. G. Hohenstein,  Z. C. Holden,  Kerwin Hui,  B. C. Huynh,  
 T.-C. Jagau,  Hyunjun Ji,  B. Kaduk,  K. Khistyaev,  Jaehoon Kim,  
 P. Klunzinger,  K. Koh,  D. Kosenkov,  L. Koulias,  T. Kowalczyk,  
 C. M. Krauter,  A. Kunitsa,  Ka Un Lao,  A. Laurent,  K. V. Lawler,  
 Joonho Lee,  D. Lefrancois,  S. Lehtola,  D. S. Levine,  Yi-Pei Li,  
 You-Sheng Lin,  Fenglai Liu,  E. Livshits,  A. Luenser,  P. Manohar,  
 E. Mansoor,  S. F. Manzer,  Shan-Ping Mao,  Yuezhi Mao,  N. Mardirossian,  
 A. V. Marenich,  T. Markovich,  L. A. Martinez-Martinez,  S. A. Maurer,  
 N. J. Mayhall,  S. C. McKenzie,  J.-M. Mewes,  A. F. Morrison,  
 J. W. Mullinax,  K. Nanda,  T. S. Nguyen-Beck,  R. Olivares-Amaya,  
 J. A. Parkhill,  T. M. Perrine,  F. Plasser,  P. Pokhilko,  S. Prager,  
 A. Prociuk,  E. Ramos,  D. R. Rehn,  F. Rob,  M. Schneider,  N. Sergueev,  
 S. M. Sharada,  S. Sharma,  D. W. Small,  T. Stauch,  T. Stein,  
 Yu-Chuan Su,  A. J. W. Thom,  A. Tkatchenko,  T. Tsuchimochi,  N. M. Tubman,  
 L. Vogt,  M. L. Vidal,  O. Vydrov,  M. A. Watson,  J. Wenzel,  
 M. de Wergifosse,  T. A. Wesolowski,  A. White,  J. Witte,  A. Yamada,  
 Jun Yang,  K. Yao,  S. Yeganeh,  S. R. Yost,  Zhi-Qiang You,  A. Zech,  
 Igor Ying Zhang,  Xing Zhang,  Yan Zhao,  Ying Zhu,  B. R. Brooks,  
 G. K. L. Chan,  C. J. Cramer,  M. S. Gordon,  W. J. Hehre,  A. Klamt,  
 M. W. Schmidt,  C. D. Sherrill,  D. G. Truhlar,  A. Aspuru-Guzik,  R. Baer,  
 A. T. Bell,  N. A. Besley,  Jeng-Da Chai,  A. E. DePrince, III,  
 R. A. DiStasio Jr.,  A. Dreuw,  B. D. Dunietz,  T. R. Furlani,  
 Chao-Ping Hsu,  Yousung Jung,  Jing Kong,  D. S. Lambrecht,  WanZhen Liang,  
 C. Ochsenfeld,  V. A. Rassolov,  L. V. Slipchenko,  J. E. Subotnik,  
 T. Van Voorhis,  J. M. Herbert,  A. I. Krylov,  P. M. W. Gill,  M. Head-Gordon

 Contributors to earlier versions of Q-Chem not listed above: 
 R. D. Adamson,  B. Austin,  J. Baker,  G. J. O. Beran,  K. Brandhorst,  
 S. T. Brown,  E. F. C. Byrd,  A. K. Chakraborty,  C.-L. Cheng,  
 Siu Hung Chien,  D. M. Chipman,  D. L. Crittenden,  H. Dachsel,  
 R. J. Doerksen,  A. D. Dutoi,  L. Fusti-Molnar,  W. A. Goddard III,  
 A. Golubeva-Zadorozhnaya,  S. R. Gwaltney,  G. Hawkins,  A. Heyden,  
 S. Hirata,  G. Kedziora,  F. J. Keil,  C. Kelley,  Jihan Kim,  R. A. King,  
 R. Z. Khaliullin,  P. P. Korambath,  W. Kurlancheek,  A. M. Lee,  M. S. Lee,  
 S. V. Levchenko,  Ching Yeh Lin,  D. Liotard,  R. C. Lochan,  I. Lotan,  
 P. E. Maslen,  N. Nair,  D. P. O'Neill,  D. Neuhauser,  E. Neuscamman,  
 C. M. Oana,  R. Olson,  B. Peters,  R. Peverati,  P. A. Pieniazek,  
 Y. M. Rhee,  J. Ritchie,  M. A. Rohrdanz,  E. Rosta,  N. J. Russ,  
 H. F. Schaefer III,  N. E. Schultz,  N. Shenvi,  A. C. Simmonett,  A. Sodt,  
 D. Stuck,  K. S. Thanthiriwatte,  V. Vanovschi,  Tao Wang,  A. Warshel,  
 C. F. Williams,  Q. Wu,  X. Xu,  W. Zhang

 Please cite Q-Chem as follows:
 Y. Shao et al., Mol. Phys. 113, 184-215 (2015)
 DOI: 10.1080/00268976.2014.952696

 Q-Chem 5.1.1 for Intel X86 EM64T Linux

 Parts of Q-Chem use Armadillo 8.300.2 (Tropical Shenanigans).
 http://arma.sourceforge.net/

 Q-Chem begins on Mon Nov 16 03:10:59 2020  

Host: n0034.mhg0
0

     Scratch files written to /local/scratch/users/yhljason/AlH2_MN15_aug-pc-4.inp20201116031057//
Input Ideriv = 2
Curr. Ideriv = -1
Max.  Ideriv = 2
Input Ideriv = 1
Curr. Ideriv = 2
Max.  Ideriv = 1

Checking the input file for inconsistencies... 	...done.

--------------------------------------------------------------
User input:
--------------------------------------------------------------
$molecule
0 2
Al1     0.0000  0.0000  0.0000
H2      0.0000  1.3700  0.8070
H3      0.0000  -1.3700 0.8070
$end

$rem
jobtype sp
method MN15
xc_grid 000099000590
basis aug-pc-4
max_scf_cycles 200
thresh 14
scf_convergence 8
scf_algorithm gdm
symmetry false
sym_ignore true
unrestricted True
gen_scfman true
internal_stability_iter 15
internal_stability_davidson_iter 200
mem_total 64000
mem_static 1500
n_frozen_core 0
$end



--------------------------------------------------------------
 ----------------------------------------------------------------
             Standard Nuclear Orientation (Angstroms)
    I     Atom           X                Y                Z
 ----------------------------------------------------------------
    1      Al      0.0000000000     0.0000000000     0.0000000000
    2      H       0.0000000000     1.3700000000     0.8070000000
    3      H       0.0000000000    -1.3700000000     0.8070000000
 ----------------------------------------------------------------
 Nuclear Repulsion Energy =     8.8462587633 hartrees
 There are        8 alpha and        7 beta electrons
 Requested basis set is aug-pc-4
 There are 79 shells and 317 basis functions

 Total QAlloc Memory Limit  64000 MB
 Mega-Array Size      1467 MB
 MEM_STATIC part      1500 MB

                       Distance Matrix (Angstroms)
             Al(  1)   H (  2)
   H (  2)  1.590015
   H (  3)  1.590015  2.740000
 
 A cutoff of  1.0D-14 yielded   3105 shell pairs
 There are     50589 function pairs (     91076 Cartesian)
 
 -------------------------------------------------------
 OpenMP Integral Computing Module                       
 Release: version 1.0, May 2013, Q-Chem Inc. Pittsburgh 
 -------------------------------------------------------
 Integral Job Info:
 Integral job number is                      11
 Integral operator is                         1
 short-range coefficients                     0
 long-range coefficients              100000000
 Omega coefficients                           0
 if combine SR and LR in K                    0
 Integral screening is                        0
 Integral computing path is                   2
 max size of driver memory is           6400000
 size of driver memory is               5498286
 size of scratch memory is             27847117
 max col of scratch BK array             194481
 max len of scratch array in speh3         5572
 max len of scratch index in speh4           72
 max int batch size is                      520
 min int batch size is                       52
 fixed nKL is                                 7
 max L of basis functions is                  5
 order of int derivative is                   0
 number of shells is                         79
 number of basis is                         424
 number of cartesian basis is               424
 number of contracted shell pairs          3105
 number of primitive shell pairs           9654
 maxK2 (contraction) of shell pair          225
 max number of K2 of shell pair               1
 max number of CS2 of shell pair            357
 max number of PS2 of shell pair            374
 mem total for path MDJ                  900380
 -------------------------------------------------------
 Smallest overlap matrix eigenvalue = 3.91E-06

 Scale SEOQF with 1.000000e-01/1.000000e-01/1.000000e-01

 Standard Electronic Orientation quadrupole field applied
 Nucleus-field energy     =     0.0000000001 hartrees
 Guess from superposition of atomic densities
 Warning:  Energy on first SCF cycle will be non-variational
 SAD guess density has 15.000000 electrons

 -----------------------------------------------------------------------
  General SCF calculation program by
  Eric Jon Sundstrom, Paul Horn, Yuezhi Mao, Dmitri Zuev, Alec White,
  David Stuck, Shaama M.S., Shane Yost, Joonho Lee, David Small,
  Daniel Levine, Susi Lehtola, Hugh Burton, Evgeny Epifanovsky
 -----------------------------------------------------------------------
 Exchange:     0.4400 Hartree-Fock + 1.0000 MN15
 Correlation:  1.0000 MN15
 Using Euler-Maclaurin-Lebedev (99,590) quadrature formula
Running Object-Oriented UKS (UHF)
performing a single roothaan step with Fock from read density so that orbitals are available to all algorithms
 LTot/LBra/LKet=          18           9           9

 Q-Chem warning:

 in GenH1, ket side, handled with new code

 LTot/LBra/LBra=          18           9           9

 Q-Chem warning:

 in GenH1, bra side, handled with new code

energy of the guess density (C=0) -243.341437063440
We will preform up to 15 macro iterations over saddle points until a stable solution is found
Energy prior to optimization (guess energy) = -243.468862252799
Begin Timing: Total SCF Calculation
Begin Timing: SCF Single Stationary Point Calculation
begin iterations for algorithm: GDM          
the SCF tolerance is set to 1.00e-08
    1    -243.4688622528      4.18e-02     00000  Normal BFGS step
    2    -243.4801106253      4.41e-02     00000  Normal BFGS step
    3    -243.4828379590      6.26e-03     00000  Normal BFGS step
    4    -243.4829208343      1.92e-03     00000  Normal BFGS step
    5    -243.4829348650      9.09e-04     00000  Normal BFGS step
    6    -243.4829370138      1.72e-04     00000  Normal BFGS step
    7    -243.4829372534      4.35e-05     00000  Normal BFGS step
    8    -243.4829372653      2.26e-05     00000  Normal BFGS step
    9    -243.4829372673      5.50e-06     00000  Normal BFGS step
   10    -243.4829372675      1.73e-06     00000  Normal BFGS step
   11    -243.4829372675      3.23e-07     00000  Normal BFGS step
   12    -243.4829372675      1.18e-07     00000  Normal BFGS step
   13    -243.4829372675      2.52e-08     00000  Normal BFGS step
   14    -243.4829372675      9.98e-09     00000 Convergence criterion met
Timing for Single Stationary Point: 331.00s (wall), 10523.43s (cpu)
Begin Timing: Stability
===================================================
Beginning Test for Internal Stability
===================================================
generating davidson guess vectors based on koopmans excitations
    1      5.34e-01     00000 Davidson Iteration
    2      1.55e-01     00000 Davidson Iteration
    3      5.22e-02     00000 Davidson Iteration
    4      1.46e-02     00000 Davidson Iteration
    5      8.05e-03     00000 Davidson Iteration
    6      3.29e-03     00000 Davidson Iteration
    7      8.38e-04     00000 Davidson Iteration
    8      3.07e-04     00000 Davidson Iteration
    9      1.02e-04     00000 Davidson Iteration
   10      4.40e-05     00000 Davidson Iteration
   11      1.65e-02     00000 Davidson Iteration
   12      8.00e-03     00000 Davidson Iteration
   13      5.28e-02     00000 Davidson Iteration
   14      6.55e-03     00000 Davidson Iteration
   15      2.28e-03     00000 Davidson Iteration
   16      8.94e-04     00000 Davidson Iteration
   17      4.01e-04     00000 Davidson Iteration
   18      1.85e-04     00000 Davidson Iteration
   19      8.89e-05     00000 Davidson Converged
converged_eigenvalues
   0.1277
   0.3299
Threshold for negative eigenvalues: -1.0e-05
solution was a local minimum (stable)
===================================================
End Test for Internal Stability
===================================================
Our SCF solution is stable!
Timing for Total SCF: 1140.00s (wall), 32842.82s (cpu)
 Total energy in the final basis set =     -243.4829372675
<S^2> =          0.751629556
    ==================================================
              The end of Object-Oriented SCFman       
    ==================================================
 
 --------------------------------------------------------------
 
                    Orbital Energies (a.u.)
 --------------------------------------------------------------
 
 Alpha MOs
 -- Occupied --
-55.309  -4.077  -2.767  -2.763  -2.757  -0.445  -0.346  -0.211
 -- Virtual --
 -0.064   0.018   0.020   0.020   0.021   0.042   0.046   0.049
  0.056   0.065   0.067   0.067   0.078   0.085   0.086   0.090
  0.109   0.113   0.121   0.122   0.124   0.130   0.134   0.136
  0.137   0.140   0.142   0.148   0.177   0.189   0.192   0.196
  0.199   0.204   0.207   0.208   0.209   0.216   0.216   0.228
  0.235   0.241   0.251   0.252   0.273   0.275   0.289   0.290
  0.291   0.298   0.300   0.300   0.301   0.304   0.305   0.311
  0.312   0.313   0.318   0.318   0.322   0.339   0.344   0.350
  0.360   0.388   0.411   0.418   0.426   0.446   0.457   0.465
  0.491   0.495   0.495   0.499   0.521   0.529   0.538   0.538
  0.549   0.559   0.565   0.572   0.584   0.590   0.599   0.623
  0.628   0.639   0.644   0.651   0.653   0.665   0.671   0.672
  0.672   0.683   0.694   0.706   0.710   0.713   0.736   0.738
  0.743   0.758   0.773   0.783   0.783   0.789   0.823   0.835
  0.836   0.859   0.875   0.889   0.906   0.923   0.961   0.963
  1.010   1.020   1.028   1.042   1.068   1.163   1.163   1.187
  1.223   1.224   1.293   1.297   1.381   1.387   1.451   1.502
  1.511   1.521   1.523   1.536   1.578   1.583   1.593   1.609
  1.657   1.743   1.829   1.834   1.851   1.885   1.923   1.941
  2.021   2.024   2.030   2.071   2.075   2.100   2.122   2.170
  2.176   2.183   2.254   2.285   2.324   2.367   2.450   2.480
  2.910   2.912   2.945   2.967   2.982   3.024   3.133   3.135
  3.232   3.295   3.324   3.349   3.368   3.376   3.386   3.452
  3.485   3.489   3.493   3.543   3.593   3.649   3.676   3.724
  3.775   3.838   3.840   3.907   4.123   4.146   4.281   4.284
  4.392   4.397   4.521   4.586   4.679   4.718   4.751   4.751
  4.777   4.822   4.907   4.968   4.972   5.020   5.155   5.219
  5.351   5.391   5.419   5.438   5.516   5.760   5.882   6.033
  6.049   6.274   6.697   7.540   7.589   7.748   7.852   7.868
  7.955   8.123   8.124   8.187   8.240   8.257   8.414   8.474
  8.609   8.610   8.615   8.692   8.899   8.907   8.948   9.094
  9.409   9.409   9.928  10.613  11.954  11.957  11.984  11.988
 12.063  12.123  12.125  12.152  12.299  12.305  12.307  12.311
 12.354  12.379  13.874  14.259  14.279  14.358  14.829  15.074
 15.999  16.018  16.021  16.068  16.108  16.113  16.120  16.170
 16.247  16.249  16.284  16.288  16.291  16.293  16.335  16.337
 16.459  17.579  22.528  22.548  22.589  22.622  22.711  22.775
 36.867  37.005  49.739  49.755  49.816  50.093  50.128  86.578
 86.596  86.831  86.874  86.877  86.917
 
 Beta MOs
 -- Occupied --
-55.308  -4.075  -2.765  -2.757  -2.757  -0.429  -0.333
 -- Virtual --
 -0.066  -0.045   0.017   0.019   0.020   0.023   0.046   0.048
  0.060   0.062   0.066   0.072   0.072   0.086   0.089   0.097
  0.101   0.108   0.112   0.120   0.124   0.126   0.129   0.135
  0.136   0.137   0.151   0.171   0.175   0.175   0.188   0.191
  0.199   0.202   0.202   0.208   0.209   0.216   0.216   0.223
  0.238   0.251   0.251   0.260   0.262   0.281   0.283   0.291
  0.292   0.293   0.295   0.298   0.298   0.306   0.308   0.309
  0.314   0.315   0.315   0.318   0.333   0.339   0.351   0.365
  0.369   0.372   0.392   0.412   0.423   0.429   0.453   0.468
  0.470   0.491   0.505   0.507   0.509   0.531   0.538   0.538
  0.546   0.562   0.567   0.570   0.579   0.583   0.589   0.606
  0.621   0.635   0.640   0.646   0.654   0.659   0.665   0.669
  0.678   0.681   0.693   0.695   0.705   0.717   0.722   0.734
  0.746   0.750   0.778   0.793   0.793   0.810   0.816   0.832
  0.834   0.862   0.891   0.896   0.921   0.961   0.980   0.984
  1.031   1.045   1.073   1.079   1.085   1.122   1.183   1.197
  1.216   1.252   1.270   1.321   1.347   1.403   1.421   1.456
  1.510   1.525   1.533   1.548   1.554   1.608   1.638   1.709
  1.718   1.826   1.866   1.924   1.986   1.987   1.994   2.049
  2.062   2.111   2.144   2.154   2.239   2.245   2.246   2.262
  2.300   2.314   2.325   2.353   2.373   2.403   2.472   2.531
  2.590   2.926   2.973   2.981   3.002   3.052   3.080   3.103
  3.117   3.229   3.317   3.353   3.414   3.421   3.443   3.515
  3.527   3.534   3.535   3.565   3.624   3.710   3.743   3.777
  3.847   3.909   3.911   4.002   4.043   4.238   4.280   4.321
  4.361   4.452   4.514   4.590   4.718   4.766   4.851   4.870
  4.930   4.944   4.953   5.007   5.103   5.171   5.246   5.262
  5.278   5.475   5.525   5.624   5.632   5.648   5.937   5.949
  6.005   6.050   6.294   6.677   7.581   7.633   7.694   7.803
  7.825   7.886   8.010   8.040   8.066   8.114   8.231   8.238
  8.458   8.569   8.580   8.580   8.627   8.809   8.843   8.857
  9.057   9.396   9.397   9.856  10.497  11.869  11.873  11.926
 11.927  11.960  11.981  12.000  12.010  12.026  12.061  12.074
 12.086  12.135  12.137  13.815  14.293  14.319  14.352  14.849
 14.984  15.829  15.841  15.910  15.938  16.019  16.028  16.031
 16.055  16.069  16.088  16.153  16.222  16.289  16.289  16.290
 16.290  16.334  17.504  22.386  22.424  22.503  22.564  22.641
 22.696  36.891  37.030  49.758  49.776  49.821  50.099  50.149
 86.361  86.392  87.074  87.117  87.151  87.208
 --------------------------------------------------------------
 
          Ground-State Mulliken Net Atomic Charges

     Atom                 Charge (a.u.)    Spin (a.u.)
  --------------------------------------------------------
      1 Al                    0.282204      -0.493272
      2 H                    -0.141102       0.746636
      3 H                    -0.141102       0.746636
  --------------------------------------------------------
  Sum of atomic charges =     0.000000
  Sum of spin   charges =     1.000000

 -----------------------------------------------------------------
                    Cartesian Multipole Moments
 -----------------------------------------------------------------
    Charge (ESU x 10^10)
                 0.0000
    Dipole Moment (Debye)
         X       0.0000      Y      -0.0000      Z      -0.6668
       Tot       0.6668
    Quadrupole Moments (Debye-Ang)
        XX     -12.3179     XY       0.0000     YY     -18.4282
        XZ      -0.0000     YZ       0.0000     ZZ     -17.1470
    Octopole Moments (Debye-Ang^2)
       XXX       0.0000    XXY      -0.0000    XYY       0.0000
       YYY      -0.0000    XXZ      -0.7069    XYZ       0.0000
       YYZ      -4.5010    XZZ       0.0000    YZZ      -0.0000
       ZZZ      -3.7858
    Hexadecapole Moments (Debye-Ang^3)
      XXXX     -20.9150   XXXY      -0.0000   XXYY     -14.2327
      XYYY       0.0000   YYYY     -67.6157   XXXZ      -0.0000
      XXYZ      -0.0000   XYYZ       0.0000   YYYZ       0.0000
      XXZZ     -12.0809   XYZZ       0.0000   YYZZ     -20.7969
      XZZZ      -0.0000   YZZZ      -0.0000   ZZZZ     -51.6321
 -----------------------------------------------------------------
Archival summary:
1\1\n0034.mhg0\SP\ProcedureUnspecified\BasisUnspecified\l12(2)\yhljason\MonNov1603:30:322020MonNov1603:30:322020\0\\#,ProcedureUnspecified,BasisUnspecified,\\0,2\Al\H,1,1.59002\H,1,1.59002,2,118.999\\\@

 Total job time:  1173.15s(wall), 33814.32s(cpu) 
 Mon Nov 16 03:30:32 2020

        *************************************************************
        *                                                           *
        *  Thank you very much for using Q-Chem.  Have a nice day.  *
        *                                                           *
        *************************************************************


