                  Welcome to Q-Chem
     A Quantum Leap Into The Future Of Chemistry


 Q-Chem 5.3 (devel), Q-Chem, Inc., Pleasanton, CA (2020)

 Yihan Shao,  Zhengting Gan,  E. Epifanovsky,  A. T. B. Gilbert,  M. Wormit,  
 J. Kussmann,  A. W. Lange,  A. Behn,  Jia Deng,  Xintian Feng,  D. Ghosh,  
 M. Goldey,  P. R. Horn,  L. D. Jacobson,  I. Kaliman,  T. Kus,  A. Landau,  
 Jie Liu,  E. I. Proynov,  R. M. Richard,  R. P. Steele,  E. J. Sundstrom,  
 H. L. Woodcock III,  P. M. Zimmerman,  D. Zuev,  B. Alam,  B. Albrecht,  
 E. Alguire,  S. A. Baeppler,  D. Barton,  Z. Benda,  Y. A. Bernard,  
 E. J. Berquist,  K. B. Bravaya,  H. Burton,  K. Carter-Fenk,  D. Casanova,  
 Chun-Min Chang,  Yunqing Chen,  A. Chien,  K. D. Closser,  M. P. Coons,  
 S. Coriani,  S. Dasgupta,  A. L. Dempwolff,  M. Diedenhofen,  Hainam Do,  
 R. G. Edgar,  Po-Tung Fang,  S. Faraji,  S. Fatehi,  Qingguo Feng,  
 J. Fosso-Tande,  J. Gayvert,  Qinghui Ge,  A. Ghysels,  G. Gidofalvi,  
 J. Gomes,  J. Gonthier,  A. Gunina,  D. Hait,  M. W. D. Hanson-Heine,  
 P. H. P. Harbach,  A. W. Hauser,  M. F. Herbst,  J. E. Herr,  
 E. G. Hohenstein,  Z. C. Holden,  Kerwin Hui,  B. C. Huynh,  T.-C. Jagau,  
 Hyunjun Ji,  B. Kaduk,  K. Khistyaev,  Jaehoon Kim,  P. Klunzinger,  K. Koh,  
 D. Kosenkov,  L. Koulias,  T. Kowalczyk,  C. M. Krauter,  A. Kunitsa,  
 Ka Un Lao,  A. Laurent,  K. V. Lawler,  Joonho Lee,  D. Lefrancois,  
 S. Lehtola,  D. S. Levine,  Yi-Pei Li,  You-Sheng Lin,  Fenglai Liu,  
 Kuan-Yu Liu,  E. Livshits,  M. Loipersberger,  A. Luenser,  P. Manohar,  
 E. Mansoor,  S. F. Manzer,  Shan-Ping Mao,  Yuezhi Mao,  N. Mardirossian,  
 A. V. Marenich,  T. Markovich,  L. A. Martinez-Martinez,  S. A. Maurer,  
 N. J. Mayhall,  S. C. McKenzie,  J.-M. Mewes,  P. Morgante,  A. F. Morrison,  
 J. W. Mullinax,  K. Nanda,  T. S. Nguyen-Beck,  R. Olivares-Amaya,  
 K. J. Oosterbaan,  J. A. Parkhill,  S. K. Paul,  F. Pavosevic,  Zheng Pei,  
 T. M. Perrine,  F. Plasser,  P. Pokhilko,  S. Prager,  A. Prociuk,  
 E. Ramos,  B. Rana,  D. R. Rehn,  F. Rob,  M. Scheurer,  M. Schneider,  
 N. Sergueev,  S. M. Sharada,  S. Sharma,  D. W. Small,  T. Stauch,  
 C. J. Stein,  T. Stein,  Yu-Chuan Su,  S. P. Veccham,  Zhen Tao,  
 A. J. W. Thom,  A. Tkatchenko,  T. Tsuchimochi,  N. M. Tubman,  L. Vogt,  
 M. L. Vidal,  O. Vydrov,  M. A. Watson,  J. Wenzel,  M. de Wergifosse,  
 T. A. Wesolowski,  A. White,  J. Witte,  A. Yamada,  Jun Yang,  K. Yao,  
 S. Yeganeh,  S. R. Yost,  Zhi-Qiang You,  A. Zech,  Igor Ying Zhang,  
 Xing Zhang,  Yan Zhao,  Ying Zhu,  B. R. Brooks,  G. K. L. Chan,  
 C. J. Cramer,  M. S. Gordon,  W. J. Hehre,  A. Klamt,  M. W. Schmidt,  
 C. D. Sherrill,  D. G. Truhlar,  A. Aspuru-Guzik,  R. Baer,  A. T. Bell,  
 N. A. Besley,  Jeng-Da Chai,  A. E. DePrince, III,  R. A. DiStasio Jr.,  
 A. Dreuw,  B. D. Dunietz,  T. R. Furlani,  Chao-Ping Hsu,  Yousung Jung,  
 Jing Kong,  D. S. Lambrecht,  WanZhen Liang,  C. Ochsenfeld,  
 V. A. Rassolov,  L. V. Slipchenko,  J. E. Subotnik,  T. Van Voorhis,  
 J. M. Herbert,  A. I. Krylov,  P. M. W. Gill,  M. Head-Gordon

 Contributors to earlier versions of Q-Chem not listed above: 
 R. D. Adamson,  B. Austin,  J. Baker,  G. J. O. Beran,  K. Brandhorst,  
 S. T. Brown,  E. F. C. Byrd,  A. K. Chakraborty,  C.-L. Cheng,  
 Siu Hung Chien,  D. M. Chipman,  D. L. Crittenden,  H. Dachsel,  
 R. J. Doerksen,  A. D. Dutoi,  L. Fusti-Molnar,  W. A. Goddard III,  
 A. Golubeva-Zadorozhnaya,  S. R. Gwaltney,  G. Hawkins,  A. Heyden,  
 S. Hirata,  G. Kedziora,  F. J. Keil,  C. Kelley,  Jihan Kim,  R. A. King,  
 R. Z. Khaliullin,  P. P. Korambath,  W. Kurlancheek,  A. M. Lee,  M. S. Lee,  
 S. V. Levchenko,  Ching Yeh Lin,  D. Liotard,  R. C. Lochan,  I. Lotan,  
 P. E. Maslen,  N. Nair,  D. P. O'Neill,  D. Neuhauser,  E. Neuscamman,  
 C. M. Oana,  R. Olson,  B. Peters,  R. Peverati,  P. A. Pieniazek,  
 Y. M. Rhee,  J. Ritchie,  M. A. Rohrdanz,  E. Rosta,  N. J. Russ,  
 H. F. Schaefer III,  N. E. Schultz,  N. Shenvi,  A. C. Simmonett,  A. Sodt,  
 D. Stuck,  K. S. Thanthiriwatte,  V. Vanovschi,  Tao Wang,  A. Warshel,  
 C. F. Williams,  Q. Wu,  X. Xu,  W. Zhang

 Please cite Q-Chem as follows:
 Y. Shao et al., Mol. Phys. 113, 184-215 (2015)
 DOI: 10.1080/00268976.2014.952696

 Q-Chem 5.3.0 for Intel X86 EM64T Linux

 Parts of Q-Chem use Armadillo 9.800.1 (Horizon Scraper).
 http://arma.sourceforge.net/

 Q-Chem begins on Tue Nov 10 22:56:27 2020  

n0091.mhg0
Host: 0

     Scratch files written to /local/scratch/users/yhljason/AlH2_MGGA_MS2_aug-pc-4.inp20201110225625//
Processing $rem in /clusterfs/mhg/diptarka/qchem_transmom//config/preferences:
Processing $rem in /global/home/users/yhljason/.qchemrc:

Checking the input file for inconsistencies... 	...done.

--------------------------------------------------------------
User input:
--------------------------------------------------------------
$molecule
0 2
Al1     0.0000  0.0000  0.0000
H2      0.0000  1.3700  0.8070
H3      0.0000  -1.3700 0.8070
$end

$rem
jobtype sp
method MGGA_MS2
xc_grid 000099000590
basis aug-pc-4
max_scf_cycles 200
thresh 14
scf_convergence 8
scf_algorithm gdm
symmetry false
sym_ignore true
unrestricted True
gen_scfman true
internal_stability_iter 15
internal_stability_davidson_iter 200
mem_total 64000
mem_static 1500
n_frozen_core 0
$end



--------------------------------------------------------------
 ----------------------------------------------------------------
             Standard Nuclear Orientation (Angstroms)
    I     Atom           X                Y                Z
 ----------------------------------------------------------------
    1      Al      0.0000000000     0.0000000000     0.0000000000
    2      H       0.0000000000     1.3700000000     0.8070000000
    3      H       0.0000000000    -1.3700000000     0.8070000000
 ----------------------------------------------------------------
 Nuclear Repulsion Energy =           8.84625876 hartrees
 There are        8 alpha and        7 beta electrons
 Requested basis set is aug-pc-4
 There are 79 shells and 317 basis functions

 Total QAlloc Memory Limit  64000 MB
 Mega-Array Size      1467 MB
 MEM_STATIC part      1500 MB

                       Distance Matrix (Angstroms)
             Al(  1)   H (  2)
   H (  2)  1.590015
   H (  3)  1.590015  2.740000

 A cutoff of  1.0D-14 yielded   3105 shell pairs
 There are     50589 function pairs (     91076 Cartesian)
 Smallest overlap matrix eigenvalue = 3.91E-06

 Scale SEOQF with 1.000000e-01/1.000000e-01/1.000000e-01

 Standard Electronic Orientation quadrupole field applied
 Nucleus-field energy     =     0.0000000001 hartrees
 Guess from superposition of atomic densities
 Warning:  Energy on first SCF cycle will be non-variational
 SAD guess density has 15.000000 electrons

 -----------------------------------------------------------------------
  General SCF calculation program by
  Eric Jon Sundstrom, Paul Horn, Yuezhi Mao, Dmitri Zuev, Alec White,
  David Stuck, Shaama M.S., Shane Yost, Joonho Lee, David Small,
  Daniel Levine, Susi Lehtola, Hugh Burton, Evgeny Epifanovsky,
  Bang C. Huynh
 -----------------------------------------------------------------------
 Exchange:  MGGA_MS2      Correlation:  regTPSS
 Using Euler-Maclaurin-Lebedev (99,590) quadrature formula
Running Object-Oriented UKS (UHF)
performing a single roothaan step with Fock from read density so that orbitals are available to all algorithms
energy of the guess density (C=0) -243.471242103417
We will preform up to 15 macro iterations over saddle points until a stable solution is found
Energy prior to optimization (guess energy) = -243.572153110915
Begin Timing: Total SCF Calculation
Begin Timing: SCF Single Stationary Point Calculation
begin iterations for algorithm: GDM          
the SCF tolerance is set to 1.00e-08
    1    -243.5721531109      7.60e-02     00000  Normal BFGS step
    2    -243.5840795613      9.48e-02     00000  Normal BFGS step
    3    -243.5937349537      3.37e-03     00000  Normal BFGS step
    4    -243.5938376010      1.18e-03     00000  Normal BFGS step
    5    -243.5938489185      9.42e-05     00000  Normal BFGS step
    6    -243.5938489768      1.22e-05     00000  Normal BFGS step
    7    -243.5938489800      3.10e-06     00000  Normal BFGS step
    8    -243.5938489801      5.56e-07     00000  Normal BFGS step
    9    -243.5938489801      2.13e-07     00000  Normal BFGS step
   10    -243.5938489801      3.00e-08     00000  Normal BFGS step
   11    -243.5938489801      1.50e-08     00000  Normal BFGS step
   12    -243.5938489801      4.40e-09     00000 Convergence criterion met
Timing for Single Stationary Point: 795.00s (wall), 6241.14s (cpu)
Begin Timing: Stability
===================================================
Beginning Test for Internal Stability
===================================================
generating davidson guess vectors based on koopmans excitations
 Warning: Hessian-vector products not implemented
 Finite difference Hessian-vector products will be used.
computing hessian-vector products by finite difference
    1      5.82e-01     00000 Davidson Iteration
computing hessian-vector products by finite difference
    2      1.24e-01     00000 Davidson Iteration
computing hessian-vector products by finite difference
    3      5.77e-02     00000 Davidson Iteration
computing hessian-vector products by finite difference
    4      4.43e-03     00000 Davidson Iteration
computing hessian-vector products by finite difference
    5      7.91e-04     00000 Davidson Iteration
computing hessian-vector products by finite difference
    6      3.02e-04     00000 Davidson Iteration
computing hessian-vector products by finite difference
    7      4.89e-05     00000 Davidson Iteration
computing hessian-vector products by finite difference
    8      2.23e-03     00000 Davidson Iteration
computing hessian-vector products by finite difference
    9      4.91e-04     00000 Davidson Iteration
computing hessian-vector products by finite difference
   10      1.63e-04     00000 Davidson Iteration
computing hessian-vector products by finite difference
   11      3.41e-04     00000 Davidson Iteration
computing hessian-vector products by finite difference
   12      2.23e-04     00000 Davidson Iteration
computing hessian-vector products by finite difference
   13      5.34e-05     00000 Davidson Converged
converged_eigenvalues
   0.1246
   0.3151
Threshold for negative eigenvalues: -1.0e-05
solution was a local minimum (stable)
===================================================
End Test for Internal Stability
===================================================
Timing for Internal Stability: 4353.00s (wall), 33603.84s (cpu)
Our SCF solution is stable!
Timing for Total SCF: 5149.00s (wall), 39845.06s (cpu)
 Total energy in the final basis set =     -243.5938489801
<S^2> =          0.752416938
    ==================================================
              The end of Object-Oriented SCFman       
    ==================================================

 --------------------------------------------------------------

                    Orbital Energies (a.u.)
 --------------------------------------------------------------

 Alpha MOs
 -- Occupied --
-55.6083  -4.0657  -2.5797  -2.5737  -2.5689  -0.3831  -0.2879  -0.1810
 -- Virtual --
 -0.1007  -0.0030   0.0051   0.0075   0.0132   0.0174   0.0179   0.0343
  0.0377   0.0386   0.0387   0.0402   0.0583   0.0596   0.0639   0.0649
  0.0871   0.0889   0.0934   0.0982   0.0987   0.1022   0.1046   0.1048
  0.1054   0.1070   0.1086   0.1212   0.1511   0.1643   0.1643   0.1677
  0.1689   0.1723   0.1766   0.1774   0.1789   0.1826   0.1827   0.1919
  0.1992   0.2059   0.2183   0.2190   0.2375   0.2396   0.2525   0.2543
  0.2564   0.2608   0.2621   0.2622   0.2644   0.2652   0.2696   0.2712
  0.2743   0.2744   0.2775   0.2786   0.2804   0.2866   0.3015   0.3028
  0.3194   0.3462   0.3643   0.3706   0.3830   0.3994   0.4125   0.4176
  0.4395   0.4449   0.4455   0.4525   0.4821   0.4824   0.4871   0.4882
  0.4975   0.5045   0.5119   0.5265   0.5271   0.5342   0.5485   0.5615
  0.5725   0.5793   0.5840   0.5933   0.5945   0.6034   0.6069   0.6199
  0.6219   0.6283   0.6290   0.6455   0.6509   0.6556   0.6704   0.6882
  0.6914   0.7057   0.7194   0.7292   0.7394   0.7671   0.7713   0.7767
  0.7960   0.8038   0.8464   0.8657   0.8836   0.8960   0.9248   0.9609
  0.9885   0.9996   1.0032   1.0248   1.0428   1.1271   1.1380   1.1404
  1.1844   1.1998   1.2526   1.2633   1.3436   1.3512   1.3951   1.4440
  1.4686   1.4714   1.4731   1.4944   1.5165   1.5463   1.6324   1.6330
  1.7351   1.7850   1.9316   1.9363   1.9426   1.9796   2.0146   2.0289
  2.0904   2.1184   2.1757   2.1878   2.2143   2.2161   2.2415   2.2645
  2.2951   2.3058   2.3390   2.3625   2.3930   2.4489   2.5215   2.5732
  2.9985   3.0016   3.0283   3.0600   3.0837   3.1765   3.2259   3.2482
  3.3258   3.4340   3.4449   3.4841   3.5045   3.5049   3.5463   3.5489
  3.5492   3.5815   3.6499   3.7001   3.7577   3.8112   3.8492   3.9536
  3.9969   4.0113   4.0420   4.0674   4.3665   4.4250   4.4758   4.5069
  4.5899   4.6443   4.7539   4.8707   4.9189   4.9730   4.9998   5.0217
  5.0438   5.1075   5.1378   5.2790   5.2911   5.3665   5.3852   5.4961
  5.5820   5.6173   5.6648   5.6773   5.7824   6.0936   6.1132   6.2321
  6.2789   6.5818   6.9376   7.7946   7.8600   8.0550   8.1576   8.1673
  8.2947   8.4247   8.4800   8.4980   8.5679   8.7212   8.8800   8.8842
  8.8872   8.9618   8.9721   9.0268   9.2975   9.3113   9.3424   9.5330
  9.7252   9.7567  10.3797  11.1595  12.3985  12.4094  12.4271  12.4306
 12.6854  12.7436  12.7725  12.7890  13.0560  13.1298  13.1306  13.1775
 13.1996  13.2888  14.5834  14.6987  14.7303  14.8018  15.3453  15.8314
 16.8846  16.8848  16.8852  16.8853  16.9097  16.9119  16.9137  16.9233
 16.9845  16.9940  17.0654  17.0701  17.2535  17.2581  17.3388  17.3836
 17.5559  18.5138  23.2682  23.3241  23.3321  23.4004  23.8944  23.9802
 39.1541  39.3047  51.9530  51.9717  52.0293  52.3262  52.3733  91.0335
 91.0663  91.0778  91.1229  91.4827  91.5282

 Beta MOs
 -- Occupied --
-55.6063  -4.0640  -2.5777  -2.5681  -2.5666  -0.3668  -0.2781
 -- Virtual --
 -0.1009  -0.0779   0.0048   0.0115   0.0133   0.0159   0.0231   0.0337
  0.0369   0.0416   0.0436   0.0533   0.0537   0.0665   0.0671   0.0731
  0.0760   0.0925   0.0945   0.1025   0.1031   0.1040   0.1074   0.1090
  0.1166   0.1175   0.1249   0.1322   0.1322   0.1569   0.1673   0.1708
  0.1742   0.1769   0.1801   0.1850   0.1867   0.1910   0.1951   0.1951
  0.2030   0.2050   0.2124   0.2273   0.2290   0.2419   0.2519   0.2605
  0.2639   0.2664   0.2697   0.2716   0.2730   0.2737   0.2753   0.2767
  0.2853   0.2855   0.2857   0.2926   0.2927   0.2952   0.3040   0.3212
  0.3221   0.3255   0.3526   0.3639   0.3761   0.3878   0.4074   0.4224
  0.4242   0.4460   0.4557   0.4618   0.4620   0.4868   0.4902   0.4908
  0.4948   0.5105   0.5115   0.5168   0.5311   0.5336   0.5380   0.5535
  0.5688   0.5828   0.5862   0.5909   0.5995   0.6026   0.6118   0.6141
  0.6253   0.6255   0.6347   0.6351   0.6501   0.6579   0.6633   0.6772
  0.6926   0.6985   0.7165   0.7326   0.7374   0.7547   0.7738   0.7756
  0.7806   0.8019   0.8275   0.8440   0.8743   0.9056   0.9102   0.9238
  0.9778   0.9922   1.0127   1.0181   1.0377   1.0552   1.1236   1.1388
  1.1428   1.1808   1.2062   1.2423   1.2655   1.3376   1.3403   1.3769
  1.4349   1.4626   1.4637   1.4648   1.4937   1.5089   1.5367   1.6254
  1.6326   1.7529   1.7856   1.9337   1.9373   1.9480   1.9824   2.0145
  2.0334   2.0878   2.1179   2.1727   2.2001   2.2181   2.2242   2.2480
  2.2767   2.2917   2.3061   2.3434   2.3600   2.3809   2.4417   2.5105
  2.5720   2.9572   2.9890   2.9894   3.0284   3.0532   3.1447   3.1864
  3.2086   3.2989   3.3939   3.4043   3.4537   3.4563   3.4653   3.5100
  3.5184   3.5196   3.5445   3.5911   3.6601   3.7340   3.7773   3.8297
  3.9121   3.9567   3.9710   4.0216   4.0219   4.3252   4.4047   4.4664
  4.4827   4.5574   4.6100   4.7037   4.8349   4.9156   4.9591   5.0031
  5.0101   5.0206   5.0663   5.1107   5.2484   5.2736   5.3648   5.3840
  5.4540   5.5607   5.6058   5.6515   5.6620   5.7791   6.0870   6.0954
  6.2262   6.2687   6.5597   6.9352   7.8180   7.8795   8.0606   8.1628
  8.1631   8.2877   8.3803   8.4161   8.4506   8.5169   8.7229   8.8336
  8.8360   8.8397   8.9133   8.9257   8.9819   9.2646   9.2716   9.3107
  9.4959   9.6836   9.7239  10.3519  11.1348  12.3314  12.3429  12.3566
 12.3611  12.6175  12.6698  12.7067  12.7189  13.0140  13.0655  13.0674
 13.1013  13.1271  13.2277  14.5642  14.7212  14.7562  14.8153  15.3561
 15.8026  16.8073  16.8081  16.8083  16.8095  16.8203  16.8279  16.8292
 16.8346  16.9023  16.9242  16.9787  16.9972  17.1738  17.1940  17.2725
 17.3092  17.4892  18.4732  23.2349  23.2835  23.2982  23.3567  23.8615
 23.9467  39.1315  39.2820  51.9618  51.9812  52.0360  52.3325  52.3815
 90.9948  91.0240  91.0390  91.0798  91.4424  91.4874
 --------------------------------------------------------------

          Ground-State Mulliken Net Atomic Charges

     Atom                 Charge (a.u.)    Spin (a.u.)
  --------------------------------------------------------
      1 Al                    0.964603       0.774252
      2 H                    -0.482302       0.112874
      3 H                    -0.482302       0.112874
  --------------------------------------------------------
  Sum of atomic charges =    -0.000000
  Sum of spin   charges =     1.000000

 -----------------------------------------------------------------
                    Cartesian Multipole Moments
 -----------------------------------------------------------------
    Charge (ESU x 10^10)
                -0.0000
    Dipole Moment (Debye)
         X      -0.0000      Y      -0.0000      Z      -0.3521
       Tot       0.3521
    Quadrupole Moments (Debye-Ang)
        XX     -11.8223     XY      -0.0000     YY     -17.7378
        XZ      -0.0000     YZ       0.0000     ZZ     -16.9751
    Octopole Moments (Debye-Ang^2)
       XXX       0.0000    XXY      -0.0000    XYY      -0.0000
       YYY       0.0000    XXZ      -0.7809    XYZ       0.0000
       YYZ      -4.1507    XZZ      -0.0000    YZZ      -0.0000
       ZZZ      -2.9091
    Hexadecapole Moments (Debye-Ang^3)
      XXXX     -18.4155   XXXY       0.0000   XXYY     -13.2989
      XYYY      -0.0000   YYYY     -63.2861   XXXZ      -0.0000
      XXYZ      -0.0000   XYYZ      -0.0000   YYYZ       0.0000
      XXZZ     -11.1368   XYZZ      -0.0000   YYZZ     -19.2326
      XZZZ      -0.0000   YZZZ      -0.0000   ZZZZ     -48.6289
 -----------------------------------------------------------------
Archival summary:
1\1\n0091.mhg0\SP\ProcedureUnspecified\BasisUnspecified\l12(2)\yhljason\WedNov1100:24:312020WedNov1100:24:312020\0\\#,ProcedureUnspecified,BasisUnspecified,\\0,2\Al\H,1,1.59002\H,1,1.59002,2,118.999\\\@

 Total job time:  5283.40s(wall), 40896.77s(cpu) 
 Wed Nov 11 00:24:31 2020

        *************************************************************
        *                                                           *
        *  Thank you very much for using Q-Chem.  Have a nice day.  *
        *                                                           *
        *************************************************************


