                  Welcome to Q-Chem
     A Quantum Leap Into The Future Of Chemistry


 Q-Chem 5.3 (devel), Q-Chem, Inc., Pleasanton, CA (2020)

 Yihan Shao,  Zhengting Gan,  E. Epifanovsky,  A. T. B. Gilbert,  M. Wormit,  
 J. Kussmann,  A. W. Lange,  A. Behn,  Jia Deng,  Xintian Feng,  D. Ghosh,  
 M. Goldey,  P. R. Horn,  L. D. Jacobson,  I. Kaliman,  T. Kus,  A. Landau,  
 Jie Liu,  E. I. Proynov,  R. M. Richard,  R. P. Steele,  E. J. Sundstrom,  
 H. L. Woodcock III,  P. M. Zimmerman,  D. Zuev,  B. Alam,  B. Albrecht,  
 E. Alguire,  S. A. Baeppler,  D. Barton,  Z. Benda,  Y. A. Bernard,  
 E. J. Berquist,  K. B. Bravaya,  H. Burton,  K. Carter-Fenk,  D. Casanova,  
 Chun-Min Chang,  Yunqing Chen,  A. Chien,  K. D. Closser,  M. P. Coons,  
 S. Coriani,  S. Dasgupta,  A. L. Dempwolff,  M. Diedenhofen,  Hainam Do,  
 R. G. Edgar,  Po-Tung Fang,  S. Faraji,  S. Fatehi,  Qingguo Feng,  
 J. Fosso-Tande,  J. Gayvert,  Qinghui Ge,  A. Ghysels,  G. Gidofalvi,  
 J. Gomes,  J. Gonthier,  A. Gunina,  D. Hait,  M. W. D. Hanson-Heine,  
 P. H. P. Harbach,  A. W. Hauser,  M. F. Herbst,  J. E. Herr,  
 E. G. Hohenstein,  Z. C. Holden,  Kerwin Hui,  B. C. Huynh,  T.-C. Jagau,  
 Hyunjun Ji,  B. Kaduk,  K. Khistyaev,  Jaehoon Kim,  P. Klunzinger,  K. Koh,  
 D. Kosenkov,  L. Koulias,  T. Kowalczyk,  C. M. Krauter,  A. Kunitsa,  
 Ka Un Lao,  A. Laurent,  K. V. Lawler,  Joonho Lee,  D. Lefrancois,  
 S. Lehtola,  D. S. Levine,  Yi-Pei Li,  You-Sheng Lin,  Fenglai Liu,  
 Kuan-Yu Liu,  E. Livshits,  M. Loipersberger,  A. Luenser,  P. Manohar,  
 E. Mansoor,  S. F. Manzer,  Shan-Ping Mao,  Yuezhi Mao,  N. Mardirossian,  
 A. V. Marenich,  T. Markovich,  L. A. Martinez-Martinez,  S. A. Maurer,  
 N. J. Mayhall,  S. C. McKenzie,  J.-M. Mewes,  P. Morgante,  A. F. Morrison,  
 J. W. Mullinax,  K. Nanda,  T. S. Nguyen-Beck,  R. Olivares-Amaya,  
 K. J. Oosterbaan,  J. A. Parkhill,  S. K. Paul,  F. Pavosevic,  Zheng Pei,  
 T. M. Perrine,  F. Plasser,  P. Pokhilko,  S. Prager,  A. Prociuk,  
 E. Ramos,  B. Rana,  D. R. Rehn,  F. Rob,  M. Scheurer,  M. Schneider,  
 N. Sergueev,  S. M. Sharada,  S. Sharma,  D. W. Small,  T. Stauch,  
 C. J. Stein,  T. Stein,  Yu-Chuan Su,  S. P. Veccham,  Zhen Tao,  
 A. J. W. Thom,  A. Tkatchenko,  T. Tsuchimochi,  N. M. Tubman,  L. Vogt,  
 M. L. Vidal,  O. Vydrov,  M. A. Watson,  J. Wenzel,  M. de Wergifosse,  
 T. A. Wesolowski,  A. White,  J. Witte,  A. Yamada,  Jun Yang,  K. Yao,  
 S. Yeganeh,  S. R. Yost,  Zhi-Qiang You,  A. Zech,  Igor Ying Zhang,  
 Xing Zhang,  Yan Zhao,  Ying Zhu,  B. R. Brooks,  G. K. L. Chan,  
 C. J. Cramer,  M. S. Gordon,  W. J. Hehre,  A. Klamt,  M. W. Schmidt,  
 C. D. Sherrill,  D. G. Truhlar,  A. Aspuru-Guzik,  R. Baer,  A. T. Bell,  
 N. A. Besley,  Jeng-Da Chai,  A. E. DePrince, III,  R. A. DiStasio Jr.,  
 A. Dreuw,  B. D. Dunietz,  T. R. Furlani,  Chao-Ping Hsu,  Yousung Jung,  
 Jing Kong,  D. S. Lambrecht,  WanZhen Liang,  C. Ochsenfeld,  
 V. A. Rassolov,  L. V. Slipchenko,  J. E. Subotnik,  T. Van Voorhis,  
 J. M. Herbert,  A. I. Krylov,  P. M. W. Gill,  M. Head-Gordon

 Contributors to earlier versions of Q-Chem not listed above: 
 R. D. Adamson,  B. Austin,  J. Baker,  G. J. O. Beran,  K. Brandhorst,  
 S. T. Brown,  E. F. C. Byrd,  A. K. Chakraborty,  C.-L. Cheng,  
 Siu Hung Chien,  D. M. Chipman,  D. L. Crittenden,  H. Dachsel,  
 R. J. Doerksen,  A. D. Dutoi,  L. Fusti-Molnar,  W. A. Goddard III,  
 A. Golubeva-Zadorozhnaya,  S. R. Gwaltney,  G. Hawkins,  A. Heyden,  
 S. Hirata,  G. Kedziora,  F. J. Keil,  C. Kelley,  Jihan Kim,  R. A. King,  
 R. Z. Khaliullin,  P. P. Korambath,  W. Kurlancheek,  A. M. Lee,  M. S. Lee,  
 S. V. Levchenko,  Ching Yeh Lin,  D. Liotard,  R. C. Lochan,  I. Lotan,  
 P. E. Maslen,  N. Nair,  D. P. O'Neill,  D. Neuhauser,  E. Neuscamman,  
 C. M. Oana,  R. Olson,  B. Peters,  R. Peverati,  P. A. Pieniazek,  
 Y. M. Rhee,  J. Ritchie,  M. A. Rohrdanz,  E. Rosta,  N. J. Russ,  
 H. F. Schaefer III,  N. E. Schultz,  N. Shenvi,  A. C. Simmonett,  A. Sodt,  
 D. Stuck,  K. S. Thanthiriwatte,  V. Vanovschi,  Tao Wang,  A. Warshel,  
 C. F. Williams,  Q. Wu,  X. Xu,  W. Zhang

 Please cite Q-Chem as follows:
 Y. Shao et al., Mol. Phys. 113, 184-215 (2015)
 DOI: 10.1080/00268976.2014.952696

 Q-Chem 5.3.0 for Intel X86 EM64T Linux

 Parts of Q-Chem use Armadillo 9.800.1 (Horizon Scraper).
 http://arma.sourceforge.net/

 Q-Chem begins on Fri Nov 13 04:02:24 2020  

n0046.mhg0
Host: 0

     Scratch files written to /local/scratch/users/yhljason/AlH2_SOGGA11_aug-pc-4.inp20201113040222//
Processing $rem in /clusterfs/mhg/diptarka/qchem_transmom//config/preferences:
Processing $rem in /global/home/users/yhljason/.qchemrc:

Checking the input file for inconsistencies... 	...done.

--------------------------------------------------------------
User input:
--------------------------------------------------------------
$molecule
0 2
Al1     0.0000  0.0000  0.0000
H2      0.0000  1.3700  0.8070
H3      0.0000  -1.3700 0.8070
$end

$rem
jobtype sp
method SOGGA11
xc_grid 000099000590
basis aug-pc-4
max_scf_cycles 200
thresh 14
scf_convergence 8
scf_algorithm gdm
gen_scfman false
stability_analysis true
symmetry false
sym_ignore true
unrestricted True
gen_scfman true
mem_total 64000
mem_static 1500
n_frozen_core 0
max_cis_cycles 200
$end

--------------------------------------------------------------
 ----------------------------------------------------------------
             Standard Nuclear Orientation (Angstroms)
    I     Atom           X                Y                Z
 ----------------------------------------------------------------
    1      Al      0.0000000000     0.0000000000     0.0000000000
    2      H       0.0000000000     1.3700000000     0.8070000000
    3      H       0.0000000000    -1.3700000000     0.8070000000
 ----------------------------------------------------------------
 Nuclear Repulsion Energy =           8.84625876 hartrees
 There are        8 alpha and        7 beta electrons
 Requested basis set is aug-pc-4
 There are 79 shells and 317 basis functions

 Total QAlloc Memory Limit  64000 MB
 Mega-Array Size      1467 MB
 MEM_STATIC part      1500 MB

                       Distance Matrix (Angstroms)
             Al(  1)   H (  2)
   H (  2)  1.590015
   H (  3)  1.590015  2.740000

 A cutoff of  1.0D-14 yielded   3105 shell pairs
 There are     50589 function pairs (     91076 Cartesian)
 Smallest overlap matrix eigenvalue = 3.91E-06

 Scale SEOQF with 1.000000e-01/1.000000e-01/1.000000e-01

 Standard Electronic Orientation quadrupole field applied
 Nucleus-field energy     =     0.0000000001 hartrees
 Guess from superposition of atomic densities
 Warning:  Energy on first SCF cycle will be non-variational
 SAD guess density has 15.000000 electrons

 -----------------------------------------------------------------------
  General SCF calculation program by
  Eric Jon Sundstrom, Paul Horn, Yuezhi Mao, Dmitri Zuev, Alec White,
  David Stuck, Shaama M.S., Shane Yost, Joonho Lee, David Small,
  Daniel Levine, Susi Lehtola, Hugh Burton, Evgeny Epifanovsky,
  Bang C. Huynh
 -----------------------------------------------------------------------
 Exchange:  SOGGA11      Correlation:  SOGGA11
 Using Euler-Maclaurin-Lebedev (99,590) quadrature formula
 A unrestricted SCF calculation will be
 performed using Roothaan-Hall, GDM
 SCF converges when RMS gradient is below 1.0e-08
 ---------------------------------------
  Cycle       Energy         DIIS error
 ---------------------------------------
    1    -243.4656879328      2.31e-03  Roothaan Step
 ---------------------------------------
  Cycle       Energy        RMS Gradient
 ---------------------------------------
    1    -243.5493065022      1.68e-01   Descent step
    2    -243.5036993873      3.45e-01  Line search: overstep
    3    -243.5659600934      4.36e-02   Normal BFGS step
    4    -243.5710939566      2.06e-02   Normal BFGS step
    5    -243.5725223011      2.01e-02   Normal BFGS step
    6    -243.5726084687      1.73e-02   Normal BFGS step
    7    -243.5733321715      6.05e-03   Normal BFGS step
    8    -243.5733451497      6.56e-03   Normal BFGS step
    9    -243.5734853101      1.62e-03   Normal BFGS step
   10    -243.5734931542      2.43e-03   Normal BFGS step
   11    -243.5735085061      1.11e-03   Normal BFGS step
   12    -243.5735093356      1.26e-03   Normal BFGS step
   13    -243.5735141650      3.48e-04   Normal BFGS step
   14    -243.5735152713      5.84e-04   Normal BFGS step
   15    -243.5735166825      3.05e-04   Normal BFGS step
   16    -243.5735176567      2.68e-04   Normal BFGS step
   17    -243.5735181423      2.12e-04   Normal BFGS step
   18    -243.5735183828      1.41e-04   Normal BFGS step
   19    -243.5735184584      7.61e-05   Normal BFGS step
   20    -243.5735184913      6.78e-05   Normal BFGS step
   21    -243.5735185046      2.55e-05   Normal BFGS step
   22    -243.5735185082      3.22e-05   Normal BFGS step
   23    -243.5735185115      1.01e-05   Normal BFGS step
   24    -243.5735185123      6.17e-06   Normal BFGS step
   25    -243.5735185125      8.12e-06   Normal BFGS step
   26    -243.5735185126      7.28e-06   Normal BFGS step
   27    -243.5735185126      9.17e-07   Normal BFGS step
   28    -243.5735185126      1.01e-06   Normal BFGS step
   29    -243.5735185126      6.83e-07   Normal BFGS step
   30    -243.5735185126      8.97e-07   Normal BFGS step
   31    -243.5735185126      2.95e-07   Normal BFGS step
   32    -243.5735185126      3.83e-07   Normal BFGS step
   33    -243.5735185126      1.02e-07   Normal BFGS step
   34    -243.5735185126      1.01e-07   Normal BFGS step
   35    -243.5735185126      3.27e-08   Normal BFGS step
   36    -243.5735185126      3.32e-08   Normal BFGS step
   37    -243.5735185126      1.40e-08   Normal BFGS step
   38    -243.5735185126      1.21e-08   Normal BFGS step
   39    -243.5735185126      4.53e-09  Convergence criterion met
 ---------------------------------------
 SCF time:   CPU 18093.01s  wall 1170.00s 
<S^2> =          0.752462818
 SCF   energy in the final basis set =     -243.5735185126
 Total energy in the final basis set =     -243.5735185126

 Direct TDDFT/TDA calculation will be performed
 Exchange:  SOGGA11      Correlation:  SOGGA11
 Using Euler-Maclaurin-Lebedev (99,590) quadrature formula
 CIS energy converged when residual is below 10e- 6
 ---------------------------------------------------
 Iter    Rts Conv    Rts Left    Ttl Dev     Max Dev
 ---------------------------------------------------
   1         0           1      0.001583    0.001583
   2         0           1      0.000422    0.000422
   3         0           1      0.000105    0.000105
   4         0           1      0.000031    0.000031
   5         0           1      0.000008    0.000008
   6         0           1      0.000003    0.000003
   7         0           1      0.000001    0.000001
   8         1           0      0.000000    0.000000    Roots Converged
 ---------------------------------------------------

 ---------------------------------------------------
         TDDFT/TDA Excitation Energies              
 ---------------------------------------------------

 Excited state   1: excitation energy (eV) =    1.8173
 Total energy for state  1:                  -243.50673334 au
    <S**2>     :  0.7565
    Trans. Mom.: -0.6806 X   0.0000 Y   0.0000 Z
    Strength   :     0.0206247254
    S(    1) --> V(    1) amplitude =  0.9942 alpha

 ---------------------------------------------------

 Stability analysis will be performed
 ---------------------------------------------------
 Iter    Rts Conv    Rts Left    Ttl Dev     Max Dev
 ---------------------------------------------------
   1         1           1      0.002548    0.001274
   2         1           1      0.000555    0.000555
   3         1           1      0.000231    0.000230
   4         1           1      0.000134    0.000134
   5         1           1      0.000074    0.000074
   6         1           1      0.000064    0.000064
   7         1           1      0.000045    0.000045
   8         1           1      0.000022    0.000022
   9         1           1      0.000015    0.000014
  10         1           1      0.000008    0.000007
  11         1           1      0.000003    0.000003
  12         1           1      0.000002    0.000002
  13         2           0      0.000001    0.000001    Roots Converged
 UKS-> UKS   stable,    smallest eigenvalue:      0.0599193
 UKS->CUKS   stable,    smallest eigenvalue:      0.0641420
 ---------------------------------------------------
  SETman timing summary (seconds)
  CPU time             12475.02s
  System time              0.00s
  Wall time              846.48s

 --------------------------------------------------------------

                    Orbital Energies (a.u.)
 --------------------------------------------------------------

 Alpha MOs
 -- Occupied --
-55.4044  -3.9392  -2.5602  -2.5539  -2.5491  -0.3694  -0.2756  -0.1691
 -- Virtual --
 -0.1050  -0.0543  -0.0461  -0.0392  -0.0391  -0.0252  -0.0247  -0.0221
 -0.0097  -0.0081  -0.0038   0.0054   0.0145   0.0177   0.0179   0.0219
  0.0267   0.0334   0.0392   0.0393   0.0417   0.0542   0.0558   0.0558
  0.0632   0.0633   0.0702   0.0707   0.0801   0.0847   0.0926   0.1073
  0.1121   0.1187   0.1195   0.1217   0.1251   0.1344   0.1379   0.1416
  0.1514   0.1515   0.1615   0.1733   0.1847   0.1915   0.1957   0.2022
  0.2076   0.2086   0.2093   0.2204   0.2218   0.2255   0.2357   0.2380
  0.2382   0.2411   0.2501   0.2563   0.2604   0.2631   0.2684   0.2828
  0.2828   0.2946   0.3240   0.3253   0.3340   0.3510   0.3546   0.3914
  0.3924   0.3941   0.4153   0.4324   0.4333   0.4561   0.4809   0.4825
  0.4979   0.4990   0.5030   0.5121   0.5205   0.5216   0.5395   0.5408
  0.5472   0.5672   0.5842   0.5917   0.5931   0.6013   0.6110   0.6132
  0.6224   0.6257   0.6287   0.6400   0.6495   0.6513   0.6556   0.6779
  0.6945   0.7009   0.7155   0.7511   0.7589   0.7709   0.7864   0.7975
  0.8074   0.8264   0.8590   0.8603   0.8690   0.8956   0.9138   0.9238
  0.9520   0.9594   0.9837   1.0265   1.0597   1.1051   1.1070   1.1328
  1.1371   1.2034   1.2334   1.2595   1.2769   1.3336   1.3670   1.3850
  1.4056   1.4213   1.4708   1.5008   1.5070   1.5354   1.5927   1.6047
  1.6760   1.7276   1.8502   1.8513   1.8732   1.8836   1.9201   1.9478
  2.0361   2.0652   2.1242   2.1312   2.1400   2.1578   2.1689   2.1759
  2.1926   2.2014   2.2390   2.2852   2.3137   2.3704   2.4392   2.4839
  2.8974   2.9133   2.9306   2.9660   2.9792   3.0712   3.1345   3.1568
  3.2152   3.3310   3.3400   3.3841   3.3945   3.3995   3.4513   3.4548
  3.4616   3.4628   3.5215   3.6030   3.6568   3.6995   3.7472   3.8616
  3.8667   3.8759   3.9309   3.9567   4.2407   4.2767   4.3711   4.3928
  4.4735   4.5043   4.6090   4.7141   4.7961   4.8330   4.8702   4.9077
  4.9238   4.9648   5.0122   5.1392   5.1525   5.2455   5.2782   5.3450
  5.4620   5.5086   5.5804   5.5883   5.6762   5.9712   5.9746   6.1064
  6.1522   6.4240   6.7995   7.5782   7.6422   7.8656   7.9484   7.9635
  8.0941   8.3124   8.3546   8.3857   8.4349   8.5186   8.7898   8.7907
  8.7954   8.8366   8.8695   8.8995   9.1803   9.1968   9.2228   9.3914
  9.6038   9.6136  10.2972  11.0608  12.2754  12.2868  12.3016  12.3063
 12.5495  12.6027  12.6354  12.6496  12.8664  12.9728  12.9741  13.0057
 13.0275  13.1057  14.2674  14.3063  14.3513  14.4101  14.9536  15.5532
 16.7403  16.7405  16.7412  16.7414  16.7476  16.7521  16.7536  16.7620
 16.8106  16.8308  16.8894  16.9015  17.0646  17.0812  17.1540  17.1873
 17.3467  18.2816  23.2199  23.2644  23.2829  23.3390  23.8020  23.8815
 39.1202  39.2693  51.3473  51.3656  51.4225  51.7114  51.7562  91.0150
 91.0430  91.0592  91.0989  91.4147  91.4586

 Beta MOs
 -- Occupied --
-55.4024  -3.9367  -2.5581  -2.5480  -2.5466  -0.3512  -0.2647
 -- Virtual --
 -0.1354  -0.1004  -0.0938  -0.0708  -0.0653  -0.0644  -0.0490  -0.0428
 -0.0406  -0.0403  -0.0376  -0.0112  -0.0086  -0.0038  -0.0023  -0.0023
 -0.0007  -0.0002   0.0024   0.0034   0.0071   0.0103   0.0257   0.0285
  0.0498   0.0526   0.0565   0.0573   0.0614   0.0626   0.0626   0.0656
  0.0696   0.0719   0.0737   0.0787   0.0866   0.0877   0.1045   0.1161
  0.1320   0.1378   0.1410   0.1431   0.1471   0.1500   0.1506   0.1536
  0.1536   0.1552   0.1594   0.1604   0.1630   0.1646   0.1714   0.1906
  0.1957   0.1992   0.2000   0.2029   0.2401   0.2529   0.2685   0.2705
  0.2744   0.2906   0.2930   0.3042   0.3368   0.3491   0.3528   0.3722
  0.3795   0.3888   0.3964   0.4241   0.4267   0.4316   0.4405   0.4562
  0.4629   0.4873   0.4931   0.4986   0.4989   0.5074   0.5214   0.5274
  0.5487   0.5577   0.5624   0.5633   0.5840   0.5861   0.5899   0.5912
  0.5990   0.6029   0.6181   0.6213   0.6285   0.6345   0.6501   0.6592
  0.6596   0.6940   0.6984   0.7116   0.7187   0.7411   0.7626   0.7672
  0.7768   0.7849   0.8007   0.8523   0.8745   0.8839   0.9121   0.9167
  0.9588   0.9691   0.9791   1.0280   1.0563   1.0696   1.0742   1.1375
  1.1492   1.2045   1.2560   1.2690   1.2866   1.3135   1.3607   1.3848
  1.4185   1.4466   1.4477   1.4995   1.5105   1.5222   1.5245   1.6336
  1.6369   1.7489   1.7837   1.8695   1.9067   1.9231   1.9435   1.9717
  2.0001   2.0795   2.1190   2.1366   2.1497   2.1741   2.1746   2.1803
  2.1913   2.2131   2.2256   2.2656   2.3064   2.3394   2.4040   2.4426
  2.5143   2.8982   2.9252   2.9426   2.9934   2.9980   3.0918   3.1474
  3.1633   3.2366   3.3374   3.3432   3.4011   3.4051   3.4112   3.4637
  3.4736   3.4768   3.4805   3.5400   3.6184   3.6727   3.7249   3.7769
  3.8822   3.9019   3.9030   3.9570   3.9712   4.2606   4.3030   4.3935
  4.4105   4.4927   4.5275   4.6317   4.7313   4.8122   4.8527   4.9000
  4.9364   4.9370   4.9968   5.0313   5.1649   5.1835   5.2786   5.3313
  5.3597   5.4868   5.5549   5.6077   5.6143   5.7181   5.9915   6.0153
  6.1306   6.1845   6.4516   6.8153   7.5905   7.6559   7.8685   7.9546
  7.9675   8.1050   8.3235   8.3660   8.3961   8.4481   8.5278   8.8050
  8.8052   8.8110   8.8409   8.8849   8.9039   9.1955   9.2168   9.2388
  9.4075   9.6206   9.6312  10.3182  11.0757  12.2918  12.3034  12.3183
 12.3230  12.5662  12.6197  12.6522  12.6667  12.8774  12.9869  12.9886
 13.0215  13.0429  13.1181  14.2749  14.3165  14.3598  14.4120  14.9602
 15.5561  16.7553  16.7556  16.7557  16.7559  16.7588  16.7652  16.7661
 16.7740  16.8216  16.8429  16.9003  16.9133  17.0755  17.0920  17.1646
 17.1989  17.3574  18.2888  23.2388  23.2843  23.3017  23.3582  23.8206
 23.9008  39.1394  39.2882  51.3527  51.3716  51.4236  51.7134  51.7608
 91.0363  91.0646  91.0804  91.1204  91.4361  91.4801
 --------------------------------------------------------------

          Ground-State Mulliken Net Atomic Charges

     Atom                 Charge (a.u.)    Spin (a.u.)
  --------------------------------------------------------
      1 Al                   -0.073243       0.183059
      2 H                     0.036622       0.408470
      3 H                     0.036622       0.408470
  --------------------------------------------------------
  Sum of atomic charges =    -0.000000
  Sum of spin   charges =     1.000000

 -----------------------------------------------------------------
                    Cartesian Multipole Moments
 -----------------------------------------------------------------
    Charge (ESU x 10^10)
                -0.0000
    Dipole Moment (Debye)
         X       0.0000      Y      -0.0000      Z      -0.2879
       Tot       0.2879
    Quadrupole Moments (Debye-Ang)
        XX     -12.1563     XY       0.0000     YY     -18.0227
        XZ      -0.0000     YZ      -0.0000     ZZ     -17.3467
    Octopole Moments (Debye-Ang^2)
       XXX       0.0000    XXY      -0.0000    XYY       0.0000
       YYY      -0.0000    XXZ      -0.6927    XYZ      -0.0000
       YYZ      -3.8808    XZZ       0.0000    YZZ      -0.0000
       ZZZ      -2.9146
    Hexadecapole Moments (Debye-Ang^3)
      XXXX     -21.7759   XXXY       0.0000   XXYY     -14.7900
      XYYY       0.0000   YYYY     -68.5066   XXXZ      -0.0000
      XXYZ      -0.0000   XYYZ      -0.0000   YYYZ      -0.0000
      XXZZ     -12.6870   XYZZ       0.0000   YYZZ     -20.9787
      XZZZ      -0.0000   YZZZ      -0.0000   ZZZZ     -53.7697
 -----------------------------------------------------------------
Archival summary:
1\1\n0046.mhg0\SP\ProcedureUnspecified\BasisUnspecified\l12(2)\yhljason\FriNov1304:36:022020FriNov1304:36:022020\0\\#,ProcedureUnspecified,BasisUnspecified,\\0,2\Al\H,1,1.59002\H,1,1.59002,2,118.999\\\@

 Total job time:  2017.71s(wall), 30579.73s(cpu) 
 Fri Nov 13 04:36:02 2020

        *************************************************************
        *                                                           *
        *  Thank you very much for using Q-Chem.  Have a nice day.  *
        *                                                           *
        *************************************************************


