                  Welcome to Q-Chem
     A Quantum Leap Into The Future Of Chemistry


 Q-Chem 5.3 (devel), Q-Chem, Inc., Pleasanton, CA (2020)

 Yihan Shao,  Zhengting Gan,  E. Epifanovsky,  A. T. B. Gilbert,  M. Wormit,  
 J. Kussmann,  A. W. Lange,  A. Behn,  Jia Deng,  Xintian Feng,  D. Ghosh,  
 M. Goldey,  P. R. Horn,  L. D. Jacobson,  I. Kaliman,  T. Kus,  A. Landau,  
 Jie Liu,  E. I. Proynov,  R. M. Richard,  R. P. Steele,  E. J. Sundstrom,  
 H. L. Woodcock III,  P. M. Zimmerman,  D. Zuev,  B. Alam,  B. Albrecht,  
 E. Alguire,  S. A. Baeppler,  D. Barton,  Z. Benda,  Y. A. Bernard,  
 E. J. Berquist,  K. B. Bravaya,  H. Burton,  K. Carter-Fenk,  D. Casanova,  
 Chun-Min Chang,  Yunqing Chen,  A. Chien,  K. D. Closser,  M. P. Coons,  
 S. Coriani,  S. Dasgupta,  A. L. Dempwolff,  M. Diedenhofen,  Hainam Do,  
 R. G. Edgar,  Po-Tung Fang,  S. Faraji,  S. Fatehi,  Qingguo Feng,  
 J. Fosso-Tande,  J. Gayvert,  Qinghui Ge,  A. Ghysels,  G. Gidofalvi,  
 J. Gomes,  J. Gonthier,  A. Gunina,  D. Hait,  M. W. D. Hanson-Heine,  
 P. H. P. Harbach,  A. W. Hauser,  M. F. Herbst,  J. E. Herr,  
 E. G. Hohenstein,  Z. C. Holden,  Kerwin Hui,  B. C. Huynh,  T.-C. Jagau,  
 Hyunjun Ji,  B. Kaduk,  K. Khistyaev,  Jaehoon Kim,  P. Klunzinger,  K. Koh,  
 D. Kosenkov,  L. Koulias,  T. Kowalczyk,  C. M. Krauter,  A. Kunitsa,  
 Ka Un Lao,  A. Laurent,  K. V. Lawler,  Joonho Lee,  D. Lefrancois,  
 S. Lehtola,  D. S. Levine,  Yi-Pei Li,  You-Sheng Lin,  Fenglai Liu,  
 Kuan-Yu Liu,  E. Livshits,  M. Loipersberger,  A. Luenser,  P. Manohar,  
 E. Mansoor,  S. F. Manzer,  Shan-Ping Mao,  Yuezhi Mao,  N. Mardirossian,  
 A. V. Marenich,  T. Markovich,  L. A. Martinez-Martinez,  S. A. Maurer,  
 N. J. Mayhall,  S. C. McKenzie,  J.-M. Mewes,  P. Morgante,  A. F. Morrison,  
 J. W. Mullinax,  K. Nanda,  T. S. Nguyen-Beck,  R. Olivares-Amaya,  
 K. J. Oosterbaan,  J. A. Parkhill,  S. K. Paul,  F. Pavosevic,  Zheng Pei,  
 T. M. Perrine,  F. Plasser,  P. Pokhilko,  S. Prager,  A. Prociuk,  
 E. Ramos,  B. Rana,  D. R. Rehn,  F. Rob,  M. Scheurer,  M. Schneider,  
 N. Sergueev,  S. M. Sharada,  S. Sharma,  D. W. Small,  T. Stauch,  
 C. J. Stein,  T. Stein,  Yu-Chuan Su,  S. P. Veccham,  Zhen Tao,  
 A. J. W. Thom,  A. Tkatchenko,  T. Tsuchimochi,  N. M. Tubman,  L. Vogt,  
 M. L. Vidal,  O. Vydrov,  M. A. Watson,  J. Wenzel,  M. de Wergifosse,  
 T. A. Wesolowski,  A. White,  J. Witte,  A. Yamada,  Jun Yang,  K. Yao,  
 S. Yeganeh,  S. R. Yost,  Zhi-Qiang You,  A. Zech,  Igor Ying Zhang,  
 Xing Zhang,  Yan Zhao,  Ying Zhu,  B. R. Brooks,  G. K. L. Chan,  
 C. J. Cramer,  M. S. Gordon,  W. J. Hehre,  A. Klamt,  M. W. Schmidt,  
 C. D. Sherrill,  D. G. Truhlar,  A. Aspuru-Guzik,  R. Baer,  A. T. Bell,  
 N. A. Besley,  Jeng-Da Chai,  A. E. DePrince, III,  R. A. DiStasio Jr.,  
 A. Dreuw,  B. D. Dunietz,  T. R. Furlani,  Chao-Ping Hsu,  Yousung Jung,  
 Jing Kong,  D. S. Lambrecht,  WanZhen Liang,  C. Ochsenfeld,  
 V. A. Rassolov,  L. V. Slipchenko,  J. E. Subotnik,  T. Van Voorhis,  
 J. M. Herbert,  A. I. Krylov,  P. M. W. Gill,  M. Head-Gordon

 Contributors to earlier versions of Q-Chem not listed above: 
 R. D. Adamson,  B. Austin,  J. Baker,  G. J. O. Beran,  K. Brandhorst,  
 S. T. Brown,  E. F. C. Byrd,  A. K. Chakraborty,  C.-L. Cheng,  
 Siu Hung Chien,  D. M. Chipman,  D. L. Crittenden,  H. Dachsel,  
 R. J. Doerksen,  A. D. Dutoi,  L. Fusti-Molnar,  W. A. Goddard III,  
 A. Golubeva-Zadorozhnaya,  S. R. Gwaltney,  G. Hawkins,  A. Heyden,  
 S. Hirata,  G. Kedziora,  F. J. Keil,  C. Kelley,  Jihan Kim,  R. A. King,  
 R. Z. Khaliullin,  P. P. Korambath,  W. Kurlancheek,  A. M. Lee,  M. S. Lee,  
 S. V. Levchenko,  Ching Yeh Lin,  D. Liotard,  R. C. Lochan,  I. Lotan,  
 P. E. Maslen,  N. Nair,  D. P. O'Neill,  D. Neuhauser,  E. Neuscamman,  
 C. M. Oana,  R. Olson,  B. Peters,  R. Peverati,  P. A. Pieniazek,  
 Y. M. Rhee,  J. Ritchie,  M. A. Rohrdanz,  E. Rosta,  N. J. Russ,  
 H. F. Schaefer III,  N. E. Schultz,  N. Shenvi,  A. C. Simmonett,  A. Sodt,  
 D. Stuck,  K. S. Thanthiriwatte,  V. Vanovschi,  Tao Wang,  A. Warshel,  
 C. F. Williams,  Q. Wu,  X. Xu,  W. Zhang

 Please cite Q-Chem as follows:
 Y. Shao et al., Mol. Phys. 113, 184-215 (2015)
 DOI: 10.1080/00268976.2014.952696

 Q-Chem 5.3.0 for Intel X86 EM64T Linux

 Parts of Q-Chem use Armadillo 9.800.1 (Horizon Scraper).
 http://arma.sourceforge.net/

 Q-Chem begins on Tue Nov 10 22:56:44 2020  

n0099.mhg0
Host: 0

     Scratch files written to /local/scratch/users/yhljason/BH2Cl_N12_aug-pc-4.inp20201110225642//
Processing $rem in /clusterfs/mhg/diptarka/qchem_transmom//config/preferences:
Processing $rem in /global/home/users/yhljason/.qchemrc:

Checking the input file for inconsistencies... 	...done.

--------------------------------------------------------------
User input:
--------------------------------------------------------------
$molecule
0 1
B        0.0000000000      0.0000000000      0.0000000000
Cl       0.0000000000      0.0000000000      1.7353000000
H        0.0000000000      1.0532000000     -0.5574000000
H        0.0000000000     -1.0532000000     -0.5574000000
$end

$rem
jobtype sp
method N12
xc_grid 000099000590
basis aug-pc-4
max_scf_cycles 200
thresh 14
scf_convergence 8
scf_algorithm gdm
symmetry false
sym_ignore true
unrestricted True
gen_scfman true
internal_stability_iter 15
internal_stability_davidson_iter 200
mem_total 64000
mem_static 1500
n_frozen_core 0
$end



--------------------------------------------------------------
 ----------------------------------------------------------------
             Standard Nuclear Orientation (Angstroms)
    I     Atom           X                Y                Z
 ----------------------------------------------------------------
    1      B       0.0000000000     0.0000000000     0.0000000000
    2      Cl      0.0000000000     0.0000000000     1.7353000000
    3      H       0.0000000000     1.0532000000    -0.5574000000
    4      H       0.0000000000    -1.0532000000    -0.5574000000
 ----------------------------------------------------------------
 Nuclear Repulsion Energy =          37.74382890 hartrees
 There are       12 alpha and       12 beta electrons
 Requested basis set is aug-pc-4
 There are 112 shells and 462 basis functions

 Total QAlloc Memory Limit  64000 MB
 Mega-Array Size      1467 MB
 MEM_STATIC part      1500 MB

                       Distance Matrix (Angstroms)
             B (  1)   Cl(  2)   H (  3)
   Cl(  2)  1.735300
   H (  3)  1.191606  2.523035
   H (  4)  1.191606  2.523035  2.106400

 A cutoff of  1.0D-14 yielded   6211 shell pairs
 There are    106837 function pairs (    197166 Cartesian)
 Smallest overlap matrix eigenvalue = 4.90E-07
 Linear dependence detected in AO basis
 Tighter screening thresholds may be required for diffuse basis sets
 Use S2THRESH > 14 and THRESH = 14 in case of SCF convergence issues
 Number of orthogonalized atomic orbitals = 461
 Maximum deviation from orthogonality = 2.606E-10

 Scale SEOQF with 1.000000e-01/1.000000e-01/1.000000e-01

 Standard Electronic Orientation quadrupole field applied
 Nucleus-field energy     =    -0.0000000054 hartrees
 Guess from superposition of atomic densities
 Warning:  Energy on first SCF cycle will be non-variational
 SAD guess density has 24.000000 electrons

 -----------------------------------------------------------------------
  General SCF calculation program by
  Eric Jon Sundstrom, Paul Horn, Yuezhi Mao, Dmitri Zuev, Alec White,
  David Stuck, Shaama M.S., Shane Yost, Joonho Lee, David Small,
  Daniel Levine, Susi Lehtola, Hugh Burton, Evgeny Epifanovsky,
  Bang C. Huynh
 -----------------------------------------------------------------------
 Exchange:  N12      Correlation:  N12
 Using Euler-Maclaurin-Lebedev (99,590) quadrature formula
Running Object-Oriented UKS (UHF)
performing a single roothaan step with Fock from read density so that orbitals are available to all algorithms
energy of the guess density (C=0) -486.340615607717
We will preform up to 15 macro iterations over saddle points until a stable solution is found
Energy prior to optimization (guess energy) = -486.294446826252
Begin Timing: Total SCF Calculation
Begin Timing: SCF Single Stationary Point Calculation
begin iterations for algorithm: GDM          
the SCF tolerance is set to 1.00e-08
    1    -486.2944468263      3.58e-02     00000  Normal BFGS step
    2    -486.2947798179      4.27e-02     00000  Normal BFGS step
    3    -486.3163572092      1.60e-02     00000  Normal BFGS step
    4    -486.3161143691      2.42e-02     00000 Line search: overstep
    5    -486.3168876764      2.39e-03     00000  Normal BFGS step
    6    -486.3169301176      2.98e-03     00000  Normal BFGS step
    7    -486.3169602586      2.55e-04     00000  Normal BFGS step
    8    -486.3169607187      7.89e-05     00000  Normal BFGS step
    9    -486.3169608210      1.64e-05     00000  Normal BFGS step
   10    -486.3169608234      3.53e-06     00000  Normal BFGS step
   11    -486.3169608235      2.34e-07     00000  Normal BFGS step
   12    -486.3169608235      4.95e-08     00000  Normal BFGS step
   13    -486.3169608236      1.05e-08     00000  Normal BFGS step
   14    -486.3169608236      1.59e-08     00000  Normal BFGS step
   15    -486.3169608236      3.31e-09     00000 Convergence criterion met
Timing for Single Stationary Point: 3607.00s (wall), 28456.70s (cpu)
Begin Timing: Stability
===================================================
Beginning Test for Internal Stability
===================================================
generating davidson guess vectors based on koopmans excitations
 Warning: Hessian-vector products not implemented
 Finite difference Hessian-vector products will be used.
computing hessian-vector products by finite difference
    1      7.32e-01     00000 Davidson Iteration
computing hessian-vector products by finite difference
    2      1.79e-01     00000 Davidson Iteration
computing hessian-vector products by finite difference
    3      6.60e-03     00000 Davidson Iteration
computing hessian-vector products by finite difference
    4      4.20e-03     00000 Davidson Iteration
computing hessian-vector products by finite difference
    5      1.28e-03     00000 Davidson Iteration
computing hessian-vector products by finite difference
    6      2.85e-04     00000 Davidson Iteration
computing hessian-vector products by finite difference
    7      4.33e-05     00000 Davidson Iteration
computing hessian-vector products by finite difference
    8      7.76e-05     00000 Davidson Converged
converged_eigenvalues
   0.3540
   0.2990
Threshold for negative eigenvalues: -1.0e-05
solution was a local minimum (stable)
===================================================
End Test for Internal Stability
===================================================
Timing for Internal Stability: 9585.00s (wall), 75597.60s (cpu)
Our SCF solution is stable!
Timing for Total SCF: 13192.00s (wall), 104054.50s (cpu)
 Total energy in the final basis set =     -486.3169608236
<S^2> =         -0.000000000
    ==================================================
              The end of Object-Oriented SCFman       
    ==================================================

 --------------------------------------------------------------

                    Orbital Energies (a.u.)
 --------------------------------------------------------------

 Alpha MOs
 -- Occupied --
********  -9.1974  -7.1448  -7.1413  -7.1377  -6.6399  -0.7661  -0.4674
 -0.3603  -0.3571  -0.3203  -0.2653
 -- Virtual --
 -0.0947  -0.0274  -0.0153  -0.0083  -0.0032   0.0178   0.0185   0.0236
  0.0265   0.0278   0.0297   0.0305   0.0359   0.0418   0.0595   0.0604
  0.0676   0.0727   0.0755   0.0816   0.0835   0.0926   0.0936   0.0989
  0.1028   0.1084   0.1144   0.1154   0.1245   0.1332   0.1342   0.1372
  0.1459   0.1477   0.1521   0.1569   0.1587   0.1654   0.1695   0.1700
  0.1733   0.1767   0.1882   0.1884   0.2039   0.2064   0.2067   0.2161
  0.2230   0.2308   0.2417   0.2423   0.2525   0.2560   0.2564   0.2692
  0.2717   0.2720   0.2800   0.2839   0.2881   0.2895   0.2903   0.2933
  0.2957   0.2968   0.2997   0.3058   0.3198   0.3221   0.3288   0.3404
  0.3439   0.3444   0.3490   0.3555   0.3625   0.3677   0.3699   0.3711
  0.3768   0.3878   0.3903   0.4066   0.4407   0.4502   0.4567   0.4610
  0.4809   0.4946   0.4946   0.5029   0.5061   0.5064   0.5113   0.5165
  0.5177   0.5407   0.5437   0.5591   0.5591   0.5630   0.5651   0.5653
  0.5779   0.5818   0.5890   0.5961   0.6011   0.6152   0.6175   0.6276
  0.6397   0.6397   0.6459   0.6483   0.6509   0.6631   0.6662   0.6675
  0.6759   0.6951   0.6955   0.6967   0.7020   0.7027   0.7031   0.7034
  0.7098   0.7168   0.7320   0.7482   0.7624   0.7661   0.7700   0.7759
  0.7914   0.7952   0.8026   0.8154   0.8195   0.8201   0.8372   0.8407
  0.8420   0.8800   0.8848   0.8858   0.8960   0.9025   0.9036   0.9121
  0.9231   0.9560   0.9626   0.9730   0.9808   0.9954   1.0076   1.0258
  1.0312   1.0400   1.0448   1.0623   1.0659   1.1018   1.1354   1.1411
  1.1438   1.1475   1.1499   1.2015   1.2623   1.3197   1.3370   1.3491
  1.3754   1.3756   1.3842   1.3905   1.4185   1.4306   1.4561   1.4624
  1.4874   1.5218   1.5278   1.5455   1.5470   1.5495   1.5768   1.5785
  1.6471   1.6471   1.6573   1.7179   1.7183   1.7214   1.7602   1.7751
  1.8496   1.8754   1.8765   1.9468   1.9830   2.0087   2.0286   2.0629
  2.0722   2.0958   2.1371   2.1457   2.1754   2.2398   2.3408   2.3899
  2.4243   2.4846   2.4851   2.4968   2.5992   2.7517   2.8753   2.8802
  2.8827   2.8894   2.8995   2.9143   3.0172   3.0336   3.0485   3.0492
  3.0999   3.1002   3.1970   3.2146   3.2600   3.2907   3.3399   3.3664
  3.3898   3.4088   3.4431   3.4768   3.5222   3.5326   3.5957   3.6194
  3.6278   3.6321   3.6428   3.7047   3.7134   3.7191   3.7415   3.7735
  3.7895   3.8230   3.8831   3.8951   3.9103   3.9218   3.9223   3.9854
  4.0040   4.0369   4.0412   4.1209   4.1740   4.1924   4.2082   4.2363
  4.2529   4.3581   4.4490   4.5073   4.5123   4.5721   4.6516   4.7384
  4.7477   4.7779   4.8735   4.9299   4.9323   5.0175   5.0199   5.2035
  5.3162   5.4347   5.5231   5.5282   5.6751   5.6844   5.6856   5.7254
  5.8043   5.8222   5.8476   5.8503   5.8955   5.9051   5.9099   6.0886
  6.1017   6.1494   6.2900   6.3445   6.3908   6.4117   6.5350   6.7115
  6.8775   6.8859   7.0441   7.7686   7.8454   7.9071   8.3349   8.4273
  8.5005   8.5041   8.5739   8.6609   8.6896   8.7084   8.7087   8.7695
  8.8925   8.9093   8.9355   8.9370   9.0572   9.1058   9.1088   9.1457
  9.2146   9.2656   9.2939   9.4511   9.5894   9.6156   9.6614   9.6726
  9.6941   9.7730   9.7731   9.7835   9.7990   9.9344   9.9594   9.9697
 10.0351  10.0542  10.0999  10.1160  10.1495  10.2756  10.3165  10.5093
 10.6683  10.6801  10.7247  10.8078  10.9982  11.1941  11.2666  11.3402
 11.4194  11.4366  11.5998  11.6813  11.7176  11.8909  12.2747  12.3740
 12.4052  12.4301  12.4838  12.6675  12.7087  12.7841  12.7984  12.8927
 12.9090  12.9234  13.0214  13.0317  13.1756  13.1861  13.3825  13.7469
 14.0161  14.1079  14.1964  14.2990  14.4260  15.4449  16.0765  16.7617
 16.7633  16.7704  16.7704  16.8956  16.9362  16.9395  16.9523  17.6586
 17.6907  17.7102  17.7212  17.7832  17.8931  17.9706  18.0519  18.4558
 18.8189  19.0787  19.2825  19.4128  19.5420  19.6600  20.2582  20.5024
 20.7369  21.0324  22.0847  22.1833  23.3819  23.3993  23.5471  23.6915
 24.6889  25.0336  40.5419  40.6572  41.1159  65.5815  65.5821  65.6351
 65.7113  66.0210  79.5672  90.9121  90.9270  91.0243  91.1254  91.8173
 92.0844

 Beta MOs
 -- Occupied --
********  -9.1974  -7.1448  -7.1413  -7.1377  -6.6399  -0.7661  -0.4674
 -0.3603  -0.3571  -0.3203  -0.2653
 -- Virtual --
 -0.0947  -0.0274  -0.0153  -0.0083  -0.0032   0.0178   0.0185   0.0236
  0.0265   0.0278   0.0297   0.0305   0.0359   0.0418   0.0595   0.0604
  0.0676   0.0727   0.0755   0.0816   0.0835   0.0926   0.0936   0.0989
  0.1028   0.1084   0.1144   0.1154   0.1245   0.1332   0.1342   0.1372
  0.1459   0.1477   0.1521   0.1569   0.1587   0.1654   0.1695   0.1700
  0.1733   0.1767   0.1882   0.1884   0.2039   0.2064   0.2067   0.2161
  0.2230   0.2308   0.2417   0.2423   0.2525   0.2560   0.2564   0.2692
  0.2717   0.2720   0.2800   0.2839   0.2881   0.2895   0.2903   0.2933
  0.2957   0.2968   0.2997   0.3058   0.3198   0.3221   0.3288   0.3404
  0.3439   0.3444   0.3490   0.3555   0.3625   0.3677   0.3699   0.3711
  0.3768   0.3878   0.3903   0.4066   0.4407   0.4502   0.4567   0.4610
  0.4809   0.4946   0.4946   0.5029   0.5061   0.5064   0.5113   0.5165
  0.5177   0.5407   0.5437   0.5591   0.5591   0.5630   0.5651   0.5653
  0.5779   0.5818   0.5890   0.5961   0.6011   0.6152   0.6175   0.6276
  0.6397   0.6397   0.6459   0.6483   0.6509   0.6631   0.6662   0.6675
  0.6759   0.6951   0.6955   0.6967   0.7020   0.7027   0.7031   0.7034
  0.7098   0.7168   0.7320   0.7482   0.7624   0.7661   0.7700   0.7759
  0.7914   0.7952   0.8026   0.8154   0.8195   0.8201   0.8372   0.8407
  0.8420   0.8800   0.8848   0.8858   0.8960   0.9025   0.9036   0.9121
  0.9231   0.9560   0.9626   0.9730   0.9808   0.9954   1.0076   1.0258
  1.0312   1.0400   1.0448   1.0623   1.0659   1.1018   1.1354   1.1411
  1.1438   1.1475   1.1499   1.2015   1.2623   1.3197   1.3370   1.3491
  1.3754   1.3756   1.3842   1.3905   1.4185   1.4306   1.4561   1.4624
  1.4874   1.5218   1.5278   1.5455   1.5470   1.5495   1.5768   1.5785
  1.6471   1.6471   1.6573   1.7179   1.7183   1.7214   1.7602   1.7751
  1.8496   1.8754   1.8765   1.9468   1.9830   2.0087   2.0286   2.0629
  2.0722   2.0958   2.1371   2.1457   2.1754   2.2398   2.3408   2.3899
  2.4243   2.4846   2.4851   2.4968   2.5992   2.7517   2.8753   2.8802
  2.8827   2.8894   2.8995   2.9143   3.0172   3.0336   3.0485   3.0492
  3.0999   3.1002   3.1970   3.2146   3.2600   3.2907   3.3399   3.3664
  3.3898   3.4088   3.4431   3.4768   3.5222   3.5326   3.5957   3.6194
  3.6278   3.6321   3.6428   3.7047   3.7134   3.7191   3.7415   3.7735
  3.7895   3.8230   3.8831   3.8951   3.9103   3.9218   3.9223   3.9854
  4.0040   4.0369   4.0412   4.1209   4.1740   4.1924   4.2082   4.2363
  4.2529   4.3581   4.4490   4.5073   4.5123   4.5721   4.6516   4.7384
  4.7477   4.7779   4.8735   4.9299   4.9323   5.0175   5.0199   5.2035
  5.3162   5.4347   5.5231   5.5282   5.6751   5.6844   5.6856   5.7254
  5.8043   5.8222   5.8476   5.8503   5.8955   5.9051   5.9099   6.0886
  6.1017   6.1494   6.2900   6.3445   6.3908   6.4117   6.5350   6.7115
  6.8775   6.8859   7.0441   7.7686   7.8454   7.9071   8.3349   8.4273
  8.5005   8.5041   8.5739   8.6609   8.6896   8.7084   8.7087   8.7695
  8.8925   8.9093   8.9355   8.9370   9.0572   9.1058   9.1088   9.1457
  9.2146   9.2656   9.2939   9.4511   9.5894   9.6156   9.6614   9.6726
  9.6941   9.7730   9.7731   9.7835   9.7990   9.9344   9.9594   9.9697
 10.0351  10.0542  10.0999  10.1160  10.1495  10.2756  10.3165  10.5093
 10.6683  10.6801  10.7247  10.8078  10.9982  11.1941  11.2666  11.3402
 11.4194  11.4366  11.5998  11.6813  11.7176  11.8909  12.2747  12.3740
 12.4052  12.4301  12.4838  12.6675  12.7087  12.7841  12.7984  12.8927
 12.9090  12.9234  13.0214  13.0317  13.1756  13.1861  13.3825  13.7469
 14.0161  14.1079  14.1964  14.2990  14.4260  15.4449  16.0765  16.7617
 16.7633  16.7704  16.7704  16.8956  16.9362  16.9395  16.9523  17.6586
 17.6907  17.7102  17.7212  17.7832  17.8931  17.9706  18.0519  18.4558
 18.8189  19.0787  19.2825  19.4128  19.5420  19.6600  20.2582  20.5024
 20.7369  21.0324  22.0847  22.1833  23.3819  23.3993  23.5471  23.6915
 24.6889  25.0336  40.5419  40.6572  41.1159  65.5815  65.5821  65.6351
 65.7113  66.0210  79.5672  90.9121  90.9270  91.0243  91.1254  91.8173
 92.0844
 --------------------------------------------------------------

          Ground-State Mulliken Net Atomic Charges

     Atom                 Charge (a.u.)    Spin (a.u.)
  --------------------------------------------------------
      1 B                    -0.202414       0.000000
      2 Cl                   -0.018866       0.000000
      3 H                     0.110640       0.000000
      4 H                     0.110640       0.000000
  --------------------------------------------------------
  Sum of atomic charges =    -0.000000
  Sum of spin   charges =     0.000000

 -----------------------------------------------------------------
                    Cartesian Multipole Moments
 -----------------------------------------------------------------
    Charge (ESU x 10^10)
                 0.0000
    Dipole Moment (Debye)
         X       0.0000      Y      -0.0000      Z      -0.5882
       Tot       0.5882
    Quadrupole Moments (Debye-Ang)
        XX     -18.8544     XY       0.0000     YY     -20.3970
        XZ      -0.0000     YZ       0.0000     ZZ     -20.7830
    Octopole Moments (Debye-Ang^2)
       XXX      -0.0000    XXY      -0.0000    XYY      -0.0000
       YYY      -0.0000    XXZ     -20.4449    XYZ       0.0000
       YYZ     -21.0626    XZZ       0.0000    YZZ       0.0000
       ZZZ     -59.7860
    Hexadecapole Moments (Debye-Ang^3)
      XXXX     -22.0515   XXXY       0.0000   XXYY     -10.2570
      XYYY       0.0000   YYYY     -37.4202   XXXZ      -0.0000
      XXYZ       0.0000   XYYZ      -0.0000   YYYZ       0.0000
      XXZZ     -45.5313   XYZZ       0.0000   YYZZ     -49.6772
      XZZZ      -0.0000   YZZZ       0.0000   ZZZZ    -241.3641
 -----------------------------------------------------------------
Archival summary:
1\1\n0099.mhg0\SP\ProcedureUnspecified\BasisUnspecified\l112\yhljason\WedNov1102:44:492020WedNov1102:44:492020\0\\#,ProcedureUnspecified,BasisUnspecified,\\0,1\Cl\B,1,1.7353\H,2,1.19161,1,117.89\H,2,1.19161,1,117.89,3,-180,0\\\@

 Total job time:  13685.68s(wall), 107936.44s(cpu) 
 Wed Nov 11 02:44:49 2020

        *************************************************************
        *                                                           *
        *  Thank you very much for using Q-Chem.  Have a nice day.  *
        *                                                           *
        *************************************************************


