                  Welcome to Q-Chem
     A Quantum Leap Into The Future Of Chemistry


 Q-Chem 5.3 (devel), Q-Chem, Inc., Pleasanton, CA (2020)

 Yihan Shao,  Zhengting Gan,  E. Epifanovsky,  A. T. B. Gilbert,  M. Wormit,  
 J. Kussmann,  A. W. Lange,  A. Behn,  Jia Deng,  Xintian Feng,  D. Ghosh,  
 M. Goldey,  P. R. Horn,  L. D. Jacobson,  I. Kaliman,  T. Kus,  A. Landau,  
 Jie Liu,  E. I. Proynov,  R. M. Richard,  R. P. Steele,  E. J. Sundstrom,  
 H. L. Woodcock III,  P. M. Zimmerman,  D. Zuev,  B. Alam,  B. Albrecht,  
 E. Alguire,  S. A. Baeppler,  D. Barton,  Z. Benda,  Y. A. Bernard,  
 E. J. Berquist,  K. B. Bravaya,  H. Burton,  K. Carter-Fenk,  D. Casanova,  
 Chun-Min Chang,  Yunqing Chen,  A. Chien,  K. D. Closser,  M. P. Coons,  
 S. Coriani,  S. Dasgupta,  A. L. Dempwolff,  M. Diedenhofen,  Hainam Do,  
 R. G. Edgar,  Po-Tung Fang,  S. Faraji,  S. Fatehi,  Qingguo Feng,  
 J. Fosso-Tande,  J. Gayvert,  Qinghui Ge,  A. Ghysels,  G. Gidofalvi,  
 J. Gomes,  J. Gonthier,  A. Gunina,  D. Hait,  M. W. D. Hanson-Heine,  
 P. H. P. Harbach,  A. W. Hauser,  M. F. Herbst,  J. E. Herr,  
 E. G. Hohenstein,  Z. C. Holden,  Kerwin Hui,  B. C. Huynh,  T.-C. Jagau,  
 Hyunjun Ji,  B. Kaduk,  K. Khistyaev,  Jaehoon Kim,  P. Klunzinger,  K. Koh,  
 D. Kosenkov,  L. Koulias,  T. Kowalczyk,  C. M. Krauter,  A. Kunitsa,  
 Ka Un Lao,  A. Laurent,  K. V. Lawler,  Joonho Lee,  D. Lefrancois,  
 S. Lehtola,  D. S. Levine,  Yi-Pei Li,  You-Sheng Lin,  Fenglai Liu,  
 Kuan-Yu Liu,  E. Livshits,  M. Loipersberger,  A. Luenser,  P. Manohar,  
 E. Mansoor,  S. F. Manzer,  Shan-Ping Mao,  Yuezhi Mao,  N. Mardirossian,  
 A. V. Marenich,  T. Markovich,  L. A. Martinez-Martinez,  S. A. Maurer,  
 N. J. Mayhall,  S. C. McKenzie,  J.-M. Mewes,  P. Morgante,  A. F. Morrison,  
 J. W. Mullinax,  K. Nanda,  T. S. Nguyen-Beck,  R. Olivares-Amaya,  
 K. J. Oosterbaan,  J. A. Parkhill,  S. K. Paul,  F. Pavosevic,  Zheng Pei,  
 T. M. Perrine,  F. Plasser,  P. Pokhilko,  S. Prager,  A. Prociuk,  
 E. Ramos,  B. Rana,  D. R. Rehn,  F. Rob,  M. Scheurer,  M. Schneider,  
 N. Sergueev,  S. M. Sharada,  S. Sharma,  D. W. Small,  T. Stauch,  
 C. J. Stein,  T. Stein,  Yu-Chuan Su,  S. P. Veccham,  Zhen Tao,  
 A. J. W. Thom,  A. Tkatchenko,  T. Tsuchimochi,  N. M. Tubman,  L. Vogt,  
 M. L. Vidal,  O. Vydrov,  M. A. Watson,  J. Wenzel,  M. de Wergifosse,  
 T. A. Wesolowski,  A. White,  J. Witte,  A. Yamada,  Jun Yang,  K. Yao,  
 S. Yeganeh,  S. R. Yost,  Zhi-Qiang You,  A. Zech,  Igor Ying Zhang,  
 Xing Zhang,  Yan Zhao,  Ying Zhu,  B. R. Brooks,  G. K. L. Chan,  
 C. J. Cramer,  M. S. Gordon,  W. J. Hehre,  A. Klamt,  M. W. Schmidt,  
 C. D. Sherrill,  D. G. Truhlar,  A. Aspuru-Guzik,  R. Baer,  A. T. Bell,  
 N. A. Besley,  Jeng-Da Chai,  A. E. DePrince, III,  R. A. DiStasio Jr.,  
 A. Dreuw,  B. D. Dunietz,  T. R. Furlani,  Chao-Ping Hsu,  Yousung Jung,  
 Jing Kong,  D. S. Lambrecht,  WanZhen Liang,  C. Ochsenfeld,  
 V. A. Rassolov,  L. V. Slipchenko,  J. E. Subotnik,  T. Van Voorhis,  
 J. M. Herbert,  A. I. Krylov,  P. M. W. Gill,  M. Head-Gordon

 Contributors to earlier versions of Q-Chem not listed above: 
 R. D. Adamson,  B. Austin,  J. Baker,  G. J. O. Beran,  K. Brandhorst,  
 S. T. Brown,  E. F. C. Byrd,  A. K. Chakraborty,  C.-L. Cheng,  
 Siu Hung Chien,  D. M. Chipman,  D. L. Crittenden,  H. Dachsel,  
 R. J. Doerksen,  A. D. Dutoi,  L. Fusti-Molnar,  W. A. Goddard III,  
 A. Golubeva-Zadorozhnaya,  S. R. Gwaltney,  G. Hawkins,  A. Heyden,  
 S. Hirata,  G. Kedziora,  F. J. Keil,  C. Kelley,  Jihan Kim,  R. A. King,  
 R. Z. Khaliullin,  P. P. Korambath,  W. Kurlancheek,  A. M. Lee,  M. S. Lee,  
 S. V. Levchenko,  Ching Yeh Lin,  D. Liotard,  R. C. Lochan,  I. Lotan,  
 P. E. Maslen,  N. Nair,  D. P. O'Neill,  D. Neuhauser,  E. Neuscamman,  
 C. M. Oana,  R. Olson,  B. Peters,  R. Peverati,  P. A. Pieniazek,  
 Y. M. Rhee,  J. Ritchie,  M. A. Rohrdanz,  E. Rosta,  N. J. Russ,  
 H. F. Schaefer III,  N. E. Schultz,  N. Shenvi,  A. C. Simmonett,  A. Sodt,  
 D. Stuck,  K. S. Thanthiriwatte,  V. Vanovschi,  Tao Wang,  A. Warshel,  
 C. F. Williams,  Q. Wu,  X. Xu,  W. Zhang

 Please cite Q-Chem as follows:
 Y. Shao et al., Mol. Phys. 113, 184-215 (2015)
 DOI: 10.1080/00268976.2014.952696

 Q-Chem 5.3.0 for Intel X86 EM64T Linux

 Parts of Q-Chem use Armadillo 9.800.1 (Horizon Scraper).
 http://arma.sourceforge.net/

 Q-Chem begins on Tue Nov 10 22:56:51 2020  

n0101.mhg0
Host: 0

     Scratch files written to /local/scratch/users/yhljason/BH2Cl_wM05-D_aug-pc-4.inp20201110225649//
Processing $rem in /clusterfs/mhg/diptarka/qchem_transmom//config/preferences:
Processing $rem in /global/home/users/yhljason/.qchemrc:

Checking the input file for inconsistencies... 	...done.

--------------------------------------------------------------
User input:
--------------------------------------------------------------
$molecule
0 1
B        0.0000000000      0.0000000000      0.0000000000
Cl       0.0000000000      0.0000000000      1.7353000000
H        0.0000000000      1.0532000000     -0.5574000000
H        0.0000000000     -1.0532000000     -0.5574000000
$end

$rem
jobtype sp
method wM05-D
xc_grid 000099000590
basis aug-pc-4
max_scf_cycles 200
thresh 14
scf_convergence 8
scf_algorithm gdm
symmetry false
sym_ignore true
unrestricted True
gen_scfman true
internal_stability_iter 15
internal_stability_davidson_iter 200
mem_total 64000
mem_static 1500
n_frozen_core 0
$end



--------------------------------------------------------------
 ----------------------------------------------------------------
             Standard Nuclear Orientation (Angstroms)
    I     Atom           X                Y                Z
 ----------------------------------------------------------------
    1      B       0.0000000000     0.0000000000     0.0000000000
    2      Cl      0.0000000000     0.0000000000     1.7353000000
    3      H       0.0000000000     1.0532000000    -0.5574000000
    4      H       0.0000000000    -1.0532000000    -0.5574000000
 ----------------------------------------------------------------
 Nuclear Repulsion Energy =          37.74374391 hartrees
 There are       12 alpha and       12 beta electrons
 Requested basis set is aug-pc-4
 There are 112 shells and 462 basis functions

 Total QAlloc Memory Limit  64000 MB
 Mega-Array Size      1467 MB
 MEM_STATIC part      1500 MB

                       Distance Matrix (Angstroms)
             B (  1)   Cl(  2)   H (  3)
   Cl(  2)  1.735300
   H (  3)  1.191606  2.523035
   H (  4)  1.191606  2.523035  2.106400

 A cutoff of  1.0D-14 yielded   6211 shell pairs
 There are    106837 function pairs (    197166 Cartesian)
 Smallest overlap matrix eigenvalue = 4.90E-07
 Linear dependence detected in AO basis
 Tighter screening thresholds may be required for diffuse basis sets
 Use S2THRESH > 14 and THRESH = 14 in case of SCF convergence issues
 Number of orthogonalized atomic orbitals = 461
 Maximum deviation from orthogonality = 2.606E-10

 Scale SEOQF with 1.000000e-01/1.000000e-01/1.000000e-01

 Standard Electronic Orientation quadrupole field applied
 Nucleus-field energy     =    -0.0000000054 hartrees
 Guess from superposition of atomic densities
 Warning:  Energy on first SCF cycle will be non-variational
 SAD guess density has 24.000000 electrons

 -----------------------------------------------------------------------
  General SCF calculation program by
  Eric Jon Sundstrom, Paul Horn, Yuezhi Mao, Dmitri Zuev, Alec White,
  David Stuck, Shaama M.S., Shane Yost, Joonho Lee, David Small,
  Daniel Levine, Susi Lehtola, Hugh Burton, Evgeny Epifanovsky,
  Bang C. Huynh
 -----------------------------------------------------------------------
 Exchange:     0.3696 Hartree-Fock + 1.0000 wM05-D + LR-HF
 Correlation:  1.0000 wM05-D
 Using Euler-Maclaurin-Lebedev (99,590) quadrature formula
 Dispersion:   Grimme D
Running Object-Oriented UKS (UHF)
performing a single roothaan step with Fock from read density so that orbitals are available to all algorithms
energy of the guess density (C=0) -486.384272181844
We will preform up to 15 macro iterations over saddle points until a stable solution is found
Energy prior to optimization (guess energy) = -486.274473995226
Begin Timing: Total SCF Calculation
Begin Timing: SCF Single Stationary Point Calculation
begin iterations for algorithm: GDM          
the SCF tolerance is set to 1.00e-08
    1    -486.2744739952      4.06e-02     00000  Normal BFGS step
    2    -486.2816564443      2.73e-02     00000  Normal BFGS step
    3    -486.2847943437      1.58e-03     00000  Normal BFGS step
    4    -486.2848430243      3.44e-04     00000  Normal BFGS step
    5    -486.2848452926      8.01e-05     00000  Normal BFGS step
    6    -486.2848454228      3.15e-05     00000  Normal BFGS step
    7    -486.2848454401      6.80e-06     00000  Normal BFGS step
    8    -486.2848454405      2.37e-06     00000  Normal BFGS step
    9    -486.2848454405      5.33e-07     00000  Normal BFGS step
   10    -486.2848454405      1.08e-07     00000  Normal BFGS step
   11    -486.2848454405      1.31e-08     00000  Normal BFGS step
   12    -486.2848454405      2.13e-09     00000 Convergence criterion met
Timing for Single Stationary Point: 6790.00s (wall), 53589.81s (cpu)
Begin Timing: Stability
===================================================
Beginning Test for Internal Stability
===================================================
generating davidson guess vectors based on koopmans excitations
 Warning: Hessian-vector products not implemented
 Finite difference Hessian-vector products will be used.
computing hessian-vector products by finite difference
    1      7.38e-01     00000 Davidson Iteration
computing hessian-vector products by finite difference
    2      2.30e-01     00000 Davidson Iteration
computing hessian-vector products by finite difference
    3      2.26e-02     00000 Davidson Iteration
computing hessian-vector products by finite difference
    4      1.57e-02     00000 Davidson Iteration
computing hessian-vector products by finite difference
    5      3.92e-03     00000 Davidson Iteration
computing hessian-vector products by finite difference
    6      4.62e-03     00000 Davidson Iteration
computing hessian-vector products by finite difference
    7      1.42e-03     00000 Davidson Iteration
computing hessian-vector products by finite difference
    8      2.58e-04     00000 Davidson Iteration
computing hessian-vector products by finite difference
    9      1.12e-04     00000 Davidson Iteration
computing hessian-vector products by finite difference
   10      3.49e-05     00000 Davidson Converged
converged_eigenvalues
   0.3208
   0.3806
Threshold for negative eigenvalues: -1.0e-05
solution was a local minimum (stable)
===================================================
End Test for Internal Stability
===================================================
Timing for Internal Stability: 27153.00s (wall), 214283.49s (cpu)
Our SCF solution is stable!
Timing for Total SCF: 33943.00s (wall), 267873.49s (cpu)
 Total energy in the final basis set =     -486.2848454405
<S^2> =          0.000000000
    ==================================================
              The end of Object-Oriented SCFman       
    ==================================================

 --------------------------------------------------------------

                    Orbital Energies (a.u.)
 --------------------------------------------------------------

 Alpha MOs
 -- Occupied --
********  -9.6359  -7.4249  -7.4230  -7.4205  -6.9940  -0.9550  -0.6205
 -0.5030  -0.4892  -0.4502  -0.3928
 -- Virtual --
  0.0044   0.0212   0.0232   0.0246   0.0251   0.0509   0.0629   0.0704
  0.0721   0.0733   0.0787   0.0797   0.0833   0.0879   0.1030   0.1046
  0.1153   0.1200   0.1423   0.1473   0.1499   0.1499   0.1629   0.1632
  0.1682   0.1706   0.1752   0.1856   0.1906   0.1932   0.2003   0.2113
  0.2120   0.2134   0.2179   0.2230   0.2277   0.2339   0.2342   0.2349
  0.2460   0.2559   0.2604   0.2741   0.2814   0.2856   0.2872   0.2891
  0.3048   0.3055   0.3174   0.3257   0.3343   0.3354   0.3393   0.3473
  0.3565   0.3582   0.3635   0.3663   0.3723   0.3760   0.3764   0.3800
  0.3805   0.3878   0.3888   0.3907   0.4062   0.4071   0.4117   0.4288
  0.4326   0.4368   0.4402   0.4453   0.4575   0.4579   0.4630   0.4634
  0.4817   0.4865   0.4916   0.5035   0.5369   0.5514   0.5586   0.5591
  0.5786   0.5931   0.6005   0.6076   0.6105   0.6155   0.6198   0.6223
  0.6233   0.6438   0.6452   0.6621   0.6629   0.6672   0.6717   0.6784
  0.6853   0.6925   0.6970   0.7117   0.7137   0.7283   0.7298   0.7392
  0.7532   0.7545   0.7611   0.7616   0.7655   0.7760   0.7770   0.7813
  0.7895   0.8063   0.8070   0.8090   0.8131   0.8152   0.8166   0.8227
  0.8254   0.8280   0.8444   0.8650   0.8789   0.8790   0.8819   0.8904
  0.9082   0.9086   0.9182   0.9345   0.9368   0.9379   0.9549   0.9586
  0.9600   0.9932   0.9984   1.0041   1.0079   1.0169   1.0239   1.0311
  1.0385   1.0677   1.0749   1.0871   1.0940   1.1113   1.1224   1.1421
  1.1449   1.1555   1.1630   1.1780   1.1861   1.2217   1.2626   1.2673
  1.2688   1.2790   1.2817   1.3227   1.3791   1.4438   1.4585   1.4684
  1.4951   1.5014   1.5037   1.5081   1.5413   1.5530   1.5781   1.5825
  1.6094   1.6497   1.6498   1.6629   1.6635   1.6654   1.6948   1.6949
  1.7608   1.7625   1.7814   1.8341   1.8348   1.8377   1.8796   1.8968
  1.9590   1.9889   1.9919   2.0657   2.1022   2.1344   2.1408   2.1847
  2.1938   2.2202   2.2602   2.2782   2.2949   2.3548   2.4690   2.5166
  2.5514   2.6059   2.6085   2.6271   2.7117   2.8477   2.9789   2.9819
  2.9830   2.9920   3.0010   3.0121   3.1228   3.1373   3.1383   3.1459
  3.1890   3.2024   3.3012   3.3236   3.3698   3.3989   3.4522   3.4664
  3.4777   3.5226   3.5707   3.5788   3.6424   3.6500   3.6932   3.7158
  3.7323   3.7452   3.7553   3.8178   3.8340   3.8382   3.8397   3.8768
  3.9023   3.9246   3.9875   3.9946   4.0101   4.0230   4.0277   4.0938
  4.1036   4.1577   4.1596   4.2209   4.2852   4.3145   4.3240   4.3334
  4.3673   4.4455   4.5560   4.6067   4.6231   4.6673   4.7473   4.8354
  4.8530   4.8997   4.9705   5.0308   5.0981   5.1247   5.2205   5.2921
  5.3934   5.5018   5.5769   5.6172   5.6969   5.6979   5.7030   5.7458
  5.8711   5.8751   5.9185   5.9209   5.9474   6.0176   6.0961   6.1805
  6.2242   6.2421   6.3168   6.3755   6.4167   6.5064   6.5453   6.7398
  6.8833   6.9791   7.0545   7.7434   7.8398   7.8405   8.0835   8.2191
  8.2397   8.3124   8.3671   8.4455   8.4541   8.5001   8.5461   8.5630
  8.6384   8.6677   8.6929   8.7070   8.8857   9.0475   9.0549   9.0974
  9.1011   9.1930   9.2688   9.2710   9.4489   9.5568   9.6048   9.6055
  9.6135   9.6872   9.6887   9.7315   9.7542   9.9103   9.9165   9.9240
  9.9523   9.9669   9.9751  10.0358  10.0597  10.1833  10.1842  10.4106
 10.4726  10.5993  10.6337  10.7902  10.8894  11.0127  11.0256  11.1979
 11.2430  11.2844  11.3548  11.4379  11.5003  11.7918  11.9486  11.9605
 11.9989  12.0079  12.2232  12.2467  12.2978  12.4105  12.4977  12.5723
 13.0691  13.0726  13.0800  13.1406  13.2500  13.2688  13.4147  13.5440
 13.5665  13.7580  13.8191  13.8404  14.1780  14.6358  15.2923  16.0874
 16.0893  16.0959  16.0961  16.2515  16.2954  16.2985  16.3147  16.9387
 16.9536  17.1855  17.2049  17.8701  17.9606  17.9618  17.9940  18.0551
 18.2000  18.3133  18.4406  18.4889  18.6665  18.7342  20.0989  20.6776
 20.8709  21.1567  21.8822  21.8929  22.0372  22.1431  22.1522  22.1864
 22.8172  23.0717  37.6233  37.7320  41.2692  65.9757  65.9763  66.0300
 66.1045  66.4107  79.0427  84.3294  84.3434  84.3830  84.4350  84.5339
 84.6127

 Beta MOs
 -- Occupied --
********  -9.6359  -7.4249  -7.4230  -7.4205  -6.9940  -0.9550  -0.6205
 -0.5030  -0.4892  -0.4502  -0.3928
 -- Virtual --
  0.0044   0.0212   0.0232   0.0246   0.0251   0.0509   0.0629   0.0704
  0.0721   0.0733   0.0787   0.0797   0.0833   0.0879   0.1030   0.1046
  0.1153   0.1200   0.1423   0.1473   0.1499   0.1499   0.1629   0.1632
  0.1682   0.1706   0.1752   0.1856   0.1906   0.1932   0.2003   0.2113
  0.2120   0.2134   0.2179   0.2230   0.2277   0.2339   0.2342   0.2349
  0.2460   0.2559   0.2604   0.2741   0.2814   0.2856   0.2872   0.2891
  0.3048   0.3055   0.3174   0.3257   0.3343   0.3354   0.3393   0.3473
  0.3565   0.3582   0.3635   0.3663   0.3723   0.3760   0.3764   0.3800
  0.3805   0.3878   0.3888   0.3907   0.4062   0.4071   0.4117   0.4288
  0.4326   0.4368   0.4402   0.4453   0.4575   0.4579   0.4630   0.4634
  0.4817   0.4865   0.4916   0.5035   0.5369   0.5514   0.5586   0.5591
  0.5786   0.5931   0.6005   0.6076   0.6105   0.6155   0.6198   0.6223
  0.6233   0.6438   0.6452   0.6621   0.6629   0.6672   0.6717   0.6784
  0.6853   0.6925   0.6970   0.7117   0.7137   0.7283   0.7298   0.7392
  0.7532   0.7545   0.7611   0.7616   0.7655   0.7760   0.7770   0.7813
  0.7895   0.8063   0.8070   0.8090   0.8131   0.8152   0.8166   0.8227
  0.8254   0.8280   0.8444   0.8650   0.8789   0.8790   0.8819   0.8904
  0.9082   0.9086   0.9182   0.9345   0.9368   0.9379   0.9549   0.9586
  0.9600   0.9932   0.9984   1.0041   1.0079   1.0169   1.0239   1.0311
  1.0385   1.0677   1.0749   1.0871   1.0940   1.1113   1.1224   1.1421
  1.1449   1.1555   1.1630   1.1780   1.1861   1.2217   1.2626   1.2673
  1.2688   1.2790   1.2817   1.3227   1.3791   1.4438   1.4585   1.4684
  1.4951   1.5014   1.5037   1.5081   1.5413   1.5530   1.5781   1.5825
  1.6094   1.6497   1.6498   1.6629   1.6635   1.6654   1.6948   1.6949
  1.7608   1.7625   1.7814   1.8341   1.8348   1.8377   1.8796   1.8968
  1.9590   1.9889   1.9919   2.0657   2.1022   2.1344   2.1408   2.1847
  2.1938   2.2202   2.2602   2.2782   2.2949   2.3548   2.4690   2.5166
  2.5514   2.6059   2.6085   2.6271   2.7117   2.8477   2.9789   2.9819
  2.9830   2.9920   3.0010   3.0121   3.1228   3.1373   3.1383   3.1459
  3.1890   3.2024   3.3012   3.3236   3.3698   3.3989   3.4522   3.4664
  3.4777   3.5226   3.5707   3.5788   3.6424   3.6500   3.6932   3.7158
  3.7323   3.7452   3.7553   3.8178   3.8340   3.8382   3.8397   3.8768
  3.9023   3.9246   3.9875   3.9946   4.0101   4.0230   4.0277   4.0938
  4.1036   4.1577   4.1596   4.2209   4.2852   4.3145   4.3240   4.3334
  4.3673   4.4455   4.5560   4.6067   4.6231   4.6673   4.7473   4.8354
  4.8530   4.8997   4.9705   5.0308   5.0981   5.1247   5.2205   5.2921
  5.3934   5.5018   5.5769   5.6172   5.6969   5.6979   5.7030   5.7458
  5.8711   5.8751   5.9185   5.9209   5.9474   6.0176   6.0961   6.1805
  6.2242   6.2421   6.3168   6.3755   6.4167   6.5064   6.5453   6.7398
  6.8833   6.9791   7.0545   7.7434   7.8398   7.8405   8.0835   8.2191
  8.2397   8.3124   8.3671   8.4455   8.4541   8.5001   8.5461   8.5630
  8.6384   8.6677   8.6929   8.7070   8.8857   9.0475   9.0549   9.0974
  9.1011   9.1930   9.2688   9.2710   9.4489   9.5568   9.6048   9.6055
  9.6135   9.6872   9.6887   9.7315   9.7542   9.9103   9.9165   9.9240
  9.9523   9.9669   9.9751  10.0358  10.0597  10.1833  10.1842  10.4106
 10.4726  10.5993  10.6337  10.7902  10.8894  11.0127  11.0256  11.1979
 11.2430  11.2844  11.3548  11.4379  11.5003  11.7918  11.9486  11.9605
 11.9989  12.0079  12.2232  12.2467  12.2978  12.4105  12.4977  12.5723
 13.0691  13.0726  13.0800  13.1406  13.2500  13.2688  13.4147  13.5440
 13.5665  13.7580  13.8191  13.8404  14.1780  14.6358  15.2923  16.0874
 16.0893  16.0959  16.0961  16.2515  16.2954  16.2985  16.3147  16.9387
 16.9536  17.1855  17.2049  17.8701  17.9606  17.9618  17.9940  18.0551
 18.2000  18.3133  18.4406  18.4889  18.6665  18.7342  20.0989  20.6776
 20.8709  21.1567  21.8822  21.8929  22.0372  22.1431  22.1522  22.1864
 22.8172  23.0717  37.6233  37.7320  41.2692  65.9757  65.9763  66.0300
 66.1045  66.4107  79.0427  84.3294  84.3434  84.3830  84.4350  84.5339
 84.6127
 --------------------------------------------------------------

          Ground-State Mulliken Net Atomic Charges

     Atom                 Charge (a.u.)    Spin (a.u.)
  --------------------------------------------------------
      1 B                     0.521090       0.000000
      2 Cl                   -0.939555       0.000000
      3 H                     0.209233       0.000000
      4 H                     0.209233       0.000000
  --------------------------------------------------------
  Sum of atomic charges =     0.000000
  Sum of spin   charges =     0.000000

 -----------------------------------------------------------------
                    Cartesian Multipole Moments
 -----------------------------------------------------------------
    Charge (ESU x 10^10)
                 0.0000
    Dipole Moment (Debye)
         X       0.0000      Y      -0.0000      Z      -0.5797
       Tot       0.5797
    Quadrupole Moments (Debye-Ang)
        XX     -19.0719     XY       0.0000     YY     -20.6004
        XZ       0.0000     YZ      -0.0000     ZZ     -20.8731
    Octopole Moments (Debye-Ang^2)
       XXX       0.0000    XXY      -0.0000    XYY       0.0000
       YYY      -0.0000    XXZ     -20.8069    XYZ       0.0000
       YYZ     -21.4044    XZZ       0.0000    YZZ      -0.0000
       ZZZ     -60.1877
    Hexadecapole Moments (Debye-Ang^3)
      XXXX     -21.7051   XXXY      -0.0000   XXYY     -10.1267
      XYYY      -0.0000   YYYY     -36.8672   XXXZ       0.0000
      XXYZ      -0.0000   XYYZ       0.0000   YYYZ       0.0000
      XXZZ     -45.9307   XYZZ       0.0000   YYZZ     -49.9521
      XZZZ       0.0000   YZZZ      -0.0000   ZZZZ    -242.2066
 -----------------------------------------------------------------
Archival summary:
1\1\n0101.mhg0\SP\ProcedureUnspecified\BasisUnspecified\l112\yhljason\WedNov1108:41:542020WedNov1108:41:542020\0\\#,ProcedureUnspecified,BasisUnspecified,\\0,1\Cl\B,1,1.7353\H,2,1.19161,1,117.89\H,2,1.19161,1,117.89,3,-180,0\\\@

 Total job time:  35103.27s(wall), 277021.49s(cpu) 
 Wed Nov 11 08:41:54 2020

        *************************************************************
        *                                                           *
        *  Thank you very much for using Q-Chem.  Have a nice day.  *
        *                                                           *
        *************************************************************


