                  Welcome to Q-Chem
     A Quantum Leap Into The Future Of Chemistry


 Q-Chem 5.3 (devel), Q-Chem, Inc., Pleasanton, CA (2020)

 Yihan Shao,  Zhengting Gan,  E. Epifanovsky,  A. T. B. Gilbert,  M. Wormit,  
 J. Kussmann,  A. W. Lange,  A. Behn,  Jia Deng,  Xintian Feng,  D. Ghosh,  
 M. Goldey,  P. R. Horn,  L. D. Jacobson,  I. Kaliman,  T. Kus,  A. Landau,  
 Jie Liu,  E. I. Proynov,  R. M. Richard,  R. P. Steele,  E. J. Sundstrom,  
 H. L. Woodcock III,  P. M. Zimmerman,  D. Zuev,  B. Alam,  B. Albrecht,  
 E. Alguire,  S. A. Baeppler,  D. Barton,  Z. Benda,  Y. A. Bernard,  
 E. J. Berquist,  K. B. Bravaya,  H. Burton,  K. Carter-Fenk,  D. Casanova,  
 Chun-Min Chang,  Yunqing Chen,  A. Chien,  K. D. Closser,  M. P. Coons,  
 S. Coriani,  S. Dasgupta,  A. L. Dempwolff,  M. Diedenhofen,  Hainam Do,  
 R. G. Edgar,  Po-Tung Fang,  S. Faraji,  S. Fatehi,  Qingguo Feng,  
 J. Fosso-Tande,  J. Gayvert,  Qinghui Ge,  A. Ghysels,  G. Gidofalvi,  
 J. Gomes,  J. Gonthier,  A. Gunina,  D. Hait,  M. W. D. Hanson-Heine,  
 P. H. P. Harbach,  A. W. Hauser,  M. F. Herbst,  J. E. Herr,  
 E. G. Hohenstein,  Z. C. Holden,  Kerwin Hui,  B. C. Huynh,  T.-C. Jagau,  
 Hyunjun Ji,  B. Kaduk,  K. Khistyaev,  Jaehoon Kim,  P. Klunzinger,  K. Koh,  
 D. Kosenkov,  L. Koulias,  T. Kowalczyk,  C. M. Krauter,  A. Kunitsa,  
 Ka Un Lao,  A. Laurent,  K. V. Lawler,  Joonho Lee,  D. Lefrancois,  
 S. Lehtola,  D. S. Levine,  Yi-Pei Li,  You-Sheng Lin,  Fenglai Liu,  
 Kuan-Yu Liu,  E. Livshits,  M. Loipersberger,  A. Luenser,  P. Manohar,  
 E. Mansoor,  S. F. Manzer,  Shan-Ping Mao,  Yuezhi Mao,  N. Mardirossian,  
 A. V. Marenich,  T. Markovich,  L. A. Martinez-Martinez,  S. A. Maurer,  
 N. J. Mayhall,  S. C. McKenzie,  J.-M. Mewes,  P. Morgante,  A. F. Morrison,  
 J. W. Mullinax,  K. Nanda,  T. S. Nguyen-Beck,  R. Olivares-Amaya,  
 K. J. Oosterbaan,  J. A. Parkhill,  S. K. Paul,  F. Pavosevic,  Zheng Pei,  
 T. M. Perrine,  F. Plasser,  P. Pokhilko,  S. Prager,  A. Prociuk,  
 E. Ramos,  B. Rana,  D. R. Rehn,  F. Rob,  M. Scheurer,  M. Schneider,  
 N. Sergueev,  S. M. Sharada,  S. Sharma,  D. W. Small,  T. Stauch,  
 C. J. Stein,  T. Stein,  Yu-Chuan Su,  S. P. Veccham,  Zhen Tao,  
 A. J. W. Thom,  A. Tkatchenko,  T. Tsuchimochi,  N. M. Tubman,  L. Vogt,  
 M. L. Vidal,  O. Vydrov,  M. A. Watson,  J. Wenzel,  M. de Wergifosse,  
 T. A. Wesolowski,  A. White,  J. Witte,  A. Yamada,  Jun Yang,  K. Yao,  
 S. Yeganeh,  S. R. Yost,  Zhi-Qiang You,  A. Zech,  Igor Ying Zhang,  
 Xing Zhang,  Yan Zhao,  Ying Zhu,  B. R. Brooks,  G. K. L. Chan,  
 C. J. Cramer,  M. S. Gordon,  W. J. Hehre,  A. Klamt,  M. W. Schmidt,  
 C. D. Sherrill,  D. G. Truhlar,  A. Aspuru-Guzik,  R. Baer,  A. T. Bell,  
 N. A. Besley,  Jeng-Da Chai,  A. E. DePrince, III,  R. A. DiStasio Jr.,  
 A. Dreuw,  B. D. Dunietz,  T. R. Furlani,  Chao-Ping Hsu,  Yousung Jung,  
 Jing Kong,  D. S. Lambrecht,  WanZhen Liang,  C. Ochsenfeld,  
 V. A. Rassolov,  L. V. Slipchenko,  J. E. Subotnik,  T. Van Voorhis,  
 J. M. Herbert,  A. I. Krylov,  P. M. W. Gill,  M. Head-Gordon

 Contributors to earlier versions of Q-Chem not listed above: 
 R. D. Adamson,  B. Austin,  J. Baker,  G. J. O. Beran,  K. Brandhorst,  
 S. T. Brown,  E. F. C. Byrd,  A. K. Chakraborty,  C.-L. Cheng,  
 Siu Hung Chien,  D. M. Chipman,  D. L. Crittenden,  H. Dachsel,  
 R. J. Doerksen,  A. D. Dutoi,  L. Fusti-Molnar,  W. A. Goddard III,  
 A. Golubeva-Zadorozhnaya,  S. R. Gwaltney,  G. Hawkins,  A. Heyden,  
 S. Hirata,  G. Kedziora,  F. J. Keil,  C. Kelley,  Jihan Kim,  R. A. King,  
 R. Z. Khaliullin,  P. P. Korambath,  W. Kurlancheek,  A. M. Lee,  M. S. Lee,  
 S. V. Levchenko,  Ching Yeh Lin,  D. Liotard,  R. C. Lochan,  I. Lotan,  
 P. E. Maslen,  N. Nair,  D. P. O'Neill,  D. Neuhauser,  E. Neuscamman,  
 C. M. Oana,  R. Olson,  B. Peters,  R. Peverati,  P. A. Pieniazek,  
 Y. M. Rhee,  J. Ritchie,  M. A. Rohrdanz,  E. Rosta,  N. J. Russ,  
 H. F. Schaefer III,  N. E. Schultz,  N. Shenvi,  A. C. Simmonett,  A. Sodt,  
 D. Stuck,  K. S. Thanthiriwatte,  V. Vanovschi,  Tao Wang,  A. Warshel,  
 C. F. Williams,  Q. Wu,  X. Xu,  W. Zhang

 Please cite Q-Chem as follows:
 Y. Shao et al., Mol. Phys. 113, 184-215 (2015)
 DOI: 10.1080/00268976.2014.952696

 Q-Chem 5.3.0 for Intel X86 EM64T Linux

 Parts of Q-Chem use Armadillo 9.800.1 (Horizon Scraper).
 http://arma.sourceforge.net/

 Q-Chem begins on Tue Nov 10 22:56:52 2020  

n0101.mhg0
Host: 0

     Scratch files written to /local/scratch/users/yhljason/CH2-s_B97-2_aug-pc-4.inp20201110225650//
Processing $rem in /clusterfs/mhg/diptarka/qchem_transmom//config/preferences:
Processing $rem in /global/home/users/yhljason/.qchemrc:

Checking the input file for inconsistencies... 	...done.

--------------------------------------------------------------
User input:
--------------------------------------------------------------
$molecule
0 1
C1      0.0000  0.0000  0.1734
H2      0.0000  0.8623  -0.5202
H3      0.0000  -0.8623 -0.5202
$end

$rem
jobtype sp
method B97-2
xc_grid 000099000590
basis aug-pc-4
max_scf_cycles 200
thresh 14
scf_convergence 8
scf_algorithm gdm
symmetry false
sym_ignore true
unrestricted True
gen_scfman true
internal_stability_iter 15
internal_stability_davidson_iter 200
mem_total 64000
mem_static 1500
n_frozen_core 0
$end



--------------------------------------------------------------
 ----------------------------------------------------------------
             Standard Nuclear Orientation (Angstroms)
    I     Atom           X                Y                Z
 ----------------------------------------------------------------
    1      C       0.0000000000     0.0000000000     0.1734000000
    2      H       0.0000000000     0.8623000000    -0.5202000000
    3      H       0.0000000000    -0.8623000000    -0.5202000000
 ----------------------------------------------------------------
 Nuclear Repulsion Energy =           6.04506801 hartrees
 There are        4 alpha and        4 beta electrons
 Requested basis set is aug-pc-4
 There are 81 shells and 321 basis functions

 Total QAlloc Memory Limit  64000 MB
 Mega-Array Size      1467 MB
 MEM_STATIC part      1500 MB

                       Distance Matrix (Angstroms)
             C (  1)   H (  2)
   H (  2)  1.106636
   H (  3)  1.106636  1.724600

 A cutoff of  1.0D-14 yielded   3313 shell pairs
 There are     52429 function pairs (     93662 Cartesian)
 Smallest overlap matrix eigenvalue = 3.31E-07
 Linear dependence detected in AO basis
 Tighter screening thresholds may be required for diffuse basis sets
 Use S2THRESH > 14 and THRESH = 14 in case of SCF convergence issues
 Number of orthogonalized atomic orbitals = 320
 Maximum deviation from orthogonality = 9.217E-11

 Scale SEOQF with 1.000000e-01/1.000000e-01/1.000000e-01

 Standard Electronic Orientation quadrupole field applied
 Guess from superposition of atomic densities
 Warning:  Energy on first SCF cycle will be non-variational
 SAD guess density has 8.000000 electrons

 -----------------------------------------------------------------------
  General SCF calculation program by
  Eric Jon Sundstrom, Paul Horn, Yuezhi Mao, Dmitri Zuev, Alec White,
  David Stuck, Shaama M.S., Shane Yost, Joonho Lee, David Small,
  Daniel Levine, Susi Lehtola, Hugh Burton, Evgeny Epifanovsky,
  Bang C. Huynh
 -----------------------------------------------------------------------
 Exchange:     0.2100 Hartree-Fock + 1.0000 B97-2
 Correlation:  1.0000 B97-2
 Using Euler-Maclaurin-Lebedev (99,590) quadrature formula
Running Object-Oriented UKS (UHF)
performing a single roothaan step with Fock from read density so that orbitals are available to all algorithms
energy of the guess density (C=0) -39.041804864786
We will preform up to 15 macro iterations over saddle points until a stable solution is found
Energy prior to optimization (guess energy) = -39.127396211066
Begin Timing: Total SCF Calculation
Begin Timing: SCF Single Stationary Point Calculation
begin iterations for algorithm: GDM          
the SCF tolerance is set to 1.00e-08
    1     -39.1273962111      2.89e-02     00000  Normal BFGS step
    2     -39.1295681108      2.83e-02     00000  Normal BFGS step
    3     -39.1342975516      9.12e-04     00000  Normal BFGS step
    4     -39.1343084425      1.91e-04     00000  Normal BFGS step
    5     -39.1343089110      4.39e-05     00000  Normal BFGS step
    6     -39.1343089203      2.73e-06     00000  Normal BFGS step
    7     -39.1343089205      3.05e-07     00000  Normal BFGS step
    8     -39.1343089205      4.96e-08     00000  Normal BFGS step
    9     -39.1343089205      1.27e-08     00000  Normal BFGS step
   10     -39.1343089205      1.56e-09     00000 Convergence criterion met
Timing for Single Stationary Point: 509.00s (wall), 3965.98s (cpu)
Begin Timing: Stability
===================================================
Beginning Test for Internal Stability
===================================================
generating davidson guess vectors based on koopmans excitations
 Warning: Hessian-vector products not implemented
 Finite difference Hessian-vector products will be used.
computing hessian-vector products by finite difference
    1      4.77e-01     00000 Davidson Iteration
computing hessian-vector products by finite difference
    2      1.12e-01     00000 Davidson Iteration
computing hessian-vector products by finite difference
    3      1.18e-02     00000 Davidson Iteration
computing hessian-vector products by finite difference
    4      1.05e-03     00000 Davidson Iteration
computing hessian-vector products by finite difference
    5      3.80e-04     00000 Davidson Iteration
computing hessian-vector products by finite difference
    6      3.97e-05     00000 Davidson Converged
converged_eigenvalues
  -0.0729
   0.1656
Threshold for negative eigenvalues: -1.0e-05
solution was a saddle point (unstable)
displacing from saddle point as requested
performing a line search along the lowest hessian eigenvector after a small displacement (1E-3) to give a non-zero gradient along this direction 
===================================================
End Test for Internal Stability
===================================================
Timing for Internal Stability: 1937.00s (wall), 15077.32s (cpu)
completed scf stability macro iteration 1
beginning next scf after displacing from saddle point
Begin Timing: SCF Single Stationary Point Calculation
begin iterations for algorithm: GDM          
the SCF tolerance is set to 1.00e-08
    1     -39.1388857042      7.76e-03     00000  Normal BFGS step
    2     -39.1394440854      5.25e-03     00000  Normal BFGS step
    3     -39.1395086904      2.37e-03     00000  Normal BFGS step
    4     -39.1395255086      9.02e-04     00000  Normal BFGS step
    5     -39.1395311663      2.55e-04     00000  Normal BFGS step
    6     -39.1395316147      1.39e-04     00000  Normal BFGS step
    7     -39.1395317761      3.77e-05     00000  Normal BFGS step
    8     -39.1395317802      6.40e-06     00000  Normal BFGS step
    9     -39.1395317804      3.84e-07     00000  Normal BFGS step
   10     -39.1395317804      5.24e-08     00000  Normal BFGS step
   11     -39.1395317804      4.19e-09     00000 Convergence criterion met
Timing for Single Stationary Point: 560.00s (wall), 4356.99s (cpu)
Begin Timing: Stability
===================================================
Beginning Test for Internal Stability
===================================================
generating davidson guess vectors based on koopmans excitations
 Warning: Hessian-vector products not implemented
 Finite difference Hessian-vector products will be used.
computing hessian-vector products by finite difference
    1      4.79e-01     00000 Davidson Iteration
computing hessian-vector products by finite difference
    2      7.17e-02     00000 Davidson Iteration
computing hessian-vector products by finite difference
    3      2.88e-02     00000 Davidson Iteration
computing hessian-vector products by finite difference
    4      2.88e-03     00000 Davidson Iteration
computing hessian-vector products by finite difference
    5      4.39e-04     00000 Davidson Iteration
computing hessian-vector products by finite difference
    6      9.63e-05     00000 Davidson Iteration
computing hessian-vector products by finite difference
    7      6.57e-05     00000 Davidson Converged
converged_eigenvalues
   0.1233
   0.1168
Threshold for negative eigenvalues: -1.0e-05
solution was a local minimum (stable)
===================================================
End Test for Internal Stability
===================================================
Timing for Internal Stability: 1786.00s (wall), 13886.79s (cpu)
Our SCF solution is stable!
Timing for Total SCF: 4792.00s (wall), 37287.27s (cpu)
 Total energy in the final basis set =      -39.1395317804
<S^2> =          0.498176850
    ==================================================
              The end of Object-Oriented SCFman       
    ==================================================

 --------------------------------------------------------------

                    Orbital Energies (a.u.)
 --------------------------------------------------------------

 Alpha MOs
 -- Occupied --
-10.2496  -0.6718  -0.4100  -0.2749
 -- Virtual --
 -0.1185  -0.0014   0.0217   0.0233   0.0329   0.0434   0.0478   0.0775
  0.0872   0.0883   0.0895   0.0958   0.1004   0.1072   0.1121   0.1404
  0.1436   0.1472   0.1550   0.1573   0.1733   0.1812   0.1909   0.1977
  0.2043   0.2238   0.2359   0.2387   0.2446   0.2490   0.2524   0.2545
  0.2657   0.2711   0.2741   0.2759   0.2945   0.2972   0.3218   0.3350
  0.3397   0.3467   0.3514   0.3600   0.3634   0.3916   0.3920   0.3983
  0.4016   0.4089   0.4100   0.4156   0.4186   0.4290   0.4294   0.4354
  0.4472   0.4498   0.4631   0.4670   0.4758   0.4981   0.4993   0.5113
  0.5304   0.5350   0.5438   0.5517   0.5586   0.5688   0.5779   0.5881
  0.5908   0.5947   0.6070   0.6146   0.6460   0.6566   0.6671   0.6774
  0.6844   0.6856   0.7002   0.7064   0.7086   0.7105   0.7165   0.7173
  0.7321   0.7363   0.7474   0.7517   0.7618   0.7800   0.7862   0.8070
  0.8169   0.8204   0.8285   0.8310   0.8352   0.8369   0.8422   0.8450
  0.8503   0.8612   0.8757   0.8855   0.8863   0.9645   0.9907   0.9991
  1.0524   1.0896   1.1003   1.1153   1.1418   1.2344   1.2826   1.2849
  1.3056   1.3633   1.3727   1.4243   1.4857   1.4999   1.5094   1.5141
  1.5552   1.5623   1.5848   1.5914   1.6199   1.6802   1.7881   1.8573
  1.9878   2.0532   2.0569   2.0819   2.0880   2.1876   2.2061   2.2252
  2.3145   2.3287   2.3657   2.3871   2.5849   2.5970   2.7600   2.8581
  2.9644   2.9864   3.0278   3.0974   3.1793   3.3242   3.3543   3.3944
  3.4240   3.4526   3.5626   3.5733   3.5857   3.6304   3.6636   3.7088
  3.7500   3.8612   3.9115   3.9519   3.9993   4.0375   4.1074   4.3531
  4.4528   4.5000   4.5068   4.5078   4.5474   4.6681   4.6858   4.7022
  4.7438   4.7760   4.9272   4.9465   5.0609   5.0778   5.2138   5.2916
  5.3144   5.3556   5.3868   5.5126   5.5592   5.5949   5.8452   5.8536
  6.0757   6.1632   6.3649   6.4959   6.5249   6.6631   6.6810   6.7596
  7.5958   7.6832   8.5295   8.5468   8.5804   8.7041   8.7928   8.8696
  8.8771   8.9030   8.9958   9.0263   9.0648   9.0706   9.3462   9.5700
 10.3405  10.4898  10.5040  10.7188  10.7475  10.7721  10.8131  10.8193
 10.8358  10.8822  10.9007  10.9720  11.0605  11.1360  11.3806  11.4547
 11.6301  11.7031  11.7037  11.7468  11.7550  11.7824  11.9530  12.1320
 12.2286  12.2991  12.3617  12.4440  12.4815  12.5647  12.5923  12.6436
 12.6577  12.7269  13.0566  13.0689  13.1584  13.2160  13.2654  13.3603
 13.4096  13.7995  14.0114  14.4100  15.0273  15.0920  15.1151  15.4976
 15.8872  16.0249  16.1886  16.8158  16.8275  16.8286  16.8415  16.9874
 17.1503  17.2317  17.3549  18.0061  18.2755  18.4312  18.5956  18.7092
 19.7503  19.8693  19.9074  19.9530  20.2684  20.3109  21.0128  21.3461
 23.5143  23.5859  23.6033  23.8601  25.3060  25.4487  32.2392  32.3344
 32.4246  33.0228  33.8539  40.9539  40.9678  74.8848  91.1414  91.2006
 91.2071  91.3739  92.3300  92.4131

 Beta MOs
 -- Occupied --
-10.2496  -0.6718  -0.4100  -0.2749
 -- Virtual --
 -0.1185  -0.0014   0.0217   0.0233   0.0329   0.0434   0.0478   0.0775
  0.0872   0.0883   0.0895   0.0958   0.1004   0.1072   0.1121   0.1404
  0.1436   0.1472   0.1550   0.1573   0.1733   0.1812   0.1909   0.1977
  0.2043   0.2238   0.2359   0.2387   0.2446   0.2490   0.2524   0.2545
  0.2657   0.2711   0.2741   0.2759   0.2945   0.2972   0.3218   0.3350
  0.3397   0.3467   0.3514   0.3600   0.3634   0.3916   0.3920   0.3983
  0.4016   0.4089   0.4100   0.4156   0.4186   0.4290   0.4294   0.4354
  0.4472   0.4498   0.4631   0.4670   0.4758   0.4981   0.4993   0.5113
  0.5304   0.5350   0.5438   0.5517   0.5586   0.5688   0.5779   0.5881
  0.5908   0.5947   0.6070   0.6146   0.6460   0.6566   0.6671   0.6774
  0.6844   0.6856   0.7002   0.7064   0.7086   0.7105   0.7165   0.7173
  0.7321   0.7363   0.7474   0.7517   0.7618   0.7800   0.7862   0.8070
  0.8169   0.8204   0.8285   0.8310   0.8352   0.8369   0.8422   0.8450
  0.8503   0.8612   0.8757   0.8855   0.8863   0.9645   0.9907   0.9991
  1.0524   1.0896   1.1003   1.1153   1.1418   1.2344   1.2826   1.2849
  1.3056   1.3633   1.3727   1.4243   1.4857   1.4999   1.5094   1.5141
  1.5552   1.5623   1.5848   1.5914   1.6199   1.6802   1.7881   1.8573
  1.9878   2.0532   2.0569   2.0819   2.0880   2.1876   2.2061   2.2252
  2.3145   2.3287   2.3657   2.3871   2.5849   2.5970   2.7600   2.8581
  2.9644   2.9864   3.0278   3.0974   3.1793   3.3242   3.3543   3.3944
  3.4240   3.4526   3.5626   3.5733   3.5857   3.6304   3.6636   3.7088
  3.7500   3.8612   3.9115   3.9519   3.9993   4.0375   4.1074   4.3531
  4.4528   4.5000   4.5068   4.5078   4.5474   4.6681   4.6858   4.7022
  4.7438   4.7760   4.9272   4.9465   5.0609   5.0778   5.2138   5.2916
  5.3144   5.3556   5.3868   5.5126   5.5592   5.5949   5.8452   5.8536
  6.0757   6.1632   6.3649   6.4959   6.5249   6.6631   6.6810   6.7596
  7.5958   7.6832   8.5295   8.5468   8.5804   8.7041   8.7928   8.8696
  8.8771   8.9030   8.9958   9.0263   9.0648   9.0706   9.3462   9.5700
 10.3405  10.4898  10.5040  10.7188  10.7475  10.7721  10.8131  10.8193
 10.8358  10.8822  10.9007  10.9720  11.0605  11.1360  11.3806  11.4547
 11.6301  11.7031  11.7037  11.7468  11.7550  11.7824  11.9530  12.1320
 12.2286  12.2991  12.3617  12.4440  12.4815  12.5647  12.5923  12.6436
 12.6577  12.7269  13.0566  13.0689  13.1584  13.2160  13.2654  13.3603
 13.4096  13.7995  14.0114  14.4100  15.0273  15.0920  15.1151  15.4976
 15.8872  16.0249  16.1886  16.8158  16.8275  16.8286  16.8415  16.9874
 17.1503  17.2317  17.3549  18.0061  18.2755  18.4312  18.5956  18.7092
 19.7503  19.8693  19.9074  19.9530  20.2684  20.3109  21.0128  21.3461
 23.5143  23.5859  23.6033  23.8601  25.3060  25.4487  32.2392  32.3344
 32.4246  33.0228  33.8539  40.9539  40.9678  74.8848  91.1414  91.2006
 91.2071  91.3739  92.3300  92.4131
 --------------------------------------------------------------

          Ground-State Mulliken Net Atomic Charges

     Atom                 Charge (a.u.)    Spin (a.u.)
  --------------------------------------------------------
      1 C                    -0.255314      -0.000000
      2 H                     0.127657       0.000000
      3 H                     0.127657      -0.000000
  --------------------------------------------------------
  Sum of atomic charges =    -0.000000
  Sum of spin   charges =     0.000000

 -----------------------------------------------------------------
                    Cartesian Multipole Moments
 -----------------------------------------------------------------
    Charge (ESU x 10^10)
                -0.0000
    Dipole Moment (Debye)
         X       0.0000      Y      -0.0000      Z      -1.4361
       Tot       1.4361
    Quadrupole Moments (Debye-Ang)
        XX      -6.9304     XY      -0.0000     YY      -7.0424
        XZ      -0.0000     YZ       0.0000     ZZ      -8.8141
    Octopole Moments (Debye-Ang^2)
       XXX      -0.0000    XXY      -0.0000    XYY       0.0000
       YYY      -0.0000    XXZ      -0.6495    XYZ      -0.0000
       YYZ      -1.3004    XZZ       0.0000    YZZ      -0.0000
       ZZZ      -2.4970
    Hexadecapole Moments (Debye-Ang^3)
      XXXX      -7.4643   XXXY      -0.0000   XXYY      -3.9620
      XYYY      -0.0000   YYYY     -14.8130   XXXZ      -0.0000
      XXYZ      -0.0000   XYYZ      -0.0000   YYYZ       0.0000
      XXZZ      -4.0774   XYZZ      -0.0000   YYZZ      -4.9519
      XZZZ      -0.0000   YZZZ      -0.0000   ZZZZ     -16.7181
 -----------------------------------------------------------------
Archival summary:
1\1\n0101.mhg0\SP\ProcedureUnspecified\BasisUnspecified\12\yhljason\WedNov1100:18:292020WedNov1100:18:292020\0\\#,ProcedureUnspecified,BasisUnspecified,\\0,1\C\H,1,1.10664\H,1,1.10664,2,102.376\\\@

 Total job time:  4897.03s(wall), 38100.22s(cpu) 
 Wed Nov 11 00:18:29 2020

        *************************************************************
        *                                                           *
        *  Thank you very much for using Q-Chem.  Have a nice day.  *
        *                                                           *
        *************************************************************


