                  Welcome to Q-Chem
     A Quantum Leap Into The Future Of Chemistry


 Q-Chem 5.3 (devel), Q-Chem, Inc., Pleasanton, CA (2020)

 Yihan Shao,  Zhengting Gan,  E. Epifanovsky,  A. T. B. Gilbert,  M. Wormit,  
 J. Kussmann,  A. W. Lange,  A. Behn,  Jia Deng,  Xintian Feng,  D. Ghosh,  
 M. Goldey,  P. R. Horn,  L. D. Jacobson,  I. Kaliman,  T. Kus,  A. Landau,  
 Jie Liu,  E. I. Proynov,  R. M. Richard,  R. P. Steele,  E. J. Sundstrom,  
 H. L. Woodcock III,  P. M. Zimmerman,  D. Zuev,  B. Alam,  B. Albrecht,  
 E. Alguire,  S. A. Baeppler,  D. Barton,  Z. Benda,  Y. A. Bernard,  
 E. J. Berquist,  K. B. Bravaya,  H. Burton,  K. Carter-Fenk,  D. Casanova,  
 Chun-Min Chang,  Yunqing Chen,  A. Chien,  K. D. Closser,  M. P. Coons,  
 S. Coriani,  S. Dasgupta,  A. L. Dempwolff,  M. Diedenhofen,  Hainam Do,  
 R. G. Edgar,  Po-Tung Fang,  S. Faraji,  S. Fatehi,  Qingguo Feng,  
 J. Fosso-Tande,  J. Gayvert,  Qinghui Ge,  A. Ghysels,  G. Gidofalvi,  
 J. Gomes,  J. Gonthier,  A. Gunina,  D. Hait,  M. W. D. Hanson-Heine,  
 P. H. P. Harbach,  A. W. Hauser,  M. F. Herbst,  J. E. Herr,  
 E. G. Hohenstein,  Z. C. Holden,  Kerwin Hui,  B. C. Huynh,  T.-C. Jagau,  
 Hyunjun Ji,  B. Kaduk,  K. Khistyaev,  Jaehoon Kim,  P. Klunzinger,  K. Koh,  
 D. Kosenkov,  L. Koulias,  T. Kowalczyk,  C. M. Krauter,  A. Kunitsa,  
 Ka Un Lao,  A. Laurent,  K. V. Lawler,  Joonho Lee,  D. Lefrancois,  
 S. Lehtola,  D. S. Levine,  Yi-Pei Li,  You-Sheng Lin,  Fenglai Liu,  
 Kuan-Yu Liu,  E. Livshits,  M. Loipersberger,  A. Luenser,  P. Manohar,  
 E. Mansoor,  S. F. Manzer,  Shan-Ping Mao,  Yuezhi Mao,  N. Mardirossian,  
 A. V. Marenich,  T. Markovich,  L. A. Martinez-Martinez,  S. A. Maurer,  
 N. J. Mayhall,  S. C. McKenzie,  J.-M. Mewes,  P. Morgante,  A. F. Morrison,  
 J. W. Mullinax,  K. Nanda,  T. S. Nguyen-Beck,  R. Olivares-Amaya,  
 K. J. Oosterbaan,  J. A. Parkhill,  S. K. Paul,  F. Pavosevic,  Zheng Pei,  
 T. M. Perrine,  F. Plasser,  P. Pokhilko,  S. Prager,  A. Prociuk,  
 E. Ramos,  B. Rana,  D. R. Rehn,  F. Rob,  M. Scheurer,  M. Schneider,  
 N. Sergueev,  S. M. Sharada,  S. Sharma,  D. W. Small,  T. Stauch,  
 C. J. Stein,  T. Stein,  Yu-Chuan Su,  S. P. Veccham,  Zhen Tao,  
 A. J. W. Thom,  A. Tkatchenko,  T. Tsuchimochi,  N. M. Tubman,  L. Vogt,  
 M. L. Vidal,  O. Vydrov,  M. A. Watson,  J. Wenzel,  M. de Wergifosse,  
 T. A. Wesolowski,  A. White,  J. Witte,  A. Yamada,  Jun Yang,  K. Yao,  
 S. Yeganeh,  S. R. Yost,  Zhi-Qiang You,  A. Zech,  Igor Ying Zhang,  
 Xing Zhang,  Yan Zhao,  Ying Zhu,  B. R. Brooks,  G. K. L. Chan,  
 C. J. Cramer,  M. S. Gordon,  W. J. Hehre,  A. Klamt,  M. W. Schmidt,  
 C. D. Sherrill,  D. G. Truhlar,  A. Aspuru-Guzik,  R. Baer,  A. T. Bell,  
 N. A. Besley,  Jeng-Da Chai,  A. E. DePrince, III,  R. A. DiStasio Jr.,  
 A. Dreuw,  B. D. Dunietz,  T. R. Furlani,  Chao-Ping Hsu,  Yousung Jung,  
 Jing Kong,  D. S. Lambrecht,  WanZhen Liang,  C. Ochsenfeld,  
 V. A. Rassolov,  L. V. Slipchenko,  J. E. Subotnik,  T. Van Voorhis,  
 J. M. Herbert,  A. I. Krylov,  P. M. W. Gill,  M. Head-Gordon

 Contributors to earlier versions of Q-Chem not listed above: 
 R. D. Adamson,  B. Austin,  J. Baker,  G. J. O. Beran,  K. Brandhorst,  
 S. T. Brown,  E. F. C. Byrd,  A. K. Chakraborty,  C.-L. Cheng,  
 Siu Hung Chien,  D. M. Chipman,  D. L. Crittenden,  H. Dachsel,  
 R. J. Doerksen,  A. D. Dutoi,  L. Fusti-Molnar,  W. A. Goddard III,  
 A. Golubeva-Zadorozhnaya,  S. R. Gwaltney,  G. Hawkins,  A. Heyden,  
 S. Hirata,  G. Kedziora,  F. J. Keil,  C. Kelley,  Jihan Kim,  R. A. King,  
 R. Z. Khaliullin,  P. P. Korambath,  W. Kurlancheek,  A. M. Lee,  M. S. Lee,  
 S. V. Levchenko,  Ching Yeh Lin,  D. Liotard,  R. C. Lochan,  I. Lotan,  
 P. E. Maslen,  N. Nair,  D. P. O'Neill,  D. Neuhauser,  E. Neuscamman,  
 C. M. Oana,  R. Olson,  B. Peters,  R. Peverati,  P. A. Pieniazek,  
 Y. M. Rhee,  J. Ritchie,  M. A. Rohrdanz,  E. Rosta,  N. J. Russ,  
 H. F. Schaefer III,  N. E. Schultz,  N. Shenvi,  A. C. Simmonett,  A. Sodt,  
 D. Stuck,  K. S. Thanthiriwatte,  V. Vanovschi,  Tao Wang,  A. Warshel,  
 C. F. Williams,  Q. Wu,  X. Xu,  W. Zhang

 Please cite Q-Chem as follows:
 Y. Shao et al., Mol. Phys. 113, 184-215 (2015)
 DOI: 10.1080/00268976.2014.952696

 Q-Chem 5.3.0 for Intel X86 EM64T Linux

 Parts of Q-Chem use Armadillo 9.800.1 (Horizon Scraper).
 http://arma.sourceforge.net/

 Q-Chem begins on Wed Nov 11 00:12:41 2020  

n0031.mhg0
Host: 0

     Scratch files written to /local/scratch/users/yhljason/CH3F_MN15-L_aug-pc-4.inp20201110225714//
Processing $rem in /clusterfs/mhg/diptarka/qchem_transmom//config/preferences:
Processing $rem in /global/home/users/yhljason/.qchemrc:

Checking the input file for inconsistencies... 	...done.

--------------------------------------------------------------
User input:
--------------------------------------------------------------
$molecule
0 1
C1      0.0000  0.0000  -0.6244
F2      0.0000  0.0000  0.7402
H3      0.0000  1.0245  -0.9718
H4      0.8873  -0.5123 -0.9718
H5      -0.8873 -0.5123 -0.9718
$end

$rem
jobtype sp
method MN15-L
xc_grid 000099000590
basis aug-pc-4
max_scf_cycles 200
thresh 14
scf_convergence 8
scf_algorithm gdm
symmetry false
sym_ignore true
unrestricted True
gen_scfman true
internal_stability_iter 15
internal_stability_davidson_iter 200
mem_total 64000
mem_static 1500
n_frozen_core 0
$end



--------------------------------------------------------------
 ----------------------------------------------------------------
             Standard Nuclear Orientation (Angstroms)
    I     Atom           X                Y                Z
 ----------------------------------------------------------------
    1      C       0.0000000000     0.0000000000    -0.6244000000
    2      F       0.0000000000     0.0000000000     0.7402000000
    3      H       0.0000000000     1.0245000000    -0.9718000000
    4      H       0.8873000000    -0.5123000000    -0.9718000000
    5      H      -0.8873000000    -0.5123000000    -0.9718000000
 ----------------------------------------------------------------
 Nuclear Repulsion Energy =          37.80103684 hartrees
 There are        9 alpha and        9 beta electrons
 Requested basis set is aug-pc-4
 There are 138 shells and 554 basis functions

 Total QAlloc Memory Limit  64000 MB
 Mega-Array Size      1467 MB
 MEM_STATIC part      1500 MB

                       Distance Matrix (Angstroms)
             C (  1)   F (  2)   H (  3)   H (  4)
   F (  2)  1.364600
   H (  3)  1.081798  1.995130
   H (  4)  1.081868  1.995168  1.774558
   H (  5)  1.081868  1.995168  1.774558  1.774600

 A cutoff of  1.0D-14 yielded   9461 shell pairs
 There are    154269 function pairs (    278725 Cartesian)
 Smallest overlap matrix eigenvalue = 1.66E-07
 Linear dependence detected in AO basis
 Tighter screening thresholds may be required for diffuse basis sets
 Use S2THRESH > 14 and THRESH = 14 in case of SCF convergence issues
 Number of orthogonalized atomic orbitals = 549
 Maximum deviation from orthogonality = 3.765E-10

 Scale SEOQF with 1.000000e-01/1.000000e-01/1.000000e-01

 Standard Electronic Orientation quadrupole field applied
 Nucleus-field energy     =    -0.0000000009 hartrees
 Guess from superposition of atomic densities
 Warning:  Energy on first SCF cycle will be non-variational
 SAD guess density has 18.000000 electrons

 -----------------------------------------------------------------------
  General SCF calculation program by
  Eric Jon Sundstrom, Paul Horn, Yuezhi Mao, Dmitri Zuev, Alec White,
  David Stuck, Shaama M.S., Shane Yost, Joonho Lee, David Small,
  Daniel Levine, Susi Lehtola, Hugh Burton, Evgeny Epifanovsky,
  Bang C. Huynh
 -----------------------------------------------------------------------
 Exchange:  MN15-L      Correlation:  MN15-L
 Using Euler-Maclaurin-Lebedev (99,590) quadrature formula
Running Object-Oriented UKS (UHF)
performing a single roothaan step with Fock from read density so that orbitals are available to all algorithms
energy of the guess density (C=0) -139.744707569809
We will preform up to 15 macro iterations over saddle points until a stable solution is found
Energy prior to optimization (guess energy) = -139.683316031121
Begin Timing: Total SCF Calculation
Begin Timing: SCF Single Stationary Point Calculation
begin iterations for algorithm: GDM          
the SCF tolerance is set to 1.00e-08
    1    -139.6833160311      2.70e-02     00000  Normal BFGS step
    2    -139.6872373572      3.18e-02     00000  Normal BFGS step
    3    -139.7023916482      7.99e-03     00000  Normal BFGS step
    4    -139.7023882585      8.38e-03     00000  Normal BFGS step
    5    -139.7028177232      8.30e-04     00000  Normal BFGS step
    6    -139.7028243165      4.35e-04     00000  Normal BFGS step
    7    -139.7028276295      1.50e-05     00000  Normal BFGS step
    8    -139.7028276369      4.51e-06     00000  Normal BFGS step
    9    -139.7028276375      5.22e-07     00000  Normal BFGS step
   10    -139.7028276375      5.29e-08     00000  Normal BFGS step
   11    -139.7028276375      1.94e-08     00000  Normal BFGS step
   12    -139.7028276375      1.97e-08     00000  Normal BFGS step
   13    -139.7028276375      6.16e-09     00000 Convergence criterion met
Timing for Single Stationary Point: 5435.00s (wall), 42873.00s (cpu)
Begin Timing: Stability
===================================================
Beginning Test for Internal Stability
===================================================
generating davidson guess vectors based on koopmans excitations
 Warning: Hessian-vector products not implemented
 Finite difference Hessian-vector products will be used.
computing hessian-vector products by finite difference
    1      5.23e-01     00000 Davidson Iteration
computing hessian-vector products by finite difference
    2      1.66e-01     00000 Davidson Iteration
computing hessian-vector products by finite difference
    3      2.77e-02     00000 Davidson Iteration
computing hessian-vector products by finite difference
    4      1.21e-02     00000 Davidson Iteration
computing hessian-vector products by finite difference
    5      5.02e-03     00000 Davidson Iteration
computing hessian-vector products by finite difference
    6      2.71e-03     00000 Davidson Iteration
computing hessian-vector products by finite difference
    7      2.57e-03     00000 Davidson Iteration
computing hessian-vector products by finite difference
    8      6.51e-04     00000 Davidson Iteration
computing hessian-vector products by finite difference
    9      4.71e-04     00000 Davidson Iteration
computing hessian-vector products by finite difference
   10      9.80e-05     00000 Davidson Iteration
computing hessian-vector products by finite difference
   11      3.32e-04     00000 Davidson Iteration
computing hessian-vector products by finite difference
   12      3.40e-05     00000 Davidson Converged
converged_eigenvalues
   0.5876
   0.6031
Threshold for negative eigenvalues: -1.0e-05
solution was a local minimum (stable)
===================================================
End Test for Internal Stability
===================================================
Timing for Internal Stability: 25000.00s (wall), 197023.26s (cpu)
Our SCF solution is stable!
Timing for Total SCF: 30435.00s (wall), 239896.58s (cpu)
 Total energy in the final basis set =     -139.7028276375
<S^2> =         -0.000000000
    ==================================================
              The end of Object-Oriented SCFman       
    ==================================================

 --------------------------------------------------------------

                    Orbital Energies (a.u.)
 --------------------------------------------------------------

 Alpha MOs
 -- Occupied --
-24.5936 -10.2302  -1.2302  -0.6944  -0.4717  -0.4643  -0.4643  -0.3205
 -0.3205
 -- Virtual --
 -0.0160   0.0049   0.0095   0.0095   0.0345   0.0345   0.0386   0.0523
  0.0560   0.0564   0.0564   0.0701   0.0701   0.0919   0.0919   0.1069
  0.1078   0.1078   0.1139   0.1209   0.1217   0.1217   0.1250   0.1433
  0.1561   0.1561   0.1649   0.1814   0.1814   0.1947   0.1947   0.2064
  0.2124   0.2170   0.2170   0.2252   0.2252   0.2291   0.2291   0.2360
  0.2425   0.2574   0.2574   0.2604   0.2716   0.2862   0.2862   0.2944
  0.2980   0.3059   0.3059   0.3283   0.3331   0.3331   0.3536   0.3536
  0.3566   0.3592   0.3592   0.3709   0.3709   0.3756   0.3756   0.3760
  0.3871   0.4102   0.4102   0.4239   0.4361   0.4395   0.4426   0.4426
  0.4535   0.4535   0.4628   0.4628   0.4666   0.4719   0.4784   0.4784
  0.4846   0.4923   0.4923   0.4938   0.5056   0.5172   0.5219   0.5219
  0.5234   0.5276   0.5276   0.5495   0.5506   0.5506   0.5840   0.5840
  0.5934   0.6057   0.6057   0.6090   0.6589   0.6589   0.6888   0.6888
  0.6913   0.6923   0.6942   0.6942   0.7094   0.7094   0.7325   0.7370
  0.7370   0.7530   0.7530   0.7602   0.7603   0.7605   0.7605   0.7707
  0.7843   0.7843   0.7870   0.7870   0.7898   0.7898   0.8028   0.8028
  0.8219   0.8219   0.8245   0.8564   0.8578   0.8578   0.8615   0.8702
  0.8702   0.8791   0.8909   0.8909   0.8919   0.9097   0.9139   0.9165
  0.9165   0.9248   0.9388   0.9388   0.9465   0.9548   0.9736   0.9736
  0.9806   0.9806   1.0080   1.0080   1.0150   1.1164   1.1164   1.1451
  1.1483   1.1483   1.1724   1.1927   1.1927   1.2107   1.2262   1.2496
  1.2496   1.2679   1.2679   1.2748   1.2941   1.2941   1.3112   1.3112
  1.3161   1.3992   1.3992   1.4571   1.4571   1.4642   1.4853   1.4855
  1.4855   1.4904   1.5517   1.5517   1.5693   1.5938   1.5938   1.6052
  1.6314   1.6314   1.6572   1.6599   1.6669   1.6669   1.7225   1.7225
  1.7841   1.7841   1.8211   1.8273   1.8499   1.8499   1.9259   1.9259
  1.9574   1.9728   1.9728   1.9987   2.0190   2.0910   2.1167   2.1167
  2.2245   2.2245   2.3267   2.3948   2.3948   2.4036   2.4036   2.4088
  2.4142   2.5241   2.5241   2.5970   2.6058   2.6897   2.6897   2.7265
  2.7479   2.7479   2.8243   2.8244   2.8688   2.9039   2.9271   2.9272
  2.9462   3.0175   3.1725   3.1726   3.1726   3.2533   3.2533   3.3515
  3.3515   3.5406   3.5558   3.5558   3.6641   3.6688   3.6688   3.9062
  3.9190   3.9513   3.9513   4.0410   4.0410   4.1275   4.1489   4.1489
  4.2210   4.2861   4.3199   4.3661   4.3661   4.3972   4.3972   4.4825
  4.4825   4.5595   4.5825   4.6213   4.6213   4.6716   4.8016   4.8016
  4.9174   5.0101   5.0101   5.0476   5.0476   5.0729   5.0729   5.1211
  5.3601   5.3794   5.3794   5.4050   5.5617   5.5618   5.6834   5.6834
  5.7453   5.7815   5.8807   5.8807   5.9384   5.9531   5.9568   5.9569
  6.0484   6.0638   6.0638   6.1979   6.1980   6.2260   6.3738   6.3738
  6.4570   6.5138   6.5138   6.5719   6.6944   6.6944   6.7001   6.7316
  6.8333   6.8818   6.9000   6.9000   7.1643   7.1644   7.3744   7.4674
  7.4675   7.5306   7.5603   7.5603   7.6572   7.6573   7.6744   7.8823
  7.8823   7.9966   7.9966   8.0302   8.4031   8.4723   8.4844   8.4844
  8.5834   8.8600   8.8600   9.0465   9.4291   9.4694   9.4694   9.5981
  9.5981   9.9578  10.1265  10.1265  10.1719  10.1719  10.2204  10.2859
 10.2859  10.3452  10.3951  10.5174  10.5174  10.5872  10.5873  10.8372
 10.9718  11.0715  11.0715  11.0855  11.8720  11.8720  11.9495  12.0176
 12.0176  12.0340  12.1792  12.1793  12.2462  12.4203  12.4204  12.5787
 12.6103  12.6104  12.6320  13.0168  13.0170  13.1880  13.2534  13.2534
 13.2917  13.2918  13.3058  13.4050  13.4050  13.4948  13.4949  13.5056
 13.7600  13.7713  13.7714  13.8963  13.9460  13.9460  13.9680  13.9680
 14.0531  14.0531  14.2598  14.3071  14.3144  14.3144  14.3743  14.3743
 14.4228  14.5066  14.5287  14.5287  14.5617  14.7123  14.7489  14.7490
 14.8081  14.8082  14.8742  14.8742  14.9155  15.3364  15.4353  15.4354
 15.5341  15.5343  15.6062  15.8109  15.9034  15.9034  16.2085  16.2531
 16.2532  16.3193  16.3206  16.5126  16.5584  16.5585  16.8892  16.9180
 16.9181  17.1135  17.2557  17.2560  17.4391  17.6005  17.6008  18.2947
 18.2948  18.3049  19.0186  19.2564  19.2564  19.2839  19.3189  19.3190
 19.3338  19.4588  19.5323  19.5324  19.6584  19.6585  19.9849  20.5745
 20.6111  20.6114  20.9903  20.9905  21.1677  21.6936  21.7048  21.7050
 21.7732  21.8286  21.8287  21.9279  21.9280  22.1678  22.2240  22.3320
 22.3324  22.7438  22.7438  22.9829  23.1727  23.1731  23.2107  23.9616
 23.9616  24.8012  25.5449  25.8892  25.8892  26.2768  26.3917  26.3917
 27.4058  27.4721  27.4726  32.2280  32.2281  32.7116  32.7116  33.3495
 34.1628  34.1628  35.5152  35.5154  35.6002  41.6158  41.6158  42.1435
 43.2187  43.2187  43.9341  46.0193  76.7571  92.2979  92.3424  92.3427
 93.3841  93.6379  93.6380  93.8614  93.9520  93.9522  94.3118  94.3119
 94.6154  94.6154  95.2655 197.2726

 Beta MOs
 -- Occupied --
-24.5936 -10.2302  -1.2302  -0.6944  -0.4717  -0.4643  -0.4643  -0.3205
 -0.3205
 -- Virtual --
 -0.0160   0.0049   0.0095   0.0095   0.0345   0.0345   0.0386   0.0523
  0.0560   0.0564   0.0564   0.0701   0.0701   0.0919   0.0919   0.1069
  0.1078   0.1078   0.1139   0.1209   0.1217   0.1217   0.1250   0.1433
  0.1561   0.1561   0.1649   0.1814   0.1814   0.1947   0.1947   0.2064
  0.2124   0.2170   0.2170   0.2252   0.2252   0.2291   0.2291   0.2360
  0.2425   0.2574   0.2574   0.2604   0.2716   0.2862   0.2862   0.2944
  0.2980   0.3059   0.3059   0.3283   0.3331   0.3331   0.3536   0.3536
  0.3566   0.3592   0.3592   0.3709   0.3709   0.3756   0.3756   0.3760
  0.3871   0.4102   0.4102   0.4239   0.4361   0.4395   0.4426   0.4426
  0.4535   0.4535   0.4628   0.4628   0.4666   0.4719   0.4784   0.4784
  0.4846   0.4923   0.4923   0.4938   0.5056   0.5172   0.5219   0.5219
  0.5234   0.5276   0.5276   0.5495   0.5506   0.5506   0.5840   0.5840
  0.5934   0.6057   0.6057   0.6090   0.6589   0.6589   0.6888   0.6888
  0.6913   0.6923   0.6942   0.6942   0.7094   0.7094   0.7325   0.7370
  0.7370   0.7530   0.7530   0.7602   0.7603   0.7605   0.7605   0.7707
  0.7843   0.7843   0.7870   0.7870   0.7898   0.7898   0.8028   0.8028
  0.8219   0.8219   0.8245   0.8564   0.8578   0.8578   0.8615   0.8702
  0.8702   0.8791   0.8909   0.8909   0.8919   0.9097   0.9139   0.9165
  0.9165   0.9248   0.9388   0.9388   0.9465   0.9548   0.9736   0.9736
  0.9806   0.9806   1.0080   1.0080   1.0150   1.1164   1.1164   1.1451
  1.1483   1.1483   1.1724   1.1927   1.1927   1.2107   1.2262   1.2496
  1.2496   1.2679   1.2679   1.2748   1.2941   1.2941   1.3112   1.3112
  1.3161   1.3992   1.3992   1.4571   1.4571   1.4642   1.4853   1.4855
  1.4855   1.4904   1.5517   1.5517   1.5693   1.5938   1.5938   1.6052
  1.6314   1.6314   1.6572   1.6599   1.6669   1.6669   1.7225   1.7225
  1.7841   1.7841   1.8211   1.8273   1.8499   1.8499   1.9259   1.9259
  1.9574   1.9728   1.9728   1.9987   2.0190   2.0910   2.1167   2.1167
  2.2245   2.2245   2.3267   2.3948   2.3948   2.4036   2.4036   2.4088
  2.4142   2.5241   2.5241   2.5970   2.6058   2.6897   2.6897   2.7265
  2.7479   2.7479   2.8243   2.8244   2.8688   2.9039   2.9271   2.9272
  2.9462   3.0175   3.1725   3.1726   3.1726   3.2533   3.2533   3.3515
  3.3515   3.5406   3.5558   3.5558   3.6641   3.6688   3.6688   3.9062
  3.9190   3.9513   3.9513   4.0410   4.0410   4.1275   4.1489   4.1489
  4.2210   4.2861   4.3199   4.3661   4.3661   4.3972   4.3972   4.4825
  4.4825   4.5595   4.5825   4.6213   4.6213   4.6716   4.8016   4.8016
  4.9174   5.0101   5.0101   5.0476   5.0476   5.0729   5.0729   5.1211
  5.3601   5.3794   5.3794   5.4050   5.5617   5.5618   5.6834   5.6834
  5.7453   5.7815   5.8807   5.8807   5.9384   5.9531   5.9568   5.9569
  6.0484   6.0638   6.0638   6.1979   6.1980   6.2260   6.3738   6.3738
  6.4570   6.5138   6.5138   6.5719   6.6944   6.6944   6.7001   6.7316
  6.8333   6.8818   6.9000   6.9000   7.1643   7.1644   7.3744   7.4674
  7.4675   7.5306   7.5603   7.5603   7.6572   7.6573   7.6744   7.8823
  7.8823   7.9966   7.9966   8.0302   8.4031   8.4723   8.4844   8.4844
  8.5834   8.8600   8.8600   9.0465   9.4291   9.4694   9.4694   9.5981
  9.5981   9.9578  10.1265  10.1265  10.1719  10.1719  10.2204  10.2859
 10.2859  10.3452  10.3951  10.5174  10.5174  10.5872  10.5873  10.8372
 10.9718  11.0715  11.0715  11.0855  11.8720  11.8720  11.9495  12.0176
 12.0176  12.0340  12.1792  12.1793  12.2462  12.4203  12.4204  12.5787
 12.6103  12.6104  12.6320  13.0168  13.0170  13.1880  13.2534  13.2534
 13.2917  13.2918  13.3058  13.4050  13.4050  13.4948  13.4949  13.5056
 13.7600  13.7713  13.7714  13.8963  13.9460  13.9460  13.9680  13.9680
 14.0531  14.0531  14.2598  14.3071  14.3144  14.3144  14.3743  14.3743
 14.4228  14.5066  14.5287  14.5287  14.5617  14.7123  14.7489  14.7490
 14.8081  14.8082  14.8742  14.8742  14.9155  15.3364  15.4353  15.4354
 15.5341  15.5343  15.6062  15.8109  15.9034  15.9034  16.2085  16.2531
 16.2532  16.3193  16.3206  16.5126  16.5584  16.5585  16.8892  16.9180
 16.9181  17.1135  17.2557  17.2560  17.4391  17.6005  17.6008  18.2947
 18.2948  18.3049  19.0186  19.2564  19.2564  19.2839  19.3189  19.3190
 19.3338  19.4588  19.5323  19.5324  19.6584  19.6585  19.9849  20.5745
 20.6111  20.6114  20.9903  20.9905  21.1677  21.6936  21.7048  21.7050
 21.7732  21.8286  21.8287  21.9279  21.9280  22.1678  22.2240  22.3320
 22.3324  22.7438  22.7438  22.9829  23.1727  23.1731  23.2107  23.9616
 23.9616  24.8012  25.5449  25.8892  25.8892  26.2768  26.3917  26.3917
 27.4058  27.4721  27.4726  32.2280  32.2281  32.7116  32.7116  33.3495
 34.1628  34.1628  35.5152  35.5154  35.6002  41.6158  41.6158  42.1435
 43.2187  43.2187  43.9341  46.0193  76.7571  92.2979  92.3424  92.3427
 93.3841  93.6379  93.6380  93.8614  93.9520  93.9522  94.3118  94.3119
 94.6154  94.6154  95.2655 197.2726
 --------------------------------------------------------------

          Ground-State Mulliken Net Atomic Charges

     Atom                 Charge (a.u.)    Spin (a.u.)
  --------------------------------------------------------
      1 C                    -0.403308       0.000000
      2 F                    -0.914057       0.000000
      3 H                     0.439095       0.000000
      4 H                     0.439135       0.000000
      5 H                     0.439135       0.000000
  --------------------------------------------------------
  Sum of atomic charges =    -0.000000
  Sum of spin   charges =     0.000000

 -----------------------------------------------------------------
                    Cartesian Multipole Moments
 -----------------------------------------------------------------
    Charge (ESU x 10^10)
                 0.0000
    Dipole Moment (Debye)
         X       0.0000      Y       0.0000      Z      -1.6042
       Tot       1.6042
    Quadrupole Moments (Debye-Ang)
        XX     -12.0901     XY      -0.0000     YY     -12.0900
        XZ       0.0000     YZ      -0.0001     ZZ     -12.8729
    Octopole Moments (Debye-Ang^2)
       XXX       0.0000    XXY      -0.5452    XYY       0.0000
       YYY       0.5457    XXZ       1.5000    XYZ       0.0000
       YYZ       1.4999    XZZ       0.0000    YZZ       0.0002
       ZZZ       4.9935
    Hexadecapole Moments (Debye-Ang^3)
      XXXX     -17.6086   XXXY      -0.0000   XXYY      -5.8693
      XYYY      -0.0000   YYYY     -17.6077   XXXZ       0.0000
      XXYZ       0.5680   XYYZ       0.0000   YYYZ      -0.5686
      XXZZ     -11.8299   XYZZ      -0.0000   YYZZ     -11.8296
      XZZZ      -0.0000   YZZZ      -0.0006   ZZZZ     -52.1325
 -----------------------------------------------------------------
Archival summary:
1\1\n0031.mhg0\SP\ProcedureUnspecified\BasisUnspecified\113\yhljason\WedNov1108:54:032020WedNov1108:54:032020\0\\#,ProcedureUnspecified,BasisUnspecified,\\0,1\C\H,1,1.0818\H,1,1.08187,2,110.202\H,1,1.08187,2,110.202,3,121.834,0\F,1,1.3646,2,108.731,3,-119.083,0\\\@

 Total job time:  31281.63s(wall), 246563.08s(cpu) 
 Wed Nov 11 08:54:03 2020

        *************************************************************
        *                                                           *
        *  Thank you very much for using Q-Chem.  Have a nice day.  *
        *                                                           *
        *************************************************************


