                  Welcome to Q-Chem
     A Quantum Leap Into The Future Of Chemistry


 Q-Chem 5.3 (devel), Q-Chem, Inc., Pleasanton, CA (2020)

 Yihan Shao,  Zhengting Gan,  E. Epifanovsky,  A. T. B. Gilbert,  M. Wormit,  
 J. Kussmann,  A. W. Lange,  A. Behn,  Jia Deng,  Xintian Feng,  D. Ghosh,  
 M. Goldey,  P. R. Horn,  L. D. Jacobson,  I. Kaliman,  T. Kus,  A. Landau,  
 Jie Liu,  E. I. Proynov,  R. M. Richard,  R. P. Steele,  E. J. Sundstrom,  
 H. L. Woodcock III,  P. M. Zimmerman,  D. Zuev,  B. Alam,  B. Albrecht,  
 E. Alguire,  S. A. Baeppler,  D. Barton,  Z. Benda,  Y. A. Bernard,  
 E. J. Berquist,  K. B. Bravaya,  H. Burton,  K. Carter-Fenk,  D. Casanova,  
 Chun-Min Chang,  Yunqing Chen,  A. Chien,  K. D. Closser,  M. P. Coons,  
 S. Coriani,  S. Dasgupta,  A. L. Dempwolff,  M. Diedenhofen,  Hainam Do,  
 R. G. Edgar,  Po-Tung Fang,  S. Faraji,  S. Fatehi,  Qingguo Feng,  
 J. Fosso-Tande,  J. Gayvert,  Qinghui Ge,  A. Ghysels,  G. Gidofalvi,  
 J. Gomes,  J. Gonthier,  A. Gunina,  D. Hait,  M. W. D. Hanson-Heine,  
 P. H. P. Harbach,  A. W. Hauser,  M. F. Herbst,  J. E. Herr,  
 E. G. Hohenstein,  Z. C. Holden,  Kerwin Hui,  B. C. Huynh,  T.-C. Jagau,  
 Hyunjun Ji,  B. Kaduk,  K. Khistyaev,  Jaehoon Kim,  P. Klunzinger,  K. Koh,  
 D. Kosenkov,  L. Koulias,  T. Kowalczyk,  C. M. Krauter,  A. Kunitsa,  
 Ka Un Lao,  A. Laurent,  K. V. Lawler,  Joonho Lee,  D. Lefrancois,  
 S. Lehtola,  D. S. Levine,  Yi-Pei Li,  You-Sheng Lin,  Fenglai Liu,  
 Kuan-Yu Liu,  E. Livshits,  M. Loipersberger,  A. Luenser,  P. Manohar,  
 E. Mansoor,  S. F. Manzer,  Shan-Ping Mao,  Yuezhi Mao,  N. Mardirossian,  
 A. V. Marenich,  T. Markovich,  L. A. Martinez-Martinez,  S. A. Maurer,  
 N. J. Mayhall,  S. C. McKenzie,  J.-M. Mewes,  P. Morgante,  A. F. Morrison,  
 J. W. Mullinax,  K. Nanda,  T. S. Nguyen-Beck,  R. Olivares-Amaya,  
 K. J. Oosterbaan,  J. A. Parkhill,  S. K. Paul,  F. Pavosevic,  Zheng Pei,  
 T. M. Perrine,  F. Plasser,  P. Pokhilko,  S. Prager,  A. Prociuk,  
 E. Ramos,  B. Rana,  D. R. Rehn,  F. Rob,  M. Scheurer,  M. Schneider,  
 N. Sergueev,  S. M. Sharada,  S. Sharma,  D. W. Small,  T. Stauch,  
 C. J. Stein,  T. Stein,  Yu-Chuan Su,  S. P. Veccham,  Zhen Tao,  
 A. J. W. Thom,  A. Tkatchenko,  T. Tsuchimochi,  N. M. Tubman,  L. Vogt,  
 M. L. Vidal,  O. Vydrov,  M. A. Watson,  J. Wenzel,  M. de Wergifosse,  
 T. A. Wesolowski,  A. White,  J. Witte,  A. Yamada,  Jun Yang,  K. Yao,  
 S. Yeganeh,  S. R. Yost,  Zhi-Qiang You,  A. Zech,  Igor Ying Zhang,  
 Xing Zhang,  Yan Zhao,  Ying Zhu,  B. R. Brooks,  G. K. L. Chan,  
 C. J. Cramer,  M. S. Gordon,  W. J. Hehre,  A. Klamt,  M. W. Schmidt,  
 C. D. Sherrill,  D. G. Truhlar,  A. Aspuru-Guzik,  R. Baer,  A. T. Bell,  
 N. A. Besley,  Jeng-Da Chai,  A. E. DePrince, III,  R. A. DiStasio Jr.,  
 A. Dreuw,  B. D. Dunietz,  T. R. Furlani,  Chao-Ping Hsu,  Yousung Jung,  
 Jing Kong,  D. S. Lambrecht,  WanZhen Liang,  C. Ochsenfeld,  
 V. A. Rassolov,  L. V. Slipchenko,  J. E. Subotnik,  T. Van Voorhis,  
 J. M. Herbert,  A. I. Krylov,  P. M. W. Gill,  M. Head-Gordon

 Contributors to earlier versions of Q-Chem not listed above: 
 R. D. Adamson,  B. Austin,  J. Baker,  G. J. O. Beran,  K. Brandhorst,  
 S. T. Brown,  E. F. C. Byrd,  A. K. Chakraborty,  C.-L. Cheng,  
 Siu Hung Chien,  D. M. Chipman,  D. L. Crittenden,  H. Dachsel,  
 R. J. Doerksen,  A. D. Dutoi,  L. Fusti-Molnar,  W. A. Goddard III,  
 A. Golubeva-Zadorozhnaya,  S. R. Gwaltney,  G. Hawkins,  A. Heyden,  
 S. Hirata,  G. Kedziora,  F. J. Keil,  C. Kelley,  Jihan Kim,  R. A. King,  
 R. Z. Khaliullin,  P. P. Korambath,  W. Kurlancheek,  A. M. Lee,  M. S. Lee,  
 S. V. Levchenko,  Ching Yeh Lin,  D. Liotard,  R. C. Lochan,  I. Lotan,  
 P. E. Maslen,  N. Nair,  D. P. O'Neill,  D. Neuhauser,  E. Neuscamman,  
 C. M. Oana,  R. Olson,  B. Peters,  R. Peverati,  P. A. Pieniazek,  
 Y. M. Rhee,  J. Ritchie,  M. A. Rohrdanz,  E. Rosta,  N. J. Russ,  
 H. F. Schaefer III,  N. E. Schultz,  N. Shenvi,  A. C. Simmonett,  A. Sodt,  
 D. Stuck,  K. S. Thanthiriwatte,  V. Vanovschi,  Tao Wang,  A. Warshel,  
 C. F. Williams,  Q. Wu,  X. Xu,  W. Zhang

 Please cite Q-Chem as follows:
 Y. Shao et al., Mol. Phys. 113, 184-215 (2015)
 DOI: 10.1080/00268976.2014.952696

 Q-Chem 5.3.0 for Intel X86 EM64T Linux

 Parts of Q-Chem use Armadillo 9.800.1 (Horizon Scraper).
 http://arma.sourceforge.net/

 Q-Chem begins on Wed Nov 11 00:01:49 2020  

n0075.mhg0
Host: 0

     Scratch files written to /local/scratch/users/yhljason/CH3F_HFLYP_aug-pc-4.inp20201110225710//
Processing $rem in /clusterfs/mhg/diptarka/qchem_transmom//config/preferences:
Processing $rem in /global/home/users/yhljason/.qchemrc:

Checking the input file for inconsistencies... 	...done.

--------------------------------------------------------------
User input:
--------------------------------------------------------------
$molecule
0 1
C1      0.0000  0.0000  -0.6244
F2      0.0000  0.0000  0.7402
H3      0.0000  1.0245  -0.9718
H4      0.8873  -0.5123 -0.9718
H5      -0.8873 -0.5123 -0.9718
$end

$rem
jobtype sp
method HFLYP
xc_grid 000099000590
basis aug-pc-4
max_scf_cycles 200
thresh 14
scf_convergence 8
scf_algorithm gdm
symmetry false
sym_ignore true
unrestricted True
gen_scfman true
internal_stability_iter 15
internal_stability_davidson_iter 200
mem_total 64000
mem_static 1500
n_frozen_core 0
$end



--------------------------------------------------------------
 ----------------------------------------------------------------
             Standard Nuclear Orientation (Angstroms)
    I     Atom           X                Y                Z
 ----------------------------------------------------------------
    1      C       0.0000000000     0.0000000000    -0.6244000000
    2      F       0.0000000000     0.0000000000     0.7402000000
    3      H       0.0000000000     1.0245000000    -0.9718000000
    4      H       0.8873000000    -0.5123000000    -0.9718000000
    5      H      -0.8873000000    -0.5123000000    -0.9718000000
 ----------------------------------------------------------------
 Nuclear Repulsion Energy =          37.80103684 hartrees
 There are        9 alpha and        9 beta electrons
 Requested basis set is aug-pc-4
 There are 138 shells and 554 basis functions

 Total QAlloc Memory Limit  64000 MB
 Mega-Array Size      1467 MB
 MEM_STATIC part      1500 MB

                       Distance Matrix (Angstroms)
             C (  1)   F (  2)   H (  3)   H (  4)
   F (  2)  1.364600
   H (  3)  1.081798  1.995130
   H (  4)  1.081868  1.995168  1.774558
   H (  5)  1.081868  1.995168  1.774558  1.774600

 A cutoff of  1.0D-14 yielded   9461 shell pairs
 There are    154269 function pairs (    278725 Cartesian)
 Smallest overlap matrix eigenvalue = 1.66E-07
 Linear dependence detected in AO basis
 Tighter screening thresholds may be required for diffuse basis sets
 Use S2THRESH > 14 and THRESH = 14 in case of SCF convergence issues
 Number of orthogonalized atomic orbitals = 549
 Maximum deviation from orthogonality = 3.765E-10

 Scale SEOQF with 1.000000e-01/1.000000e-01/1.000000e-01

 Standard Electronic Orientation quadrupole field applied
 Nucleus-field energy     =    -0.0000000009 hartrees
 Guess from superposition of atomic densities
 Warning:  Energy on first SCF cycle will be non-variational
 SAD guess density has 18.000000 electrons

 -----------------------------------------------------------------------
  General SCF calculation program by
  Eric Jon Sundstrom, Paul Horn, Yuezhi Mao, Dmitri Zuev, Alec White,
  David Stuck, Shaama M.S., Shane Yost, Joonho Lee, David Small,
  Daniel Levine, Susi Lehtola, Hugh Burton, Evgeny Epifanovsky,
  Bang C. Huynh
 -----------------------------------------------------------------------
 Exchange:     1.0000 Hartree-Fock
 Correlation:  1.0000 LYP
 Using Euler-Maclaurin-Lebedev (99,590) quadrature formula
Running Object-Oriented UKS (UHF)
performing a single roothaan step with Fock from read density so that orbitals are available to all algorithms
energy of the guess density (C=0) -139.891011276311
We will preform up to 15 macro iterations over saddle points until a stable solution is found
Energy prior to optimization (guess energy) = -139.697109463626
Begin Timing: Total SCF Calculation
Begin Timing: SCF Single Stationary Point Calculation
begin iterations for algorithm: GDM          
the SCF tolerance is set to 1.00e-08
    1    -139.6971094636      4.83e-02     00000  Normal BFGS step
    2    -139.7209201726      1.84e-02     00000  Normal BFGS step
    3    -139.7279076441      1.56e-03     00000  Normal BFGS step
    4    -139.7280127718      8.81e-04     00000  Normal BFGS step
    5    -139.7280234503      2.01e-04     00000  Normal BFGS step
    6    -139.7280240079      5.43e-05     00000  Normal BFGS step
    7    -139.7280240671      8.39e-06     00000  Normal BFGS step
    8    -139.7280240695      1.93e-06     00000  Normal BFGS step
    9    -139.7280240696      2.75e-07     00000  Normal BFGS step
   10    -139.7280240697      7.42e-08     00000  Normal BFGS step
   11    -139.7280240697      9.77e-09     00000 Convergence criterion met
Timing for Single Stationary Point: 6913.00s (wall), 54598.08s (cpu)
Begin Timing: Stability
===================================================
Beginning Test for Internal Stability
===================================================
generating davidson guess vectors based on koopmans excitations
 Warning: Hessian-vector products not implemented
 Finite difference Hessian-vector products will be used.
computing hessian-vector products by finite difference
    1      5.19e-01     00000 Davidson Iteration
computing hessian-vector products by finite difference
    2      7.85e-01     00000 Davidson Iteration
computing hessian-vector products by finite difference
    3      1.87e-01     00000 Davidson Iteration
computing hessian-vector products by finite difference
    4      5.40e-02     00000 Davidson Iteration
computing hessian-vector products by finite difference
    5      7.81e-02     00000 Davidson Iteration
computing hessian-vector products by finite difference
    6      5.26e-02     00000 Davidson Iteration
computing hessian-vector products by finite difference
    7      2.57e-02     00000 Davidson Iteration
computing hessian-vector products by finite difference
    8      3.09e-02     00000 Davidson Iteration
computing hessian-vector products by finite difference
    9      4.65e-02     00000 Davidson Iteration
computing hessian-vector products by finite difference
   10      3.56e-02     00000 Davidson Iteration
computing hessian-vector products by finite difference
   11      2.68e-02     00000 Davidson Iteration
computing hessian-vector products by finite difference
   12      8.96e-03     00000 Davidson Iteration
computing hessian-vector products by finite difference
   13      2.97e-03     00000 Davidson Iteration
computing hessian-vector products by finite difference
   14      7.54e-04     00000 Davidson Iteration
computing hessian-vector products by finite difference
   15      2.04e-04     00000 Davidson Iteration
computing hessian-vector products by finite difference
   16      8.83e-05     00000 Davidson Iteration
computing hessian-vector products by finite difference
   17      1.83e-04     00000 Davidson Iteration
computing hessian-vector products by finite difference
   18      3.66e-04     00000 Davidson Iteration
computing hessian-vector products by finite difference
   19      2.53e-03     00000 Davidson Iteration
computing hessian-vector products by finite difference
   20      9.39e-04     00000 Davidson Iteration
computing hessian-vector products by finite difference
   21      2.84e-04     00000 Davidson Iteration
computing hessian-vector products by finite difference
   22      8.58e-04     00000 Davidson Iteration
computing hessian-vector products by finite difference
   23      1.11e-04     00000 Davidson Iteration
computing hessian-vector products by finite difference
   24      8.69e-05     00000 Davidson Iteration
computing hessian-vector products by finite difference
   25      3.49e-03     00000 Davidson Iteration
computing hessian-vector products by finite difference
   26      3.52e-03     00000 Davidson Iteration
computing hessian-vector products by finite difference
   27      1.02e-02     00000 Davidson Iteration
computing hessian-vector products by finite difference
   28      4.39e-03     00000 Davidson Iteration
computing hessian-vector products by finite difference
   29      3.59e-03     00000 Davidson Iteration
computing hessian-vector products by finite difference
   30      5.33e-03     00000 Davidson Iteration
computing hessian-vector products by finite difference
   31      1.96e-03     00000 Davidson Iteration
computing hessian-vector products by finite difference
   32      7.33e-04     00000 Davidson Iteration
computing hessian-vector products by finite difference
   33      2.75e-04     00000 Davidson Iteration
computing hessian-vector products by finite difference
   34      1.82e-04     00000 Davidson Iteration
computing hessian-vector products by finite difference
   35      8.60e-05     00000 Davidson Converged
converged_eigenvalues
   0.7108
   0.7308
   0.6984
Threshold for negative eigenvalues: -1.0e-05
solution was a local minimum (stable)
===================================================
End Test for Internal Stability
===================================================
Timing for Internal Stability: 113179.00s (wall), 892742.12s (cpu)
Our SCF solution is stable!
Timing for Total SCF: 120092.00s (wall), 947340.59s (cpu)
 Total energy in the final basis set =     -139.7280240697
<S^2> =          0.000000000
    ==================================================
              The end of Object-Oriented SCFman       
    ==================================================

 --------------------------------------------------------------

                    Orbital Energies (a.u.)
 --------------------------------------------------------------

 Alpha MOs
 -- Occupied --
-26.3098 -11.3328  -1.6282  -0.9896  -0.7358  -0.7358  -0.7146  -0.5622
 -0.5622
 -- Virtual --
  0.0129   0.0282   0.0282   0.0298   0.0467   0.0467   0.0643   0.0786
  0.0804   0.0804   0.0929   0.0992   0.0992   0.1282   0.1282   0.1292
  0.1306   0.1306   0.1352   0.1449   0.1474   0.1474   0.1657   0.1838
  0.1838   0.1928   0.2131   0.2172   0.2172   0.2379   0.2379   0.2386
  0.2388   0.2563   0.2563   0.2627   0.2627   0.2703   0.2703   0.2703
  0.2944   0.2946   0.2971   0.2971   0.3258   0.3258   0.3312   0.3384
  0.3384   0.3429   0.3651   0.3744   0.3764   0.3764   0.3918   0.3918
  0.3990   0.4050   0.4050   0.4111   0.4111   0.4290   0.4348   0.4495
  0.4495   0.4571   0.4571   0.4675   0.4683   0.4824   0.4824   0.4880
  0.4880   0.4897   0.5095   0.5126   0.5126   0.5147   0.5210   0.5210
  0.5212   0.5361   0.5361   0.5552   0.5624   0.5653   0.5757   0.5757
  0.5829   0.5829   0.6001   0.6011   0.6011   0.6096   0.6381   0.6381
  0.6509   0.6602   0.6602   0.6639   0.7200   0.7200   0.7402   0.7450
  0.7450   0.7493   0.7543   0.7543   0.7680   0.7680   0.7954   0.7954
  0.8013   0.8095   0.8095   0.8100   0.8141   0.8211   0.8211   0.8307
  0.8377   0.8377   0.8427   0.8427   0.8434   0.8639   0.8639   0.8685
  0.8887   0.8887   0.8932   0.9125   0.9125   0.9146   0.9238   0.9260
  0.9260   0.9427   0.9466   0.9494   0.9494   0.9705   0.9759   0.9759
  0.9822   0.9865   0.9936   0.9936   1.0087   1.0164   1.0389   1.0389
  1.0502   1.0502   1.0769   1.0769   1.0945   1.1968   1.1968   1.2173
  1.2338   1.2338   1.2514   1.2695   1.2745   1.2745   1.3039   1.3162
  1.3162   1.3493   1.3503   1.3503   1.3851   1.3851   1.4003   1.4003
  1.4033   1.4625   1.4626   1.5303   1.5303   1.5376   1.5653   1.5724
  1.5724   1.5809   1.6189   1.6189   1.6441   1.6563   1.6563   1.6907
  1.6933   1.6933   1.7172   1.7288   1.7462   1.7462   1.7813   1.7813
  1.8435   1.8435   1.8685   1.8822   1.9318   1.9318   1.9814   1.9814
  2.0087   2.0365   2.0365   2.0523   2.0743   2.1839   2.1839   2.1958
  2.2982   2.2982   2.3803   2.4545   2.4545   2.4594   2.4647   2.4767
  2.4768   2.6009   2.6009   2.6545   2.6989   2.7278   2.7278   2.7927
  2.8166   2.8166   2.9020   2.9020   2.9136   2.9715   2.9787   2.9963
  2.9963   3.0617   3.2232   3.2232   3.2664   3.2768   3.2769   3.3768
  3.3768   3.5451   3.5753   3.5753   3.5784   3.5784   3.6891   3.7948
  3.8217   3.8282   3.8282   3.9878   3.9878   4.0092   4.0400   4.0812
  4.0812   4.1854   4.2152   4.2152   4.2989   4.3004   4.3005   4.3315
  4.3488   4.3488   4.4753   4.4890   4.4890   4.5774   4.5774   4.5905
  4.6966   4.8344   4.8344   4.9132   4.9132   4.9550   4.9550   4.9853
  5.2051   5.2052   5.2469   5.3269   5.4407   5.4408   5.4730   5.5965
  5.5965   5.6440   5.7643   5.7644   5.7844   5.8038   5.8368   5.8368
  5.9346   5.9346   5.9779   6.0280   6.0645   6.0645   6.2768   6.2768
  6.3344   6.3841   6.3841   6.4563   6.5008   6.5008   6.5415   6.6318
  6.6935   6.7003   6.7003   6.7952   6.9559   6.9560   7.2040   7.2051
  7.2052   7.2101   7.3350   7.3350   7.4161   7.4161   7.4515   7.7027
  7.7027   7.8158   7.8158   7.8535   8.1443   8.1580   8.2099   8.2099
  8.3239   8.6358   8.6358   8.8693   8.9226   9.0922   9.0922   9.4689
  9.4689   9.4938   9.5197   9.5197   9.6054   9.6686   9.6686   9.6741
  9.6989   9.6989   9.7829   9.7829  10.0019  10.0020  10.1036  10.1578
 10.4198  10.4799  10.4800  10.6152  11.2807  11.2809  11.5123  11.5123
 11.5191  11.5687  11.6533  11.6534  11.7845  11.8969  11.8971  11.9930
 12.1052  12.1994  12.1994  12.5143  12.5145  12.6636  12.6968  12.6968
 12.7125  12.7695  12.7695  12.9447  12.9448  12.9551  12.9552  12.9912
 13.0273  13.1222  13.1222  13.1584  13.2283  13.2283  13.2994  13.2994
 13.3090  13.3379  13.3379  13.3974  13.3975  13.4543  13.4690  13.4690
 13.6821  13.7757  13.7757  13.7791  13.8451  13.9616  13.9617  14.0468
 14.0469  14.1280  14.1914  14.1915  14.2599  14.5479  14.7147  14.7148
 14.7788  14.7894  14.7895  15.0995  15.2580  15.3700  15.3701  15.5407
 15.5408  15.7590  15.7591  15.9090  15.9248  16.0103  16.1169  16.2953
 16.2954  16.5732  16.6064  16.6065  16.9102  16.9105  16.9116  17.1867
 17.1908  17.1908  17.2669  17.2669  17.2982  17.3690  17.6029  17.6029
 17.7884  17.8095  17.8096  17.9521  17.9522  18.1056  18.9716  19.0462
 19.0464  19.1846  19.5053  19.5056  19.6747  20.2827  20.5423  20.5425
 20.7756  20.7759  20.8242  21.0333  21.0333  21.2806  21.3743  21.3744
 21.3862  21.8742  21.8742  21.9325  22.2259  22.3681  22.3684  23.0434
 23.0434  23.9410  23.9759  24.2716  24.2717  24.5973  24.7097  24.7098
 26.2745  26.4052  26.4057  31.5491  31.5491  32.0020  32.0020  32.6413
 33.6476  33.6476  34.9682  34.9684  35.0114  41.9288  41.9290  42.4460
 43.4275  43.4275  43.6752  45.5809  80.4483  91.7753  91.9694  91.9694
 92.1432  92.2681  92.2681  93.2190  93.2190  93.2851  93.3184  93.3187
 93.5433  93.5433  94.1914 206.2909

 Beta MOs
 -- Occupied --
-26.3098 -11.3328  -1.6282  -0.9896  -0.7358  -0.7358  -0.7146  -0.5622
 -0.5622
 -- Virtual --
  0.0129   0.0282   0.0282   0.0298   0.0467   0.0467   0.0643   0.0786
  0.0804   0.0804   0.0929   0.0992   0.0992   0.1282   0.1282   0.1292
  0.1306   0.1306   0.1352   0.1449   0.1474   0.1474   0.1657   0.1838
  0.1838   0.1928   0.2131   0.2172   0.2172   0.2379   0.2379   0.2386
  0.2388   0.2563   0.2563   0.2627   0.2627   0.2703   0.2703   0.2703
  0.2944   0.2946   0.2971   0.2971   0.3258   0.3258   0.3312   0.3384
  0.3384   0.3429   0.3651   0.3744   0.3764   0.3764   0.3918   0.3918
  0.3990   0.4050   0.4050   0.4111   0.4111   0.4290   0.4348   0.4495
  0.4495   0.4571   0.4571   0.4675   0.4683   0.4824   0.4824   0.4880
  0.4880   0.4897   0.5095   0.5126   0.5126   0.5147   0.5210   0.5210
  0.5212   0.5361   0.5361   0.5552   0.5624   0.5653   0.5757   0.5757
  0.5829   0.5829   0.6001   0.6011   0.6011   0.6096   0.6381   0.6381
  0.6509   0.6602   0.6602   0.6639   0.7200   0.7200   0.7402   0.7450
  0.7450   0.7493   0.7543   0.7543   0.7680   0.7680   0.7954   0.7954
  0.8013   0.8095   0.8095   0.8100   0.8141   0.8211   0.8211   0.8307
  0.8377   0.8377   0.8427   0.8427   0.8434   0.8639   0.8639   0.8685
  0.8887   0.8887   0.8932   0.9125   0.9125   0.9146   0.9238   0.9260
  0.9260   0.9427   0.9466   0.9494   0.9494   0.9705   0.9759   0.9759
  0.9822   0.9865   0.9936   0.9936   1.0087   1.0164   1.0389   1.0389
  1.0502   1.0502   1.0769   1.0769   1.0945   1.1968   1.1968   1.2173
  1.2338   1.2338   1.2514   1.2695   1.2745   1.2745   1.3039   1.3162
  1.3162   1.3493   1.3503   1.3503   1.3851   1.3851   1.4003   1.4003
  1.4033   1.4625   1.4626   1.5303   1.5303   1.5376   1.5653   1.5724
  1.5724   1.5809   1.6189   1.6189   1.6441   1.6563   1.6563   1.6907
  1.6933   1.6933   1.7172   1.7288   1.7462   1.7462   1.7813   1.7813
  1.8435   1.8435   1.8685   1.8822   1.9318   1.9318   1.9814   1.9814
  2.0087   2.0365   2.0365   2.0523   2.0743   2.1839   2.1839   2.1958
  2.2982   2.2982   2.3803   2.4545   2.4545   2.4594   2.4647   2.4767
  2.4768   2.6009   2.6009   2.6545   2.6989   2.7278   2.7278   2.7927
  2.8166   2.8166   2.9020   2.9020   2.9136   2.9715   2.9787   2.9963
  2.9963   3.0617   3.2232   3.2232   3.2664   3.2768   3.2769   3.3768
  3.3768   3.5451   3.5753   3.5753   3.5784   3.5784   3.6891   3.7948
  3.8217   3.8282   3.8282   3.9878   3.9878   4.0092   4.0400   4.0812
  4.0812   4.1854   4.2152   4.2152   4.2989   4.3004   4.3005   4.3315
  4.3488   4.3488   4.4753   4.4890   4.4890   4.5774   4.5774   4.5905
  4.6966   4.8344   4.8344   4.9132   4.9132   4.9550   4.9550   4.9853
  5.2051   5.2052   5.2469   5.3269   5.4407   5.4408   5.4730   5.5965
  5.5965   5.6440   5.7643   5.7644   5.7844   5.8038   5.8368   5.8368
  5.9346   5.9346   5.9779   6.0280   6.0645   6.0645   6.2768   6.2768
  6.3344   6.3841   6.3841   6.4563   6.5008   6.5008   6.5415   6.6318
  6.6935   6.7003   6.7003   6.7952   6.9559   6.9560   7.2040   7.2051
  7.2052   7.2101   7.3350   7.3350   7.4161   7.4161   7.4515   7.7027
  7.7027   7.8158   7.8158   7.8535   8.1443   8.1580   8.2099   8.2099
  8.3239   8.6358   8.6358   8.8693   8.9226   9.0922   9.0922   9.4689
  9.4689   9.4938   9.5197   9.5197   9.6054   9.6686   9.6686   9.6741
  9.6989   9.6989   9.7829   9.7829  10.0019  10.0020  10.1036  10.1578
 10.4198  10.4799  10.4800  10.6152  11.2807  11.2809  11.5123  11.5123
 11.5191  11.5687  11.6533  11.6534  11.7845  11.8969  11.8971  11.9930
 12.1052  12.1994  12.1994  12.5143  12.5145  12.6636  12.6968  12.6968
 12.7125  12.7695  12.7695  12.9447  12.9448  12.9551  12.9552  12.9912
 13.0273  13.1222  13.1222  13.1584  13.2283  13.2283  13.2994  13.2994
 13.3090  13.3379  13.3379  13.3974  13.3975  13.4543  13.4690  13.4690
 13.6821  13.7757  13.7757  13.7791  13.8451  13.9616  13.9617  14.0468
 14.0469  14.1280  14.1914  14.1915  14.2599  14.5479  14.7147  14.7148
 14.7788  14.7894  14.7895  15.0995  15.2580  15.3700  15.3701  15.5407
 15.5408  15.7590  15.7591  15.9090  15.9248  16.0103  16.1169  16.2953
 16.2954  16.5732  16.6064  16.6065  16.9102  16.9105  16.9116  17.1867
 17.1908  17.1908  17.2669  17.2669  17.2982  17.3690  17.6029  17.6029
 17.7884  17.8095  17.8096  17.9521  17.9522  18.1056  18.9716  19.0462
 19.0464  19.1846  19.5053  19.5056  19.6747  20.2827  20.5423  20.5425
 20.7756  20.7759  20.8242  21.0333  21.0333  21.2806  21.3743  21.3744
 21.3862  21.8742  21.8742  21.9325  22.2259  22.3681  22.3684  23.0434
 23.0434  23.9410  23.9759  24.2716  24.2717  24.5973  24.7097  24.7098
 26.2745  26.4052  26.4057  31.5491  31.5491  32.0020  32.0020  32.6413
 33.6476  33.6476  34.9682  34.9684  35.0114  41.9288  41.9290  42.4460
 43.4275  43.4275  43.6752  45.5809  80.4483  91.7753  91.9694  91.9694
 92.1432  92.2681  92.2681  93.2190  93.2190  93.2851  93.3184  93.3187
 93.5433  93.5433  94.1914 206.2909
 --------------------------------------------------------------

          Ground-State Mulliken Net Atomic Charges

     Atom                 Charge (a.u.)    Spin (a.u.)
  --------------------------------------------------------
      1 C                     0.310711       0.000000
      2 F                    -0.486911      -0.000000
      3 H                     0.058716      -0.000000
      4 H                     0.058742       0.000000
      5 H                     0.058742      -0.000000
  --------------------------------------------------------
  Sum of atomic charges =     0.000000
  Sum of spin   charges =    -0.000000

 -----------------------------------------------------------------
                    Cartesian Multipole Moments
 -----------------------------------------------------------------
    Charge (ESU x 10^10)
                -0.0000
    Dipole Moment (Debye)
         X      -0.0000      Y       0.0000      Z      -2.0136
       Tot       2.0136
    Quadrupole Moments (Debye-Ang)
        XX     -11.5411     XY       0.0000     YY     -11.5410
        XZ      -0.0000     YZ      -0.0000     ZZ     -12.4905
    Octopole Moments (Debye-Ang^2)
       XXX      -0.0000    XXY      -0.7220    XYY      -0.0000
       YYY       0.7225    XXZ       1.0401    XYZ       0.0000
       YYZ       1.0401    XZZ       0.0000    YZZ       0.0002
       ZZZ       3.9838
    Hexadecapole Moments (Debye-Ang^3)
      XXXX     -15.8160   XXXY      -0.0000   XXYY      -5.2718
      XYYY       0.0000   YYYY     -15.8153   XXXZ      -0.0000
      XXYZ       0.7955   XYYZ      -0.0000   YYYZ      -0.7959
      XXZZ     -10.8528   XYZZ       0.0000   YYZZ     -10.8526
      XZZZ      -0.0000   YZZZ      -0.0005   ZZZZ     -49.9214
 -----------------------------------------------------------------
Archival summary:
1\1\n0075.mhg0\SP\ProcedureUnspecified\BasisUnspecified\113\yhljason\ThuNov1209:44:552020ThuNov1209:44:552020\0\\#,ProcedureUnspecified,BasisUnspecified,\\0,1\C\H,1,1.0818\H,1,1.08187,2,110.202\H,1,1.08187,2,110.202,3,121.834,0\F,1,1.3646,2,108.731,3,-119.083,0\\HF=-139.728024\\@

 Total job time:  121385.46s(wall), 957526.85s(cpu) 
 Thu Nov 12 09:44:55 2020

        *************************************************************
        *                                                           *
        *  Thank you very much for using Q-Chem.  Have a nice day.  *
        *                                                           *
        *************************************************************


