                  Welcome to Q-Chem
     A Quantum Leap Into The Future Of Chemistry


 Q-Chem 5.3 (devel), Q-Chem, Inc., Pleasanton, CA (2020)

 Yihan Shao,  Zhengting Gan,  E. Epifanovsky,  A. T. B. Gilbert,  M. Wormit,  
 J. Kussmann,  A. W. Lange,  A. Behn,  Jia Deng,  Xintian Feng,  D. Ghosh,  
 M. Goldey,  P. R. Horn,  L. D. Jacobson,  I. Kaliman,  T. Kus,  A. Landau,  
 Jie Liu,  E. I. Proynov,  R. M. Richard,  R. P. Steele,  E. J. Sundstrom,  
 H. L. Woodcock III,  P. M. Zimmerman,  D. Zuev,  B. Alam,  B. Albrecht,  
 E. Alguire,  S. A. Baeppler,  D. Barton,  Z. Benda,  Y. A. Bernard,  
 E. J. Berquist,  K. B. Bravaya,  H. Burton,  K. Carter-Fenk,  D. Casanova,  
 Chun-Min Chang,  Yunqing Chen,  A. Chien,  K. D. Closser,  M. P. Coons,  
 S. Coriani,  S. Dasgupta,  A. L. Dempwolff,  M. Diedenhofen,  Hainam Do,  
 R. G. Edgar,  Po-Tung Fang,  S. Faraji,  S. Fatehi,  Qingguo Feng,  
 J. Fosso-Tande,  J. Gayvert,  Qinghui Ge,  A. Ghysels,  G. Gidofalvi,  
 J. Gomes,  J. Gonthier,  A. Gunina,  D. Hait,  M. W. D. Hanson-Heine,  
 P. H. P. Harbach,  A. W. Hauser,  M. F. Herbst,  J. E. Herr,  
 E. G. Hohenstein,  Z. C. Holden,  Kerwin Hui,  B. C. Huynh,  T.-C. Jagau,  
 Hyunjun Ji,  B. Kaduk,  K. Khistyaev,  Jaehoon Kim,  P. Klunzinger,  K. Koh,  
 D. Kosenkov,  L. Koulias,  T. Kowalczyk,  C. M. Krauter,  A. Kunitsa,  
 Ka Un Lao,  A. Laurent,  K. V. Lawler,  Joonho Lee,  D. Lefrancois,  
 S. Lehtola,  D. S. Levine,  Yi-Pei Li,  You-Sheng Lin,  Fenglai Liu,  
 Kuan-Yu Liu,  E. Livshits,  M. Loipersberger,  A. Luenser,  P. Manohar,  
 E. Mansoor,  S. F. Manzer,  Shan-Ping Mao,  Yuezhi Mao,  N. Mardirossian,  
 A. V. Marenich,  T. Markovich,  L. A. Martinez-Martinez,  S. A. Maurer,  
 N. J. Mayhall,  S. C. McKenzie,  J.-M. Mewes,  P. Morgante,  A. F. Morrison,  
 J. W. Mullinax,  K. Nanda,  T. S. Nguyen-Beck,  R. Olivares-Amaya,  
 K. J. Oosterbaan,  J. A. Parkhill,  S. K. Paul,  F. Pavosevic,  Zheng Pei,  
 T. M. Perrine,  F. Plasser,  P. Pokhilko,  S. Prager,  A. Prociuk,  
 E. Ramos,  B. Rana,  D. R. Rehn,  F. Rob,  M. Scheurer,  M. Schneider,  
 N. Sergueev,  S. M. Sharada,  S. Sharma,  D. W. Small,  T. Stauch,  
 C. J. Stein,  T. Stein,  Yu-Chuan Su,  S. P. Veccham,  Zhen Tao,  
 A. J. W. Thom,  A. Tkatchenko,  T. Tsuchimochi,  N. M. Tubman,  L. Vogt,  
 M. L. Vidal,  O. Vydrov,  M. A. Watson,  J. Wenzel,  M. de Wergifosse,  
 T. A. Wesolowski,  A. White,  J. Witte,  A. Yamada,  Jun Yang,  K. Yao,  
 S. Yeganeh,  S. R. Yost,  Zhi-Qiang You,  A. Zech,  Igor Ying Zhang,  
 Xing Zhang,  Yan Zhao,  Ying Zhu,  B. R. Brooks,  G. K. L. Chan,  
 C. J. Cramer,  M. S. Gordon,  W. J. Hehre,  A. Klamt,  M. W. Schmidt,  
 C. D. Sherrill,  D. G. Truhlar,  A. Aspuru-Guzik,  R. Baer,  A. T. Bell,  
 N. A. Besley,  Jeng-Da Chai,  A. E. DePrince, III,  R. A. DiStasio Jr.,  
 A. Dreuw,  B. D. Dunietz,  T. R. Furlani,  Chao-Ping Hsu,  Yousung Jung,  
 Jing Kong,  D. S. Lambrecht,  WanZhen Liang,  C. Ochsenfeld,  
 V. A. Rassolov,  L. V. Slipchenko,  J. E. Subotnik,  T. Van Voorhis,  
 J. M. Herbert,  A. I. Krylov,  P. M. W. Gill,  M. Head-Gordon

 Contributors to earlier versions of Q-Chem not listed above: 
 R. D. Adamson,  B. Austin,  J. Baker,  G. J. O. Beran,  K. Brandhorst,  
 S. T. Brown,  E. F. C. Byrd,  A. K. Chakraborty,  C.-L. Cheng,  
 Siu Hung Chien,  D. M. Chipman,  D. L. Crittenden,  H. Dachsel,  
 R. J. Doerksen,  A. D. Dutoi,  L. Fusti-Molnar,  W. A. Goddard III,  
 A. Golubeva-Zadorozhnaya,  S. R. Gwaltney,  G. Hawkins,  A. Heyden,  
 S. Hirata,  G. Kedziora,  F. J. Keil,  C. Kelley,  Jihan Kim,  R. A. King,  
 R. Z. Khaliullin,  P. P. Korambath,  W. Kurlancheek,  A. M. Lee,  M. S. Lee,  
 S. V. Levchenko,  Ching Yeh Lin,  D. Liotard,  R. C. Lochan,  I. Lotan,  
 P. E. Maslen,  N. Nair,  D. P. O'Neill,  D. Neuhauser,  E. Neuscamman,  
 C. M. Oana,  R. Olson,  B. Peters,  R. Peverati,  P. A. Pieniazek,  
 Y. M. Rhee,  J. Ritchie,  M. A. Rohrdanz,  E. Rosta,  N. J. Russ,  
 H. F. Schaefer III,  N. E. Schultz,  N. Shenvi,  A. C. Simmonett,  A. Sodt,  
 D. Stuck,  K. S. Thanthiriwatte,  V. Vanovschi,  Tao Wang,  A. Warshel,  
 C. F. Williams,  Q. Wu,  X. Xu,  W. Zhang

 Please cite Q-Chem as follows:
 Y. Shao et al., Mol. Phys. 113, 184-215 (2015)
 DOI: 10.1080/00268976.2014.952696

 Q-Chem 5.3.0 for Intel X86 EM64T Linux

 Parts of Q-Chem use Armadillo 9.800.1 (Horizon Scraper).
 http://arma.sourceforge.net/

 Q-Chem begins on Fri Nov 13 04:02:30 2020  

n0066.mhg0
Host: 0

     Scratch files written to /local/scratch/users/yhljason/CH3Li_M11_aug-pc-4.inp20201113040228//
Processing $rem in /clusterfs/mhg/diptarka/qchem_transmom//config/preferences:
Processing $rem in /global/home/users/yhljason/.qchemrc:

Checking the input file for inconsistencies... 	...done.

--------------------------------------------------------------
User input:
--------------------------------------------------------------
$molecule
0 1
C1 -0.0000000000 0.0000000000 1.9851000000
H2 -0.8744257046 0.5050292293 2.4086001236
H3 0.8745747704 0.5047710498 2.4086001158
H4 -0.0001490540 -1.0098003255 2.4086001425
Li5 0.0000000000 0.0000000000 0.0000000000
$end
$rem
jobtype sp
method M11
xc_grid 000099000590
basis aug-pc-4
max_scf_cycles 200
thresh 14
scf_convergence 8
scf_algorithm gdm
gen_scfman false
stability_analysis true
symmetry false
sym_ignore true
unrestricted True
gen_scfman true
mem_total 64000
mem_static 1500
n_frozen_core 0
max_cis_cycles 200
$end

--------------------------------------------------------------
 ----------------------------------------------------------------
             Standard Nuclear Orientation (Angstroms)
    I     Atom           X                Y                Z
 ----------------------------------------------------------------
    1      C      -0.0000000000     0.0000000000     1.9851000000
    2      H      -0.8744257046     0.5050292293     2.4086001236
    3      H       0.8745747704     0.5047710498     2.4086001158
    4      H      -0.0001490540    -1.0098003255     2.4086001425
    5      Li      0.0000000000     0.0000000000     0.0000000000
 ----------------------------------------------------------------
 Nuclear Repulsion Energy =          16.22833771 hartrees
 There are        6 alpha and        6 beta electrons
 Requested basis set is aug-pc-4
 There are 128 shells and 492 basis functions

 Total QAlloc Memory Limit  64000 MB
 Mega-Array Size      1467 MB
 MEM_STATIC part      1500 MB

                       Distance Matrix (Angstroms)
             C (  1)   H (  2)   H (  3)   H (  4)
   H (  2)  1.095001
   H (  3)  1.095001  1.749000
   H (  4)  1.095011  1.749019  1.749019
   Li(  5)  1.985100  2.611710  2.611710  2.611714

 A cutoff of  1.0D-14 yielded   8226 shell pairs
 There are    122272 function pairs (    213475 Cartesian)
 Smallest overlap matrix eigenvalue = 1.42E-07
 Linear dependence detected in AO basis
 Tighter screening thresholds may be required for diffuse basis sets
 Use S2THRESH > 14 and THRESH = 14 in case of SCF convergence issues
 Number of orthogonalized atomic orbitals = 487
 Maximum deviation from orthogonality = 9.176E-10

 Scale SEOQF with 1.000000e-01/1.000000e-01/1.000000e-01

 Standard Electronic Orientation quadrupole field applied
 Nucleus-field energy     =    -0.0000000042 hartrees
 Guess from superposition of atomic densities
 Warning:  Energy on first SCF cycle will be non-variational
 SAD guess density has 12.000000 electrons

 -----------------------------------------------------------------------
  General SCF calculation program by
  Eric Jon Sundstrom, Paul Horn, Yuezhi Mao, Dmitri Zuev, Alec White,
  David Stuck, Shaama M.S., Shane Yost, Joonho Lee, David Small,
  Daniel Levine, Susi Lehtola, Hugh Burton, Evgeny Epifanovsky,
  Bang C. Huynh
 -----------------------------------------------------------------------
 Exchange:     0.4280 Hartree-Fock + 1.0000 M11 + LR-HF
 Correlation:  1.0000 M11
 Using Euler-Maclaurin-Lebedev (99,590) quadrature formula
 A unrestricted SCF calculation will be
 performed using Roothaan-Hall, GDM
 SCF converges when RMS gradient is below 1.0e-08
 ---------------------------------------
  Cycle       Energy         DIIS error
 ---------------------------------------
    1     -47.3316048377      3.34e-03  Roothaan Step
 ---------------------------------------
  Cycle       Energy        RMS Gradient
 ---------------------------------------
    1     -47.3032431208      8.03e-02   Descent step
    2     -47.3793480759      3.04e-02   Normal BFGS step
    3     -47.3860260189      6.02e-03   Normal BFGS step
    4     -47.3864550152      3.12e-03   Normal BFGS step
    5     -47.3865178559      8.66e-04   Normal BFGS step
    6     -47.3865240487      1.09e-04   Normal BFGS step
    7     -47.3865242889      3.88e-05   Normal BFGS step
    8     -47.3865243160      1.72e-05   Normal BFGS step
    9     -47.3865243181      5.93e-06   Normal BFGS step
   10     -47.3865243184      7.84e-07   Normal BFGS step
   11     -47.3865243184      2.88e-07   Normal BFGS step
   12     -47.3865243184      1.04e-07   Normal BFGS step
   13     -47.3865243184      7.20e-08   Normal BFGS step
   14     -47.3865243184      1.14e-08   Normal BFGS step
   15     -47.3865243184      3.20e-09  Convergence criterion met
 ---------------------------------------
 SCF time:   CPU 99665.94s  wall 6592.00s 
<S^2> =         -0.000000000
 SCF   energy in the final basis set =      -47.3865243184
 Total energy in the final basis set =      -47.3865243184

 Direct TDDFT/TDA calculation will be performed
 Exchange:     0.4280 Hartree-Fock + 1.0000 M11 + LR-HF
 Correlation:  1.0000 M11
 Using Euler-Maclaurin-Lebedev (99,590) quadrature formula
 CIS energy converged when residual is below 10e- 6
 ---------------------------------------------------
 Iter    Rts Conv    Rts Left    Ttl Dev     Max Dev
 ---------------------------------------------------
   1         0           1      0.000793    0.000793
   2         0           1      0.000770    0.000770
   3         0           1      0.000360    0.000360
   4         0           1      0.000423    0.000423
   5         0           1      0.000339    0.000339
   6         0           1      0.000178    0.000178
   7         0           1      0.000142    0.000142
   8         0           1      0.000102    0.000102
   9         0           1      0.000036    0.000036
  10         0           1      0.000007    0.000007
  11         0           1      0.000003    0.000003
  12         1           0      0.000001    0.000001    Roots Converged
 ---------------------------------------------------

 ---------------------------------------------------
         TDDFT/TDA Excitation Energies              
 ---------------------------------------------------

 Excited state   1: excitation energy (eV) =    2.8519
 Total energy for state  1:                   -47.28171709 au
    <S**2>     :  2.0000
    Trans. Mom.: -0.0000 X   0.0000 Y   0.0000 Z
    Strength   :     0.0000000000
    D(    6) --> V(    1) amplitude =  0.6186 alpha
    D(    6) --> V(    5) amplitude = -0.1964 alpha
    D(    6) --> V(   14) amplitude =  0.1954 alpha
    D(    6) --> V(    1) amplitude = -0.6186 beta
    D(    6) --> V(    5) amplitude =  0.1964 beta
    D(    6) --> V(   14) amplitude = -0.1954 beta

 ---------------------------------------------------

 Stability analysis will be performed
 ---------------------------------------------------
 Iter    Rts Conv    Rts Left    Ttl Dev     Max Dev
 ---------------------------------------------------
   1         0           2      0.001146    0.000573
   2         0           2      0.000343    0.000266
   3         0           2      0.000278    0.000235
   4         0           2      0.000094    0.000080
   5         0           2      0.000052    0.000048
   6         0           2      0.000008    0.000007
   7         1           1      0.000003    0.000003
   8         1           1      0.000001    0.000001
   9         2           0      0.000001    0.000000    Roots Converged
 UKS-> UKS   stable,    smallest eigenvalue:      0.1171422
 UKS->CUKS   stable,    smallest eigenvalue:      0.0861798
 ---------------------------------------------------
  SETman timing summary (seconds)
  CPU time            122173.02s
  System time              0.00s
  Wall time             8793.05s

 --------------------------------------------------------------

                    Orbital Energies (a.u.)
 --------------------------------------------------------------

 Alpha MOs
 -- Occupied --
-10.3157  -2.1500  -0.7208  -0.4192  -0.4192  -0.2732
 -- Virtual --
 -0.0392  -0.0069  -0.0069  -0.0008   0.0042   0.0231   0.0239   0.0239
  0.0262   0.0262   0.0268   0.0277   0.0277   0.0358   0.0487   0.0502
  0.0502   0.0598   0.0598   0.0736   0.0743   0.0855   0.0892   0.0892
  0.0975   0.0986   0.0986   0.1070   0.1127   0.1129   0.1129   0.1191
  0.1191   0.1239   0.1239   0.1255   0.1280   0.1359   0.1359   0.1388
  0.1468   0.1468   0.1598   0.1598   0.1678   0.1710   0.1710   0.1726
  0.1756   0.1756   0.1784   0.1965   0.2115   0.2170   0.2170   0.2276
  0.2276   0.2318   0.2354   0.2513   0.2513   0.2552   0.2641   0.2641
  0.2745   0.2815   0.2815   0.2968   0.3004   0.3004   0.3015   0.3146
  0.3146   0.3173   0.3173   0.3254   0.3285   0.3285   0.3528   0.3565
  0.3565   0.3567   0.3696   0.3696   0.3737   0.3825   0.3825   0.3842
  0.4056   0.4122   0.4274   0.4275   0.4275   0.4338   0.4338   0.4370
  0.4375   0.4375   0.4428   0.4599   0.4599   0.4706   0.4706   0.4888
  0.4888   0.4926   0.5056   0.5070   0.5089   0.5089   0.5223   0.5223
  0.5351   0.5580   0.5580   0.5709   0.5709   0.5759   0.5805   0.5965
  0.5965   0.6117   0.6219   0.6363   0.6363   0.6437   0.6573   0.6573
  0.6794   0.6795   0.6815   0.6936   0.6957   0.6957   0.7107   0.7222
  0.7267   0.7267   0.7371   0.7371   0.7519   0.7519   0.7520   0.7603
  0.7627   0.7686   0.7686   0.7936   0.7959   0.7959   0.8028   0.8028
  0.8122   0.8122   0.8231   0.8480   0.8480   0.8481   0.8534   0.8534
  0.8701   0.8796   0.8796   0.8889   0.8901   0.8901   0.8928   0.9020
  0.9070   0.9070   0.9120   0.9292   0.9292   0.9403   0.9403   0.9770
  0.9843   0.9843   0.9949   1.0141   1.0370   1.0444   1.0981   1.0982
  1.1120   1.1338   1.1338   1.1892   1.1950   1.1950   1.2101   1.2383
  1.2383   1.2847   1.2847   1.3761   1.3904   1.3904   1.4099   1.4099
  1.4691   1.4843   1.5388   1.5388   1.5413   1.5413   1.5648   1.6391
  1.6735   1.6735   1.6808   1.6808   1.6942   1.7193   1.7193   1.7325
  1.7560   1.7560   1.8062   1.8673   1.8812   1.8812   2.0399   2.0604
  2.0604   2.0689   2.1162   2.1162   2.1446   2.2652   2.2812   2.2812
  2.3533   2.3624   2.3678   2.3678   2.4128   2.4593   2.4593   2.5095
  2.5443   2.5600   2.5600   2.6438   2.6687   2.6687   2.7108   2.7249
  2.7249   2.7447   2.7447   2.8302   2.8450   2.8752   2.8752   2.9106
  3.0663   3.0663   3.1084   3.1711   3.1711   3.2439   3.2439   3.3745
  3.3745   3.3905   3.5097   3.5902   3.5902   3.6136   3.6420   3.6420
  3.6913   3.7685   3.7685   3.7848   3.9087   3.9087   3.9300   3.9555
  4.0222   4.0223   4.1097   4.1614   4.1614   4.2583   4.3230   4.3372
  4.3372   4.3930   4.3930   4.4522   4.5407   4.5407   4.6411   4.6411
  4.6798   4.7518   4.7975   4.7975   4.9894   4.9895   5.0000   5.0000
  5.0564   5.2376   5.2533   5.2533   5.2856   5.4182   5.4185   5.4875
  5.4875   5.5145   5.5145   5.6702   5.6702   5.7048   5.7842   5.9030
  5.9030   5.9555   5.9704   5.9704   6.0514   6.0514   6.1135   6.3137
  6.3137   6.4248   6.6028   6.6029   6.8057   6.8567   6.8567   6.9697
  7.0029   7.0029   7.2855   7.8338   7.8338   8.0064   8.4014   8.5679
  8.5679   8.8164   8.8165   8.9350   8.9351   8.9561   9.0139   9.0517
  9.0518   9.1026   9.2161   9.2512   9.2513   9.4711   9.4712   9.5901
  9.5903   9.7075   9.8958  10.6880  10.7466  10.7466  10.7899  10.7899
 10.8346  10.8346  10.9692  10.9884  11.0343  11.0344  11.1855  11.2115
 11.3305  11.3306  11.4670  11.7346  11.9013  11.9013  11.9605  12.0535
 12.0536  12.0954  12.1316  12.1316  12.2726  12.2727  12.2762  12.3588
 12.3588  12.3816  12.5102  12.6970  12.6971  12.7796  12.7855  12.7856
 12.8775  12.8779  12.8781  13.1635  13.1635  13.1924  13.1924  13.3993
 13.4971  13.4971  13.7147  13.8586  14.4780  14.4780  14.7799  14.9589
 14.9590  15.3765  15.5700  15.5772  15.5774  15.8946  15.8946  16.2293
 16.2371  16.2372  16.2746  16.2760  16.2760  16.4316  16.7474  16.7476
 16.8957  16.9913  16.9913  17.0202  17.9115  18.2181  18.2182  18.3837
 18.3842  18.5724  19.4331  19.7979  19.7989  19.8552  19.8553  19.9796
 20.5310  20.5313  20.6015  21.2798  21.4982  21.4982  22.4616  22.6186
 22.6187  22.9017  23.0980  23.0980  25.1961  25.3181  25.3194  32.6658
 32.6659  32.9697  33.9644  33.9644  38.7325  38.7332  38.8460  77.0895
 84.7067  84.7077  84.7322  87.8873  87.9354  87.9360  88.1121  88.2871
 88.2878

 Beta MOs
 -- Occupied --
-10.3157  -2.1500  -0.7208  -0.4192  -0.4192  -0.2732
 -- Virtual --
 -0.0392  -0.0069  -0.0069  -0.0008   0.0042   0.0231   0.0239   0.0239
  0.0262   0.0262   0.0268   0.0277   0.0277   0.0358   0.0487   0.0502
  0.0502   0.0598   0.0598   0.0736   0.0743   0.0855   0.0892   0.0892
  0.0975   0.0986   0.0986   0.1070   0.1127   0.1129   0.1129   0.1191
  0.1191   0.1239   0.1239   0.1255   0.1280   0.1359   0.1359   0.1388
  0.1468   0.1468   0.1598   0.1598   0.1678   0.1710   0.1710   0.1726
  0.1756   0.1756   0.1784   0.1965   0.2115   0.2170   0.2170   0.2276
  0.2276   0.2318   0.2354   0.2513   0.2513   0.2552   0.2641   0.2641
  0.2745   0.2815   0.2815   0.2968   0.3004   0.3004   0.3015   0.3146
  0.3146   0.3173   0.3173   0.3254   0.3285   0.3285   0.3528   0.3565
  0.3565   0.3567   0.3696   0.3696   0.3737   0.3825   0.3825   0.3842
  0.4056   0.4122   0.4274   0.4275   0.4275   0.4338   0.4338   0.4370
  0.4375   0.4375   0.4428   0.4599   0.4599   0.4706   0.4706   0.4888
  0.4888   0.4926   0.5056   0.5070   0.5089   0.5089   0.5223   0.5223
  0.5351   0.5580   0.5580   0.5709   0.5709   0.5759   0.5805   0.5965
  0.5965   0.6117   0.6219   0.6363   0.6363   0.6437   0.6573   0.6573
  0.6794   0.6795   0.6815   0.6936   0.6957   0.6957   0.7107   0.7222
  0.7267   0.7267   0.7371   0.7371   0.7519   0.7519   0.7520   0.7603
  0.7627   0.7686   0.7686   0.7936   0.7959   0.7959   0.8028   0.8028
  0.8122   0.8122   0.8231   0.8480   0.8480   0.8481   0.8534   0.8534
  0.8701   0.8796   0.8796   0.8889   0.8901   0.8901   0.8928   0.9020
  0.9070   0.9070   0.9120   0.9292   0.9292   0.9403   0.9403   0.9770
  0.9843   0.9843   0.9949   1.0141   1.0370   1.0444   1.0981   1.0982
  1.1120   1.1338   1.1338   1.1892   1.1950   1.1950   1.2101   1.2383
  1.2383   1.2847   1.2847   1.3761   1.3904   1.3904   1.4099   1.4099
  1.4691   1.4843   1.5388   1.5388   1.5413   1.5413   1.5648   1.6391
  1.6735   1.6735   1.6808   1.6808   1.6942   1.7193   1.7193   1.7325
  1.7560   1.7560   1.8062   1.8673   1.8812   1.8812   2.0399   2.0604
  2.0604   2.0689   2.1162   2.1162   2.1446   2.2652   2.2812   2.2812
  2.3533   2.3624   2.3678   2.3678   2.4128   2.4593   2.4593   2.5095
  2.5443   2.5600   2.5600   2.6438   2.6687   2.6687   2.7108   2.7249
  2.7249   2.7447   2.7447   2.8302   2.8450   2.8752   2.8752   2.9106
  3.0663   3.0663   3.1084   3.1711   3.1711   3.2439   3.2439   3.3745
  3.3745   3.3905   3.5097   3.5902   3.5902   3.6136   3.6420   3.6420
  3.6913   3.7685   3.7685   3.7848   3.9087   3.9087   3.9300   3.9555
  4.0222   4.0223   4.1097   4.1614   4.1614   4.2583   4.3230   4.3372
  4.3372   4.3930   4.3930   4.4522   4.5407   4.5407   4.6411   4.6411
  4.6798   4.7518   4.7975   4.7975   4.9894   4.9895   5.0000   5.0000
  5.0564   5.2376   5.2533   5.2533   5.2856   5.4182   5.4185   5.4875
  5.4875   5.5145   5.5145   5.6702   5.6702   5.7048   5.7842   5.9030
  5.9030   5.9555   5.9704   5.9704   6.0514   6.0514   6.1135   6.3137
  6.3137   6.4248   6.6028   6.6029   6.8057   6.8567   6.8567   6.9697
  7.0029   7.0029   7.2855   7.8338   7.8338   8.0064   8.4014   8.5679
  8.5679   8.8164   8.8165   8.9350   8.9351   8.9561   9.0139   9.0517
  9.0518   9.1026   9.2161   9.2512   9.2513   9.4711   9.4712   9.5901
  9.5903   9.7075   9.8958  10.6880  10.7466  10.7466  10.7899  10.7899
 10.8346  10.8346  10.9692  10.9884  11.0343  11.0344  11.1855  11.2115
 11.3305  11.3306  11.4670  11.7346  11.9013  11.9013  11.9605  12.0535
 12.0536  12.0954  12.1316  12.1316  12.2726  12.2727  12.2762  12.3588
 12.3588  12.3816  12.5102  12.6970  12.6971  12.7796  12.7855  12.7856
 12.8775  12.8779  12.8781  13.1635  13.1635  13.1924  13.1924  13.3993
 13.4971  13.4971  13.7147  13.8586  14.4780  14.4780  14.7799  14.9589
 14.9590  15.3765  15.5700  15.5772  15.5774  15.8946  15.8946  16.2293
 16.2371  16.2372  16.2746  16.2760  16.2760  16.4316  16.7474  16.7476
 16.8957  16.9913  16.9913  17.0202  17.9115  18.2181  18.2182  18.3837
 18.3842  18.5724  19.4331  19.7979  19.7989  19.8552  19.8553  19.9796
 20.5310  20.5313  20.6015  21.2798  21.4982  21.4982  22.4616  22.6186
 22.6187  22.9017  23.0980  23.0980  25.1961  25.3181  25.3194  32.6658
 32.6659  32.9697  33.9644  33.9644  38.7325  38.7332  38.8460  77.0895
 84.7067  84.7077  84.7322  87.8873  87.9354  87.9360  88.1121  88.2871
 88.2878
 --------------------------------------------------------------

          Ground-State Mulliken Net Atomic Charges

     Atom                 Charge (a.u.)    Spin (a.u.)
  --------------------------------------------------------
      1 C                    -3.507936       0.000000
      2 H                     0.945932       0.000000
      3 H                     0.945933       0.000000
      4 H                     0.946263       0.000000
      5 Li                    0.669808       0.000000
  --------------------------------------------------------
  Sum of atomic charges =    -0.000000
  Sum of spin   charges =     0.000000

 -----------------------------------------------------------------
                    Cartesian Multipole Moments
 -----------------------------------------------------------------
    Charge (ESU x 10^10)
                 0.0000
    Dipole Moment (Debye)
         X      -0.0000      Y      -0.0000      Z      -5.7640
       Tot       5.7640
    Quadrupole Moments (Debye-Ang)
        XX     -11.7456     XY      -0.0000     YY     -11.7456
        XZ       0.0000     YZ       0.0001     ZZ     -19.6832
    Octopole Moments (Debye-Ang^2)
       XXX       0.0001    XXY       0.2883    XYY      -0.0001
       YYY      -0.2883    XXZ     -20.5758    XYZ      -0.0000
       YYZ     -20.5757    XZZ       0.0000    YZZ       0.0002
       ZZZ     -79.1571
    Hexadecapole Moments (Debye-Ang^3)
      XXXX     -25.3953   XXXY      -0.0000   XXYY      -8.4651
      XYYY      -0.0000   YYYY     -25.3955   XXXZ       0.0004
      XXYZ       0.9185   XYYZ      -0.0004   YYYZ      -0.9184
      XXZZ     -47.9073   XYZZ      -0.0000   YYZZ     -47.9072
      XZZZ       0.0000   YZZZ       0.0009   ZZZZ    -315.5327
 -----------------------------------------------------------------
Archival summary:
1\1\n0066.mhg0\SP\ProcedureUnspecified\BasisUnspecified\1i13\yhljason\FriNov1308:19:002020FriNov1308:19:002020\0\\#,ProcedureUnspecified,BasisUnspecified,\\0,1\C\H,1,1.095\H,1,1.095,2,105.999\H,1,1.09501,2,106,3,-112.365,0\Li,1,1.9851,2,112.753,3,123.817,0\\\@

 Total job time:  15389.30s(wall), 221870.19s(cpu) 
 Fri Nov 13 08:19:00 2020

        *************************************************************
        *                                                           *
        *  Thank you very much for using Q-Chem.  Have a nice day.  *
        *                                                           *
        *************************************************************


