                  Welcome to Q-Chem
     A Quantum Leap Into The Future Of Chemistry


 Q-Chem 5.3 (devel), Q-Chem, Inc., Pleasanton, CA (2020)

 Yihan Shao,  Zhengting Gan,  E. Epifanovsky,  A. T. B. Gilbert,  M. Wormit,  
 J. Kussmann,  A. W. Lange,  A. Behn,  Jia Deng,  Xintian Feng,  D. Ghosh,  
 M. Goldey,  P. R. Horn,  L. D. Jacobson,  I. Kaliman,  T. Kus,  A. Landau,  
 Jie Liu,  E. I. Proynov,  R. M. Richard,  R. P. Steele,  E. J. Sundstrom,  
 H. L. Woodcock III,  P. M. Zimmerman,  D. Zuev,  B. Alam,  B. Albrecht,  
 E. Alguire,  S. A. Baeppler,  D. Barton,  Z. Benda,  Y. A. Bernard,  
 E. J. Berquist,  K. B. Bravaya,  H. Burton,  K. Carter-Fenk,  D. Casanova,  
 Chun-Min Chang,  Yunqing Chen,  A. Chien,  K. D. Closser,  M. P. Coons,  
 S. Coriani,  S. Dasgupta,  A. L. Dempwolff,  M. Diedenhofen,  Hainam Do,  
 R. G. Edgar,  Po-Tung Fang,  S. Faraji,  S. Fatehi,  Qingguo Feng,  
 J. Fosso-Tande,  J. Gayvert,  Qinghui Ge,  A. Ghysels,  G. Gidofalvi,  
 J. Gomes,  J. Gonthier,  A. Gunina,  D. Hait,  M. W. D. Hanson-Heine,  
 P. H. P. Harbach,  A. W. Hauser,  M. F. Herbst,  J. E. Herr,  
 E. G. Hohenstein,  Z. C. Holden,  Kerwin Hui,  B. C. Huynh,  T.-C. Jagau,  
 Hyunjun Ji,  B. Kaduk,  K. Khistyaev,  Jaehoon Kim,  P. Klunzinger,  K. Koh,  
 D. Kosenkov,  L. Koulias,  T. Kowalczyk,  C. M. Krauter,  A. Kunitsa,  
 Ka Un Lao,  A. Laurent,  K. V. Lawler,  Joonho Lee,  D. Lefrancois,  
 S. Lehtola,  D. S. Levine,  Yi-Pei Li,  You-Sheng Lin,  Fenglai Liu,  
 Kuan-Yu Liu,  E. Livshits,  M. Loipersberger,  A. Luenser,  P. Manohar,  
 E. Mansoor,  S. F. Manzer,  Shan-Ping Mao,  Yuezhi Mao,  N. Mardirossian,  
 A. V. Marenich,  T. Markovich,  L. A. Martinez-Martinez,  S. A. Maurer,  
 N. J. Mayhall,  S. C. McKenzie,  J.-M. Mewes,  P. Morgante,  A. F. Morrison,  
 J. W. Mullinax,  K. Nanda,  T. S. Nguyen-Beck,  R. Olivares-Amaya,  
 K. J. Oosterbaan,  J. A. Parkhill,  S. K. Paul,  F. Pavosevic,  Zheng Pei,  
 T. M. Perrine,  F. Plasser,  P. Pokhilko,  S. Prager,  A. Prociuk,  
 E. Ramos,  B. Rana,  D. R. Rehn,  F. Rob,  M. Scheurer,  M. Schneider,  
 N. Sergueev,  S. M. Sharada,  S. Sharma,  D. W. Small,  T. Stauch,  
 C. J. Stein,  T. Stein,  Yu-Chuan Su,  S. P. Veccham,  Zhen Tao,  
 A. J. W. Thom,  A. Tkatchenko,  T. Tsuchimochi,  N. M. Tubman,  L. Vogt,  
 M. L. Vidal,  O. Vydrov,  M. A. Watson,  J. Wenzel,  M. de Wergifosse,  
 T. A. Wesolowski,  A. White,  J. Witte,  A. Yamada,  Jun Yang,  K. Yao,  
 S. Yeganeh,  S. R. Yost,  Zhi-Qiang You,  A. Zech,  Igor Ying Zhang,  
 Xing Zhang,  Yan Zhao,  Ying Zhu,  B. R. Brooks,  G. K. L. Chan,  
 C. J. Cramer,  M. S. Gordon,  W. J. Hehre,  A. Klamt,  M. W. Schmidt,  
 C. D. Sherrill,  D. G. Truhlar,  A. Aspuru-Guzik,  R. Baer,  A. T. Bell,  
 N. A. Besley,  Jeng-Da Chai,  A. E. DePrince, III,  R. A. DiStasio Jr.,  
 A. Dreuw,  B. D. Dunietz,  T. R. Furlani,  Chao-Ping Hsu,  Yousung Jung,  
 Jing Kong,  D. S. Lambrecht,  WanZhen Liang,  C. Ochsenfeld,  
 V. A. Rassolov,  L. V. Slipchenko,  J. E. Subotnik,  T. Van Voorhis,  
 J. M. Herbert,  A. I. Krylov,  P. M. W. Gill,  M. Head-Gordon

 Contributors to earlier versions of Q-Chem not listed above: 
 R. D. Adamson,  B. Austin,  J. Baker,  G. J. O. Beran,  K. Brandhorst,  
 S. T. Brown,  E. F. C. Byrd,  A. K. Chakraborty,  C.-L. Cheng,  
 Siu Hung Chien,  D. M. Chipman,  D. L. Crittenden,  H. Dachsel,  
 R. J. Doerksen,  A. D. Dutoi,  L. Fusti-Molnar,  W. A. Goddard III,  
 A. Golubeva-Zadorozhnaya,  S. R. Gwaltney,  G. Hawkins,  A. Heyden,  
 S. Hirata,  G. Kedziora,  F. J. Keil,  C. Kelley,  Jihan Kim,  R. A. King,  
 R. Z. Khaliullin,  P. P. Korambath,  W. Kurlancheek,  A. M. Lee,  M. S. Lee,  
 S. V. Levchenko,  Ching Yeh Lin,  D. Liotard,  R. C. Lochan,  I. Lotan,  
 P. E. Maslen,  N. Nair,  D. P. O'Neill,  D. Neuhauser,  E. Neuscamman,  
 C. M. Oana,  R. Olson,  B. Peters,  R. Peverati,  P. A. Pieniazek,  
 Y. M. Rhee,  J. Ritchie,  M. A. Rohrdanz,  E. Rosta,  N. J. Russ,  
 H. F. Schaefer III,  N. E. Schultz,  N. Shenvi,  A. C. Simmonett,  A. Sodt,  
 D. Stuck,  K. S. Thanthiriwatte,  V. Vanovschi,  Tao Wang,  A. Warshel,  
 C. F. Williams,  Q. Wu,  X. Xu,  W. Zhang

 Please cite Q-Chem as follows:
 Y. Shao et al., Mol. Phys. 113, 184-215 (2015)
 DOI: 10.1080/00268976.2014.952696

 Q-Chem 5.3.0 for Intel X86 EM64T Linux

 Parts of Q-Chem use Armadillo 9.800.1 (Horizon Scraper).
 http://arma.sourceforge.net/

 Q-Chem begins on Fri Nov 13 04:02:29 2020  

n0065.mhg0
Host: 0

     Scratch files written to /local/scratch/users/yhljason/CH3Li_M06_aug-pc-4.inp20201113040226//
Processing $rem in /clusterfs/mhg/diptarka/qchem_transmom//config/preferences:
Processing $rem in /global/home/users/yhljason/.qchemrc:

Checking the input file for inconsistencies... 	...done.

--------------------------------------------------------------
User input:
--------------------------------------------------------------
$molecule
0 1
C1 -0.0000000000 0.0000000000 1.9851000000
H2 -0.8744257046 0.5050292293 2.4086001236
H3 0.8745747704 0.5047710498 2.4086001158
H4 -0.0001490540 -1.0098003255 2.4086001425
Li5 0.0000000000 0.0000000000 0.0000000000
$end
$rem
jobtype sp
method M06
xc_grid 000099000590
basis aug-pc-4
max_scf_cycles 200
thresh 14
scf_convergence 8
scf_algorithm gdm
gen_scfman false
stability_analysis true
symmetry false
sym_ignore true
unrestricted True
gen_scfman true
mem_total 64000
mem_static 1500
n_frozen_core 0
max_cis_cycles 200
$end

--------------------------------------------------------------
 ----------------------------------------------------------------
             Standard Nuclear Orientation (Angstroms)
    I     Atom           X                Y                Z
 ----------------------------------------------------------------
    1      C      -0.0000000000     0.0000000000     1.9851000000
    2      H      -0.8744257046     0.5050292293     2.4086001236
    3      H       0.8745747704     0.5047710498     2.4086001158
    4      H      -0.0001490540    -1.0098003255     2.4086001425
    5      Li      0.0000000000     0.0000000000     0.0000000000
 ----------------------------------------------------------------
 Nuclear Repulsion Energy =          16.22833771 hartrees
 There are        6 alpha and        6 beta electrons
 Requested basis set is aug-pc-4
 There are 128 shells and 492 basis functions

 Total QAlloc Memory Limit  64000 MB
 Mega-Array Size      1467 MB
 MEM_STATIC part      1500 MB

                       Distance Matrix (Angstroms)
             C (  1)   H (  2)   H (  3)   H (  4)
   H (  2)  1.095001
   H (  3)  1.095001  1.749000
   H (  4)  1.095011  1.749019  1.749019
   Li(  5)  1.985100  2.611710  2.611710  2.611714

 A cutoff of  1.0D-14 yielded   8226 shell pairs
 There are    122272 function pairs (    213475 Cartesian)
 Smallest overlap matrix eigenvalue = 1.42E-07
 Linear dependence detected in AO basis
 Tighter screening thresholds may be required for diffuse basis sets
 Use S2THRESH > 14 and THRESH = 14 in case of SCF convergence issues
 Number of orthogonalized atomic orbitals = 487
 Maximum deviation from orthogonality = 9.176E-10

 Scale SEOQF with 1.000000e-01/1.000000e-01/1.000000e-01

 Standard Electronic Orientation quadrupole field applied
 Nucleus-field energy     =    -0.0000000042 hartrees
 Guess from superposition of atomic densities
 Warning:  Energy on first SCF cycle will be non-variational
 SAD guess density has 12.000000 electrons

 -----------------------------------------------------------------------
  General SCF calculation program by
  Eric Jon Sundstrom, Paul Horn, Yuezhi Mao, Dmitri Zuev, Alec White,
  David Stuck, Shaama M.S., Shane Yost, Joonho Lee, David Small,
  Daniel Levine, Susi Lehtola, Hugh Burton, Evgeny Epifanovsky,
  Bang C. Huynh
 -----------------------------------------------------------------------
 Exchange:     0.2700 Hartree-Fock + 1.0000 M06
 Correlation:  1.0000 M06
 Using Euler-Maclaurin-Lebedev (99,590) quadrature formula
 A unrestricted SCF calculation will be
 performed using Roothaan-Hall, GDM
 SCF converges when RMS gradient is below 1.0e-08
 ---------------------------------------
  Cycle       Energy         DIIS error
 ---------------------------------------
    1     -47.3064204458      3.36e-03  Roothaan Step
 ---------------------------------------
  Cycle       Energy        RMS Gradient
 ---------------------------------------
    1     -47.2258458878      1.40e-01   Descent step
    2     -47.3713054202      7.01e-02   Normal BFGS step
    3     -47.3876552281      1.55e-02   Normal BFGS step
    4     -47.3889270701      4.24e-03   Normal BFGS step
    5     -47.3889892399      1.31e-03   Normal BFGS step
    6     -47.3889990007      3.18e-04   Normal BFGS step
    7     -47.3889999747      2.69e-04   Normal BFGS step
    8     -47.3890000964      5.94e-05   Normal BFGS step
    9     -47.3890001110      9.48e-06   Normal BFGS step
   10     -47.3890001118      1.64e-06   Normal BFGS step
   11     -47.3890001118      6.61e-07   Normal BFGS step
   12     -47.3890001119      2.25e-07   Normal BFGS step
   13     -47.3890001119      6.12e-08   Normal BFGS step
   14     -47.3890001119      3.19e-08   Normal BFGS step
   15     -47.3890001119      1.25e-08   Normal BFGS step
   16     -47.3890001119      2.96e-09  Convergence criterion met
 ---------------------------------------
 SCF time:   CPU 55737.84s  wall 3559.00s 
<S^2> =          0.000000000
 SCF   energy in the final basis set =      -47.3890001119
 Total energy in the final basis set =      -47.3890001119

 Direct TDDFT/TDA calculation will be performed
 Exchange:     0.2700 Hartree-Fock + 1.0000 M06
 Correlation:  1.0000 M06
 Using Euler-Maclaurin-Lebedev (99,590) quadrature formula
 CIS energy converged when residual is below 10e- 6
 ---------------------------------------------------
 Iter    Rts Conv    Rts Left    Ttl Dev     Max Dev
 ---------------------------------------------------
   1         0           1      0.000976    0.000976
   2         0           1      0.000579    0.000579
   3         0           1      0.000293    0.000293
   4         0           1      0.000121    0.000121
   5         0           1      0.000049    0.000049
   6         0           1      0.000022    0.000022
   7         0           1      0.000005    0.000005
   8         1           0      0.000001    0.000001    Roots Converged
 ---------------------------------------------------

 ---------------------------------------------------
         TDDFT/TDA Excitation Energies              
 ---------------------------------------------------

 Excited state   1: excitation energy (eV) =    2.4424
 Total energy for state  1:                   -47.29924426 au
    <S**2>     :  2.0000
    Trans. Mom.:  0.0000 X  -0.0000 Y   0.0000 Z
    Strength   :     0.0000000001
    D(    6) --> V(    1) amplitude =  0.6979 alpha
    D(    6) --> V(    1) amplitude = -0.6978 beta

 ---------------------------------------------------

 Stability analysis will be performed
 ---------------------------------------------------
 Iter    Rts Conv    Rts Left    Ttl Dev     Max Dev
 ---------------------------------------------------
   1         0           2      0.001492    0.000746
   2         0           2      0.000378    0.000287
   3         0           2      0.000132    0.000121
   4         0           2      0.000073    0.000072
   5         1           1      0.000016    0.000016
   6         1           1      0.000017    0.000017
   7         1           1      0.000003    0.000003
   8         1           1      0.000001    0.000001
   9         2           0      0.000001    0.000001    Roots Converged
 UKS-> UKS   stable,    smallest eigenvalue:      0.1016904
 UKS->CUKS   stable,    smallest eigenvalue:      0.0702187
 ---------------------------------------------------
  SETman timing summary (seconds)
  CPU time             61951.60s
  System time              0.00s
  Wall time             4362.28s

 --------------------------------------------------------------

                    Orbital Energies (a.u.)
 --------------------------------------------------------------

 Alpha MOs
 -- Occupied --
-10.1270  -2.0104  -0.5995  -0.3198  -0.3198  -0.1818
 -- Virtual --
 -0.0677  -0.0250  -0.0250  -0.0172  -0.0078   0.0081   0.0081   0.0085
  0.0102   0.0102   0.0164   0.0168   0.0168   0.0222   0.0359   0.0370
  0.0370   0.0433   0.0433   0.0549   0.0550   0.0624   0.0624   0.0666
  0.0770   0.0792   0.0792   0.0833   0.0861   0.0861   0.0900   0.0975
  0.0975   0.0982   0.0982   0.1033   0.1049   0.1117   0.1117   0.1124
  0.1170   0.1170   0.1270   0.1270   0.1450   0.1474   0.1474   0.1498
  0.1508   0.1508   0.1532   0.1635   0.1740   0.1786   0.1786   0.1918
  0.1950   0.1950   0.1992   0.2042   0.2042   0.2149   0.2191   0.2191
  0.2284   0.2338   0.2338   0.2467   0.2553   0.2553   0.2601   0.2660
  0.2660   0.2761   0.2761   0.2800   0.2845   0.2845   0.3040   0.3067
  0.3067   0.3145   0.3221   0.3222   0.3222   0.3318   0.3333   0.3333
  0.3449   0.3540   0.3709   0.3709   0.3765   0.3765   0.3806   0.3813
  0.3813   0.3862   0.3980   0.4005   0.4005   0.4161   0.4161   0.4295
  0.4296   0.4378   0.4403   0.4453   0.4453   0.4491   0.4583   0.4583
  0.4706   0.4941   0.4941   0.5050   0.5050   0.5073   0.5150   0.5294
  0.5294   0.5467   0.5546   0.5725   0.5726   0.5726   0.5858   0.5858
  0.6092   0.6092   0.6138   0.6210   0.6288   0.6288   0.6380   0.6480
  0.6571   0.6571   0.6736   0.6736   0.6832   0.6832   0.6845   0.6891
  0.6924   0.6924   0.6941   0.7235   0.7235   0.7236   0.7305   0.7305
  0.7414   0.7414   0.7487   0.7706   0.7755   0.7755   0.7810   0.7810
  0.7966   0.7967   0.7967   0.8124   0.8148   0.8148   0.8152   0.8207
  0.8340   0.8340   0.8348   0.8599   0.8599   0.8627   0.8627   0.8950
  0.9031   0.9031   0.9072   0.9329   0.9560   0.9616   1.0138   1.0251
  1.0251   1.0467   1.0467   1.1041   1.1041   1.1090   1.1221   1.1463
  1.1463   1.1988   1.1988   1.2792   1.2792   1.2952   1.3117   1.3117
  1.3568   1.4015   1.4301   1.4302   1.4435   1.4651   1.4651   1.5600
  1.5600   1.5684   1.5704   1.5704   1.5884   1.6123   1.6123   1.6189
  1.6529   1.6529   1.6995   1.7613   1.7666   1.7666   1.9288   1.9513
  1.9513   1.9618   2.0126   2.0126   2.0357   2.1891   2.1891   2.1976
  2.2537   2.2537   2.2680   2.2708   2.3227   2.3419   2.3419   2.4333
  2.4628   2.4631   2.4631   2.5234   2.5935   2.5935   2.6106   2.6106
  2.6254   2.6355   2.6355   2.7263   2.7307   2.7617   2.7617   2.7960
  2.9613   2.9613   3.0238   3.0588   3.0588   3.1385   3.1385   3.2145
  3.2542   3.2542   3.3807   3.4613   3.4613   3.4703   3.5139   3.5139
  3.5590   3.6619   3.6619   3.6839   3.7607   3.7757   3.7757   3.8055
  3.8530   3.8530   4.0005   4.0005   4.0007   4.1065   4.1399   4.1681
  4.1681   4.2345   4.2345   4.2838   4.3776   4.3776   4.4864   4.4864
  4.5948   4.6004   4.6551   4.6551   4.8734   4.8734   4.9252   4.9252
  4.9378   5.0973   5.1369   5.1369   5.1928   5.2588   5.3181   5.3568
  5.3568   5.4302   5.4302   5.5765   5.5765   5.5971   5.7170   5.7656
  5.7656   5.7921   5.9164   5.9164   5.9884   5.9884   6.0469   6.2362
  6.2362   6.3735   6.5042   6.5042   6.7464   6.7464   6.7520   6.8340
  6.9098   6.9098   7.2730   7.7487   7.7487   7.8931   8.5797   8.6714
  8.6714   8.9014   8.9838   8.9838   9.0959   9.0960   9.1137   9.1138
  9.1732   9.2262   9.3859   9.3859   9.4160   9.4953   9.4953   9.5750
  9.5750   9.7171   9.9651  10.7725  10.8858  10.8858  10.9530  10.9530
 11.0257  11.0291  11.0291  11.1233  11.1838  11.1838  11.2673  11.2818
 11.3858  11.3858  11.6054  11.9213  11.9213  11.9349  12.1354  12.2040
 12.2040  12.3426  12.3631  12.3631  12.4875  12.5254  12.5254  12.5969
 12.6724  12.6724  12.8456  12.8624  12.8923  12.8923  13.0104  13.0104
 13.2289  13.2290  13.3038  13.4049  13.4049  13.5079  13.5080  13.5901
 13.7689  13.7689  13.9872  14.1812  14.6431  14.6431  14.7377  14.9469
 14.9470  15.5548  15.7734  15.7735  16.1720  16.4060  16.4061  16.9331
 16.9526  16.9527  16.9884  16.9892  16.9892  17.0267  17.2142  17.3336
 17.3337  17.5959  17.5960  17.6064  18.3523  18.6825  18.6827  18.9146
 18.9148  19.0414  19.5374  19.5376  19.6119  19.7080  20.0729  20.0729
 20.2914  20.2917  20.6133  21.1756  21.9728  21.9729  23.8383  23.9700
 23.9701  24.2640  24.4306  24.4308  25.5042  25.5047  25.6053  32.9385
 32.9385  33.2227  34.2907  34.2908  41.8931  41.8934  42.0283  76.9316
 93.0147  93.0150  93.0583  93.1683  93.3113  93.3113  93.5037  93.6225
 93.6226

 Beta MOs
 -- Occupied --
-10.1270  -2.0104  -0.5995  -0.3198  -0.3198  -0.1818
 -- Virtual --
 -0.0677  -0.0250  -0.0250  -0.0172  -0.0078   0.0081   0.0081   0.0085
  0.0102   0.0102   0.0164   0.0168   0.0168   0.0222   0.0359   0.0370
  0.0370   0.0433   0.0433   0.0549   0.0550   0.0624   0.0624   0.0666
  0.0770   0.0792   0.0792   0.0833   0.0861   0.0861   0.0900   0.0975
  0.0975   0.0982   0.0982   0.1033   0.1049   0.1117   0.1117   0.1124
  0.1170   0.1170   0.1270   0.1270   0.1450   0.1474   0.1474   0.1498
  0.1508   0.1508   0.1532   0.1635   0.1740   0.1786   0.1786   0.1918
  0.1950   0.1950   0.1992   0.2042   0.2042   0.2149   0.2191   0.2191
  0.2284   0.2338   0.2338   0.2467   0.2553   0.2553   0.2601   0.2660
  0.2660   0.2761   0.2761   0.2800   0.2845   0.2845   0.3040   0.3067
  0.3067   0.3145   0.3221   0.3222   0.3222   0.3318   0.3333   0.3333
  0.3449   0.3540   0.3709   0.3709   0.3765   0.3765   0.3806   0.3813
  0.3813   0.3862   0.3980   0.4005   0.4005   0.4161   0.4161   0.4295
  0.4296   0.4378   0.4403   0.4453   0.4453   0.4491   0.4583   0.4583
  0.4706   0.4941   0.4941   0.5050   0.5050   0.5073   0.5150   0.5294
  0.5294   0.5467   0.5546   0.5725   0.5726   0.5726   0.5858   0.5858
  0.6092   0.6092   0.6138   0.6210   0.6288   0.6288   0.6380   0.6480
  0.6571   0.6571   0.6736   0.6736   0.6832   0.6832   0.6845   0.6891
  0.6924   0.6924   0.6941   0.7235   0.7235   0.7236   0.7305   0.7305
  0.7414   0.7414   0.7487   0.7706   0.7755   0.7755   0.7810   0.7810
  0.7966   0.7967   0.7967   0.8124   0.8148   0.8148   0.8152   0.8207
  0.8340   0.8340   0.8348   0.8599   0.8599   0.8627   0.8627   0.8950
  0.9031   0.9031   0.9072   0.9329   0.9560   0.9616   1.0138   1.0251
  1.0251   1.0467   1.0467   1.1041   1.1041   1.1090   1.1221   1.1463
  1.1463   1.1988   1.1988   1.2792   1.2792   1.2952   1.3117   1.3117
  1.3568   1.4015   1.4301   1.4302   1.4435   1.4651   1.4651   1.5600
  1.5600   1.5684   1.5704   1.5704   1.5884   1.6123   1.6123   1.6189
  1.6529   1.6529   1.6995   1.7613   1.7666   1.7666   1.9288   1.9513
  1.9513   1.9618   2.0126   2.0126   2.0357   2.1891   2.1891   2.1976
  2.2537   2.2537   2.2680   2.2708   2.3227   2.3419   2.3419   2.4333
  2.4628   2.4631   2.4631   2.5234   2.5935   2.5935   2.6106   2.6106
  2.6254   2.6355   2.6355   2.7263   2.7307   2.7617   2.7617   2.7960
  2.9613   2.9613   3.0238   3.0588   3.0588   3.1385   3.1385   3.2145
  3.2542   3.2542   3.3807   3.4613   3.4613   3.4703   3.5139   3.5139
  3.5590   3.6619   3.6619   3.6839   3.7607   3.7757   3.7757   3.8055
  3.8530   3.8530   4.0005   4.0005   4.0007   4.1065   4.1399   4.1681
  4.1681   4.2345   4.2345   4.2838   4.3776   4.3776   4.4864   4.4864
  4.5948   4.6004   4.6551   4.6551   4.8734   4.8734   4.9252   4.9252
  4.9378   5.0973   5.1369   5.1369   5.1928   5.2588   5.3181   5.3568
  5.3568   5.4302   5.4302   5.5765   5.5765   5.5971   5.7170   5.7656
  5.7656   5.7921   5.9164   5.9164   5.9884   5.9884   6.0469   6.2362
  6.2362   6.3735   6.5042   6.5042   6.7464   6.7464   6.7520   6.8340
  6.9098   6.9098   7.2730   7.7487   7.7487   7.8931   8.5797   8.6714
  8.6714   8.9014   8.9838   8.9838   9.0959   9.0960   9.1137   9.1138
  9.1732   9.2262   9.3859   9.3859   9.4160   9.4953   9.4953   9.5750
  9.5750   9.7171   9.9651  10.7725  10.8858  10.8858  10.9530  10.9530
 11.0257  11.0291  11.0291  11.1233  11.1838  11.1838  11.2673  11.2818
 11.3858  11.3858  11.6054  11.9213  11.9213  11.9349  12.1354  12.2040
 12.2040  12.3426  12.3631  12.3631  12.4875  12.5254  12.5254  12.5969
 12.6724  12.6724  12.8456  12.8624  12.8923  12.8923  13.0104  13.0104
 13.2289  13.2290  13.3038  13.4049  13.4049  13.5079  13.5080  13.5901
 13.7689  13.7689  13.9872  14.1812  14.6431  14.6431  14.7377  14.9469
 14.9470  15.5548  15.7734  15.7735  16.1720  16.4060  16.4061  16.9331
 16.9526  16.9527  16.9884  16.9892  16.9892  17.0267  17.2142  17.3336
 17.3337  17.5959  17.5960  17.6064  18.3523  18.6825  18.6827  18.9146
 18.9148  19.0414  19.5374  19.5376  19.6119  19.7080  20.0729  20.0729
 20.2914  20.2917  20.6133  21.1756  21.9728  21.9729  23.8383  23.9700
 23.9701  24.2640  24.4306  24.4308  25.5042  25.5047  25.6053  32.9385
 32.9385  33.2227  34.2907  34.2908  41.8931  41.8934  42.0283  76.9316
 93.0147  93.0150  93.0583  93.1683  93.3113  93.3113  93.5037  93.6225
 93.6226
 --------------------------------------------------------------

          Ground-State Mulliken Net Atomic Charges

     Atom                 Charge (a.u.)    Spin (a.u.)
  --------------------------------------------------------
      1 C                    -1.970456       0.000000
      2 H                     0.363440       0.000000
      3 H                     0.363439       0.000000
      4 H                     0.363344       0.000000
      5 Li                    0.880233       0.000000
  --------------------------------------------------------
  Sum of atomic charges =     0.000000
  Sum of spin   charges =     0.000000

 -----------------------------------------------------------------
                    Cartesian Multipole Moments
 -----------------------------------------------------------------
    Charge (ESU x 10^10)
                -0.0000
    Dipole Moment (Debye)
         X       0.0000      Y       0.0000      Z      -5.7904
       Tot       5.7904
    Quadrupole Moments (Debye-Ang)
        XX     -11.7716     XY       0.0000     YY     -11.7716
        XZ       0.0000     YZ       0.0000     ZZ     -19.9394
    Octopole Moments (Debye-Ang^2)
       XXX       0.0001    XXY       0.2206    XYY      -0.0001
       YYY      -0.2205    XXZ     -20.5822    XYZ       0.0000
       YYZ     -20.5821    XZZ      -0.0000    YZZ       0.0001
       ZZZ     -80.0450
    Hexadecapole Moments (Debye-Ang^3)
      XXXX     -26.0317   XXXY       0.0000   XXYY      -8.6773
      XYYY       0.0000   YYYY     -26.0319   XXXZ       0.0003
      XXYZ       0.7388   XYYZ      -0.0003   YYYZ      -0.7386
      XXZZ     -48.4378   XYZZ       0.0000   YYZZ     -48.4377
      XZZZ      -0.0000   YZZZ       0.0003   ZZZZ    -319.6637
 -----------------------------------------------------------------
Archival summary:
1\1\n0065.mhg0\SP\ProcedureUnspecified\BasisUnspecified\1i13\yhljason\FriNov1306:14:352020FriNov1306:14:352020\0\\#,ProcedureUnspecified,BasisUnspecified,\\0,1\C\H,1,1.095\H,1,1.095,2,105.999\H,1,1.09501,2,106,3,-112.365,0\Li,1,1.9851,2,112.753,3,123.817,0\\\@

 Total job time:  7925.49s(wall), 117722.49s(cpu) 
 Fri Nov 13 06:14:35 2020

        *************************************************************
        *                                                           *
        *  Thank you very much for using Q-Chem.  Have a nice day.  *
        *                                                           *
        *************************************************************


