                  Welcome to Q-Chem
     A Quantum Leap Into The Future Of Chemistry


 Q-Chem 5.3 (devel), Q-Chem, Inc., Pleasanton, CA (2020)

 Yihan Shao,  Zhengting Gan,  E. Epifanovsky,  A. T. B. Gilbert,  M. Wormit,  
 J. Kussmann,  A. W. Lange,  A. Behn,  Jia Deng,  Xintian Feng,  D. Ghosh,  
 M. Goldey,  P. R. Horn,  L. D. Jacobson,  I. Kaliman,  T. Kus,  A. Landau,  
 Jie Liu,  E. I. Proynov,  R. M. Richard,  R. P. Steele,  E. J. Sundstrom,  
 H. L. Woodcock III,  P. M. Zimmerman,  D. Zuev,  B. Alam,  B. Albrecht,  
 E. Alguire,  S. A. Baeppler,  D. Barton,  Z. Benda,  Y. A. Bernard,  
 E. J. Berquist,  K. B. Bravaya,  H. Burton,  K. Carter-Fenk,  D. Casanova,  
 Chun-Min Chang,  Yunqing Chen,  A. Chien,  K. D. Closser,  M. P. Coons,  
 S. Coriani,  S. Dasgupta,  A. L. Dempwolff,  M. Diedenhofen,  Hainam Do,  
 R. G. Edgar,  Po-Tung Fang,  S. Faraji,  S. Fatehi,  Qingguo Feng,  
 J. Fosso-Tande,  J. Gayvert,  Qinghui Ge,  A. Ghysels,  G. Gidofalvi,  
 J. Gomes,  J. Gonthier,  A. Gunina,  D. Hait,  M. W. D. Hanson-Heine,  
 P. H. P. Harbach,  A. W. Hauser,  M. F. Herbst,  J. E. Herr,  
 E. G. Hohenstein,  Z. C. Holden,  Kerwin Hui,  B. C. Huynh,  T.-C. Jagau,  
 Hyunjun Ji,  B. Kaduk,  K. Khistyaev,  Jaehoon Kim,  P. Klunzinger,  K. Koh,  
 D. Kosenkov,  L. Koulias,  T. Kowalczyk,  C. M. Krauter,  A. Kunitsa,  
 Ka Un Lao,  A. Laurent,  K. V. Lawler,  Joonho Lee,  D. Lefrancois,  
 S. Lehtola,  D. S. Levine,  Yi-Pei Li,  You-Sheng Lin,  Fenglai Liu,  
 Kuan-Yu Liu,  E. Livshits,  M. Loipersberger,  A. Luenser,  P. Manohar,  
 E. Mansoor,  S. F. Manzer,  Shan-Ping Mao,  Yuezhi Mao,  N. Mardirossian,  
 A. V. Marenich,  T. Markovich,  L. A. Martinez-Martinez,  S. A. Maurer,  
 N. J. Mayhall,  S. C. McKenzie,  J.-M. Mewes,  P. Morgante,  A. F. Morrison,  
 J. W. Mullinax,  K. Nanda,  T. S. Nguyen-Beck,  R. Olivares-Amaya,  
 K. J. Oosterbaan,  J. A. Parkhill,  S. K. Paul,  F. Pavosevic,  Zheng Pei,  
 T. M. Perrine,  F. Plasser,  P. Pokhilko,  S. Prager,  A. Prociuk,  
 E. Ramos,  B. Rana,  D. R. Rehn,  F. Rob,  M. Scheurer,  M. Schneider,  
 N. Sergueev,  S. M. Sharada,  S. Sharma,  D. W. Small,  T. Stauch,  
 C. J. Stein,  T. Stein,  Yu-Chuan Su,  S. P. Veccham,  Zhen Tao,  
 A. J. W. Thom,  A. Tkatchenko,  T. Tsuchimochi,  N. M. Tubman,  L. Vogt,  
 M. L. Vidal,  O. Vydrov,  M. A. Watson,  J. Wenzel,  M. de Wergifosse,  
 T. A. Wesolowski,  A. White,  J. Witte,  A. Yamada,  Jun Yang,  K. Yao,  
 S. Yeganeh,  S. R. Yost,  Zhi-Qiang You,  A. Zech,  Igor Ying Zhang,  
 Xing Zhang,  Yan Zhao,  Ying Zhu,  B. R. Brooks,  G. K. L. Chan,  
 C. J. Cramer,  M. S. Gordon,  W. J. Hehre,  A. Klamt,  M. W. Schmidt,  
 C. D. Sherrill,  D. G. Truhlar,  A. Aspuru-Guzik,  R. Baer,  A. T. Bell,  
 N. A. Besley,  Jeng-Da Chai,  A. E. DePrince, III,  R. A. DiStasio Jr.,  
 A. Dreuw,  B. D. Dunietz,  T. R. Furlani,  Chao-Ping Hsu,  Yousung Jung,  
 Jing Kong,  D. S. Lambrecht,  WanZhen Liang,  C. Ochsenfeld,  
 V. A. Rassolov,  L. V. Slipchenko,  J. E. Subotnik,  T. Van Voorhis,  
 J. M. Herbert,  A. I. Krylov,  P. M. W. Gill,  M. Head-Gordon

 Contributors to earlier versions of Q-Chem not listed above: 
 R. D. Adamson,  B. Austin,  J. Baker,  G. J. O. Beran,  K. Brandhorst,  
 S. T. Brown,  E. F. C. Byrd,  A. K. Chakraborty,  C.-L. Cheng,  
 Siu Hung Chien,  D. M. Chipman,  D. L. Crittenden,  H. Dachsel,  
 R. J. Doerksen,  A. D. Dutoi,  L. Fusti-Molnar,  W. A. Goddard III,  
 A. Golubeva-Zadorozhnaya,  S. R. Gwaltney,  G. Hawkins,  A. Heyden,  
 S. Hirata,  G. Kedziora,  F. J. Keil,  C. Kelley,  Jihan Kim,  R. A. King,  
 R. Z. Khaliullin,  P. P. Korambath,  W. Kurlancheek,  A. M. Lee,  M. S. Lee,  
 S. V. Levchenko,  Ching Yeh Lin,  D. Liotard,  R. C. Lochan,  I. Lotan,  
 P. E. Maslen,  N. Nair,  D. P. O'Neill,  D. Neuhauser,  E. Neuscamman,  
 C. M. Oana,  R. Olson,  B. Peters,  R. Peverati,  P. A. Pieniazek,  
 Y. M. Rhee,  J. Ritchie,  M. A. Rohrdanz,  E. Rosta,  N. J. Russ,  
 H. F. Schaefer III,  N. E. Schultz,  N. Shenvi,  A. C. Simmonett,  A. Sodt,  
 D. Stuck,  K. S. Thanthiriwatte,  V. Vanovschi,  Tao Wang,  A. Warshel,  
 C. F. Williams,  Q. Wu,  X. Xu,  W. Zhang

 Please cite Q-Chem as follows:
 Y. Shao et al., Mol. Phys. 113, 184-215 (2015)
 DOI: 10.1080/00268976.2014.952696

 Q-Chem 5.3.0 for Intel X86 EM64T Linux

 Parts of Q-Chem use Armadillo 9.800.1 (Horizon Scraper).
 http://arma.sourceforge.net/

 Q-Chem begins on Wed Nov 11 01:30:29 2020  

n0033.mhg0
Host: 0

     Scratch files written to /local/scratch/users/yhljason/HCHO_M06_aug-pc-4.inp20201110225737//
Processing $rem in /clusterfs/mhg/diptarka/qchem_transmom//config/preferences:
Processing $rem in /global/home/users/yhljason/.qchemrc:

Checking the input file for inconsistencies... 	...done.

--------------------------------------------------------------
User input:
--------------------------------------------------------------
$molecule
0 1
O1      0.0000  0.0000  1.2050
C2      0.0000  0.0000  0.0000
H3      0.0000  0.9429  -0.5876
H4      0.0000  -0.9429 -0.5876
$end

$rem
jobtype sp
method M06
xc_grid 000099000590
basis aug-pc-4
max_scf_cycles 200
thresh 14
scf_convergence 8
scf_algorithm gdm
symmetry false
sym_ignore true
unrestricted True
gen_scfman true
internal_stability_iter 15
internal_stability_davidson_iter 200
mem_total 64000
mem_static 1500
n_frozen_core 0
$end



--------------------------------------------------------------
 ----------------------------------------------------------------
             Standard Nuclear Orientation (Angstroms)
    I     Atom           X                Y                Z
 ----------------------------------------------------------------
    1      O       0.0000000000     0.0000000000     1.2050000000
    2      C       0.0000000000     0.0000000000     0.0000000000
    3      H       0.0000000000     0.9429000000    -0.5876000000
    4      H       0.0000000000    -0.9429000000    -0.5876000000
 ----------------------------------------------------------------
 Nuclear Repulsion Energy =          31.25573500 hartrees
 There are        8 alpha and        8 beta electrons
 Requested basis set is aug-pc-4
 There are 114 shells and 466 basis functions

 Total QAlloc Memory Limit  64000 MB
 Mega-Array Size      1467 MB
 MEM_STATIC part      1500 MB

                       Distance Matrix (Angstroms)
             O (  1)   C (  2)   H (  3)
   C (  2)  1.205000
   H (  3)  2.025457  1.111006
   H (  4)  2.025457  1.111006  1.885800

 A cutoff of  1.0D-14 yielded   6491 shell pairs
 There are    109599 function pairs (    201231 Cartesian)
 Smallest overlap matrix eigenvalue = 1.74E-07
 Linear dependence detected in AO basis
 Tighter screening thresholds may be required for diffuse basis sets
 Use S2THRESH > 14 and THRESH = 14 in case of SCF convergence issues
 Number of orthogonalized atomic orbitals = 462
 Maximum deviation from orthogonality = 1.694E-10

 Scale SEOQF with 1.000000e-01/1.000000e-01/1.000000e-01

 Standard Electronic Orientation quadrupole field applied
 Nucleus-field energy     =    -0.0000000012 hartrees
 Guess from superposition of atomic densities
 Warning:  Energy on first SCF cycle will be non-variational
 SAD guess density has 16.000000 electrons

 -----------------------------------------------------------------------
  General SCF calculation program by
  Eric Jon Sundstrom, Paul Horn, Yuezhi Mao, Dmitri Zuev, Alec White,
  David Stuck, Shaama M.S., Shane Yost, Joonho Lee, David Small,
  Daniel Levine, Susi Lehtola, Hugh Burton, Evgeny Epifanovsky,
  Bang C. Huynh
 -----------------------------------------------------------------------
 Exchange:     0.2700 Hartree-Fock + 1.0000 M06
 Correlation:  1.0000 M06
 Using Euler-Maclaurin-Lebedev (99,590) quadrature formula
Running Object-Oriented UKS (UHF)
performing a single roothaan step with Fock from read density so that orbitals are available to all algorithms
energy of the guess density (C=0) -114.649894613924
We will preform up to 15 macro iterations over saddle points until a stable solution is found
Energy prior to optimization (guess energy) = -114.434627230461
Begin Timing: Total SCF Calculation
Begin Timing: SCF Single Stationary Point Calculation
begin iterations for algorithm: GDM          
the SCF tolerance is set to 1.00e-08
    1    -114.4346272305      2.28e-01     00000  Descent step
    2    -114.4508086579      2.54e-01     00000  Normal BFGS step
    3    -114.4964236118      2.70e-02     00000  Normal BFGS step
    4    -114.4973951854      8.23e-03     00000  Normal BFGS step
    5    -114.4980843148      8.80e-04     00000  Normal BFGS step
    6    -114.4980882062      6.82e-04     00000  Normal BFGS step
    7    -114.4980900667      1.37e-04     00000  Normal BFGS step
    8    -114.4980901887      6.75e-05     00000  Normal BFGS step
    9    -114.4980902269      3.97e-05     00000  Normal BFGS step
   10    -114.4980902303      1.18e-05     00000  Normal BFGS step
   11    -114.4980902312      4.99e-07     00000  Normal BFGS step
   12    -114.4980902312      3.83e-07     00000  Normal BFGS step
   13    -114.4980902312      3.20e-07     00000  Normal BFGS step
   14    -114.4980902312      3.12e-07     00000  Normal BFGS step
   15    -114.4980902312      8.84e-09     00000 Convergence criterion met
Timing for Single Stationary Point: 2904.00s (wall), 22870.10s (cpu)
Begin Timing: Stability
===================================================
Beginning Test for Internal Stability
===================================================
generating davidson guess vectors based on koopmans excitations
 Warning: Hessian-vector products not implemented
 Finite difference Hessian-vector products will be used.
computing hessian-vector products by finite difference
    1      5.60e-01     00000 Davidson Iteration
computing hessian-vector products by finite difference
    2      1.43e-01     00000 Davidson Iteration
computing hessian-vector products by finite difference
    3      6.29e-02     00000 Davidson Iteration
computing hessian-vector products by finite difference
    4      1.97e-02     00000 Davidson Iteration
computing hessian-vector products by finite difference
    5      4.46e-03     00000 Davidson Iteration
computing hessian-vector products by finite difference
    6      2.53e-03     00000 Davidson Iteration
computing hessian-vector products by finite difference
    7      8.36e-04     00000 Davidson Iteration
computing hessian-vector products by finite difference
    8      1.64e-04     00000 Davidson Iteration
computing hessian-vector products by finite difference
    9      4.46e-05     00000 Davidson Converged
converged_eigenvalues
   0.2459
   0.3130
Threshold for negative eigenvalues: -1.0e-05
solution was a local minimum (stable)
===================================================
End Test for Internal Stability
===================================================
Timing for Internal Stability: 8688.00s (wall), 68404.22s (cpu)
Our SCF solution is stable!
Timing for Total SCF: 11593.00s (wall), 91274.50s (cpu)
 Total energy in the final basis set =     -114.4980902312
<S^2> =          0.000000000
    ==================================================
              The end of Object-Oriented SCFman       
    ==================================================

 --------------------------------------------------------------

                    Orbital Energies (a.u.)
 --------------------------------------------------------------

 Alpha MOs
 -- Occupied --
-19.2342 -10.3452  -1.0859  -0.6515  -0.5152  -0.4713  -0.4235  -0.2906
 -- Virtual --
 -0.0555  -0.0395  -0.0152  -0.0121  -0.0037   0.0191   0.0242   0.0284
  0.0335   0.0366   0.0378   0.0477   0.0499   0.0616   0.0766   0.0820
  0.0851   0.0924   0.0946   0.0952   0.0980   0.0992   0.1235   0.1286
  0.1412   0.1494   0.1505   0.1645   0.1715   0.1765   0.1803   0.1866
  0.1903   0.1922   0.1923   0.2029   0.2050   0.2081   0.2140   0.2144
  0.2347   0.2402   0.2407   0.2556   0.2561   0.2584   0.2617   0.2691
  0.2743   0.2787   0.2987   0.2994   0.3060   0.3094   0.3224   0.3257
  0.3290   0.3364   0.3377   0.3383   0.3457   0.3530   0.3583   0.3846
  0.3861   0.3877   0.3891   0.3951   0.4120   0.4152   0.4345   0.4375
  0.4396   0.4465   0.4496   0.4498   0.4605   0.4611   0.4824   0.4876
  0.4892   0.4940   0.5116   0.5181   0.5192   0.5282   0.5390   0.5451
  0.5479   0.5495   0.5522   0.5523   0.5545   0.5671   0.5697   0.5717
  0.5769   0.5774   0.6038   0.6192   0.6203   0.6322   0.6340   0.6573
  0.6611   0.6768   0.6797   0.6847   0.6897   0.6904   0.6943   0.7004
  0.7038   0.7111   0.7119   0.7264   0.7332   0.7333   0.7475   0.7483
  0.7499   0.7659   0.7683   0.7772   0.7887   0.7985   0.8016   0.8091
  0.8139   0.8233   0.8571   0.8607   0.8780   0.8812   0.8940   0.9105
  0.9108   0.9140   0.9183   0.9316   0.9331   0.9639   0.9762   0.9831
  0.9933   1.0162   1.0239   1.0252   1.0333   1.0607   1.0682   1.0862
  1.1159   1.1160   1.1388   1.1467   1.1640   1.1675   1.2032   1.2081
  1.2317   1.2472   1.2832   1.3226   1.3309   1.3745   1.4028   1.4433
  1.4574   1.4707   1.4989   1.5096   1.5143   1.5283   1.5971   1.6460
  1.6552   1.6601   1.6670   1.7468   1.7774   1.8530   1.8692   1.9056
  1.9331   1.9471   1.9702   1.9984   2.0502   2.0548   2.0565   2.0642
  2.1900   2.1938   2.2198   2.2536   2.2580   2.2771   2.2988   2.2991
  2.3698   2.4495   2.4613   2.4956   2.5665   2.5678   2.7136   2.7182
  2.8076   2.8749   2.9168   3.0238   3.1587   3.1732   3.1926   3.1960
  3.2942   3.3805   3.3903   3.4204   3.4659   3.4782   3.5198   3.5921
  3.6136   3.6849   3.6960   3.7232   3.8216   3.8714   3.8985   3.9093
  3.9334   4.0607   4.1028   4.1390   4.1832   4.2907   4.2978   4.3353
  4.3750   4.4272   4.4570   4.4726   4.5091   4.5237   4.5434   4.5624
  4.6139   4.6709   4.7062   4.7452   4.7544   4.7743   4.7959   4.9811
  5.0228   5.0558   5.1262   5.1959   5.2148   5.2248   5.2551   5.3656
  5.3723   5.4219   5.4442   5.5989   5.6535   5.7733   5.8193   5.9319
  6.0048   6.0117   6.0359   6.1118   6.1604   6.3253   6.3860   6.4071
  6.4172   6.4409   6.5702   6.5796   6.7041   6.8272   6.9902   7.1647
  7.2745   7.4677   7.6574   7.6926   7.7453   8.0838   8.1421   8.2111
  8.3243   8.4334   8.5660   8.6814   8.9444   9.0358   9.0461   9.0697
  9.1035   9.1653   9.1672   9.3179   9.3701   9.6376   9.6631   9.7271
 10.0359  10.0512  10.2780  10.4181  10.4528  10.4870  10.5718  10.6062
 10.6166  10.6219  10.6640  10.8001  10.9660  11.0084  11.0690  11.1737
 11.3175  11.3381  11.3753  11.4714  11.5055  11.6022  11.6068  11.6533
 11.7018  11.7127  11.7514  12.1297  12.1372  12.1713  12.1759  12.1770
 12.2137  12.3072  12.3496  12.3907  12.5198  12.5280  12.5677  12.6241
 12.6437  12.6538  12.6962  12.7384  12.7751  12.9037  12.9092  12.9279
 13.0053  13.0114  13.1043  13.1657  13.1831  13.3667  13.3926  13.4099
 13.5621  13.6380  13.7932  13.7962  13.8470  13.9361  14.0061  14.1079
 14.5959  14.7507  14.7622  14.7642  15.2921  15.3082  15.5925  15.8729
 16.2735  16.8511  16.8524  16.8615  16.8671  16.9423  17.2034  17.2049
 17.2546  17.3086  17.3144  17.3299  17.5050  17.5945  17.6962  17.7731
 18.1869  18.2686  18.2932  18.3345  18.3448  18.4886  18.4991  18.6004
 18.9412  18.9980  19.0181  19.1009  19.1263  19.5150  19.5375  19.9212
 20.1710  21.3850  22.4761  23.3375  23.3992  23.7698  23.8076  23.8909
 24.2115  24.2265  24.3590  24.6300  25.0925  26.6848  30.4785  32.4580
 32.4788  32.6060  33.0636  33.4524  34.4894  34.8051  35.0183  40.8516
 40.9361  67.1945  67.2260  67.7063  67.9505  69.2418  76.5427  90.4393
 90.6069  91.9705  91.9924  92.0371  92.2694 143.9354

 Beta MOs
 -- Occupied --
-19.2342 -10.3452  -1.0859  -0.6515  -0.5152  -0.4713  -0.4235  -0.2906
 -- Virtual --
 -0.0555  -0.0395  -0.0152  -0.0121  -0.0037   0.0191   0.0242   0.0284
  0.0335   0.0366   0.0378   0.0477   0.0499   0.0616   0.0766   0.0820
  0.0851   0.0924   0.0946   0.0952   0.0980   0.0992   0.1235   0.1286
  0.1412   0.1494   0.1505   0.1645   0.1715   0.1765   0.1803   0.1866
  0.1903   0.1922   0.1923   0.2029   0.2050   0.2081   0.2140   0.2144
  0.2347   0.2402   0.2407   0.2556   0.2561   0.2584   0.2617   0.2691
  0.2743   0.2787   0.2987   0.2994   0.3060   0.3094   0.3224   0.3257
  0.3290   0.3364   0.3377   0.3383   0.3457   0.3530   0.3583   0.3846
  0.3861   0.3877   0.3891   0.3951   0.4120   0.4152   0.4345   0.4375
  0.4396   0.4465   0.4496   0.4498   0.4605   0.4611   0.4824   0.4876
  0.4892   0.4940   0.5116   0.5181   0.5192   0.5282   0.5390   0.5451
  0.5479   0.5495   0.5522   0.5523   0.5545   0.5671   0.5697   0.5717
  0.5769   0.5774   0.6038   0.6192   0.6203   0.6322   0.6340   0.6573
  0.6611   0.6768   0.6797   0.6847   0.6897   0.6904   0.6943   0.7004
  0.7038   0.7111   0.7119   0.7264   0.7332   0.7333   0.7475   0.7483
  0.7499   0.7659   0.7683   0.7772   0.7887   0.7985   0.8016   0.8091
  0.8139   0.8233   0.8571   0.8607   0.8780   0.8812   0.8940   0.9105
  0.9108   0.9140   0.9183   0.9316   0.9331   0.9639   0.9762   0.9831
  0.9933   1.0162   1.0239   1.0252   1.0333   1.0607   1.0682   1.0862
  1.1159   1.1160   1.1388   1.1467   1.1640   1.1675   1.2032   1.2081
  1.2317   1.2472   1.2832   1.3226   1.3309   1.3745   1.4028   1.4433
  1.4574   1.4707   1.4989   1.5096   1.5143   1.5283   1.5971   1.6460
  1.6552   1.6601   1.6670   1.7468   1.7774   1.8530   1.8692   1.9056
  1.9331   1.9471   1.9702   1.9984   2.0502   2.0548   2.0565   2.0642
  2.1900   2.1938   2.2198   2.2536   2.2580   2.2771   2.2988   2.2991
  2.3698   2.4495   2.4613   2.4956   2.5665   2.5678   2.7136   2.7182
  2.8076   2.8749   2.9168   3.0238   3.1587   3.1732   3.1926   3.1960
  3.2942   3.3805   3.3903   3.4204   3.4659   3.4782   3.5198   3.5921
  3.6136   3.6849   3.6960   3.7232   3.8216   3.8714   3.8985   3.9093
  3.9334   4.0607   4.1028   4.1390   4.1832   4.2907   4.2978   4.3353
  4.3750   4.4272   4.4570   4.4726   4.5091   4.5237   4.5434   4.5624
  4.6139   4.6709   4.7062   4.7452   4.7544   4.7743   4.7959   4.9811
  5.0228   5.0558   5.1262   5.1959   5.2148   5.2248   5.2551   5.3656
  5.3723   5.4219   5.4442   5.5989   5.6535   5.7733   5.8193   5.9319
  6.0048   6.0117   6.0359   6.1118   6.1604   6.3253   6.3860   6.4071
  6.4172   6.4409   6.5702   6.5796   6.7041   6.8272   6.9902   7.1647
  7.2745   7.4677   7.6574   7.6926   7.7453   8.0838   8.1421   8.2111
  8.3243   8.4334   8.5660   8.6814   8.9444   9.0358   9.0461   9.0697
  9.1035   9.1653   9.1672   9.3179   9.3701   9.6376   9.6631   9.7271
 10.0359  10.0512  10.2780  10.4181  10.4528  10.4870  10.5718  10.6062
 10.6166  10.6219  10.6640  10.8001  10.9660  11.0084  11.0690  11.1737
 11.3175  11.3381  11.3753  11.4714  11.5055  11.6022  11.6068  11.6533
 11.7018  11.7127  11.7514  12.1297  12.1372  12.1713  12.1759  12.1770
 12.2137  12.3072  12.3496  12.3907  12.5198  12.5280  12.5677  12.6241
 12.6437  12.6538  12.6962  12.7384  12.7751  12.9037  12.9092  12.9279
 13.0053  13.0114  13.1043  13.1657  13.1831  13.3667  13.3926  13.4099
 13.5621  13.6380  13.7932  13.7962  13.8470  13.9361  14.0061  14.1079
 14.5959  14.7507  14.7622  14.7642  15.2921  15.3082  15.5925  15.8729
 16.2735  16.8511  16.8524  16.8615  16.8671  16.9423  17.2034  17.2049
 17.2546  17.3086  17.3144  17.3299  17.5050  17.5945  17.6962  17.7731
 18.1869  18.2686  18.2932  18.3345  18.3448  18.4886  18.4991  18.6004
 18.9412  18.9980  19.0181  19.1009  19.1263  19.5150  19.5375  19.9212
 20.1710  21.3850  22.4761  23.3375  23.3992  23.7698  23.8076  23.8909
 24.2115  24.2265  24.3590  24.6300  25.0925  26.6848  30.4785  32.4580
 32.4788  32.6060  33.0636  33.4524  34.4894  34.8051  35.0183  40.8516
 40.9361  67.1945  67.2260  67.7063  67.9505  69.2418  76.5427  90.4393
 90.6069  91.9705  91.9924  92.0371  92.2694 143.9354
 --------------------------------------------------------------

          Ground-State Mulliken Net Atomic Charges

     Atom                 Charge (a.u.)    Spin (a.u.)
  --------------------------------------------------------
      1 O                    -0.053266       0.000000
      2 C                    -1.654106      -0.000000
      3 H                     0.853686       0.000000
      4 H                     0.853686      -0.000000
  --------------------------------------------------------
  Sum of atomic charges =    -0.000000
  Sum of spin   charges =     0.000000

 -----------------------------------------------------------------
                    Cartesian Multipole Moments
 -----------------------------------------------------------------
    Charge (ESU x 10^10)
                -0.0000
    Dipole Moment (Debye)
         X       0.0000      Y      -0.0000      Z      -2.3632
       Tot       2.3632
    Quadrupole Moments (Debye-Ang)
        XX     -11.6049     XY      -0.0000     YY     -11.5659
        XZ       0.0000     YZ       0.0000     ZZ     -14.7453
    Octopole Moments (Debye-Ang^2)
       XXX       0.0000    XXY      -0.0000    XYY      -0.0000
       YYY      -0.0000    XXZ      -5.4653    XYZ      -0.0000
       YYZ      -6.5204    XZZ       0.0000    YZZ       0.0000
       ZZZ     -20.5971
    Hexadecapole Moments (Debye-Ang^3)
      XXXX     -10.3609   XXXY      -0.0000   XXYY      -5.1897
      XYYY      -0.0000   YYYY     -18.6790   XXXZ       0.0000
      XXYZ      -0.0000   XYYZ       0.0000   YYYZ       0.0000
      XXZZ     -11.9460   XYZZ      -0.0000   YYZZ     -14.3255
      XZZZ       0.0000   YZZZ       0.0000   ZZZZ     -66.7899
 -----------------------------------------------------------------
Archival summary:
1\1\n0033.mhg0\SP\ProcedureUnspecified\BasisUnspecified\112\yhljason\WedNov1104:50:152020WedNov1104:50:152020\0\\#,ProcedureUnspecified,BasisUnspecified,\\0,1\C\H,1,1.11101\H,1,1.11101,2,116.139\O,1,1.205,2,121.93,3,-180,0\\\@

 Total job time:  11985.54s(wall), 94360.08s(cpu) 
 Wed Nov 11 04:50:15 2020

        *************************************************************
        *                                                           *
        *  Thank you very much for using Q-Chem.  Have a nice day.  *
        *                                                           *
        *************************************************************


