                  Welcome to Q-Chem
     A Quantum Leap Into The Future Of Chemistry


 Q-Chem 5.3 (devel), Q-Chem, Inc., Pleasanton, CA (2020)

 Yihan Shao,  Zhengting Gan,  E. Epifanovsky,  A. T. B. Gilbert,  M. Wormit,  
 J. Kussmann,  A. W. Lange,  A. Behn,  Jia Deng,  Xintian Feng,  D. Ghosh,  
 M. Goldey,  P. R. Horn,  L. D. Jacobson,  I. Kaliman,  T. Kus,  A. Landau,  
 Jie Liu,  E. I. Proynov,  R. M. Richard,  R. P. Steele,  E. J. Sundstrom,  
 H. L. Woodcock III,  P. M. Zimmerman,  D. Zuev,  B. Alam,  B. Albrecht,  
 E. Alguire,  S. A. Baeppler,  D. Barton,  Z. Benda,  Y. A. Bernard,  
 E. J. Berquist,  K. B. Bravaya,  H. Burton,  K. Carter-Fenk,  D. Casanova,  
 Chun-Min Chang,  Yunqing Chen,  A. Chien,  K. D. Closser,  M. P. Coons,  
 S. Coriani,  S. Dasgupta,  A. L. Dempwolff,  M. Diedenhofen,  Hainam Do,  
 R. G. Edgar,  Po-Tung Fang,  S. Faraji,  S. Fatehi,  Qingguo Feng,  
 J. Fosso-Tande,  J. Gayvert,  Qinghui Ge,  A. Ghysels,  G. Gidofalvi,  
 J. Gomes,  J. Gonthier,  A. Gunina,  D. Hait,  M. W. D. Hanson-Heine,  
 P. H. P. Harbach,  A. W. Hauser,  M. F. Herbst,  J. E. Herr,  
 E. G. Hohenstein,  Z. C. Holden,  Kerwin Hui,  B. C. Huynh,  T.-C. Jagau,  
 Hyunjun Ji,  B. Kaduk,  K. Khistyaev,  Jaehoon Kim,  P. Klunzinger,  K. Koh,  
 D. Kosenkov,  L. Koulias,  T. Kowalczyk,  C. M. Krauter,  A. Kunitsa,  
 Ka Un Lao,  A. Laurent,  K. V. Lawler,  Joonho Lee,  D. Lefrancois,  
 S. Lehtola,  D. S. Levine,  Yi-Pei Li,  You-Sheng Lin,  Fenglai Liu,  
 Kuan-Yu Liu,  E. Livshits,  M. Loipersberger,  A. Luenser,  P. Manohar,  
 E. Mansoor,  S. F. Manzer,  Shan-Ping Mao,  Yuezhi Mao,  N. Mardirossian,  
 A. V. Marenich,  T. Markovich,  L. A. Martinez-Martinez,  S. A. Maurer,  
 N. J. Mayhall,  S. C. McKenzie,  J.-M. Mewes,  P. Morgante,  A. F. Morrison,  
 J. W. Mullinax,  K. Nanda,  T. S. Nguyen-Beck,  R. Olivares-Amaya,  
 K. J. Oosterbaan,  J. A. Parkhill,  S. K. Paul,  F. Pavosevic,  Zheng Pei,  
 T. M. Perrine,  F. Plasser,  P. Pokhilko,  S. Prager,  A. Prociuk,  
 E. Ramos,  B. Rana,  D. R. Rehn,  F. Rob,  M. Scheurer,  M. Schneider,  
 N. Sergueev,  S. M. Sharada,  S. Sharma,  D. W. Small,  T. Stauch,  
 C. J. Stein,  T. Stein,  Yu-Chuan Su,  S. P. Veccham,  Zhen Tao,  
 A. J. W. Thom,  A. Tkatchenko,  T. Tsuchimochi,  N. M. Tubman,  L. Vogt,  
 M. L. Vidal,  O. Vydrov,  M. A. Watson,  J. Wenzel,  M. de Wergifosse,  
 T. A. Wesolowski,  A. White,  J. Witte,  A. Yamada,  Jun Yang,  K. Yao,  
 S. Yeganeh,  S. R. Yost,  Zhi-Qiang You,  A. Zech,  Igor Ying Zhang,  
 Xing Zhang,  Yan Zhao,  Ying Zhu,  B. R. Brooks,  G. K. L. Chan,  
 C. J. Cramer,  M. S. Gordon,  W. J. Hehre,  A. Klamt,  M. W. Schmidt,  
 C. D. Sherrill,  D. G. Truhlar,  A. Aspuru-Guzik,  R. Baer,  A. T. Bell,  
 N. A. Besley,  Jeng-Da Chai,  A. E. DePrince, III,  R. A. DiStasio Jr.,  
 A. Dreuw,  B. D. Dunietz,  T. R. Furlani,  Chao-Ping Hsu,  Yousung Jung,  
 Jing Kong,  D. S. Lambrecht,  WanZhen Liang,  C. Ochsenfeld,  
 V. A. Rassolov,  L. V. Slipchenko,  J. E. Subotnik,  T. Van Voorhis,  
 J. M. Herbert,  A. I. Krylov,  P. M. W. Gill,  M. Head-Gordon

 Contributors to earlier versions of Q-Chem not listed above: 
 R. D. Adamson,  B. Austin,  J. Baker,  G. J. O. Beran,  K. Brandhorst,  
 S. T. Brown,  E. F. C. Byrd,  A. K. Chakraborty,  C.-L. Cheng,  
 Siu Hung Chien,  D. M. Chipman,  D. L. Crittenden,  H. Dachsel,  
 R. J. Doerksen,  A. D. Dutoi,  L. Fusti-Molnar,  W. A. Goddard III,  
 A. Golubeva-Zadorozhnaya,  S. R. Gwaltney,  G. Hawkins,  A. Heyden,  
 S. Hirata,  G. Kedziora,  F. J. Keil,  C. Kelley,  Jihan Kim,  R. A. King,  
 R. Z. Khaliullin,  P. P. Korambath,  W. Kurlancheek,  A. M. Lee,  M. S. Lee,  
 S. V. Levchenko,  Ching Yeh Lin,  D. Liotard,  R. C. Lochan,  I. Lotan,  
 P. E. Maslen,  N. Nair,  D. P. O'Neill,  D. Neuhauser,  E. Neuscamman,  
 C. M. Oana,  R. Olson,  B. Peters,  R. Peverati,  P. A. Pieniazek,  
 Y. M. Rhee,  J. Ritchie,  M. A. Rohrdanz,  E. Rosta,  N. J. Russ,  
 H. F. Schaefer III,  N. E. Schultz,  N. Shenvi,  A. C. Simmonett,  A. Sodt,  
 D. Stuck,  K. S. Thanthiriwatte,  V. Vanovschi,  Tao Wang,  A. Warshel,  
 C. F. Williams,  Q. Wu,  X. Xu,  W. Zhang

 Please cite Q-Chem as follows:
 Y. Shao et al., Mol. Phys. 113, 184-215 (2015)
 DOI: 10.1080/00268976.2014.952696

 Q-Chem 5.3.0 for Intel X86 EM64T Linux

 Parts of Q-Chem use Armadillo 9.800.1 (Horizon Scraper).
 http://arma.sourceforge.net/

 Q-Chem begins on Sat Nov 14 03:45:29 2020  

n0059.mhg0
Host: 0

     Scratch files written to /local/scratch/users/yhljason/HCHO_M06-2X_aug-pc-4.inp20201114034527//
Processing $rem in /clusterfs/mhg/diptarka/qchem_transmom//config/preferences:
Processing $rem in /global/home/users/yhljason/.qchemrc:

Checking the input file for inconsistencies... 	...done.

--------------------------------------------------------------
User input:
--------------------------------------------------------------
$molecule
0 1
O1      0.0000  0.0000  1.2050
C2      0.0000  0.0000  0.0000
H3      0.0000  0.9429  -0.5876
H4      0.0000  -0.9429 -0.5876
$end

$rem
jobtype sp
method M06-2X
xc_grid 000099000590
basis aug-pc-4
max_scf_cycles 200
thresh 14
scf_convergence 8
scf_algorithm gdm
symmetry false
sym_ignore true
unrestricted True
gen_scfman true
internal_stability_iter 15
internal_stability_davidson_iter 200
mem_total 64000
mem_static 1500
n_frozen_core 0
$end



--------------------------------------------------------------
 ----------------------------------------------------------------
             Standard Nuclear Orientation (Angstroms)
    I     Atom           X                Y                Z
 ----------------------------------------------------------------
    1      O       0.0000000000     0.0000000000     1.2050000000
    2      C       0.0000000000     0.0000000000     0.0000000000
    3      H       0.0000000000     0.9429000000    -0.5876000000
    4      H       0.0000000000    -0.9429000000    -0.5876000000
 ----------------------------------------------------------------
 Nuclear Repulsion Energy =          31.25573500 hartrees
 There are        8 alpha and        8 beta electrons
 Requested basis set is aug-pc-4
 There are 114 shells and 466 basis functions

 Total QAlloc Memory Limit  64000 MB
 Mega-Array Size      1467 MB
 MEM_STATIC part      1500 MB

                       Distance Matrix (Angstroms)
             O (  1)   C (  2)   H (  3)
   C (  2)  1.205000
   H (  3)  2.025457  1.111006
   H (  4)  2.025457  1.111006  1.885800

 A cutoff of  1.0D-14 yielded   6491 shell pairs
 There are    109599 function pairs (    201231 Cartesian)
 Smallest overlap matrix eigenvalue = 1.74E-07
 Linear dependence detected in AO basis
 Tighter screening thresholds may be required for diffuse basis sets
 Use S2THRESH > 14 and THRESH = 14 in case of SCF convergence issues
 Number of orthogonalized atomic orbitals = 462
 Maximum deviation from orthogonality = 1.694E-10

 Scale SEOQF with 1.000000e-01/1.000000e-01/1.000000e-01

 Standard Electronic Orientation quadrupole field applied
 Nucleus-field energy     =    -0.0000000012 hartrees
 Guess from superposition of atomic densities
 Warning:  Energy on first SCF cycle will be non-variational
 SAD guess density has 16.000000 electrons

 -----------------------------------------------------------------------
  General SCF calculation program by
  Eric Jon Sundstrom, Paul Horn, Yuezhi Mao, Dmitri Zuev, Alec White,
  David Stuck, Shaama M.S., Shane Yost, Joonho Lee, David Small,
  Daniel Levine, Susi Lehtola, Hugh Burton, Evgeny Epifanovsky,
  Bang C. Huynh
 -----------------------------------------------------------------------
 Exchange:     0.5400 Hartree-Fock + 1.0000 M06-2X
 Correlation:  1.0000 M06-2X
 Using Euler-Maclaurin-Lebedev (99,590) quadrature formula
Running Object-Oriented UKS (UHF)
performing a single roothaan step with Fock from read density so that orbitals are available to all algorithms
energy of the guess density (C=0) -114.685892624707
We will preform up to 15 macro iterations over saddle points until a stable solution is found
Energy prior to optimization (guess energy) = -114.453109231024
Begin Timing: Total SCF Calculation
Begin Timing: SCF Single Stationary Point Calculation
begin iterations for algorithm: GDM          
the SCF tolerance is set to 1.00e-08
    1    -114.4531092310      2.11e-01     00000  Descent step
    2    -114.4802471502      1.55e-01     00000  Normal BFGS step
    3    -114.5091100977      1.44e-02     00000  Normal BFGS step
    4    -114.5094315778      2.39e-03     00000  Normal BFGS step
    5    -114.5094859148      6.86e-04     00000  Normal BFGS step
    6    -114.5094893275      9.08e-05     00000  Normal BFGS step
    7    -114.5094894548      3.77e-05     00000  Normal BFGS step
    8    -114.5094894580      1.72e-06     00000  Normal BFGS step
    9    -114.5094894580      2.93e-07     00000  Normal BFGS step
   10    -114.5094894580      3.63e-08     00000  Normal BFGS step
   11    -114.5094894580      2.66e-08     00000  Normal BFGS step
   12    -114.5094894580      1.45e-08     00000  Normal BFGS step
   13    -114.5094894580      2.34e-10     00000 Convergence criterion met
Timing for Single Stationary Point: 2958.00s (wall), 23328.33s (cpu)
Begin Timing: Stability
===================================================
Beginning Test for Internal Stability
===================================================
generating davidson guess vectors based on koopmans excitations
 Warning: Hessian-vector products not implemented
 Finite difference Hessian-vector products will be used.
computing hessian-vector products by finite difference
    1      4.96e-01     00000 Davidson Iteration
computing hessian-vector products by finite difference
    2      2.09e-01     00000 Davidson Iteration
computing hessian-vector products by finite difference
    3      1.71e-02     00000 Davidson Iteration
computing hessian-vector products by finite difference
    4      5.32e-03     00000 Davidson Iteration
computing hessian-vector products by finite difference
    5      1.04e-03     00000 Davidson Iteration
computing hessian-vector products by finite difference
    6      6.16e-04     00000 Davidson Iteration
computing hessian-vector products by finite difference
    7      7.25e-05     00000 Davidson Iteration
computing hessian-vector products by finite difference
    8      3.48e-05     00000 Davidson Converged
converged_eigenvalues
   0.3104
   0.2284
Threshold for negative eigenvalues: -1.0e-05
solution was a local minimum (stable)
===================================================
End Test for Internal Stability
===================================================
Timing for Internal Stability: 9196.00s (wall), 72506.84s (cpu)
Our SCF solution is stable!
Timing for Total SCF: 12154.00s (wall), 95835.37s (cpu)
 Total energy in the final basis set =     -114.5094894580
<S^2> =         -0.000000000
    ==================================================
              The end of Object-Oriented SCFman       
    ==================================================

 --------------------------------------------------------------

                    Orbital Energies (a.u.)
 --------------------------------------------------------------

 Alpha MOs
 -- Occupied --
-19.6491 -10.6458  -1.1894  -0.7287  -0.5807  -0.5395  -0.4774  -0.3504
 -- Virtual --
 -0.0162  -0.0076   0.0125   0.0153   0.0208   0.0367   0.0461   0.0528
  0.0575   0.0645   0.0668   0.0697   0.0720   0.0882   0.1014   0.1134
  0.1156   0.1197   0.1236   0.1269   0.1295   0.1312   0.1452   0.1603
  0.1710   0.1792   0.1856   0.1898   0.2062   0.2103   0.2117   0.2262
  0.2270   0.2283   0.2299   0.2346   0.2449   0.2479   0.2533   0.2536
  0.2717   0.2772   0.2796   0.2921   0.2948   0.2963   0.2983   0.3075
  0.3108   0.3203   0.3391   0.3425   0.3525   0.3548   0.3642   0.3711
  0.3729   0.3828   0.3853   0.3867   0.3978   0.3993   0.4048   0.4290
  0.4317   0.4321   0.4375   0.4376   0.4573   0.4610   0.4813   0.4865
  0.4867   0.4966   0.4977   0.4986   0.5112   0.5122   0.5266   0.5369
  0.5395   0.5454   0.5634   0.5676   0.5706   0.5836   0.5983   0.6014
  0.6035   0.6064   0.6110   0.6114   0.6148   0.6278   0.6333   0.6363
  0.6379   0.6416   0.6651   0.6826   0.6848   0.6945   0.6990   0.7214
  0.7277   0.7461   0.7472   0.7492   0.7529   0.7567   0.7631   0.7688
  0.7718   0.7808   0.7811   0.7966   0.8017   0.8018   0.8207   0.8208
  0.8215   0.8394   0.8403   0.8510   0.8545   0.8671   0.8707   0.8814
  0.8859   0.8968   0.9293   0.9327   0.9524   0.9542   0.9667   0.9860
  0.9915   0.9929   0.9955   1.0080   1.0087   1.0475   1.0539   1.0682
  1.0747   1.0949   1.0975   1.1097   1.1199   1.1458   1.1545   1.1639
  1.2057   1.2060   1.2256   1.2366   1.2494   1.2631   1.2902   1.2947
  1.3232   1.3446   1.3758   1.4110   1.4293   1.4848   1.5013   1.5534
  1.5622   1.5756   1.6106   1.6246   1.6271   1.6626   1.7296   1.7507
  1.7802   1.7866   1.7873   1.8305   1.8708   1.9550   1.9592   1.9634
  2.0135   2.0321   2.0397   2.0797   2.1334   2.1389   2.1567   2.1843
  2.2655   2.2867   2.2900   2.3297   2.3500   2.3742   2.3890   2.3983
  2.4575   2.5482   2.5694   2.6122   2.6469   2.6536   2.7964   2.8180
  2.9244   2.9827   3.0036   3.0938   3.2176   3.2449   3.2473   3.2699
  3.3660   3.4675   3.5283   3.5440   3.5489   3.5643   3.5996   3.6720
  3.6949   3.7860   3.7927   3.8106   3.9066   3.9549   3.9766   3.9875
  4.0571   4.1405   4.1962   4.2231   4.2779   4.3462   4.3828   4.4154
  4.4723   4.5078   4.5373   4.5441   4.5641   4.5817   4.6198   4.6294
  4.6629   4.7163   4.7585   4.7983   4.8539   4.8623   4.8750   5.0300
  5.0920   5.1337   5.2344   5.2513   5.2569   5.2898   5.3244   5.4183
  5.4228   5.4708   5.4853   5.6260   5.7185   5.8496   5.8965   5.9836
  6.0185   6.0533   6.0552   6.1886   6.2195   6.3400   6.4182   6.4358
  6.4586   6.4884   6.6369   6.6383   6.6916   6.8544   6.9904   7.2003
  7.2844   7.5188   7.6594   7.7213   7.7547   8.0652   8.2661   8.3749
  8.4156   8.4234   8.6781   8.7501   8.8347   8.8494   8.8643   8.9519
  8.9537   9.0712   9.1251   9.1741   9.3329   9.5078   9.5328   9.7268
  9.9098   9.9723  10.2106  10.3217  10.3671  10.4156  10.4539  10.4942
 10.5219  10.5827  10.6434  10.8316  10.8338  10.9556  11.0092  11.0811
 11.1904  11.3164  11.3374  11.4087  11.4408  11.5771  11.5931  11.6036
 11.6535  11.6721  11.6974  11.9176  12.0021  12.0145  12.0160  12.0424
 12.0524  12.0831  12.1019  12.1097  12.1607  12.1691  12.3599  12.3652
 12.3702  12.4027  12.5413  12.6048  12.6605  12.6614  12.6856  12.7304
 12.7994  12.8294  12.8428  12.9402  13.1067  13.1479  13.1496  13.2346
 13.4704  13.5014  13.5043  13.6024  13.7383  13.7990  13.8696  14.0559
 14.4365  14.6286  14.6453  14.6578  15.0184  15.1334  15.4394  15.7883
 16.0312  16.0841  16.0916  16.0944  16.1038  16.5549  16.5862  16.5889
 16.6435  16.7931  16.8759  16.8796  17.1643  17.1741  17.4519  17.7339
 17.8737  17.8911  17.9726  17.9982  18.0619  18.2063  18.3157  18.3464
 18.7267  18.7678  18.9120  19.1763  19.3948  19.7282  19.8604  20.2535
 20.4363  21.6283  22.4243  22.8478  22.8771  22.9837  23.0818  23.1717
 23.3142  23.9659  24.2330  24.7746  25.1898  26.4718  30.5226  32.2380
 32.3462  32.4348  32.8893  33.3584  34.3160  34.5468  34.7720  40.5186
 40.5887  66.7038  66.7919  67.2005  67.4546  68.7184  76.0661  89.8160
 89.8367  89.8791  90.0913  91.9786  92.1610 143.1453

 Beta MOs
 -- Occupied --
-19.6491 -10.6458  -1.1894  -0.7287  -0.5807  -0.5395  -0.4774  -0.3504
 -- Virtual --
 -0.0162  -0.0076   0.0125   0.0153   0.0208   0.0367   0.0461   0.0528
  0.0575   0.0645   0.0668   0.0697   0.0720   0.0882   0.1014   0.1134
  0.1156   0.1197   0.1236   0.1269   0.1295   0.1312   0.1452   0.1603
  0.1710   0.1792   0.1856   0.1898   0.2062   0.2103   0.2117   0.2262
  0.2270   0.2283   0.2299   0.2346   0.2449   0.2479   0.2533   0.2536
  0.2717   0.2772   0.2796   0.2921   0.2948   0.2963   0.2983   0.3075
  0.3108   0.3203   0.3391   0.3425   0.3525   0.3548   0.3642   0.3711
  0.3729   0.3828   0.3853   0.3867   0.3978   0.3993   0.4048   0.4290
  0.4317   0.4321   0.4375   0.4376   0.4573   0.4610   0.4813   0.4865
  0.4867   0.4966   0.4977   0.4986   0.5112   0.5122   0.5266   0.5369
  0.5395   0.5454   0.5634   0.5676   0.5706   0.5836   0.5983   0.6014
  0.6035   0.6064   0.6110   0.6114   0.6148   0.6278   0.6333   0.6363
  0.6379   0.6416   0.6651   0.6826   0.6848   0.6945   0.6990   0.7214
  0.7277   0.7461   0.7472   0.7492   0.7529   0.7567   0.7631   0.7688
  0.7718   0.7808   0.7811   0.7966   0.8017   0.8018   0.8207   0.8208
  0.8215   0.8394   0.8403   0.8510   0.8545   0.8671   0.8707   0.8814
  0.8859   0.8968   0.9293   0.9327   0.9524   0.9542   0.9667   0.9860
  0.9915   0.9929   0.9955   1.0080   1.0087   1.0475   1.0539   1.0682
  1.0747   1.0949   1.0975   1.1097   1.1199   1.1458   1.1545   1.1639
  1.2057   1.2060   1.2256   1.2366   1.2494   1.2631   1.2902   1.2947
  1.3232   1.3446   1.3758   1.4110   1.4293   1.4848   1.5013   1.5534
  1.5622   1.5756   1.6106   1.6246   1.6271   1.6626   1.7296   1.7507
  1.7802   1.7866   1.7873   1.8305   1.8708   1.9550   1.9592   1.9634
  2.0135   2.0321   2.0397   2.0797   2.1334   2.1389   2.1567   2.1843
  2.2655   2.2867   2.2900   2.3297   2.3500   2.3742   2.3890   2.3983
  2.4575   2.5482   2.5694   2.6122   2.6469   2.6536   2.7964   2.8180
  2.9244   2.9827   3.0036   3.0938   3.2176   3.2449   3.2473   3.2699
  3.3660   3.4675   3.5283   3.5440   3.5489   3.5643   3.5996   3.6720
  3.6949   3.7860   3.7927   3.8106   3.9066   3.9549   3.9766   3.9875
  4.0571   4.1405   4.1962   4.2231   4.2779   4.3462   4.3828   4.4154
  4.4723   4.5078   4.5373   4.5441   4.5641   4.5817   4.6198   4.6294
  4.6629   4.7163   4.7585   4.7983   4.8539   4.8623   4.8750   5.0300
  5.0920   5.1337   5.2344   5.2513   5.2569   5.2898   5.3244   5.4183
  5.4228   5.4708   5.4853   5.6260   5.7185   5.8496   5.8965   5.9836
  6.0185   6.0533   6.0552   6.1886   6.2195   6.3400   6.4182   6.4358
  6.4586   6.4884   6.6369   6.6383   6.6916   6.8544   6.9904   7.2003
  7.2844   7.5188   7.6594   7.7213   7.7547   8.0652   8.2661   8.3749
  8.4156   8.4234   8.6781   8.7501   8.8347   8.8494   8.8643   8.9519
  8.9537   9.0712   9.1251   9.1741   9.3329   9.5078   9.5328   9.7268
  9.9098   9.9723  10.2106  10.3217  10.3671  10.4156  10.4539  10.4942
 10.5219  10.5827  10.6434  10.8316  10.8338  10.9556  11.0092  11.0811
 11.1904  11.3164  11.3374  11.4087  11.4408  11.5771  11.5931  11.6036
 11.6535  11.6721  11.6974  11.9176  12.0021  12.0145  12.0160  12.0424
 12.0524  12.0831  12.1019  12.1097  12.1607  12.1691  12.3599  12.3652
 12.3702  12.4027  12.5413  12.6048  12.6605  12.6614  12.6856  12.7304
 12.7994  12.8294  12.8428  12.9402  13.1067  13.1479  13.1496  13.2346
 13.4704  13.5014  13.5043  13.6024  13.7383  13.7990  13.8696  14.0559
 14.4365  14.6286  14.6453  14.6578  15.0184  15.1334  15.4394  15.7883
 16.0312  16.0841  16.0916  16.0944  16.1038  16.5549  16.5862  16.5889
 16.6435  16.7931  16.8759  16.8796  17.1643  17.1741  17.4519  17.7339
 17.8737  17.8911  17.9726  17.9982  18.0619  18.2063  18.3157  18.3464
 18.7267  18.7678  18.9120  19.1763  19.3948  19.7282  19.8604  20.2535
 20.4363  21.6283  22.4243  22.8478  22.8771  22.9837  23.0818  23.1717
 23.3142  23.9659  24.2330  24.7746  25.1898  26.4718  30.5226  32.2380
 32.3462  32.4348  32.8893  33.3584  34.3160  34.5468  34.7720  40.5186
 40.5887  66.7038  66.7919  67.2005  67.4546  68.7184  76.0661  89.8160
 89.8367  89.8791  90.0913  91.9786  92.1610 143.1453
 --------------------------------------------------------------

          Ground-State Mulliken Net Atomic Charges

     Atom                 Charge (a.u.)    Spin (a.u.)
  --------------------------------------------------------
      1 O                    -0.863442      -0.000000
      2 C                     0.709888       0.000000
      3 H                     0.076777      -0.000000
      4 H                     0.076777      -0.000000
  --------------------------------------------------------
  Sum of atomic charges =    -0.000000
  Sum of spin   charges =    -0.000000

 -----------------------------------------------------------------
                    Cartesian Multipole Moments
 -----------------------------------------------------------------
    Charge (ESU x 10^10)
                 0.0000
    Dipole Moment (Debye)
         X      -0.0000      Y       0.0000      Z      -2.4693
       Tot       2.4693
    Quadrupole Moments (Debye-Ang)
        XX     -11.7847     XY       0.0000     YY     -11.5690
        XZ      -0.0000     YZ       0.0000     ZZ     -14.8144
    Octopole Moments (Debye-Ang^2)
       XXX      -0.0000    XXY      -0.0000    XYY       0.0000
       YYY      -0.0000    XXZ      -5.5918    XYZ      -0.0000
       YYZ      -6.7351    XZZ      -0.0000    YZZ      -0.0000
       ZZZ     -20.9428
    Hexadecapole Moments (Debye-Ang^3)
      XXXX     -10.6093   XXXY      -0.0000   XXYY      -5.2283
      XYYY       0.0000   YYYY     -18.4762   XXXZ      -0.0000
      XXYZ       0.0000   XYYZ      -0.0000   YYYZ       0.0000
      XXZZ     -12.0973   XYZZ      -0.0000   YYZZ     -14.3321
      XZZZ      -0.0000   YZZZ       0.0000   ZZZZ     -67.2976
 -----------------------------------------------------------------
Archival summary:
1\1\n0059.mhg0\SP\ProcedureUnspecified\BasisUnspecified\112\yhljason\SatNov1407:16:032020SatNov1407:16:032020\0\\#,ProcedureUnspecified,BasisUnspecified,\\0,1\C\H,1,1.11101\H,1,1.11101,2,116.139\O,1,1.205,2,121.93,3,-180,0\\\@

 Total job time:  12633.61s(wall), 99610.81s(cpu) 
 Sat Nov 14 07:16:03 2020

        *************************************************************
        *                                                           *
        *  Thank you very much for using Q-Chem.  Have a nice day.  *
        *                                                           *
        *************************************************************


