                  Welcome to Q-Chem
     A Quantum Leap Into The Future Of Chemistry


 Q-Chem 5.3 (devel), Q-Chem, Inc., Pleasanton, CA (2020)

 Yihan Shao,  Zhengting Gan,  E. Epifanovsky,  A. T. B. Gilbert,  M. Wormit,  
 J. Kussmann,  A. W. Lange,  A. Behn,  Jia Deng,  Xintian Feng,  D. Ghosh,  
 M. Goldey,  P. R. Horn,  L. D. Jacobson,  I. Kaliman,  T. Kus,  A. Landau,  
 Jie Liu,  E. I. Proynov,  R. M. Richard,  R. P. Steele,  E. J. Sundstrom,  
 H. L. Woodcock III,  P. M. Zimmerman,  D. Zuev,  B. Alam,  B. Albrecht,  
 E. Alguire,  S. A. Baeppler,  D. Barton,  Z. Benda,  Y. A. Bernard,  
 E. J. Berquist,  K. B. Bravaya,  H. Burton,  K. Carter-Fenk,  D. Casanova,  
 Chun-Min Chang,  Yunqing Chen,  A. Chien,  K. D. Closser,  M. P. Coons,  
 S. Coriani,  S. Dasgupta,  A. L. Dempwolff,  M. Diedenhofen,  Hainam Do,  
 R. G. Edgar,  Po-Tung Fang,  S. Faraji,  S. Fatehi,  Qingguo Feng,  
 J. Fosso-Tande,  J. Gayvert,  Qinghui Ge,  A. Ghysels,  G. Gidofalvi,  
 J. Gomes,  J. Gonthier,  A. Gunina,  D. Hait,  M. W. D. Hanson-Heine,  
 P. H. P. Harbach,  A. W. Hauser,  M. F. Herbst,  J. E. Herr,  
 E. G. Hohenstein,  Z. C. Holden,  Kerwin Hui,  B. C. Huynh,  T.-C. Jagau,  
 Hyunjun Ji,  B. Kaduk,  K. Khistyaev,  Jaehoon Kim,  P. Klunzinger,  K. Koh,  
 D. Kosenkov,  L. Koulias,  T. Kowalczyk,  C. M. Krauter,  A. Kunitsa,  
 Ka Un Lao,  A. Laurent,  K. V. Lawler,  Joonho Lee,  D. Lefrancois,  
 S. Lehtola,  D. S. Levine,  Yi-Pei Li,  You-Sheng Lin,  Fenglai Liu,  
 Kuan-Yu Liu,  E. Livshits,  M. Loipersberger,  A. Luenser,  P. Manohar,  
 E. Mansoor,  S. F. Manzer,  Shan-Ping Mao,  Yuezhi Mao,  N. Mardirossian,  
 A. V. Marenich,  T. Markovich,  L. A. Martinez-Martinez,  S. A. Maurer,  
 N. J. Mayhall,  S. C. McKenzie,  J.-M. Mewes,  P. Morgante,  A. F. Morrison,  
 J. W. Mullinax,  K. Nanda,  T. S. Nguyen-Beck,  R. Olivares-Amaya,  
 K. J. Oosterbaan,  J. A. Parkhill,  S. K. Paul,  F. Pavosevic,  Zheng Pei,  
 T. M. Perrine,  F. Plasser,  P. Pokhilko,  S. Prager,  A. Prociuk,  
 E. Ramos,  B. Rana,  D. R. Rehn,  F. Rob,  M. Scheurer,  M. Schneider,  
 N. Sergueev,  S. M. Sharada,  S. Sharma,  D. W. Small,  T. Stauch,  
 C. J. Stein,  T. Stein,  Yu-Chuan Su,  S. P. Veccham,  Zhen Tao,  
 A. J. W. Thom,  A. Tkatchenko,  T. Tsuchimochi,  N. M. Tubman,  L. Vogt,  
 M. L. Vidal,  O. Vydrov,  M. A. Watson,  J. Wenzel,  M. de Wergifosse,  
 T. A. Wesolowski,  A. White,  J. Witte,  A. Yamada,  Jun Yang,  K. Yao,  
 S. Yeganeh,  S. R. Yost,  Zhi-Qiang You,  A. Zech,  Igor Ying Zhang,  
 Xing Zhang,  Yan Zhao,  Ying Zhu,  B. R. Brooks,  G. K. L. Chan,  
 C. J. Cramer,  M. S. Gordon,  W. J. Hehre,  A. Klamt,  M. W. Schmidt,  
 C. D. Sherrill,  D. G. Truhlar,  A. Aspuru-Guzik,  R. Baer,  A. T. Bell,  
 N. A. Besley,  Jeng-Da Chai,  A. E. DePrince, III,  R. A. DiStasio Jr.,  
 A. Dreuw,  B. D. Dunietz,  T. R. Furlani,  Chao-Ping Hsu,  Yousung Jung,  
 Jing Kong,  D. S. Lambrecht,  WanZhen Liang,  C. Ochsenfeld,  
 V. A. Rassolov,  L. V. Slipchenko,  J. E. Subotnik,  T. Van Voorhis,  
 J. M. Herbert,  A. I. Krylov,  P. M. W. Gill,  M. Head-Gordon

 Contributors to earlier versions of Q-Chem not listed above: 
 R. D. Adamson,  B. Austin,  J. Baker,  G. J. O. Beran,  K. Brandhorst,  
 S. T. Brown,  E. F. C. Byrd,  A. K. Chakraborty,  C.-L. Cheng,  
 Siu Hung Chien,  D. M. Chipman,  D. L. Crittenden,  H. Dachsel,  
 R. J. Doerksen,  A. D. Dutoi,  L. Fusti-Molnar,  W. A. Goddard III,  
 A. Golubeva-Zadorozhnaya,  S. R. Gwaltney,  G. Hawkins,  A. Heyden,  
 S. Hirata,  G. Kedziora,  F. J. Keil,  C. Kelley,  Jihan Kim,  R. A. King,  
 R. Z. Khaliullin,  P. P. Korambath,  W. Kurlancheek,  A. M. Lee,  M. S. Lee,  
 S. V. Levchenko,  Ching Yeh Lin,  D. Liotard,  R. C. Lochan,  I. Lotan,  
 P. E. Maslen,  N. Nair,  D. P. O'Neill,  D. Neuhauser,  E. Neuscamman,  
 C. M. Oana,  R. Olson,  B. Peters,  R. Peverati,  P. A. Pieniazek,  
 Y. M. Rhee,  J. Ritchie,  M. A. Rohrdanz,  E. Rosta,  N. J. Russ,  
 H. F. Schaefer III,  N. E. Schultz,  N. Shenvi,  A. C. Simmonett,  A. Sodt,  
 D. Stuck,  K. S. Thanthiriwatte,  V. Vanovschi,  Tao Wang,  A. Warshel,  
 C. F. Williams,  Q. Wu,  X. Xu,  W. Zhang

 Please cite Q-Chem as follows:
 Y. Shao et al., Mol. Phys. 113, 184-215 (2015)
 DOI: 10.1080/00268976.2014.952696

 Q-Chem 5.3.0 for Intel X86 EM64T Linux

 Parts of Q-Chem use Armadillo 9.800.1 (Horizon Scraper).
 http://arma.sourceforge.net/

 Q-Chem begins on Wed Nov 11 01:33:18 2020  

n0070.mhg0
Host: 0

     Scratch files written to /local/scratch/users/yhljason/HCHO_M11-L_aug-pc-4.inp20201110225737//
Processing $rem in /clusterfs/mhg/diptarka/qchem_transmom//config/preferences:
Processing $rem in /global/home/users/yhljason/.qchemrc:

Checking the input file for inconsistencies... 	...done.

--------------------------------------------------------------
User input:
--------------------------------------------------------------
$molecule
0 1
O1      0.0000  0.0000  1.2050
C2      0.0000  0.0000  0.0000
H3      0.0000  0.9429  -0.5876
H4      0.0000  -0.9429 -0.5876
$end

$rem
jobtype sp
method M11-L
xc_grid 000099000590
basis aug-pc-4
max_scf_cycles 200
thresh 14
scf_convergence 8
scf_algorithm gdm
symmetry false
sym_ignore true
unrestricted True
gen_scfman true
internal_stability_iter 15
internal_stability_davidson_iter 200
mem_total 64000
mem_static 1500
n_frozen_core 0
$end



--------------------------------------------------------------
 ----------------------------------------------------------------
             Standard Nuclear Orientation (Angstroms)
    I     Atom           X                Y                Z
 ----------------------------------------------------------------
    1      O       0.0000000000     0.0000000000     1.2050000000
    2      C       0.0000000000     0.0000000000     0.0000000000
    3      H       0.0000000000     0.9429000000    -0.5876000000
    4      H       0.0000000000    -0.9429000000    -0.5876000000
 ----------------------------------------------------------------
 Nuclear Repulsion Energy =          31.25573500 hartrees
 There are        8 alpha and        8 beta electrons
 Requested basis set is aug-pc-4
 There are 114 shells and 466 basis functions

 Total QAlloc Memory Limit  64000 MB
 Mega-Array Size      1467 MB
 MEM_STATIC part      1500 MB

                       Distance Matrix (Angstroms)
             O (  1)   C (  2)   H (  3)
   C (  2)  1.205000
   H (  3)  2.025457  1.111006
   H (  4)  2.025457  1.111006  1.885800

 A cutoff of  1.0D-14 yielded   6491 shell pairs
 There are    109599 function pairs (    201231 Cartesian)
 Smallest overlap matrix eigenvalue = 1.74E-07
 Linear dependence detected in AO basis
 Tighter screening thresholds may be required for diffuse basis sets
 Use S2THRESH > 14 and THRESH = 14 in case of SCF convergence issues
 Number of orthogonalized atomic orbitals = 462
 Maximum deviation from orthogonality = 1.694E-10

 Scale SEOQF with 1.000000e-01/1.000000e-01/1.000000e-01

 Standard Electronic Orientation quadrupole field applied
 Nucleus-field energy     =    -0.0000000012 hartrees
 Guess from superposition of atomic densities
 Warning:  Energy on first SCF cycle will be non-variational
 SAD guess density has 16.000000 electrons

 -----------------------------------------------------------------------
  General SCF calculation program by
  Eric Jon Sundstrom, Paul Horn, Yuezhi Mao, Dmitri Zuev, Alec White,
  David Stuck, Shaama M.S., Shane Yost, Joonho Lee, David Small,
  Daniel Levine, Susi Lehtola, Hugh Burton, Evgeny Epifanovsky,
  Bang C. Huynh
 -----------------------------------------------------------------------
 Exchange:  M11-L      Correlation:  M11-L
 Using Euler-Maclaurin-Lebedev (99,590) quadrature formula
Running Object-Oriented UKS (UHF)
performing a single roothaan step with Fock from read density so that orbitals are available to all algorithms
energy of the guess density (C=0) -114.657714924983
We will preform up to 15 macro iterations over saddle points until a stable solution is found
Energy prior to optimization (guess energy) = -114.468209613362
Begin Timing: Total SCF Calculation
Begin Timing: SCF Single Stationary Point Calculation
begin iterations for algorithm: GDM          
the SCF tolerance is set to 1.00e-08
    1    -114.4682096134      2.29e-01     00000  Descent step
    2    -114.4734695936      3.42e-01     00000  Normal BFGS step
    3    -114.5367295409      6.13e-02     00000  Normal BFGS step
    4    -114.5390890373      2.47e-02     00000  Normal BFGS step
    5    -114.5435414489      3.20e-03     00000  Normal BFGS step
    6    -114.5435854358      2.44e-03     00000  Normal BFGS step
    7    -114.5436324343      4.23e-04     00000  Normal BFGS step
    8    -114.5436335937      3.04e-04     00000  Normal BFGS step
    9    -114.5436344276      4.73e-05     00000  Normal BFGS step
   10    -114.5436344333      3.70e-05     00000  Normal BFGS step
   11    -114.5436344417      4.08e-06     00000  Normal BFGS step
   12    -114.5436344417      2.45e-06     00000  Normal BFGS step
   13    -114.5436344418      1.51e-07     00000  Normal BFGS step
   14    -114.5436344418      2.23e-07     00000  Normal BFGS step
   15    -114.5436344418      2.48e-07     00000  Normal BFGS step
   16    -114.5436344418      1.08e-07     00000  Normal BFGS step
   17    -114.5436344418      1.02e-08     00000  Normal BFGS step
   18    -114.5436344418      5.70e-09     00000 Convergence criterion met
Timing for Single Stationary Point: 7492.00s (wall), 58944.54s (cpu)
Begin Timing: Stability
===================================================
Beginning Test for Internal Stability
===================================================
generating davidson guess vectors based on koopmans excitations
 Warning: Hessian-vector products not implemented
 Finite difference Hessian-vector products will be used.
computing hessian-vector products by finite difference
    1      7.33e-01     00000 Davidson Iteration
computing hessian-vector products by finite difference
    2      2.41e-01     00000 Davidson Iteration
computing hessian-vector products by finite difference
    3      9.82e-02     00000 Davidson Iteration
computing hessian-vector products by finite difference
    4      4.01e-02     00000 Davidson Iteration
computing hessian-vector products by finite difference
    5      1.31e-02     00000 Davidson Iteration
computing hessian-vector products by finite difference
    6      6.73e-03     00000 Davidson Iteration
computing hessian-vector products by finite difference
    7      2.90e-03     00000 Davidson Iteration
computing hessian-vector products by finite difference
    8      1.17e-03     00000 Davidson Iteration
computing hessian-vector products by finite difference
    9      8.09e-04     00000 Davidson Iteration
computing hessian-vector products by finite difference
   10      2.97e-04     00000 Davidson Iteration
computing hessian-vector products by finite difference
   11      1.41e-04     00000 Davidson Iteration
computing hessian-vector products by finite difference
   12      3.23e-05     00000 Davidson Iteration
computing hessian-vector products by finite difference
   13      1.46e-04     00000 Davidson Iteration
computing hessian-vector products by finite difference
   14      5.71e-05     00000 Davidson Iteration
computing hessian-vector products by finite difference
   15      5.16e-03     00000 Davidson Iteration
computing hessian-vector products by finite difference
   16      2.31e-03     00000 Davidson Iteration
computing hessian-vector products by finite difference
   17      1.37e-03     00000 Davidson Iteration
computing hessian-vector products by finite difference
   18      4.80e-04     00000 Davidson Iteration
computing hessian-vector products by finite difference
   19      1.65e-04     00000 Davidson Iteration
computing hessian-vector products by finite difference
   20      6.11e-05     00000 Davidson Converged
converged_eigenvalues
   0.2461
   0.3216
   0.2297
Threshold for negative eigenvalues: -1.0e-05
solution was a local minimum (stable)
===================================================
End Test for Internal Stability
===================================================
Timing for Internal Stability: 40760.00s (wall), 320532.53s (cpu)
Our SCF solution is stable!
Timing for Total SCF: 48252.00s (wall), 379477.32s (cpu)
 Total energy in the final basis set =     -114.5436344418
<S^2> =         -0.000000000
    ==================================================
              The end of Object-Oriented SCFman       
    ==================================================

 --------------------------------------------------------------

                    Orbital Energies (a.u.)
 --------------------------------------------------------------

 Alpha MOs
 -- Occupied --
-19.3944 -10.4541  -1.0964  -0.6258  -0.4657  -0.4386  -0.3793  -0.2541
 -- Virtual --
 -0.0905  -0.0676  -0.0409  -0.0387  -0.0284  -0.0017  -0.0011   0.0073
  0.0099   0.0107   0.0247   0.0390   0.0406   0.0495   0.0575   0.0624
  0.0637   0.0695   0.0718   0.0741   0.0759   0.0773   0.0991   0.1115
  0.1194   0.1287   0.1314   0.1441   0.1470   0.1539   0.1590   0.1647
  0.1655   0.1689   0.1692   0.1826   0.1831   0.1834   0.1909   0.1957
  0.2177   0.2233   0.2250   0.2358   0.2375   0.2414   0.2453   0.2456
  0.2565   0.2568   0.2764   0.2766   0.2825   0.2851   0.2991   0.3036
  0.3070   0.3134   0.3144   0.3156   0.3177   0.3330   0.3403   0.3604
  0.3655   0.3656   0.3694   0.3815   0.3955   0.4018   0.4192   0.4229
  0.4230   0.4316   0.4319   0.4335   0.4453   0.4462   0.4612   0.4684
  0.4701   0.4795   0.4913   0.5012   0.5045   0.5124   0.5226   0.5270
  0.5278   0.5317   0.5339   0.5345   0.5346   0.5523   0.5574   0.5574
  0.5598   0.5636   0.5890   0.5998   0.6057   0.6163   0.6187   0.6417
  0.6508   0.6607   0.6719   0.6722   0.6761   0.6783   0.6883   0.6927
  0.6972   0.6973   0.7046   0.7169   0.7228   0.7240   0.7383   0.7393
  0.7434   0.7499   0.7600   0.7603   0.7739   0.7779   0.7802   0.7945
  0.7977   0.8119   0.8352   0.8365   0.8580   0.8634   0.8672   0.8932
  0.8949   0.8954   0.9001   0.9015   0.9108   0.9465   0.9507   0.9722
  0.9756   0.9834   0.9854   1.0065   1.0181   1.0332   1.0416   1.0523
  1.0902   1.0987   1.1124   1.1250   1.1262   1.1576   1.1706   1.1861
  1.1981   1.2302   1.2553   1.3013   1.3101   1.3198   1.3667   1.3801
  1.4079   1.4268   1.4541   1.4570   1.4572   1.4828   1.5422   1.5697
  1.5870   1.5904   1.5945   1.6768   1.7177   1.8059   1.8076   1.8165
  1.8791   1.8843   1.8980   1.9251   1.9793   1.9859   2.0098   2.0130
  2.1093   2.1403   2.1533   2.1835   2.2072   2.2221   2.2270   2.2395
  2.2993   2.3948   2.4281   2.4533   2.5012   2.5059   2.6583   2.7337
  2.7709   2.8275   2.8629   2.9925   3.1083   3.1274   3.1815   3.2069
  3.2979   3.3835   3.4514   3.4791   3.4892   3.5003   3.5871   3.6174
  3.6683   3.7279   3.7618   3.7644   3.8589   3.9457   3.9618   3.9708
  4.0250   4.1044   4.1960   4.1991   4.2385   4.3518   4.3868   4.3903
  4.4321   4.5172   4.5392   4.5555   4.5595   4.5886   4.6192   4.6313
  4.7056   4.7564   4.8076   4.8647   4.8708   4.8836   4.9164   5.1404
  5.1567   5.1994   5.2507   5.2910   5.3640   5.3786   5.4127   5.4984
  5.5705   5.6167   5.6228   5.7839   5.8194   5.9140   5.9787   6.1427
  6.2221   6.2542   6.2612   6.2627   6.3727   6.5445   6.6102   6.6433
  6.6549   6.7035   6.7859   6.7866   6.9992   7.0920   7.2672   7.4400
  7.6037   7.7625   7.8914   8.0760   8.0991   8.3097   8.4102   8.4553
  8.6953   8.7091   8.9246   9.0280   9.3543   9.3917   9.4402   9.4745
  9.4806   9.5524   9.6082   9.7240   9.7580  10.0190  10.0277  10.2215
 10.4627  10.5209  10.6346  10.8158  10.8423  10.9069  10.9371  10.9550
 10.9766  11.0788  11.0853  11.3072  11.4574  11.5780  11.5852  11.6616
 11.6896  11.7392  11.7673  11.9130  11.9196  11.9835  12.0512  12.1077
 12.1721  12.2133  12.2456  12.5472  12.5803  12.6855  12.7431  12.7479
 13.0225  13.0241  13.0280  13.0340  13.0373  13.0384  13.1067  13.1736
 13.1941  13.2172  13.2409  13.2908  13.2916  13.4574  13.4665  13.5045
 13.5266  13.6006  13.6811  13.7354  13.8067  14.0065  14.0199  14.1062
 14.1811  14.2154  14.4702  14.5413  14.6026  14.6299  14.6968  14.9073
 15.3839  15.5502  15.5754  15.5808  15.9439  16.2428  16.2764  16.4433
 17.1597  17.4363  17.4407  17.4475  17.4522  17.7051  17.9675  18.1772
 18.1880  18.2692  18.2782  18.3195  18.3293  18.5121  18.6323  18.7883
 19.1579  19.1642  19.2978  19.3624  19.4026  19.4901  19.5217  19.5594
 19.8795  20.0319  20.0398  20.2239  20.3431  20.5227  20.6449  20.6846
 21.5605  21.7861  23.1112  23.9880  24.0321  24.8350  24.8621  24.8875
 24.9823  25.3007  25.3459  26.0321  26.3812  27.5354  31.0806  32.6997
 33.0288  33.3162  33.4251  33.6856  34.8901  35.4290  35.6573  45.4167
 45.4863  67.9798  68.0089  68.4912  68.7951  70.1311  81.4271  99.5930
 99.7820 103.6882 103.7117 103.7335 103.9928 150.9540

 Beta MOs
 -- Occupied --
-19.3944 -10.4541  -1.0964  -0.6258  -0.4657  -0.4386  -0.3793  -0.2541
 -- Virtual --
 -0.0905  -0.0676  -0.0409  -0.0387  -0.0284  -0.0017  -0.0011   0.0073
  0.0099   0.0107   0.0247   0.0390   0.0406   0.0495   0.0575   0.0624
  0.0637   0.0695   0.0718   0.0741   0.0759   0.0773   0.0991   0.1115
  0.1194   0.1287   0.1314   0.1441   0.1470   0.1539   0.1590   0.1647
  0.1655   0.1689   0.1692   0.1826   0.1831   0.1834   0.1909   0.1957
  0.2177   0.2233   0.2250   0.2358   0.2375   0.2414   0.2453   0.2456
  0.2565   0.2568   0.2764   0.2766   0.2825   0.2851   0.2991   0.3036
  0.3070   0.3134   0.3144   0.3156   0.3177   0.3330   0.3403   0.3604
  0.3655   0.3656   0.3694   0.3815   0.3955   0.4018   0.4192   0.4229
  0.4230   0.4316   0.4319   0.4335   0.4453   0.4462   0.4612   0.4684
  0.4701   0.4795   0.4913   0.5012   0.5045   0.5124   0.5226   0.5270
  0.5278   0.5317   0.5339   0.5345   0.5346   0.5523   0.5574   0.5574
  0.5598   0.5636   0.5890   0.5998   0.6057   0.6163   0.6187   0.6417
  0.6508   0.6607   0.6719   0.6722   0.6761   0.6783   0.6883   0.6927
  0.6972   0.6973   0.7046   0.7169   0.7228   0.7240   0.7383   0.7393
  0.7434   0.7499   0.7600   0.7603   0.7739   0.7779   0.7802   0.7945
  0.7977   0.8119   0.8352   0.8365   0.8580   0.8634   0.8672   0.8932
  0.8949   0.8954   0.9001   0.9015   0.9108   0.9465   0.9507   0.9722
  0.9756   0.9834   0.9854   1.0065   1.0181   1.0332   1.0416   1.0523
  1.0902   1.0987   1.1124   1.1250   1.1262   1.1576   1.1706   1.1861
  1.1981   1.2302   1.2553   1.3013   1.3101   1.3198   1.3667   1.3801
  1.4079   1.4268   1.4541   1.4570   1.4572   1.4828   1.5422   1.5697
  1.5870   1.5904   1.5945   1.6768   1.7177   1.8059   1.8076   1.8165
  1.8791   1.8843   1.8980   1.9251   1.9793   1.9859   2.0098   2.0130
  2.1093   2.1403   2.1533   2.1835   2.2072   2.2221   2.2270   2.2395
  2.2993   2.3948   2.4281   2.4533   2.5012   2.5059   2.6583   2.7337
  2.7709   2.8275   2.8629   2.9925   3.1083   3.1274   3.1815   3.2069
  3.2979   3.3835   3.4514   3.4791   3.4892   3.5003   3.5871   3.6174
  3.6683   3.7279   3.7618   3.7644   3.8589   3.9457   3.9618   3.9708
  4.0250   4.1044   4.1960   4.1991   4.2385   4.3518   4.3868   4.3903
  4.4321   4.5172   4.5392   4.5555   4.5595   4.5886   4.6192   4.6313
  4.7056   4.7564   4.8076   4.8647   4.8708   4.8836   4.9164   5.1404
  5.1567   5.1994   5.2507   5.2910   5.3640   5.3786   5.4127   5.4984
  5.5705   5.6167   5.6228   5.7839   5.8194   5.9140   5.9787   6.1427
  6.2221   6.2542   6.2612   6.2627   6.3727   6.5445   6.6102   6.6433
  6.6549   6.7035   6.7859   6.7866   6.9992   7.0920   7.2672   7.4400
  7.6037   7.7625   7.8914   8.0760   8.0991   8.3097   8.4102   8.4553
  8.6953   8.7091   8.9246   9.0280   9.3543   9.3917   9.4402   9.4745
  9.4806   9.5524   9.6082   9.7240   9.7580  10.0190  10.0277  10.2215
 10.4627  10.5209  10.6346  10.8158  10.8423  10.9069  10.9371  10.9550
 10.9766  11.0788  11.0853  11.3072  11.4574  11.5780  11.5852  11.6616
 11.6896  11.7392  11.7673  11.9130  11.9196  11.9835  12.0512  12.1077
 12.1721  12.2133  12.2456  12.5472  12.5803  12.6855  12.7431  12.7479
 13.0225  13.0241  13.0280  13.0340  13.0373  13.0384  13.1067  13.1736
 13.1941  13.2172  13.2409  13.2908  13.2916  13.4574  13.4665  13.5045
 13.5266  13.6006  13.6811  13.7354  13.8067  14.0065  14.0199  14.1062
 14.1811  14.2154  14.4702  14.5413  14.6026  14.6299  14.6968  14.9073
 15.3839  15.5502  15.5754  15.5808  15.9439  16.2428  16.2764  16.4433
 17.1597  17.4363  17.4407  17.4475  17.4522  17.7051  17.9675  18.1772
 18.1880  18.2692  18.2782  18.3195  18.3293  18.5121  18.6323  18.7883
 19.1579  19.1642  19.2978  19.3624  19.4026  19.4901  19.5217  19.5594
 19.8795  20.0319  20.0398  20.2239  20.3431  20.5227  20.6449  20.6846
 21.5605  21.7861  23.1112  23.9880  24.0321  24.8350  24.8621  24.8875
 24.9823  25.3007  25.3459  26.0321  26.3812  27.5354  31.0806  32.6997
 33.0288  33.3162  33.4251  33.6856  34.8901  35.4290  35.6573  45.4167
 45.4863  67.9798  68.0089  68.4912  68.7951  70.1311  81.4271  99.5930
 99.7820 103.6882 103.7117 103.7335 103.9928 150.9540
 --------------------------------------------------------------

          Ground-State Mulliken Net Atomic Charges

     Atom                 Charge (a.u.)    Spin (a.u.)
  --------------------------------------------------------
      1 O                    -0.470421       0.000000
      2 C                    -1.559929       0.000000
      3 H                     1.015175      -0.000000
      4 H                     1.015175      -0.000000
  --------------------------------------------------------
  Sum of atomic charges =    -0.000000
  Sum of spin   charges =     0.000000

 -----------------------------------------------------------------
                    Cartesian Multipole Moments
 -----------------------------------------------------------------
    Charge (ESU x 10^10)
                 0.0000
    Dipole Moment (Debye)
         X       0.0000      Y      -0.0000      Z      -2.1867
       Tot       2.1867
    Quadrupole Moments (Debye-Ang)
        XX     -11.4664     XY      -0.0000     YY     -11.5717
        XZ      -0.0000     YZ      -0.0000     ZZ     -14.4132
    Octopole Moments (Debye-Ang^2)
       XXX       0.0000    XXY       0.0000    XYY       0.0000
       YYY       0.0000    XXZ      -5.2597    XYZ       0.0000
       YYZ      -6.1521    XZZ       0.0000    YZZ      -0.0000
       ZZZ     -19.4276
    Hexadecapole Moments (Debye-Ang^3)
      XXXX      -9.9267   XXXY       0.0000   XXYY      -5.0973
      XYYY      -0.0000   YYYY     -18.7545   XXXZ      -0.0000
      XXYZ       0.0000   XYYZ      -0.0000   YYYZ      -0.0000
      XXZZ     -11.5507   XYZZ      -0.0000   YYZZ     -14.0370
      XZZZ      -0.0000   YZZZ       0.0000   ZZZZ     -63.8965
 -----------------------------------------------------------------
Archival summary:
1\1\n0070.mhg0\SP\ProcedureUnspecified\BasisUnspecified\112\yhljason\WedNov1115:11:372020WedNov1115:11:372020\0\\#,ProcedureUnspecified,BasisUnspecified,\\0,1\C\H,1,1.11101\H,1,1.11101,2,116.139\O,1,1.205,2,121.93,3,-180,0\\\@

 Total job time:  49099.17s(wall), 386136.35s(cpu) 
 Wed Nov 11 15:11:37 2020

        *************************************************************
        *                                                           *
        *  Thank you very much for using Q-Chem.  Have a nice day.  *
        *                                                           *
        *************************************************************


