                  Welcome to Q-Chem
     A Quantum Leap Into The Future Of Chemistry


 Q-Chem 5.3 (devel), Q-Chem, Inc., Pleasanton, CA (2020)

 Yihan Shao,  Zhengting Gan,  E. Epifanovsky,  A. T. B. Gilbert,  M. Wormit,  
 J. Kussmann,  A. W. Lange,  A. Behn,  Jia Deng,  Xintian Feng,  D. Ghosh,  
 M. Goldey,  P. R. Horn,  L. D. Jacobson,  I. Kaliman,  T. Kus,  A. Landau,  
 Jie Liu,  E. I. Proynov,  R. M. Richard,  R. P. Steele,  E. J. Sundstrom,  
 H. L. Woodcock III,  P. M. Zimmerman,  D. Zuev,  B. Alam,  B. Albrecht,  
 E. Alguire,  S. A. Baeppler,  D. Barton,  Z. Benda,  Y. A. Bernard,  
 E. J. Berquist,  K. B. Bravaya,  H. Burton,  K. Carter-Fenk,  D. Casanova,  
 Chun-Min Chang,  Yunqing Chen,  A. Chien,  K. D. Closser,  M. P. Coons,  
 S. Coriani,  S. Dasgupta,  A. L. Dempwolff,  M. Diedenhofen,  Hainam Do,  
 R. G. Edgar,  Po-Tung Fang,  S. Faraji,  S. Fatehi,  Qingguo Feng,  
 J. Fosso-Tande,  J. Gayvert,  Qinghui Ge,  A. Ghysels,  G. Gidofalvi,  
 J. Gomes,  J. Gonthier,  A. Gunina,  D. Hait,  M. W. D. Hanson-Heine,  
 P. H. P. Harbach,  A. W. Hauser,  M. F. Herbst,  J. E. Herr,  
 E. G. Hohenstein,  Z. C. Holden,  Kerwin Hui,  B. C. Huynh,  T.-C. Jagau,  
 Hyunjun Ji,  B. Kaduk,  K. Khistyaev,  Jaehoon Kim,  P. Klunzinger,  K. Koh,  
 D. Kosenkov,  L. Koulias,  T. Kowalczyk,  C. M. Krauter,  A. Kunitsa,  
 Ka Un Lao,  A. Laurent,  K. V. Lawler,  Joonho Lee,  D. Lefrancois,  
 S. Lehtola,  D. S. Levine,  Yi-Pei Li,  You-Sheng Lin,  Fenglai Liu,  
 Kuan-Yu Liu,  E. Livshits,  M. Loipersberger,  A. Luenser,  P. Manohar,  
 E. Mansoor,  S. F. Manzer,  Shan-Ping Mao,  Yuezhi Mao,  N. Mardirossian,  
 A. V. Marenich,  T. Markovich,  L. A. Martinez-Martinez,  S. A. Maurer,  
 N. J. Mayhall,  S. C. McKenzie,  J.-M. Mewes,  P. Morgante,  A. F. Morrison,  
 J. W. Mullinax,  K. Nanda,  T. S. Nguyen-Beck,  R. Olivares-Amaya,  
 K. J. Oosterbaan,  J. A. Parkhill,  S. K. Paul,  F. Pavosevic,  Zheng Pei,  
 T. M. Perrine,  F. Plasser,  P. Pokhilko,  S. Prager,  A. Prociuk,  
 E. Ramos,  B. Rana,  D. R. Rehn,  F. Rob,  M. Scheurer,  M. Schneider,  
 N. Sergueev,  S. M. Sharada,  S. Sharma,  D. W. Small,  T. Stauch,  
 C. J. Stein,  T. Stein,  Yu-Chuan Su,  S. P. Veccham,  Zhen Tao,  
 A. J. W. Thom,  A. Tkatchenko,  T. Tsuchimochi,  N. M. Tubman,  L. Vogt,  
 M. L. Vidal,  O. Vydrov,  M. A. Watson,  J. Wenzel,  M. de Wergifosse,  
 T. A. Wesolowski,  A. White,  J. Witte,  A. Yamada,  Jun Yang,  K. Yao,  
 S. Yeganeh,  S. R. Yost,  Zhi-Qiang You,  A. Zech,  Igor Ying Zhang,  
 Xing Zhang,  Yan Zhao,  Ying Zhu,  B. R. Brooks,  G. K. L. Chan,  
 C. J. Cramer,  M. S. Gordon,  W. J. Hehre,  A. Klamt,  M. W. Schmidt,  
 C. D. Sherrill,  D. G. Truhlar,  A. Aspuru-Guzik,  R. Baer,  A. T. Bell,  
 N. A. Besley,  Jeng-Da Chai,  A. E. DePrince, III,  R. A. DiStasio Jr.,  
 A. Dreuw,  B. D. Dunietz,  T. R. Furlani,  Chao-Ping Hsu,  Yousung Jung,  
 Jing Kong,  D. S. Lambrecht,  WanZhen Liang,  C. Ochsenfeld,  
 V. A. Rassolov,  L. V. Slipchenko,  J. E. Subotnik,  T. Van Voorhis,  
 J. M. Herbert,  A. I. Krylov,  P. M. W. Gill,  M. Head-Gordon

 Contributors to earlier versions of Q-Chem not listed above: 
 R. D. Adamson,  B. Austin,  J. Baker,  G. J. O. Beran,  K. Brandhorst,  
 S. T. Brown,  E. F. C. Byrd,  A. K. Chakraborty,  C.-L. Cheng,  
 Siu Hung Chien,  D. M. Chipman,  D. L. Crittenden,  H. Dachsel,  
 R. J. Doerksen,  A. D. Dutoi,  L. Fusti-Molnar,  W. A. Goddard III,  
 A. Golubeva-Zadorozhnaya,  S. R. Gwaltney,  G. Hawkins,  A. Heyden,  
 S. Hirata,  G. Kedziora,  F. J. Keil,  C. Kelley,  Jihan Kim,  R. A. King,  
 R. Z. Khaliullin,  P. P. Korambath,  W. Kurlancheek,  A. M. Lee,  M. S. Lee,  
 S. V. Levchenko,  Ching Yeh Lin,  D. Liotard,  R. C. Lochan,  I. Lotan,  
 P. E. Maslen,  N. Nair,  D. P. O'Neill,  D. Neuhauser,  E. Neuscamman,  
 C. M. Oana,  R. Olson,  B. Peters,  R. Peverati,  P. A. Pieniazek,  
 Y. M. Rhee,  J. Ritchie,  M. A. Rohrdanz,  E. Rosta,  N. J. Russ,  
 H. F. Schaefer III,  N. E. Schultz,  N. Shenvi,  A. C. Simmonett,  A. Sodt,  
 D. Stuck,  K. S. Thanthiriwatte,  V. Vanovschi,  Tao Wang,  A. Warshel,  
 C. F. Williams,  Q. Wu,  X. Xu,  W. Zhang

 Please cite Q-Chem as follows:
 Y. Shao et al., Mol. Phys. 113, 184-215 (2015)
 DOI: 10.1080/00268976.2014.952696

 Q-Chem 5.3.0 for Intel X86 EM64T Linux

 Parts of Q-Chem use Armadillo 9.800.1 (Horizon Scraper).
 http://arma.sourceforge.net/

 Q-Chem begins on Sat Nov 14 03:45:33 2020  

n0067.mhg0
Host: 0

     Scratch files written to /local/scratch/users/yhljason/HCHO_SCAN_aug-pc-4.inp20201114034532//
Processing $rem in /clusterfs/mhg/diptarka/qchem_transmom//config/preferences:
Processing $rem in /global/home/users/yhljason/.qchemrc:

Checking the input file for inconsistencies... 	...done.

--------------------------------------------------------------
User input:
--------------------------------------------------------------
$molecule
0 1
O1      0.0000  0.0000  1.2050
C2      0.0000  0.0000  0.0000
H3      0.0000  0.9429  -0.5876
H4      0.0000  -0.9429 -0.5876
$end

$rem
jobtype sp
method SCAN
xc_grid 000099000590
basis aug-pc-4
max_scf_cycles 200
thresh 14
scf_convergence 8
scf_algorithm gdm
symmetry false
sym_ignore true
unrestricted True
gen_scfman true
internal_stability_iter 15
internal_stability_davidson_iter 200
mem_total 64000
mem_static 1500
n_frozen_core 0
$end



--------------------------------------------------------------
 ----------------------------------------------------------------
             Standard Nuclear Orientation (Angstroms)
    I     Atom           X                Y                Z
 ----------------------------------------------------------------
    1      O       0.0000000000     0.0000000000     1.2050000000
    2      C       0.0000000000     0.0000000000     0.0000000000
    3      H       0.0000000000     0.9429000000    -0.5876000000
    4      H       0.0000000000    -0.9429000000    -0.5876000000
 ----------------------------------------------------------------
 Nuclear Repulsion Energy =          31.25573500 hartrees
 There are        8 alpha and        8 beta electrons
 Requested basis set is aug-pc-4
 There are 114 shells and 466 basis functions

 Total QAlloc Memory Limit  64000 MB
 Mega-Array Size      1467 MB
 MEM_STATIC part      1500 MB

                       Distance Matrix (Angstroms)
             O (  1)   C (  2)   H (  3)
   C (  2)  1.205000
   H (  3)  2.025457  1.111006
   H (  4)  2.025457  1.111006  1.885800

 A cutoff of  1.0D-14 yielded   6491 shell pairs
 There are    109599 function pairs (    201231 Cartesian)
 Smallest overlap matrix eigenvalue = 1.74E-07
 Linear dependence detected in AO basis
 Tighter screening thresholds may be required for diffuse basis sets
 Use S2THRESH > 14 and THRESH = 14 in case of SCF convergence issues
 Number of orthogonalized atomic orbitals = 462
 Maximum deviation from orthogonality = 1.694E-10

 Scale SEOQF with 1.000000e-01/1.000000e-01/1.000000e-01

 Standard Electronic Orientation quadrupole field applied
 Nucleus-field energy     =    -0.0000000012 hartrees
 Guess from superposition of atomic densities
 Warning:  Energy on first SCF cycle will be non-variational
 SAD guess density has 16.000000 electrons

 -----------------------------------------------------------------------
  General SCF calculation program by
  Eric Jon Sundstrom, Paul Horn, Yuezhi Mao, Dmitri Zuev, Alec White,
  David Stuck, Shaama M.S., Shane Yost, Joonho Lee, David Small,
  Daniel Levine, Susi Lehtola, Hugh Burton, Evgeny Epifanovsky,
  Bang C. Huynh
 -----------------------------------------------------------------------
 Exchange:  SCAN      Correlation:  SCAN
 Using Euler-Maclaurin-Lebedev (99,590) quadrature formula
Running Object-Oriented UKS (UHF)
performing a single roothaan step with Fock from read density so that orbitals are available to all algorithms
energy of the guess density (C=0) -114.649819971147
We will preform up to 15 macro iterations over saddle points until a stable solution is found
Energy prior to optimization (guess energy) = -114.455234759254
Begin Timing: Total SCF Calculation
Begin Timing: SCF Single Stationary Point Calculation
begin iterations for algorithm: GDM          
the SCF tolerance is set to 1.00e-08
    1    -114.4552347593      2.64e-01     00000  Descent step
    2    -114.4382915029      3.81e-01     00000 Line search: overstep
    3    -114.5043300224      3.83e-02     00000  Normal BFGS step
    4    -114.5044034457      4.34e-02     00000  Normal BFGS step
    5    -114.5102347698      2.16e-03     00000  Normal BFGS step
    6    -114.5102617096      6.77e-04     00000  Normal BFGS step
    7    -114.5102665395      2.85e-05     00000  Normal BFGS step
    8    -114.5102665545      9.23e-06     00000  Normal BFGS step
    9    -114.5102665555      6.83e-07     00000  Normal BFGS step
   10    -114.5102665555      1.04e-06     00000  Normal BFGS step
   11    -114.5102665555      1.84e-06     00000  Normal BFGS step
   12    -114.5102665555      7.58e-08     00000  Normal BFGS step
   13    -114.5102665555      1.54e-08     00000  Normal BFGS step
   14    -114.5102665555      9.56e-09     00000 Convergence criterion met
Timing for Single Stationary Point: 5443.00s (wall), 42876.44s (cpu)
Begin Timing: Stability
===================================================
Beginning Test for Internal Stability
===================================================
generating davidson guess vectors based on koopmans excitations
 Warning: Hessian-vector products not implemented
 Finite difference Hessian-vector products will be used.
computing hessian-vector products by finite difference
    1      4.81e-01     00000 Davidson Iteration
computing hessian-vector products by finite difference
    2      5.81e-02     00000 Davidson Iteration
computing hessian-vector products by finite difference
    3      1.24e-02     00000 Davidson Iteration
computing hessian-vector products by finite difference
    4      3.39e-03     00000 Davidson Iteration
computing hessian-vector products by finite difference
    5      7.81e-04     00000 Davidson Iteration
computing hessian-vector products by finite difference
    6      2.50e-04     00000 Davidson Iteration
computing hessian-vector products by finite difference
    7      9.14e-05     00000 Davidson Iteration
computing hessian-vector products by finite difference
    8      3.26e-04     00000 Davidson Iteration
computing hessian-vector products by finite difference
    9      6.61e-05     00000 Davidson Converged
converged_eigenvalues
   0.1913
   0.3196
Threshold for negative eigenvalues: -1.0e-05
solution was a local minimum (stable)
===================================================
End Test for Internal Stability
===================================================
Timing for Internal Stability: 15287.00s (wall), 120578.49s (cpu)
Our SCF solution is stable!
Timing for Total SCF: 20730.00s (wall), 163455.12s (cpu)
 Total energy in the final basis set =     -114.5102665555
<S^2> =          0.000000000
    ==================================================
              The end of Object-Oriented SCFman       
    ==================================================

 --------------------------------------------------------------

                    Orbital Energies (a.u.)
 --------------------------------------------------------------

 Alpha MOs
 -- Occupied --
-18.9690 -10.1389  -1.0304  -0.6065  -0.4649  -0.4212  -0.3783  -0.2411
 -- Virtual --
 -0.0861   0.0046   0.0244   0.0246   0.0261   0.0445   0.0477   0.0633
  0.0673   0.0734   0.0766   0.0782   0.0922   0.0973   0.1140   0.1328
  0.1341   0.1365   0.1417   0.1440   0.1450   0.1483   0.1515   0.1522
  0.1789   0.1883   0.1917   0.2032   0.2158   0.2199   0.2234   0.2425
  0.2430   0.2535   0.2558   0.2568   0.2676   0.2738   0.2773   0.2787
  0.2939   0.2976   0.3099   0.3135   0.3185   0.3187   0.3235   0.3277
  0.3296   0.3417   0.3520   0.3702   0.3797   0.3888   0.3890   0.3992
  0.4071   0.4114   0.4159   0.4194   0.4204   0.4311   0.4324   0.4384
  0.4576   0.4577   0.4657   0.4691   0.4955   0.5022   0.5055   0.5198
  0.5222   0.5315   0.5318   0.5388   0.5470   0.5537   0.5598   0.5627
  0.5735   0.5795   0.5840   0.6006   0.6029   0.6228   0.6436   0.6456
  0.6470   0.6512   0.6538   0.6670   0.6792   0.6792   0.6909   0.6969
  0.6986   0.6988   0.7000   0.7130   0.7238   0.7575   0.7595   0.7790
  0.7873   0.7911   0.8001   0.8013   0.8198   0.8207   0.8282   0.8480
  0.8654   0.8681   0.8694   0.8770   0.8895   0.8955   0.8957   0.8999
  0.9015   0.9085   0.9097   0.9291   0.9360   0.9389   0.9439   0.9641
  0.9666   0.9764   0.9847   0.9885   1.0042   1.0240   1.0252   1.0426
  1.0471   1.0506   1.0662   1.0819   1.0890   1.0990   1.1008   1.1114
  1.1350   1.1594   1.1614   1.1771   1.1959   1.2046   1.2136   1.2300
  1.2696   1.2791   1.2803   1.2941   1.3189   1.3468   1.3574   1.3632
  1.3993   1.4210   1.4279   1.4784   1.5020   1.5749   1.5830   1.6188
  1.6470   1.6518   1.6813   1.7241   1.7307   1.7634   1.8335   1.8360
  1.8870   1.8977   1.9236   1.9302   1.9489   1.9846   2.0071   2.0206
  2.0788   2.0941   2.1189   2.1689   2.1744   2.1760   2.2473   2.3145
  2.3487   2.3543   2.3578   2.4062   2.4278   2.4879   2.4924   2.5137
  2.5676   2.6423   2.6917   2.7244   2.7630   2.7646   2.8825   2.9587
  3.0642   3.1394   3.1576   3.2276   3.3851   3.3901   3.3927   3.4250
  3.5443   3.6386   3.6847   3.7059   3.7373   3.7585   3.8030   3.8758
  3.9187   3.9844   3.9888   4.0186   4.1214   4.1554   4.1943   4.1978
  4.2338   4.3442   4.3765   4.4069   4.4926   4.5348   4.5735   4.6014
  4.6756   4.6991   4.7247   4.7330   4.7524   4.7545   4.8080   4.8712
  4.8907   4.9050   4.9245   4.9767   5.0223   5.0606   5.1058   5.2537
  5.3317   5.3776   5.4845   5.4945   5.4952   5.5450   5.5915   5.6195
  5.6413   5.6950   5.7263   5.8701   5.9847   6.0966   6.1234   6.2491
  6.2985   6.3285   6.3299   6.3874   6.5645   6.6059   6.7495   6.7521
  6.7886   6.8306   6.9325   6.9566   6.9847   7.1822   7.3678   7.5614
  7.6144   7.8657   8.0353   8.0433   8.1455   8.4256   8.6872   8.7952
  8.9252   8.9357   9.1417   9.1769   9.3396   9.3631   9.3826   9.4126
  9.4813   9.5739   9.5820   9.6508   9.8608   9.8768   9.9258  10.2637
 10.3116  10.4734  10.6527  10.7930  10.8343  10.8393  10.9569  10.9778
 11.0098  11.0541  11.1287  11.3211  11.3515  11.3998  11.5316  11.6011
 11.6449  11.7242  11.7470  11.8826  11.9732  11.9839  12.0699  12.0807
 12.1701  12.2283  12.3055  12.5656  12.5692  12.6578  12.6585  12.6587
 12.7044  12.7251  12.8164  12.8205  12.9486  12.9808  12.9826  13.0291
 13.0681  13.1163  13.1387  13.1781  13.2334  13.2400  13.3041  13.3312
 13.4431  13.5148  13.5232  13.5253  13.6791  13.8487  13.8620  13.9166
 14.0979  14.1698  14.3257  14.3301  14.4053  14.4853  14.5968  14.9282
 15.2270  15.4599  15.5034  15.5094  15.8860  15.9224  16.1630  16.5352
 16.9607  17.3801  17.3837  17.3882  17.3977  17.4412  17.6633  17.6955
 17.7487  17.7849  17.7917  17.8187  18.0611  18.0727  18.3493  18.4260
 18.8135  18.8177  18.8788  19.0338  19.1139  19.1218  19.2404  19.4617
 19.5901  19.7183  19.7432  20.3500  20.7178  20.7993  20.8518  21.1636
 21.7772  22.0194  22.9366  23.6717  23.7569  24.2327  24.2695  24.3784
 24.6124  24.7244  24.9966  26.0315  26.3877  27.2568  30.8957  32.4499
 32.6710  32.7025  33.2792  33.7737  34.8828  34.9407  35.3510  42.1374
 42.2077  67.4434  67.4977  67.9148  68.2537  69.5307  77.0400  93.4503
 93.4729  93.5358  93.7568  94.6539  94.8232 144.5586

 Beta MOs
 -- Occupied --
-18.9690 -10.1389  -1.0304  -0.6065  -0.4649  -0.4212  -0.3783  -0.2411
 -- Virtual --
 -0.0861   0.0046   0.0244   0.0246   0.0261   0.0445   0.0477   0.0633
  0.0673   0.0734   0.0766   0.0782   0.0922   0.0973   0.1140   0.1328
  0.1341   0.1365   0.1417   0.1440   0.1450   0.1483   0.1515   0.1522
  0.1789   0.1883   0.1917   0.2032   0.2158   0.2199   0.2234   0.2425
  0.2430   0.2535   0.2558   0.2568   0.2676   0.2738   0.2773   0.2787
  0.2939   0.2976   0.3099   0.3135   0.3185   0.3187   0.3235   0.3277
  0.3296   0.3417   0.3520   0.3702   0.3797   0.3888   0.3890   0.3992
  0.4071   0.4114   0.4159   0.4194   0.4204   0.4311   0.4324   0.4384
  0.4576   0.4577   0.4657   0.4691   0.4955   0.5022   0.5055   0.5198
  0.5222   0.5315   0.5318   0.5388   0.5470   0.5537   0.5598   0.5627
  0.5735   0.5795   0.5840   0.6006   0.6029   0.6228   0.6436   0.6456
  0.6470   0.6512   0.6538   0.6670   0.6792   0.6792   0.6909   0.6969
  0.6986   0.6988   0.7000   0.7130   0.7238   0.7575   0.7595   0.7790
  0.7873   0.7911   0.8001   0.8013   0.8198   0.8207   0.8282   0.8480
  0.8654   0.8681   0.8694   0.8770   0.8895   0.8955   0.8957   0.8999
  0.9015   0.9085   0.9097   0.9291   0.9360   0.9389   0.9439   0.9641
  0.9666   0.9764   0.9847   0.9885   1.0042   1.0240   1.0252   1.0426
  1.0471   1.0506   1.0662   1.0819   1.0890   1.0990   1.1008   1.1114
  1.1350   1.1594   1.1614   1.1771   1.1959   1.2046   1.2136   1.2300
  1.2696   1.2791   1.2803   1.2941   1.3189   1.3468   1.3574   1.3632
  1.3993   1.4210   1.4279   1.4784   1.5020   1.5749   1.5830   1.6188
  1.6470   1.6518   1.6813   1.7241   1.7307   1.7634   1.8335   1.8360
  1.8870   1.8977   1.9236   1.9302   1.9489   1.9846   2.0071   2.0206
  2.0788   2.0941   2.1189   2.1689   2.1744   2.1760   2.2473   2.3145
  2.3487   2.3543   2.3578   2.4062   2.4278   2.4879   2.4924   2.5137
  2.5676   2.6423   2.6917   2.7244   2.7630   2.7646   2.8825   2.9587
  3.0642   3.1394   3.1576   3.2276   3.3851   3.3901   3.3927   3.4250
  3.5443   3.6386   3.6847   3.7059   3.7373   3.7585   3.8030   3.8758
  3.9187   3.9844   3.9888   4.0186   4.1214   4.1554   4.1943   4.1978
  4.2338   4.3442   4.3765   4.4069   4.4926   4.5348   4.5735   4.6014
  4.6756   4.6991   4.7247   4.7330   4.7524   4.7545   4.8080   4.8712
  4.8907   4.9050   4.9245   4.9767   5.0223   5.0606   5.1058   5.2537
  5.3317   5.3776   5.4845   5.4945   5.4952   5.5450   5.5915   5.6195
  5.6413   5.6950   5.7263   5.8701   5.9847   6.0966   6.1234   6.2491
  6.2985   6.3285   6.3299   6.3874   6.5645   6.6059   6.7495   6.7521
  6.7886   6.8306   6.9325   6.9566   6.9847   7.1822   7.3678   7.5614
  7.6144   7.8657   8.0353   8.0433   8.1455   8.4256   8.6872   8.7952
  8.9252   8.9357   9.1417   9.1769   9.3396   9.3631   9.3826   9.4126
  9.4813   9.5739   9.5820   9.6508   9.8608   9.8768   9.9258  10.2637
 10.3116  10.4734  10.6527  10.7930  10.8343  10.8393  10.9569  10.9778
 11.0098  11.0541  11.1287  11.3211  11.3515  11.3998  11.5316  11.6011
 11.6449  11.7242  11.7470  11.8826  11.9732  11.9839  12.0699  12.0807
 12.1701  12.2283  12.3055  12.5656  12.5692  12.6578  12.6585  12.6587
 12.7044  12.7251  12.8164  12.8205  12.9486  12.9808  12.9826  13.0291
 13.0681  13.1163  13.1387  13.1781  13.2334  13.2400  13.3041  13.3312
 13.4431  13.5148  13.5232  13.5253  13.6791  13.8487  13.8620  13.9166
 14.0979  14.1698  14.3257  14.3301  14.4053  14.4853  14.5968  14.9282
 15.2270  15.4599  15.5034  15.5094  15.8860  15.9224  16.1630  16.5352
 16.9607  17.3801  17.3837  17.3882  17.3977  17.4412  17.6633  17.6955
 17.7487  17.7849  17.7917  17.8187  18.0611  18.0727  18.3493  18.4260
 18.8135  18.8177  18.8788  19.0338  19.1139  19.1218  19.2404  19.4617
 19.5901  19.7183  19.7432  20.3500  20.7178  20.7993  20.8518  21.1636
 21.7772  22.0194  22.9366  23.6717  23.7569  24.2327  24.2695  24.3784
 24.6124  24.7244  24.9966  26.0315  26.3877  27.2568  30.8957  32.4499
 32.6710  32.7025  33.2792  33.7737  34.8828  34.9407  35.3510  42.1374
 42.2077  67.4434  67.4977  67.9148  68.2537  69.5307  77.0400  93.4503
 93.4729  93.5358  93.7568  94.6539  94.8232 144.5586
 --------------------------------------------------------------

          Ground-State Mulliken Net Atomic Charges

     Atom                 Charge (a.u.)    Spin (a.u.)
  --------------------------------------------------------
      1 O                    -0.258920       0.000000
      2 C                    -0.011418      -0.000000
      3 H                     0.135169       0.000000
      4 H                     0.135169       0.000000
  --------------------------------------------------------
  Sum of atomic charges =     0.000000
  Sum of spin   charges =     0.000000

 -----------------------------------------------------------------
                    Cartesian Multipole Moments
 -----------------------------------------------------------------
    Charge (ESU x 10^10)
                 0.0000
    Dipole Moment (Debye)
         X       0.0000      Y      -0.0000      Z      -2.3647
       Tot       2.3647
    Quadrupole Moments (Debye-Ang)
        XX     -11.6599     XY      -0.0000     YY     -11.5889
        XZ      -0.0000     YZ       0.0000     ZZ     -14.7580
    Octopole Moments (Debye-Ang^2)
       XXX       0.0000    XXY       0.0000    XYY       0.0000
       YYY      -0.0000    XXZ      -5.4861    XYZ       0.0000
       YYZ      -6.5931    XZZ       0.0000    YZZ      -0.0000
       ZZZ     -20.6928
    Hexadecapole Moments (Debye-Ang^3)
      XXXX     -10.3893   XXXY      -0.0000   XXYY      -5.1974
      XYYY      -0.0000   YYYY     -18.6566   XXXZ       0.0000
      XXYZ       0.0000   XYYZ      -0.0000   YYYZ       0.0000
      XXZZ     -11.9751   XYZZ       0.0000   YYZZ     -14.3838
      XZZZ       0.0000   YZZZ      -0.0000   ZZZZ     -66.9057
 -----------------------------------------------------------------
Archival summary:
1\1\n0067.mhg0\SP\ProcedureUnspecified\BasisUnspecified\112\yhljason\SatNov1409:44:042020SatNov1409:44:042020\0\\#,ProcedureUnspecified,BasisUnspecified,\\0,1\C\H,1,1.11101\H,1,1.11101,2,116.139\O,1,1.205,2,121.93,3,-180,0\\\@

 Total job time:  21510.05s(wall), 169596.53s(cpu) 
 Sat Nov 14 09:44:04 2020

        *************************************************************
        *                                                           *
        *  Thank you very much for using Q-Chem.  Have a nice day.  *
        *                                                           *
        *************************************************************


