                  Welcome to Q-Chem
     A Quantum Leap Into The Future Of Chemistry


 Q-Chem 5.3 (devel), Q-Chem, Inc., Pleasanton, CA (2020)

 Yihan Shao,  Zhengting Gan,  E. Epifanovsky,  A. T. B. Gilbert,  M. Wormit,  
 J. Kussmann,  A. W. Lange,  A. Behn,  Jia Deng,  Xintian Feng,  D. Ghosh,  
 M. Goldey,  P. R. Horn,  L. D. Jacobson,  I. Kaliman,  T. Kus,  A. Landau,  
 Jie Liu,  E. I. Proynov,  R. M. Richard,  R. P. Steele,  E. J. Sundstrom,  
 H. L. Woodcock III,  P. M. Zimmerman,  D. Zuev,  B. Alam,  B. Albrecht,  
 E. Alguire,  S. A. Baeppler,  D. Barton,  Z. Benda,  Y. A. Bernard,  
 E. J. Berquist,  K. B. Bravaya,  H. Burton,  K. Carter-Fenk,  D. Casanova,  
 Chun-Min Chang,  Yunqing Chen,  A. Chien,  K. D. Closser,  M. P. Coons,  
 S. Coriani,  S. Dasgupta,  A. L. Dempwolff,  M. Diedenhofen,  Hainam Do,  
 R. G. Edgar,  Po-Tung Fang,  S. Faraji,  S. Fatehi,  Qingguo Feng,  
 J. Fosso-Tande,  J. Gayvert,  Qinghui Ge,  A. Ghysels,  G. Gidofalvi,  
 J. Gomes,  J. Gonthier,  A. Gunina,  D. Hait,  M. W. D. Hanson-Heine,  
 P. H. P. Harbach,  A. W. Hauser,  M. F. Herbst,  J. E. Herr,  
 E. G. Hohenstein,  Z. C. Holden,  Kerwin Hui,  B. C. Huynh,  T.-C. Jagau,  
 Hyunjun Ji,  B. Kaduk,  K. Khistyaev,  Jaehoon Kim,  P. Klunzinger,  K. Koh,  
 D. Kosenkov,  L. Koulias,  T. Kowalczyk,  C. M. Krauter,  A. Kunitsa,  
 Ka Un Lao,  A. Laurent,  K. V. Lawler,  Joonho Lee,  D. Lefrancois,  
 S. Lehtola,  D. S. Levine,  Yi-Pei Li,  You-Sheng Lin,  Fenglai Liu,  
 Kuan-Yu Liu,  E. Livshits,  M. Loipersberger,  A. Luenser,  P. Manohar,  
 E. Mansoor,  S. F. Manzer,  Shan-Ping Mao,  Yuezhi Mao,  N. Mardirossian,  
 A. V. Marenich,  T. Markovich,  L. A. Martinez-Martinez,  S. A. Maurer,  
 N. J. Mayhall,  S. C. McKenzie,  J.-M. Mewes,  P. Morgante,  A. F. Morrison,  
 J. W. Mullinax,  K. Nanda,  T. S. Nguyen-Beck,  R. Olivares-Amaya,  
 K. J. Oosterbaan,  J. A. Parkhill,  S. K. Paul,  F. Pavosevic,  Zheng Pei,  
 T. M. Perrine,  F. Plasser,  P. Pokhilko,  S. Prager,  A. Prociuk,  
 E. Ramos,  B. Rana,  D. R. Rehn,  F. Rob,  M. Scheurer,  M. Schneider,  
 N. Sergueev,  S. M. Sharada,  S. Sharma,  D. W. Small,  T. Stauch,  
 C. J. Stein,  T. Stein,  Yu-Chuan Su,  S. P. Veccham,  Zhen Tao,  
 A. J. W. Thom,  A. Tkatchenko,  T. Tsuchimochi,  N. M. Tubman,  L. Vogt,  
 M. L. Vidal,  O. Vydrov,  M. A. Watson,  J. Wenzel,  M. de Wergifosse,  
 T. A. Wesolowski,  A. White,  J. Witte,  A. Yamada,  Jun Yang,  K. Yao,  
 S. Yeganeh,  S. R. Yost,  Zhi-Qiang You,  A. Zech,  Igor Ying Zhang,  
 Xing Zhang,  Yan Zhao,  Ying Zhu,  B. R. Brooks,  G. K. L. Chan,  
 C. J. Cramer,  M. S. Gordon,  W. J. Hehre,  A. Klamt,  M. W. Schmidt,  
 C. D. Sherrill,  D. G. Truhlar,  A. Aspuru-Guzik,  R. Baer,  A. T. Bell,  
 N. A. Besley,  Jeng-Da Chai,  A. E. DePrince, III,  R. A. DiStasio Jr.,  
 A. Dreuw,  B. D. Dunietz,  T. R. Furlani,  Chao-Ping Hsu,  Yousung Jung,  
 Jing Kong,  D. S. Lambrecht,  WanZhen Liang,  C. Ochsenfeld,  
 V. A. Rassolov,  L. V. Slipchenko,  J. E. Subotnik,  T. Van Voorhis,  
 J. M. Herbert,  A. I. Krylov,  P. M. W. Gill,  M. Head-Gordon

 Contributors to earlier versions of Q-Chem not listed above: 
 R. D. Adamson,  B. Austin,  J. Baker,  G. J. O. Beran,  K. Brandhorst,  
 S. T. Brown,  E. F. C. Byrd,  A. K. Chakraborty,  C.-L. Cheng,  
 Siu Hung Chien,  D. M. Chipman,  D. L. Crittenden,  H. Dachsel,  
 R. J. Doerksen,  A. D. Dutoi,  L. Fusti-Molnar,  W. A. Goddard III,  
 A. Golubeva-Zadorozhnaya,  S. R. Gwaltney,  G. Hawkins,  A. Heyden,  
 S. Hirata,  G. Kedziora,  F. J. Keil,  C. Kelley,  Jihan Kim,  R. A. King,  
 R. Z. Khaliullin,  P. P. Korambath,  W. Kurlancheek,  A. M. Lee,  M. S. Lee,  
 S. V. Levchenko,  Ching Yeh Lin,  D. Liotard,  R. C. Lochan,  I. Lotan,  
 P. E. Maslen,  N. Nair,  D. P. O'Neill,  D. Neuhauser,  E. Neuscamman,  
 C. M. Oana,  R. Olson,  B. Peters,  R. Peverati,  P. A. Pieniazek,  
 Y. M. Rhee,  J. Ritchie,  M. A. Rohrdanz,  E. Rosta,  N. J. Russ,  
 H. F. Schaefer III,  N. E. Schultz,  N. Shenvi,  A. C. Simmonett,  A. Sodt,  
 D. Stuck,  K. S. Thanthiriwatte,  V. Vanovschi,  Tao Wang,  A. Warshel,  
 C. F. Williams,  Q. Wu,  X. Xu,  W. Zhang

 Please cite Q-Chem as follows:
 Y. Shao et al., Mol. Phys. 113, 184-215 (2015)
 DOI: 10.1080/00268976.2014.952696

 Q-Chem 5.3.0 for Intel X86 EM64T Linux

 Parts of Q-Chem use Armadillo 9.800.1 (Horizon Scraper).
 http://arma.sourceforge.net/

 Q-Chem begins on Wed Nov 11 02:07:59 2020  

n0096.mhg0
Host: 0

     Scratch files written to /local/scratch/users/yhljason/LiF_HFLYP_aug-pc-4.inp20201110225744//
Processing $rem in /clusterfs/mhg/diptarka/qchem_transmom//config/preferences:
Processing $rem in /global/home/users/yhljason/.qchemrc:

Checking the input file for inconsistencies... 	...done.

--------------------------------------------------------------
User input:
--------------------------------------------------------------
$molecule
0 1
F1      0.0000  0.0000  0.0000
Li2     0.0000  0.0000  1.5639
$end

$rem
jobtype sp
method HFLYP
xc_grid 000099000590
basis aug-pc-4
max_scf_cycles 200
thresh 14
scf_convergence 8
scf_algorithm gdm
symmetry false
sym_ignore true
unrestricted True
gen_scfman true
internal_stability_iter 15
internal_stability_davidson_iter 200
mem_total 64000
mem_static 1500
n_frozen_core 0
$end



--------------------------------------------------------------
 ----------------------------------------------------------------
             Standard Nuclear Orientation (Angstroms)
    I     Atom           X                Y                Z
 ----------------------------------------------------------------
    1      F       0.0000000000     0.0000000000     0.0000000000
    2      Li      0.0000000000     0.0000000000     1.5639000000
 ----------------------------------------------------------------
 Nuclear Repulsion Energy =           9.13599635 hartrees
 There are        6 alpha and        6 beta electrons
 Requested basis set is aug-pc-4
 There are 56 shells and 228 basis functions

 Total QAlloc Memory Limit  64000 MB
 Mega-Array Size      1467 MB
 MEM_STATIC part      1500 MB

                       Distance Matrix (Angstroms)
             F (  1)
   Li(  2)  1.563900

 A cutoff of  1.0D-14 yielded   1596 shell pairs
 There are     26692 function pairs (     49669 Cartesian)
 Smallest overlap matrix eigenvalue = 1.37E-05

 Scale SEOQF with 1.000000e-01/1.000000e-01/1.000000e-01

 Standard Electronic Orientation quadrupole field applied
 Nucleus-field energy     =    -0.0000000008 hartrees
 Guess from superposition of atomic densities
 Warning:  Energy on first SCF cycle will be non-variational
 SAD guess density has 12.000000 electrons

 -----------------------------------------------------------------------
  General SCF calculation program by
  Eric Jon Sundstrom, Paul Horn, Yuezhi Mao, Dmitri Zuev, Alec White,
  David Stuck, Shaama M.S., Shane Yost, Joonho Lee, David Small,
  Daniel Levine, Susi Lehtola, Hugh Burton, Evgeny Epifanovsky,
  Bang C. Huynh
 -----------------------------------------------------------------------
 Exchange:     1.0000 Hartree-Fock
 Correlation:  1.0000 LYP
 Using Euler-Maclaurin-Lebedev (99,590) quadrature formula
Running Object-Oriented UKS (UHF)
performing a single roothaan step with Fock from read density so that orbitals are available to all algorithms
energy of the guess density (C=0) -106.976120525725
We will preform up to 15 macro iterations over saddle points until a stable solution is found
Energy prior to optimization (guess energy) = -107.335943021348
Begin Timing: Total SCF Calculation
Begin Timing: SCF Single Stationary Point Calculation
begin iterations for algorithm: GDM          
the SCF tolerance is set to 1.00e-08
    1    -107.3359430213      9.23e-02     00000  Descent step
    2    -107.4087632044      1.56e-02     00000  Normal BFGS step
    3    -107.4114945117      1.95e-03     00000  Normal BFGS step
    4    -107.4115617906      5.74e-04     00000  Normal BFGS step
    5    -107.4115656128      1.75e-04     00000  Normal BFGS step
    6    -107.4115659047      3.85e-05     00000  Normal BFGS step
    7    -107.4115659221      1.00e-05     00000  Normal BFGS step
    8    -107.4115659232      1.90e-06     00000  Normal BFGS step
    9    -107.4115659232      3.84e-07     00000  Normal BFGS step
   10    -107.4115659232      9.04e-08     00000  Normal BFGS step
   11    -107.4115659232      2.15e-08     00000  Normal BFGS step
   12    -107.4115659232      3.55e-09     00000 Convergence criterion met
Timing for Single Stationary Point: 211.00s (wall), 1633.59s (cpu)
Begin Timing: Stability
===================================================
Beginning Test for Internal Stability
===================================================
generating davidson guess vectors based on koopmans excitations
 Warning: Hessian-vector products not implemented
 Finite difference Hessian-vector products will be used.
computing hessian-vector products by finite difference
    1      4.67e-01     00000 Davidson Iteration
computing hessian-vector products by finite difference
    2      4.71e-01     00000 Davidson Iteration
computing hessian-vector products by finite difference
    3      1.89e-01     00000 Davidson Iteration
computing hessian-vector products by finite difference
    4      6.26e-02     00000 Davidson Iteration
computing hessian-vector products by finite difference
    5      5.52e-02     00000 Davidson Iteration
computing hessian-vector products by finite difference
    6      6.40e-02     00000 Davidson Iteration
computing hessian-vector products by finite difference
    7      9.08e-02     00000 Davidson Iteration
computing hessian-vector products by finite difference
    8      3.20e-02     00000 Davidson Iteration
computing hessian-vector products by finite difference
    9      1.97e-02     00000 Davidson Iteration
computing hessian-vector products by finite difference
   10      1.07e-02     00000 Davidson Iteration
computing hessian-vector products by finite difference
   11      4.83e-03     00000 Davidson Iteration
computing hessian-vector products by finite difference
   12      2.50e-03     00000 Davidson Iteration
computing hessian-vector products by finite difference
   13      8.13e-04     00000 Davidson Iteration
computing hessian-vector products by finite difference
   14      2.26e-04     00000 Davidson Iteration
computing hessian-vector products by finite difference
   15      6.69e-05     00000 Davidson Iteration
computing hessian-vector products by finite difference
   16      6.56e-05     00000 Davidson Converged
converged_eigenvalues
   0.6278
   0.6278
Threshold for negative eigenvalues: -1.0e-05
solution was a local minimum (stable)
===================================================
End Test for Internal Stability
===================================================
Timing for Internal Stability: 1426.00s (wall), 10939.20s (cpu)
Our SCF solution is stable!
Timing for Total SCF: 1637.00s (wall), 12572.86s (cpu)
 Total energy in the final basis set =     -107.4115659232
<S^2> =         -0.000000000
    ==================================================
              The end of Object-Oriented SCFman       
    ==================================================

 --------------------------------------------------------------

                    Orbital Energies (a.u.)
 --------------------------------------------------------------

 Alpha MOs
 -- Occupied --
-26.1428  -2.4698  -1.4122  -0.5348  -0.5110  -0.5110
 -- Virtual --
 -0.0156   0.0110   0.0136   0.0136   0.0219   0.0509   0.0509   0.0531
  0.0541   0.0639   0.0639   0.0711   0.0711   0.0901   0.1214   0.1229
  0.1229   0.1245   0.1245   0.1246   0.1246   0.1412   0.1488   0.1488
  0.1516   0.1748   0.1748   0.1812   0.1879   0.1879   0.1891   0.1891
  0.1896   0.1896   0.1908   0.1908   0.2526   0.2822   0.3115   0.3115
  0.3470   0.3470   0.3653   0.4105   0.4116   0.4116   0.4182   0.4182
  0.4297   0.4297   0.4614   0.5396   0.5701   0.5701   0.6178   0.6297
  0.6297   0.6703   0.6703   0.7712   0.7712   0.8064   0.8398   0.8398
  0.8842   0.9097   0.9097   0.9269   0.9270   0.9270   0.9365   0.9365
  0.9871   0.9871   1.0114   1.0114   1.0242   1.0376   1.0376   1.0804
  1.0804   1.0846   1.0934   1.0934   1.1863   1.2287   1.2287   1.2745
  1.2745   1.2862   1.2862   1.3216   1.3537   1.3537   1.3708   1.3708
  1.4244   1.4244   1.5680   1.6043   1.6043   1.7493   1.7493   1.8123
  2.0614   2.1546   2.1546   2.1790   2.3999   2.3999   2.4282   2.4282
  2.4981   2.5329   2.5329   2.6028   2.6028   2.6518   2.6518   2.6666
  2.6666   2.7206   2.8186   2.8966   2.8966   2.9295   2.9295   2.9512
  2.9512   3.2082   3.2082   3.3558   3.4196   3.4196   3.5009   3.5459
  3.5459   4.0648   4.1499   4.1499   5.7394   5.7394   5.8065   5.8943
  5.8943   6.0366   6.0366   6.0829   6.0829   6.1436   6.3243   6.4873
  6.4873   6.7351   6.7351   6.8617   6.8617   7.0944   7.0944   7.2395
  7.6043   7.7752   7.7752   7.8225   7.8225   8.1749   8.1749   8.5132
  8.6625   8.6625  11.6866  13.0407  13.0407  13.2970  13.2970  13.4115
 13.4645  13.4645  13.4707  13.4707  13.4788  13.4788  13.5228  13.5228
 13.5703  13.5703  13.6117  15.2552  15.2552  15.4675  15.9074  15.9074
 16.0225  16.0225  16.1435  16.1824  16.1824  16.6165  21.1237  21.1237
 21.1472  21.1472  21.3214  21.3214  21.3401  21.5963  21.5963  31.4928
 31.4928  31.7505  31.7505  31.8501  43.1844  43.1844  43.3579  43.9737
 93.2384  93.2384  93.4177  93.4177  93.4881 205.0560

 Beta MOs
 -- Occupied --
-26.1428  -2.4698  -1.4122  -0.5348  -0.5110  -0.5110
 -- Virtual --
 -0.0156   0.0110   0.0136   0.0136   0.0219   0.0509   0.0509   0.0531
  0.0541   0.0639   0.0639   0.0711   0.0711   0.0901   0.1214   0.1229
  0.1229   0.1245   0.1245   0.1246   0.1246   0.1412   0.1488   0.1488
  0.1516   0.1748   0.1748   0.1812   0.1879   0.1879   0.1891   0.1891
  0.1896   0.1896   0.1908   0.1908   0.2526   0.2822   0.3115   0.3115
  0.3470   0.3470   0.3653   0.4105   0.4116   0.4116   0.4182   0.4182
  0.4297   0.4297   0.4614   0.5396   0.5701   0.5701   0.6178   0.6297
  0.6297   0.6703   0.6703   0.7712   0.7712   0.8064   0.8398   0.8398
  0.8842   0.9097   0.9097   0.9269   0.9270   0.9270   0.9365   0.9365
  0.9871   0.9871   1.0114   1.0114   1.0242   1.0376   1.0376   1.0804
  1.0804   1.0846   1.0934   1.0934   1.1863   1.2287   1.2287   1.2745
  1.2745   1.2862   1.2862   1.3216   1.3537   1.3537   1.3708   1.3708
  1.4244   1.4244   1.5680   1.6043   1.6043   1.7493   1.7493   1.8123
  2.0614   2.1546   2.1546   2.1790   2.3999   2.3999   2.4282   2.4282
  2.4981   2.5329   2.5329   2.6028   2.6028   2.6518   2.6518   2.6666
  2.6666   2.7206   2.8186   2.8966   2.8966   2.9295   2.9295   2.9512
  2.9512   3.2082   3.2082   3.3558   3.4196   3.4196   3.5009   3.5459
  3.5459   4.0648   4.1499   4.1499   5.7394   5.7394   5.8065   5.8943
  5.8943   6.0366   6.0366   6.0829   6.0829   6.1436   6.3243   6.4873
  6.4873   6.7351   6.7351   6.8617   6.8617   7.0944   7.0944   7.2395
  7.6043   7.7752   7.7752   7.8225   7.8225   8.1749   8.1749   8.5132
  8.6625   8.6625  11.6866  13.0407  13.0407  13.2970  13.2970  13.4115
 13.4645  13.4645  13.4707  13.4707  13.4788  13.4788  13.5228  13.5228
 13.5703  13.5703  13.6117  15.2552  15.2552  15.4675  15.9074  15.9074
 16.0225  16.0225  16.1435  16.1824  16.1824  16.6165  21.1237  21.1237
 21.1472  21.1472  21.3214  21.3214  21.3401  21.5963  21.5963  31.4928
 31.4928  31.7505  31.7505  31.8501  43.1844  43.1844  43.3579  43.9737
 93.2384  93.2384  93.4177  93.4177  93.4881 205.0560
 --------------------------------------------------------------

          Ground-State Mulliken Net Atomic Charges

     Atom                 Charge (a.u.)    Spin (a.u.)
  --------------------------------------------------------
      1 F                    -0.722898      -0.000000
      2 Li                    0.722898       0.000000
  --------------------------------------------------------
  Sum of atomic charges =    -0.000000
  Sum of spin   charges =    -0.000000

 -----------------------------------------------------------------
                    Cartesian Multipole Moments
 -----------------------------------------------------------------
    Charge (ESU x 10^10)
                -0.0000
    Dipole Moment (Debye)
         X      -0.0000      Y       0.0000      Z       6.4406
       Tot       6.4406
    Quadrupole Moments (Debye-Ang)
        XX      -6.9340     XY      -0.0000     YY      -6.9340
        XZ      -0.0000     YZ       0.0000     ZZ       4.3884
    Octopole Moments (Debye-Ang^2)
       XXX      -0.0000    XXY      -0.0000    XYY       0.0000
       YYY       0.0000    XXZ      -1.0472    XYZ      -0.0000
       YYZ      -1.0472    XZZ      -0.0000    YZZ       0.0000
       ZZZ      14.8766
    Hexadecapole Moments (Debye-Ang^3)
      XXXX      -5.6407   XXXY      -0.0000   XXYY      -1.8802
      XYYY      -0.0000   YYYY      -5.6407   XXXZ      -0.0000
      XXYZ       0.0000   XYYZ       0.0000   YYYZ       0.0000
      XXZZ      -2.9500   XYZZ      -0.0000   YYZZ      -2.9500
      XZZZ      -0.0000   YZZZ       0.0000   ZZZZ      15.8138
 -----------------------------------------------------------------
Archival summary:
1\1\n0096.mhg0\SP\ProcedureUnspecified\BasisUnspecified\1i1\yhljason\WedNov1102:35:542020WedNov1102:35:542020\0\\#,ProcedureUnspecified,BasisUnspecified,\\0,1\F\Li,1,1.5639\\HF=-107.411566\\@

 Total job time:  1674.31s(wall), 12854.31s(cpu) 
 Wed Nov 11 02:35:54 2020

        *************************************************************
        *                                                           *
        *  Thank you very much for using Q-Chem.  Have a nice day.  *
        *                                                           *
        *************************************************************


