                  Welcome to Q-Chem
     A Quantum Leap Into The Future Of Chemistry


 Q-Chem 5.3 (devel), Q-Chem, Inc., Pleasanton, CA (2020)

 Yihan Shao,  Zhengting Gan,  E. Epifanovsky,  A. T. B. Gilbert,  M. Wormit,  
 J. Kussmann,  A. W. Lange,  A. Behn,  Jia Deng,  Xintian Feng,  D. Ghosh,  
 M. Goldey,  P. R. Horn,  L. D. Jacobson,  I. Kaliman,  T. Kus,  A. Landau,  
 Jie Liu,  E. I. Proynov,  R. M. Richard,  R. P. Steele,  E. J. Sundstrom,  
 H. L. Woodcock III,  P. M. Zimmerman,  D. Zuev,  B. Alam,  B. Albrecht,  
 E. Alguire,  S. A. Baeppler,  D. Barton,  Z. Benda,  Y. A. Bernard,  
 E. J. Berquist,  K. B. Bravaya,  H. Burton,  K. Carter-Fenk,  D. Casanova,  
 Chun-Min Chang,  Yunqing Chen,  A. Chien,  K. D. Closser,  M. P. Coons,  
 S. Coriani,  S. Dasgupta,  A. L. Dempwolff,  M. Diedenhofen,  Hainam Do,  
 R. G. Edgar,  Po-Tung Fang,  S. Faraji,  S. Fatehi,  Qingguo Feng,  
 J. Fosso-Tande,  J. Gayvert,  Qinghui Ge,  A. Ghysels,  G. Gidofalvi,  
 J. Gomes,  J. Gonthier,  A. Gunina,  D. Hait,  M. W. D. Hanson-Heine,  
 P. H. P. Harbach,  A. W. Hauser,  M. F. Herbst,  J. E. Herr,  
 E. G. Hohenstein,  Z. C. Holden,  Kerwin Hui,  B. C. Huynh,  T.-C. Jagau,  
 Hyunjun Ji,  B. Kaduk,  K. Khistyaev,  Jaehoon Kim,  P. Klunzinger,  K. Koh,  
 D. Kosenkov,  L. Koulias,  T. Kowalczyk,  C. M. Krauter,  A. Kunitsa,  
 Ka Un Lao,  A. Laurent,  K. V. Lawler,  Joonho Lee,  D. Lefrancois,  
 S. Lehtola,  D. S. Levine,  Yi-Pei Li,  You-Sheng Lin,  Fenglai Liu,  
 Kuan-Yu Liu,  E. Livshits,  M. Loipersberger,  A. Luenser,  P. Manohar,  
 E. Mansoor,  S. F. Manzer,  Shan-Ping Mao,  Yuezhi Mao,  N. Mardirossian,  
 A. V. Marenich,  T. Markovich,  L. A. Martinez-Martinez,  S. A. Maurer,  
 N. J. Mayhall,  S. C. McKenzie,  J.-M. Mewes,  P. Morgante,  A. F. Morrison,  
 J. W. Mullinax,  K. Nanda,  T. S. Nguyen-Beck,  R. Olivares-Amaya,  
 K. J. Oosterbaan,  J. A. Parkhill,  S. K. Paul,  F. Pavosevic,  Zheng Pei,  
 T. M. Perrine,  F. Plasser,  P. Pokhilko,  S. Prager,  A. Prociuk,  
 E. Ramos,  B. Rana,  D. R. Rehn,  F. Rob,  M. Scheurer,  M. Schneider,  
 N. Sergueev,  S. M. Sharada,  S. Sharma,  D. W. Small,  T. Stauch,  
 C. J. Stein,  T. Stein,  Yu-Chuan Su,  S. P. Veccham,  Zhen Tao,  
 A. J. W. Thom,  A. Tkatchenko,  T. Tsuchimochi,  N. M. Tubman,  L. Vogt,  
 M. L. Vidal,  O. Vydrov,  M. A. Watson,  J. Wenzel,  M. de Wergifosse,  
 T. A. Wesolowski,  A. White,  J. Witte,  A. Yamada,  Jun Yang,  K. Yao,  
 S. Yeganeh,  S. R. Yost,  Zhi-Qiang You,  A. Zech,  Igor Ying Zhang,  
 Xing Zhang,  Yan Zhao,  Ying Zhu,  B. R. Brooks,  G. K. L. Chan,  
 C. J. Cramer,  M. S. Gordon,  W. J. Hehre,  A. Klamt,  M. W. Schmidt,  
 C. D. Sherrill,  D. G. Truhlar,  A. Aspuru-Guzik,  R. Baer,  A. T. Bell,  
 N. A. Besley,  Jeng-Da Chai,  A. E. DePrince, III,  R. A. DiStasio Jr.,  
 A. Dreuw,  B. D. Dunietz,  T. R. Furlani,  Chao-Ping Hsu,  Yousung Jung,  
 Jing Kong,  D. S. Lambrecht,  WanZhen Liang,  C. Ochsenfeld,  
 V. A. Rassolov,  L. V. Slipchenko,  J. E. Subotnik,  T. Van Voorhis,  
 J. M. Herbert,  A. I. Krylov,  P. M. W. Gill,  M. Head-Gordon

 Contributors to earlier versions of Q-Chem not listed above: 
 R. D. Adamson,  B. Austin,  J. Baker,  G. J. O. Beran,  K. Brandhorst,  
 S. T. Brown,  E. F. C. Byrd,  A. K. Chakraborty,  C.-L. Cheng,  
 Siu Hung Chien,  D. M. Chipman,  D. L. Crittenden,  H. Dachsel,  
 R. J. Doerksen,  A. D. Dutoi,  L. Fusti-Molnar,  W. A. Goddard III,  
 A. Golubeva-Zadorozhnaya,  S. R. Gwaltney,  G. Hawkins,  A. Heyden,  
 S. Hirata,  G. Kedziora,  F. J. Keil,  C. Kelley,  Jihan Kim,  R. A. King,  
 R. Z. Khaliullin,  P. P. Korambath,  W. Kurlancheek,  A. M. Lee,  M. S. Lee,  
 S. V. Levchenko,  Ching Yeh Lin,  D. Liotard,  R. C. Lochan,  I. Lotan,  
 P. E. Maslen,  N. Nair,  D. P. O'Neill,  D. Neuhauser,  E. Neuscamman,  
 C. M. Oana,  R. Olson,  B. Peters,  R. Peverati,  P. A. Pieniazek,  
 Y. M. Rhee,  J. Ritchie,  M. A. Rohrdanz,  E. Rosta,  N. J. Russ,  
 H. F. Schaefer III,  N. E. Schultz,  N. Shenvi,  A. C. Simmonett,  A. Sodt,  
 D. Stuck,  K. S. Thanthiriwatte,  V. Vanovschi,  Tao Wang,  A. Warshel,  
 C. F. Williams,  Q. Wu,  X. Xu,  W. Zhang

 Please cite Q-Chem as follows:
 Y. Shao et al., Mol. Phys. 113, 184-215 (2015)
 DOI: 10.1080/00268976.2014.952696

 Q-Chem 5.3.0 for Intel X86 EM64T Linux

 Parts of Q-Chem use Armadillo 9.800.1 (Horizon Scraper).
 http://arma.sourceforge.net/

 Q-Chem begins on Wed Nov 11 02:54:22 2020  

n0090.mhg0
Host: 0

     Scratch files written to /local/scratch/users/yhljason/NCl_PW6B95_aug-pc-4.inp20201110225801//
Processing $rem in /clusterfs/mhg/diptarka/qchem_transmom//config/preferences:
Processing $rem in /global/home/users/yhljason/.qchemrc:

Checking the input file for inconsistencies... 	...done.

--------------------------------------------------------------
User input:
--------------------------------------------------------------
$molecule
0 3
N1      0.0000  0.0000  0.0000
Cl2     0.0000  0.0000  1.6107
$end

$rem
jobtype sp
method PW6B95
xc_grid 000099000590
basis aug-pc-4
max_scf_cycles 200
thresh 14
scf_convergence 8
scf_algorithm gdm
symmetry false
sym_ignore true
unrestricted True
gen_scfman true
internal_stability_iter 15
internal_stability_davidson_iter 200
mem_total 64000
mem_static 1500
n_frozen_core 0
$end



--------------------------------------------------------------
 ----------------------------------------------------------------
             Standard Nuclear Orientation (Angstroms)
    I     Atom           X                Y                Z
 ----------------------------------------------------------------
    1      N       0.0000000000     0.0000000000     0.0000000000
    2      Cl      0.0000000000     0.0000000000     1.6107000000
 ----------------------------------------------------------------
 Nuclear Repulsion Energy =          39.09609989 hartrees
 There are       13 alpha and       11 beta electrons
 Requested basis set is aug-pc-4
 There are 64 shells and 286 basis functions

 Total QAlloc Memory Limit  64000 MB
 Mega-Array Size      1467 MB
 MEM_STATIC part      1500 MB

                       Distance Matrix (Angstroms)
             N (  1)
   Cl(  2)  1.610700

 A cutoff of  1.0D-14 yielded   2070 shell pairs
 There are     41740 function pairs (     82166 Cartesian)
 Smallest overlap matrix eigenvalue = 5.87E-06

 Scale SEOQF with 1.000000e-01/1.000000e-01/1.000000e-01

 Standard Electronic Orientation quadrupole field applied
 Nucleus-field energy     =    -0.0000000047 hartrees
 Guess from superposition of atomic densities
 Warning:  Energy on first SCF cycle will be non-variational
 SAD guess density has 24.000000 electrons

 -----------------------------------------------------------------------
  General SCF calculation program by
  Eric Jon Sundstrom, Paul Horn, Yuezhi Mao, Dmitri Zuev, Alec White,
  David Stuck, Shaama M.S., Shane Yost, Joonho Lee, David Small,
  Daniel Levine, Susi Lehtola, Hugh Burton, Evgeny Epifanovsky,
  Bang C. Huynh
 -----------------------------------------------------------------------
 Exchange:     0.2800 Hartree-Fock + 1.0000 PW6B95
 Correlation:  1.0000 PW6B95
 Using Euler-Maclaurin-Lebedev (99,590) quadrature formula
Running Object-Oriented UKS (UHF)
performing a single roothaan step with Fock from read density so that orbitals are available to all algorithms
energy of the guess density (C=0) -515.386301651910
We will preform up to 15 macro iterations over saddle points until a stable solution is found
Energy prior to optimization (guess energy) = -515.278588600924
Begin Timing: Total SCF Calculation
Begin Timing: SCF Single Stationary Point Calculation
begin iterations for algorithm: GDM          
the SCF tolerance is set to 1.00e-08
    1    -515.2785886009      1.06e-01     00000  Normal BFGS step
    2    -515.2628549305      1.51e-01     00000 Line search: overstep
    3    -515.2952050294      3.47e-02     00000  Normal BFGS step
    4    -515.3015106277      1.59e-02     00000  Normal BFGS step
    5    -515.3027764321      4.10e-03     00000  Normal BFGS step
    6    -515.3029473729      1.39e-03     00000  Normal BFGS step
    7    -515.3029598753      5.04e-04     00000  Normal BFGS step
    8    -515.3029607507      1.31e-04     00000  Normal BFGS step
    9    -515.3029608259      3.94e-05     00000  Normal BFGS step
   10    -515.3029608339      9.87e-06     00000  Normal BFGS step
   11    -515.3029608345      1.82e-06     00000  Normal BFGS step
   12    -515.3029608346      3.04e-07     00000  Normal BFGS step
   13    -515.3029608346      5.96e-08     00000  Normal BFGS step
   14    -515.3029608346      4.61e-08     00000  Normal BFGS step
   15    -515.3029608346      4.73e-08     00000  Normal BFGS step
   16    -515.3029608346      1.54e-09     00000 Convergence criterion met
Timing for Single Stationary Point: 896.00s (wall), 7066.02s (cpu)
Begin Timing: Stability
===================================================
Beginning Test for Internal Stability
===================================================
generating davidson guess vectors based on koopmans excitations
 Warning: Hessian-vector products not implemented
 Finite difference Hessian-vector products will be used.
computing hessian-vector products by finite difference
    1      7.24e-01     00000 Davidson Iteration
computing hessian-vector products by finite difference
    2      2.04e-01     00000 Davidson Iteration
computing hessian-vector products by finite difference
    3      1.79e-01     00000 Davidson Iteration
computing hessian-vector products by finite difference
    4      1.65e-02     00000 Davidson Iteration
computing hessian-vector products by finite difference
    5      8.12e-03     00000 Davidson Iteration
computing hessian-vector products by finite difference
    6      8.60e-03     00000 Davidson Iteration
computing hessian-vector products by finite difference
    7      1.02e-02     00000 Davidson Iteration
computing hessian-vector products by finite difference
    8      1.24e-02     00000 Davidson Iteration
computing hessian-vector products by finite difference
    9      5.46e-03     00000 Davidson Iteration
computing hessian-vector products by finite difference
   10      2.93e-03     00000 Davidson Iteration
computing hessian-vector products by finite difference
   11      5.55e-04     00000 Davidson Iteration
computing hessian-vector products by finite difference
   12      2.11e-04     00000 Davidson Iteration
computing hessian-vector products by finite difference
   13      4.62e-05     00000 Davidson Converged
converged_eigenvalues
   0.3735
   0.3735
Threshold for negative eigenvalues: -1.0e-05
solution was a local minimum (stable)
===================================================
End Test for Internal Stability
===================================================
Timing for Internal Stability: 3559.00s (wall), 28030.30s (cpu)
Our SCF solution is stable!
Timing for Total SCF: 4455.00s (wall), 35096.38s (cpu)
 Total energy in the final basis set =     -515.3029608346
<S^2> =          2.010839339
    ==================================================
              The end of Object-Oriented SCFman       
    ==================================================

 --------------------------------------------------------------

                    Orbital Energies (a.u.)
 --------------------------------------------------------------

 Alpha MOs
 -- Occupied --
******** -14.5730  -9.6380  -7.3692  -7.3649  -7.3649  -1.0228  -0.7534
 -0.4668  -0.4668  -0.4591  -0.3051  -0.3051
 -- Virtual --
 -0.0175   0.0035   0.0302   0.0302   0.0427   0.0567   0.0567   0.0603
  0.1041   0.1119   0.1119   0.1431   0.1431   0.1491   0.1586   0.1586
  0.1753   0.1776   0.1776   0.1785   0.1785   0.1868   0.2466   0.2757
  0.2757   0.2892   0.2892   0.3076   0.3076   0.3260   0.3282   0.3282
  0.3361   0.3361   0.3619   0.3619   0.4008   0.4199   0.4199   0.4259
  0.4259   0.4271   0.4748   0.4748   0.4818   0.5071   0.5129   0.5129
  0.5190   0.5190   0.5467   0.5609   0.5609   0.6053   0.6053   0.6120
  0.6120   0.6277   0.6277   0.6705   0.6705   0.6974   0.6974   0.7133
  0.7182   0.7182   0.7186   0.7186   0.7222   0.7222   0.7750   0.7750
  0.7867   0.8444   0.8495   0.8495   0.8589   0.8589   0.8644   0.8644
  0.8766   0.8766   0.8942   0.8965   0.8965   0.9085   0.9085   0.9249
  0.9818   0.9818   1.0285   1.0285   1.0376   1.0397   1.0397   1.0502
  1.0502   1.0510   1.0510   1.1448   1.2142   1.2142   1.2726   1.3050
  1.3050   1.3671   1.3671   1.3999   1.4378   1.4378   1.4969   1.4969
  1.5451   1.5451   1.6402   1.8264   1.8365   1.8365   1.8739   1.8839
  1.8839   1.9123   1.9123   1.9736   2.0260   2.0260   2.2872   2.2872
  2.2927   2.2927   2.5252   2.5252   2.6200   2.7328   2.8821   2.8821
  2.9044   2.9044   2.9928   2.9928   3.0024   3.0024   3.0271   3.1134
  3.1134   3.3200   3.4473   3.4473   3.6669   3.6669   3.6690   3.6690
  3.7123   3.7607   3.7607   3.9524   4.0654   4.0654   4.1199   4.5058
  4.5058   4.5925   4.5925   4.6179   4.7501   4.8512   4.8512   4.9002
  4.9002   4.9449   4.9449   4.9843   4.9843   5.3215   5.3215   5.6887
  5.6887   5.6941   5.6941   5.7408   5.8554   5.8554   5.9139   5.9139
  5.9427   5.9427   6.1692   6.2355   6.2355   6.3566   6.6023   6.6023
  6.7233   6.7233   6.9095   6.9095   6.9900   7.6584   7.6584   8.0651
  8.2669   8.9953   8.9953   9.0682   9.0682   9.0966   9.0966   9.3127
  9.3127   9.5243   9.8074   9.8074  10.0384  11.1914  11.1914  11.2116
 11.2116  11.3617  11.3617  11.3654  11.3654  11.3791  11.3791  11.4351
 11.4351  11.5109  11.6873  11.6873  11.8496  11.8496  12.2882  13.0122
 13.0122  13.0199  13.0199  13.4650  13.4650  14.1806  14.1806  14.2684
 14.2684  14.3230  14.7064  14.7064  15.3567  15.3567  15.5868  16.7416
 16.7416  17.0107  17.0107  17.3565  17.8030  17.8030  18.0192  18.0192
 19.2781  21.5179  26.0314  26.0314  26.8341  40.6193  47.7456  47.7456
 47.9109  47.9109  48.2805  66.1901  66.1901  66.2739  66.2739  66.7307
102.4891

 Beta MOs
 -- Occupied --
******** -14.5365  -9.6357  -7.3688  -7.3594  -7.3594  -0.9790  -0.6771
 -0.4163  -0.4107  -0.4107
 -- Virtual --
 -0.1032  -0.1032  -0.0001   0.0069   0.0330   0.0330   0.0478   0.0608
  0.0608   0.0657   0.1069   0.1159   0.1159   0.1452   0.1452   0.1530
  0.1724   0.1724   0.1788   0.1822   0.1822   0.1845   0.1845   0.1934
  0.2495   0.2817   0.2817   0.2916   0.2916   0.3167   0.3167   0.3305
  0.3404   0.3404   0.3417   0.3417   0.3649   0.3649   0.4054   0.4313
  0.4313   0.4322   0.4322   0.4347   0.4824   0.4824   0.4899   0.5108
  0.5152   0.5152   0.5335   0.5335   0.5565   0.5689   0.5689   0.6119
  0.6119   0.6147   0.6147   0.6314   0.6314   0.6756   0.6756   0.7073
  0.7073   0.7163   0.7212   0.7212   0.7250   0.7250   0.7267   0.7267
  0.7773   0.7773   0.7970   0.8471   0.8527   0.8527   0.8648   0.8648
  0.8691   0.8691   0.8894   0.8894   0.8992   0.8992   0.9059   0.9116
  0.9116   0.9329   0.9941   0.9941   1.0334   1.0334   1.0408   1.0436
  1.0436   1.0528   1.0528   1.0529   1.0529   1.1485   1.2220   1.2220
  1.2874   1.3273   1.3273   1.3956   1.3956   1.4142   1.4679   1.4679
  1.5277   1.5277   1.5552   1.5552   1.6546   1.8341   1.8493   1.8493
  1.8779   1.9159   1.9159   1.9357   1.9357   1.9932   2.0458   2.0458
  2.2996   2.2996   2.3055   2.3055   2.5374   2.5374   2.6433   2.7446
  2.8936   2.8936   2.9129   2.9129   3.0314   3.0314   3.0644   3.0667
  3.0668   3.1234   3.1234   3.3433   3.4820   3.4820   3.6792   3.6792
  3.6846   3.6846   3.7324   3.8124   3.8124   3.9651   4.0829   4.0829
  4.1317   4.5506   4.5506   4.6268   4.6634   4.6634   4.7816   4.8633
  4.8633   4.9330   4.9330   4.9895   4.9895   5.0525   5.0525   5.3541
  5.3541   5.7022   5.7022   5.7050   5.7050   5.7602   5.8648   5.8648
  5.9252   5.9252   5.9612   5.9612   6.1872   6.2536   6.2536   6.3735
  6.6444   6.6444   6.7754   6.7754   6.9894   6.9894   7.0279   7.6891
  7.6891   8.0833   8.3277   9.0692   9.0692   9.0870   9.0870   9.1095
  9.1095   9.3230   9.3230   9.5419   9.8172   9.8172  10.0680  11.2828
 11.2828  11.2971  11.2971  11.4208  11.4208  11.4275  11.4275  11.4500
 11.4500  11.4867  11.4867  11.5448  11.7326  11.7326  11.8911  11.8911
 12.3221  13.0196  13.0196  13.0257  13.0257  13.4800  13.4800  14.2694
 14.2694  14.3379  14.3379  14.3384  14.7579  14.7579  15.3953  15.3953
 15.6248  16.8679  16.8680  17.0804  17.0804  17.3938  17.8134  17.8134
 18.0268  18.0268  19.2914  21.5727  26.1104  26.1104  26.8703  40.6252
 47.8442  47.8442  47.9727  47.9727  48.3300  66.1971  66.1971  66.2774
 66.2774  66.7331 102.5239
 --------------------------------------------------------------

          Ground-State Mulliken Net Atomic Charges

     Atom                 Charge (a.u.)    Spin (a.u.)
  --------------------------------------------------------
      1 N                     0.046821       1.643667
      2 Cl                   -0.046821       0.356333
  --------------------------------------------------------
  Sum of atomic charges =     0.000000
  Sum of spin   charges =     2.000000

 -----------------------------------------------------------------
                    Cartesian Multipole Moments
 -----------------------------------------------------------------
    Charge (ESU x 10^10)
                 0.0000
    Dipole Moment (Debye)
         X      -0.0000      Y       0.0000      Z       1.1430
       Tot       1.1430
    Quadrupole Moments (Debye-Ang)
        XX     -17.7674     XY       0.0000     YY     -17.7674
        XZ       0.0000     YZ       0.0000     ZZ     -15.8190
    Octopole Moments (Debye-Ang^2)
       XXX      -0.0000    XXY       0.0000    XYY      -0.0000
       YYY       0.0000    XXZ     -19.6308    XYZ       0.0000
       YYZ     -19.6308    XZZ       0.0000    YZZ       0.0000
       ZZZ     -52.1928
    Hexadecapole Moments (Debye-Ang^3)
      XXXX     -18.8855   XXXY       0.0000   XXYY      -6.2952
      XYYY       0.0000   YYYY     -18.8855   XXXZ       0.0000
      XXYZ       0.0000   XYYZ       0.0000   YYYZ       0.0000
      XXZZ     -38.2981   XYZZ       0.0000   YYZZ     -38.2981
      XZZZ       0.0000   YZZZ       0.0000   ZZZZ    -187.7707
 -----------------------------------------------------------------
Archival summary:
1\1\n0090.mhg0\SP\ProcedureUnspecified\BasisUnspecified\l11(3)\yhljason\WedNov1104:10:322020WedNov1104:10:322020\0\\#,ProcedureUnspecified,BasisUnspecified,\\0,3\N\Cl,1,1.6107\\\@

 Total job time:  4569.86s(wall), 35996.20s(cpu) 
 Wed Nov 11 04:10:32 2020

        *************************************************************
        *                                                           *
        *  Thank you very much for using Q-Chem.  Have a nice day.  *
        *                                                           *
        *************************************************************


