                  Welcome to Q-Chem
     A Quantum Leap Into The Future Of Chemistry


 Q-Chem 5.3 (devel), Q-Chem, Inc., Pleasanton, CA (2020)

 Yihan Shao,  Zhengting Gan,  E. Epifanovsky,  A. T. B. Gilbert,  M. Wormit,  
 J. Kussmann,  A. W. Lange,  A. Behn,  Jia Deng,  Xintian Feng,  D. Ghosh,  
 M. Goldey,  P. R. Horn,  L. D. Jacobson,  I. Kaliman,  T. Kus,  A. Landau,  
 Jie Liu,  E. I. Proynov,  R. M. Richard,  R. P. Steele,  E. J. Sundstrom,  
 H. L. Woodcock III,  P. M. Zimmerman,  D. Zuev,  B. Alam,  B. Albrecht,  
 E. Alguire,  S. A. Baeppler,  D. Barton,  Z. Benda,  Y. A. Bernard,  
 E. J. Berquist,  K. B. Bravaya,  H. Burton,  K. Carter-Fenk,  D. Casanova,  
 Chun-Min Chang,  Yunqing Chen,  A. Chien,  K. D. Closser,  M. P. Coons,  
 S. Coriani,  S. Dasgupta,  A. L. Dempwolff,  M. Diedenhofen,  Hainam Do,  
 R. G. Edgar,  Po-Tung Fang,  S. Faraji,  S. Fatehi,  Qingguo Feng,  
 J. Fosso-Tande,  J. Gayvert,  Qinghui Ge,  A. Ghysels,  G. Gidofalvi,  
 J. Gomes,  J. Gonthier,  A. Gunina,  D. Hait,  M. W. D. Hanson-Heine,  
 P. H. P. Harbach,  A. W. Hauser,  M. F. Herbst,  J. E. Herr,  
 E. G. Hohenstein,  Z. C. Holden,  Kerwin Hui,  B. C. Huynh,  T.-C. Jagau,  
 Hyunjun Ji,  B. Kaduk,  K. Khistyaev,  Jaehoon Kim,  P. Klunzinger,  K. Koh,  
 D. Kosenkov,  L. Koulias,  T. Kowalczyk,  C. M. Krauter,  A. Kunitsa,  
 Ka Un Lao,  A. Laurent,  K. V. Lawler,  Joonho Lee,  D. Lefrancois,  
 S. Lehtola,  D. S. Levine,  Yi-Pei Li,  You-Sheng Lin,  Fenglai Liu,  
 Kuan-Yu Liu,  E. Livshits,  M. Loipersberger,  A. Luenser,  P. Manohar,  
 E. Mansoor,  S. F. Manzer,  Shan-Ping Mao,  Yuezhi Mao,  N. Mardirossian,  
 A. V. Marenich,  T. Markovich,  L. A. Martinez-Martinez,  S. A. Maurer,  
 N. J. Mayhall,  S. C. McKenzie,  J.-M. Mewes,  P. Morgante,  A. F. Morrison,  
 J. W. Mullinax,  K. Nanda,  T. S. Nguyen-Beck,  R. Olivares-Amaya,  
 K. J. Oosterbaan,  J. A. Parkhill,  S. K. Paul,  F. Pavosevic,  Zheng Pei,  
 T. M. Perrine,  F. Plasser,  P. Pokhilko,  S. Prager,  A. Prociuk,  
 E. Ramos,  B. Rana,  D. R. Rehn,  F. Rob,  M. Scheurer,  M. Schneider,  
 N. Sergueev,  S. M. Sharada,  S. Sharma,  D. W. Small,  T. Stauch,  
 C. J. Stein,  T. Stein,  Yu-Chuan Su,  S. P. Veccham,  Zhen Tao,  
 A. J. W. Thom,  A. Tkatchenko,  T. Tsuchimochi,  N. M. Tubman,  L. Vogt,  
 M. L. Vidal,  O. Vydrov,  M. A. Watson,  J. Wenzel,  M. de Wergifosse,  
 T. A. Wesolowski,  A. White,  J. Witte,  A. Yamada,  Jun Yang,  K. Yao,  
 S. Yeganeh,  S. R. Yost,  Zhi-Qiang You,  A. Zech,  Igor Ying Zhang,  
 Xing Zhang,  Yan Zhao,  Ying Zhu,  B. R. Brooks,  G. K. L. Chan,  
 C. J. Cramer,  M. S. Gordon,  W. J. Hehre,  A. Klamt,  M. W. Schmidt,  
 C. D. Sherrill,  D. G. Truhlar,  A. Aspuru-Guzik,  R. Baer,  A. T. Bell,  
 N. A. Besley,  Jeng-Da Chai,  A. E. DePrince, III,  R. A. DiStasio Jr.,  
 A. Dreuw,  B. D. Dunietz,  T. R. Furlani,  Chao-Ping Hsu,  Yousung Jung,  
 Jing Kong,  D. S. Lambrecht,  WanZhen Liang,  C. Ochsenfeld,  
 V. A. Rassolov,  L. V. Slipchenko,  J. E. Subotnik,  T. Van Voorhis,  
 J. M. Herbert,  A. I. Krylov,  P. M. W. Gill,  M. Head-Gordon

 Contributors to earlier versions of Q-Chem not listed above: 
 R. D. Adamson,  B. Austin,  J. Baker,  G. J. O. Beran,  K. Brandhorst,  
 S. T. Brown,  E. F. C. Byrd,  A. K. Chakraborty,  C.-L. Cheng,  
 Siu Hung Chien,  D. M. Chipman,  D. L. Crittenden,  H. Dachsel,  
 R. J. Doerksen,  A. D. Dutoi,  L. Fusti-Molnar,  W. A. Goddard III,  
 A. Golubeva-Zadorozhnaya,  S. R. Gwaltney,  G. Hawkins,  A. Heyden,  
 S. Hirata,  G. Kedziora,  F. J. Keil,  C. Kelley,  Jihan Kim,  R. A. King,  
 R. Z. Khaliullin,  P. P. Korambath,  W. Kurlancheek,  A. M. Lee,  M. S. Lee,  
 S. V. Levchenko,  Ching Yeh Lin,  D. Liotard,  R. C. Lochan,  I. Lotan,  
 P. E. Maslen,  N. Nair,  D. P. O'Neill,  D. Neuhauser,  E. Neuscamman,  
 C. M. Oana,  R. Olson,  B. Peters,  R. Peverati,  P. A. Pieniazek,  
 Y. M. Rhee,  J. Ritchie,  M. A. Rohrdanz,  E. Rosta,  N. J. Russ,  
 H. F. Schaefer III,  N. E. Schultz,  N. Shenvi,  A. C. Simmonett,  A. Sodt,  
 D. Stuck,  K. S. Thanthiriwatte,  V. Vanovschi,  Tao Wang,  A. Warshel,  
 C. F. Williams,  Q. Wu,  X. Xu,  W. Zhang

 Please cite Q-Chem as follows:
 Y. Shao et al., Mol. Phys. 113, 184-215 (2015)
 DOI: 10.1080/00268976.2014.952696

 Q-Chem 5.3.0 for Intel X86 EM64T Linux

 Parts of Q-Chem use Armadillo 9.800.1 (Horizon Scraper).
 http://arma.sourceforge.net/

 Q-Chem begins on Wed Nov 11 03:17:03 2020  

n0098.mhg0
Host: 0

     Scratch files written to /local/scratch/users/yhljason/NF_HFLYP_aug-pc-4.inp20201110225809//
Processing $rem in /clusterfs/mhg/diptarka/qchem_transmom//config/preferences:
Processing $rem in /global/home/users/yhljason/.qchemrc:

Checking the input file for inconsistencies... 	...done.

--------------------------------------------------------------
User input:
--------------------------------------------------------------
$molecule
0 3
N1      0.0000  0.0000  0.0000
F2      0.0000  0.0000  1.3170
$end

$rem
jobtype sp
method HFLYP
xc_grid 000099000590
basis aug-pc-4
max_scf_cycles 200
thresh 14
scf_convergence 8
scf_algorithm gdm
symmetry false
sym_ignore true
unrestricted True
gen_scfman true
internal_stability_iter 15
internal_stability_davidson_iter 200
mem_total 64000
mem_static 1500
n_frozen_core 0
$end



--------------------------------------------------------------
 ----------------------------------------------------------------
             Standard Nuclear Orientation (Angstroms)
    I     Atom           X                Y                Z
 ----------------------------------------------------------------
    1      N       0.0000000000     0.0000000000     0.0000000000
    2      F       0.0000000000     0.0000000000     1.3170000000
 ----------------------------------------------------------------
 Nuclear Repulsion Energy =          25.31371623 hartrees
 There are        9 alpha and        7 beta electrons
 Requested basis set is aug-pc-4
 There are 66 shells and 290 basis functions

 Total QAlloc Memory Limit  64000 MB
 Mega-Array Size      1467 MB
 MEM_STATIC part      1500 MB

                       Distance Matrix (Angstroms)
             N (  1)
   F (  2)  1.317000

 A cutoff of  1.0D-14 yielded   2203 shell pairs
 There are     42941 function pairs (     83838 Cartesian)
 Smallest overlap matrix eigenvalue = 9.57E-06

 Scale SEOQF with 1.000000e-01/1.000000e-01/1.000000e-01

 Standard Electronic Orientation quadrupole field applied
 Nucleus-field energy     =    -0.0000000017 hartrees
 Guess from superposition of atomic densities
 Warning:  Energy on first SCF cycle will be non-variational
 SAD guess density has 16.000000 electrons

 -----------------------------------------------------------------------
  General SCF calculation program by
  Eric Jon Sundstrom, Paul Horn, Yuezhi Mao, Dmitri Zuev, Alec White,
  David Stuck, Shaama M.S., Shane Yost, Joonho Lee, David Small,
  Daniel Levine, Susi Lehtola, Hugh Burton, Evgeny Epifanovsky,
  Bang C. Huynh
 -----------------------------------------------------------------------
 Exchange:     1.0000 Hartree-Fock
 Correlation:  1.0000 LYP
 Using Euler-Maclaurin-Lebedev (99,590) quadrature formula
Running Object-Oriented UKS (UHF)
performing a single roothaan step with Fock from read density so that orbitals are available to all algorithms
energy of the guess density (C=0) -154.182860066135
We will preform up to 15 macro iterations over saddle points until a stable solution is found
Energy prior to optimization (guess energy) = -154.341093401606
Begin Timing: Total SCF Calculation
Begin Timing: SCF Single Stationary Point Calculation
begin iterations for algorithm: GDM          
the SCF tolerance is set to 1.00e-08
    1    -154.3410934016      8.79e-02     00000  Descent step
    2    -154.4004499965      4.40e-02     00000  Normal BFGS step
    3    -154.4103985297      1.69e-02     00000  Normal BFGS step
    4    -154.4122997882      3.44e-03     00000  Normal BFGS step
    5    -154.4124810875      1.45e-03     00000  Normal BFGS step
    6    -154.4125178558      4.81e-04     00000  Normal BFGS step
    7    -154.4125215644      2.54e-04     00000  Normal BFGS step
    8    -154.4125222396      1.06e-04     00000  Normal BFGS step
    9    -154.4125222944      6.36e-05     00000  Normal BFGS step
   10    -154.4125223139      2.42e-05     00000  Normal BFGS step
   11    -154.4125223205      1.25e-05     00000  Normal BFGS step
   12    -154.4125223219      5.15e-06     00000  Normal BFGS step
   13    -154.4125223221      1.59e-06     00000  Normal BFGS step
   14    -154.4125223221      3.83e-07     00000  Normal BFGS step
   15    -154.4125223221      9.84e-08     00000  Normal BFGS step
   16    -154.4125223221      1.93e-08     00000  Normal BFGS step
   17    -154.4125223221      5.02e-09     00000 Convergence criterion met
Timing for Single Stationary Point: 731.00s (wall), 5713.03s (cpu)
Begin Timing: Stability
===================================================
Beginning Test for Internal Stability
===================================================
generating davidson guess vectors based on koopmans excitations
 Warning: Hessian-vector products not implemented
 Finite difference Hessian-vector products will be used.
computing hessian-vector products by finite difference
    1      5.25e-01     00000 Davidson Iteration
computing hessian-vector products by finite difference
    2      7.76e-01     00000 Davidson Iteration
computing hessian-vector products by finite difference
    3      5.96e-01     00000 Davidson Iteration
computing hessian-vector products by finite difference
    4      2.50e-01     00000 Davidson Iteration
computing hessian-vector products by finite difference
    5      9.33e-02     00000 Davidson Iteration
computing hessian-vector products by finite difference
    6      6.24e-02     00000 Davidson Iteration
computing hessian-vector products by finite difference
    7      4.37e-02     00000 Davidson Iteration
computing hessian-vector products by finite difference
    8      2.85e-02     00000 Davidson Iteration
computing hessian-vector products by finite difference
    9      2.39e-02     00000 Davidson Iteration
computing hessian-vector products by finite difference
   10      2.29e-02     00000 Davidson Iteration
computing hessian-vector products by finite difference
   11      9.77e-03     00000 Davidson Iteration
computing hessian-vector products by finite difference
   12      3.42e-03     00000 Davidson Iteration
computing hessian-vector products by finite difference
   13      8.83e-04     00000 Davidson Iteration
computing hessian-vector products by finite difference
   14      2.23e-04     00000 Davidson Iteration
computing hessian-vector products by finite difference
   15      5.85e-05     00000 Davidson Iteration
computing hessian-vector products by finite difference
   16      6.40e-05     00000 Davidson Converged
converged_eigenvalues
   0.5040
   0.5040
Threshold for negative eigenvalues: -1.0e-05
solution was a local minimum (stable)
===================================================
End Test for Internal Stability
===================================================
Timing for Internal Stability: 3465.00s (wall), 26974.48s (cpu)
Our SCF solution is stable!
Timing for Total SCF: 4196.00s (wall), 32687.60s (cpu)
 Total energy in the final basis set =     -154.4125223221
<S^2> =          2.017336868
    ==================================================
              The end of Object-Oriented SCFman       
    ==================================================

 --------------------------------------------------------------

                    Orbital Energies (a.u.)
 --------------------------------------------------------------

 Alpha MOs
 -- Occupied --
-26.4143 -15.7749  -1.7556  -1.1656  -0.8310  -0.8310  -0.7442  -0.5668
 -0.5668
 -- Virtual --
  0.0353   0.0447   0.0447   0.0454   0.0898   0.0940   0.0940   0.1561
  0.1658   0.1658   0.1670   0.1750   0.1750   0.2115   0.2307   0.2307
  0.2880   0.3153   0.3153   0.3194   0.3302   0.3302   0.3476   0.3476
  0.3880   0.3880   0.3919   0.3919   0.4000   0.4315   0.4328   0.4328
  0.4878   0.5257   0.5257   0.5579   0.5579   0.5765   0.5765   0.5865
  0.5865   0.6095   0.6428   0.6593   0.6593   0.6763   0.6763   0.7071
  0.7256   0.7256   0.7940   0.7940   0.8404   0.8404   0.8456   0.8456
  0.8658   0.8658   0.8693   0.8693   0.8840   0.8849   0.8849   0.9494
  0.9592   0.9592   0.9695   0.9695   0.9707   1.0068   1.0068   1.0345
  1.0345   1.0484   1.0484   1.0933   1.0933   1.1119   1.1708   1.1708
  1.2011   1.2011   1.2997   1.3287   1.3287   1.3422   1.3422   1.3899
  1.3905   1.3905   1.4439   1.4439   1.4483   1.4483   1.4797   1.5055
  1.5055   1.5385   1.6108   1.6108   1.7202   1.7202   1.7525   1.8520
  1.8520   2.1824   2.1824   2.2128   2.2128   2.2725   2.3371   2.3371
  2.4346   2.4346   2.5190   2.5367   2.5367   2.5397   2.5397   2.5498
  2.9409   3.0409   3.0409   3.0423   3.0423   3.0785   3.2627   3.3424
  3.3424   3.4087   3.4087   3.5998   3.5998   3.6663   4.1214   4.1282
  4.1282   4.9570   4.9570   4.9958   4.9958   4.9987   5.2050   5.2050
  5.3714   5.3714   5.3932   5.3932   5.4930   5.5860   5.5860   5.8108
  5.8108   5.8743   5.8743   6.0448   6.2423   6.2547   6.2547   6.5519
  6.5519   6.5791   6.6316   6.6316   6.7829   6.7829   7.2081   7.2081
  7.3314   7.3384   7.3384   7.5899   7.5899   7.5938   7.7278   7.7278
  7.9095   7.9095   8.2045   8.5492   8.5492   9.0394   9.4705   9.4705
 10.0109  10.0109  10.5741  10.7750  11.6983  11.6983  11.7248  11.7248
 11.8062  11.8062  11.8110  11.8110  11.8143  11.8143  11.8417  11.8417
 11.9576  11.9914  11.9914  12.6628  12.6628  12.8500  12.8500  13.2635
 13.2635  13.2735  13.2735  13.3252  13.5319  13.5319  13.6877  13.6877
 14.6255  14.6944  14.6944  14.7715  14.7715  14.8001  14.8001  14.8978
 14.8978  15.1619  15.3016  15.3016  15.4178  15.4178  15.7017  15.7017
 15.8134  15.9250  16.0640  16.0640  16.1608  16.1608  16.7257  17.4243
 17.4243  17.6757  17.6757  18.1810  18.1810  19.2129  19.9711  20.9084
 20.9084  20.9970  20.9970  21.6469  21.6469  22.9348  22.9348  23.0071
 23.5099  26.9840  26.9840  28.4831  31.2651  31.2651  31.7239  31.7239
 33.3343  43.0576  43.0576  43.3052  45.9089  48.7649  48.7649  48.9169
 48.9169  49.6393  92.9971  92.9971  93.2736  93.2736  94.3121 104.7283
205.7243

 Beta MOs
 -- Occupied --
-26.4023 -15.7152  -1.7133  -0.9915  -0.7396  -0.7396  -0.6719
 -- Virtual --
  0.0334   0.0334   0.0353   0.0460   0.0718   0.0718   0.0894   0.0945
  0.0945   0.1653   0.1681   0.1729   0.1729   0.1907   0.1907   0.2104
  0.2349   0.2349   0.2886   0.3187   0.3187   0.3267   0.3267   0.3467
  0.3467   0.3597   0.3869   0.3869   0.3978   0.3978   0.4030   0.4333
  0.4516   0.4516   0.4913   0.5284   0.5284   0.5525   0.5525   0.5830
  0.5830   0.5852   0.5852   0.6210   0.6406   0.6624   0.6624   0.6767
  0.6767   0.7085   0.7235   0.7235   0.8064   0.8064   0.8410   0.8410
  0.8442   0.8442   0.8580   0.8580   0.8783   0.8783   0.8847   0.8954
  0.8954   0.9506   0.9591   0.9591   0.9707   0.9707   0.9708   1.0116
  1.0116   1.0344   1.0344   1.0460   1.0460   1.0926   1.0926   1.1188
  1.1790   1.1790   1.2121   1.2121   1.3034   1.3404   1.3404   1.3431
  1.3431   1.3854   1.3854   1.3947   1.4420   1.4420   1.4633   1.4633
  1.4833   1.5044   1.5044   1.5391   1.6389   1.6389   1.7499   1.7499
  1.7641   1.8974   1.8974   2.1891   2.1891   2.2197   2.2197   2.2789
  2.3443   2.3443   2.4429   2.4429   2.5249   2.5378   2.5378   2.5528
  2.5528   2.5564   2.9430   3.0466   3.0466   3.0659   3.0659   3.1004
  3.2832   3.3956   3.3956   3.4299   3.4299   3.6218   3.6218   3.6710
  4.1279   4.1752   4.1752   4.9796   4.9796   5.0137   5.0243   5.0243
  5.2189   5.2189   5.3813   5.3813   5.4073   5.4073   5.5033   5.6021
  5.6021   5.8198   5.8198   5.8828   5.8828   6.0501   6.2456   6.2670
  6.2670   6.5580   6.5580   6.5853   6.6385   6.6385   6.7960   6.7960
  7.2299   7.2299   7.3373   7.3884   7.3884   7.5923   7.5923   7.6020
  7.7302   7.7302   7.9218   7.9218   8.2246   8.5524   8.5524   9.0440
  9.5044   9.5044  10.0166  10.0166  10.5850  10.7772  11.7041  11.7041
 11.7312  11.7312  11.8144  11.8144  11.8155  11.8155  11.8429  11.8429
 11.8449  11.8449  11.9630  12.0059  12.0059  12.6724  12.6724  12.8656
 12.8656  13.2661  13.2661  13.2753  13.2753  13.3310  13.5374  13.5374
 13.6896  13.6896  14.6267  14.6969  14.6969  14.7786  14.7786  14.8149
 14.8149  14.9094  14.9094  15.1648  15.3090  15.3090  15.4253  15.4253
 15.7140  15.7140  15.8185  15.9291  16.0681  16.0681  16.1678  16.1678
 16.7285  17.4374  17.4374  17.6799  17.6799  18.1832  18.1832  19.2144
 19.9754  20.9164  20.9164  21.0026  21.0026  21.6506  21.6506  22.9373
 22.9373  23.0107  23.5147  27.0055  27.0055  28.4861  31.2746  31.2746
 31.7282  31.7282  33.3362  43.0650  43.0650  43.3086  45.9115  48.7804
 48.7804  48.9256  48.9256  49.6451  93.0023  93.0023  93.2763  93.2763
 94.3139 104.7317 205.7261
 --------------------------------------------------------------

          Ground-State Mulliken Net Atomic Charges

     Atom                 Charge (a.u.)    Spin (a.u.)
  --------------------------------------------------------
      1 N                     0.211490       1.912627
      2 F                    -0.211490       0.087373
  --------------------------------------------------------
  Sum of atomic charges =    -0.000000
  Sum of spin   charges =     2.000000

 -----------------------------------------------------------------
                    Cartesian Multipole Moments
 -----------------------------------------------------------------
    Charge (ESU x 10^10)
                 0.0000
    Dipole Moment (Debye)
         X       0.0000      Y       0.0000      Z      -0.3271
       Tot       0.3271
    Quadrupole Moments (Debye-Ang)
        XX      -9.8440     XY       0.0000     YY      -9.8440
        XZ       0.0000     YZ       0.0000     ZZ     -11.1206
    Octopole Moments (Debye-Ang^2)
       XXX       0.0000    XXY      -0.0000    XYY       0.0000
       YYY      -0.0000    XXZ      -6.0624    XYZ       0.0000
       YYZ      -6.0624    XZZ       0.0000    YZZ       0.0000
       ZZZ     -19.8169
    Hexadecapole Moments (Debye-Ang^3)
      XXXX      -7.0495   XXXY      -0.0000   XXYY      -2.3498
      XYYY      -0.0000   YYYY      -7.0495   XXXZ       0.0000
      XXYZ       0.0000   XYYZ       0.0000   YYYZ       0.0000
      XXZZ     -10.7117   XYZZ      -0.0000   YYZZ     -10.7117
      XZZZ       0.0000   YZZZ       0.0000   ZZZZ     -56.8710
 -----------------------------------------------------------------
Archival summary:
1\1\n0098.mhg0\SP\ProcedureUnspecified\BasisUnspecified\11(3)\yhljason\WedNov1104:28:252020WedNov1104:28:252020\0\\#,ProcedureUnspecified,BasisUnspecified,\\0,3\N\F,1,1.317\\HF=-154.412522\\@

 Total job time:  4282.48s(wall), 33355.35s(cpu) 
 Wed Nov 11 04:28:25 2020

        *************************************************************
        *                                                           *
        *  Thank you very much for using Q-Chem.  Have a nice day.  *
        *                                                           *
        *************************************************************


