                  Welcome to Q-Chem
     A Quantum Leap Into The Future Of Chemistry


 Q-Chem 5.3 (devel), Q-Chem, Inc., Pleasanton, CA (2020)

 Yihan Shao,  Zhengting Gan,  E. Epifanovsky,  A. T. B. Gilbert,  M. Wormit,  
 J. Kussmann,  A. W. Lange,  A. Behn,  Jia Deng,  Xintian Feng,  D. Ghosh,  
 M. Goldey,  P. R. Horn,  L. D. Jacobson,  I. Kaliman,  T. Kus,  A. Landau,  
 Jie Liu,  E. I. Proynov,  R. M. Richard,  R. P. Steele,  E. J. Sundstrom,  
 H. L. Woodcock III,  P. M. Zimmerman,  D. Zuev,  B. Alam,  B. Albrecht,  
 E. Alguire,  S. A. Baeppler,  D. Barton,  Z. Benda,  Y. A. Bernard,  
 E. J. Berquist,  K. B. Bravaya,  H. Burton,  K. Carter-Fenk,  D. Casanova,  
 Chun-Min Chang,  Yunqing Chen,  A. Chien,  K. D. Closser,  M. P. Coons,  
 S. Coriani,  S. Dasgupta,  A. L. Dempwolff,  M. Diedenhofen,  Hainam Do,  
 R. G. Edgar,  Po-Tung Fang,  S. Faraji,  S. Fatehi,  Qingguo Feng,  
 J. Fosso-Tande,  J. Gayvert,  Qinghui Ge,  A. Ghysels,  G. Gidofalvi,  
 J. Gomes,  J. Gonthier,  A. Gunina,  D. Hait,  M. W. D. Hanson-Heine,  
 P. H. P. Harbach,  A. W. Hauser,  M. F. Herbst,  J. E. Herr,  
 E. G. Hohenstein,  Z. C. Holden,  Kerwin Hui,  B. C. Huynh,  T.-C. Jagau,  
 Hyunjun Ji,  B. Kaduk,  K. Khistyaev,  Jaehoon Kim,  P. Klunzinger,  K. Koh,  
 D. Kosenkov,  L. Koulias,  T. Kowalczyk,  C. M. Krauter,  A. Kunitsa,  
 Ka Un Lao,  A. Laurent,  K. V. Lawler,  Joonho Lee,  D. Lefrancois,  
 S. Lehtola,  D. S. Levine,  Yi-Pei Li,  You-Sheng Lin,  Fenglai Liu,  
 Kuan-Yu Liu,  E. Livshits,  M. Loipersberger,  A. Luenser,  P. Manohar,  
 E. Mansoor,  S. F. Manzer,  Shan-Ping Mao,  Yuezhi Mao,  N. Mardirossian,  
 A. V. Marenich,  T. Markovich,  L. A. Martinez-Martinez,  S. A. Maurer,  
 N. J. Mayhall,  S. C. McKenzie,  J.-M. Mewes,  P. Morgante,  A. F. Morrison,  
 J. W. Mullinax,  K. Nanda,  T. S. Nguyen-Beck,  R. Olivares-Amaya,  
 K. J. Oosterbaan,  J. A. Parkhill,  S. K. Paul,  F. Pavosevic,  Zheng Pei,  
 T. M. Perrine,  F. Plasser,  P. Pokhilko,  S. Prager,  A. Prociuk,  
 E. Ramos,  B. Rana,  D. R. Rehn,  F. Rob,  M. Scheurer,  M. Schneider,  
 N. Sergueev,  S. M. Sharada,  S. Sharma,  D. W. Small,  T. Stauch,  
 C. J. Stein,  T. Stein,  Yu-Chuan Su,  S. P. Veccham,  Zhen Tao,  
 A. J. W. Thom,  A. Tkatchenko,  T. Tsuchimochi,  N. M. Tubman,  L. Vogt,  
 M. L. Vidal,  O. Vydrov,  M. A. Watson,  J. Wenzel,  M. de Wergifosse,  
 T. A. Wesolowski,  A. White,  J. Witte,  A. Yamada,  Jun Yang,  K. Yao,  
 S. Yeganeh,  S. R. Yost,  Zhi-Qiang You,  A. Zech,  Igor Ying Zhang,  
 Xing Zhang,  Yan Zhao,  Ying Zhu,  B. R. Brooks,  G. K. L. Chan,  
 C. J. Cramer,  M. S. Gordon,  W. J. Hehre,  A. Klamt,  M. W. Schmidt,  
 C. D. Sherrill,  D. G. Truhlar,  A. Aspuru-Guzik,  R. Baer,  A. T. Bell,  
 N. A. Besley,  Jeng-Da Chai,  A. E. DePrince, III,  R. A. DiStasio Jr.,  
 A. Dreuw,  B. D. Dunietz,  T. R. Furlani,  Chao-Ping Hsu,  Yousung Jung,  
 Jing Kong,  D. S. Lambrecht,  WanZhen Liang,  C. Ochsenfeld,  
 V. A. Rassolov,  L. V. Slipchenko,  J. E. Subotnik,  T. Van Voorhis,  
 J. M. Herbert,  A. I. Krylov,  P. M. W. Gill,  M. Head-Gordon

 Contributors to earlier versions of Q-Chem not listed above: 
 R. D. Adamson,  B. Austin,  J. Baker,  G. J. O. Beran,  K. Brandhorst,  
 S. T. Brown,  E. F. C. Byrd,  A. K. Chakraborty,  C.-L. Cheng,  
 Siu Hung Chien,  D. M. Chipman,  D. L. Crittenden,  H. Dachsel,  
 R. J. Doerksen,  A. D. Dutoi,  L. Fusti-Molnar,  W. A. Goddard III,  
 A. Golubeva-Zadorozhnaya,  S. R. Gwaltney,  G. Hawkins,  A. Heyden,  
 S. Hirata,  G. Kedziora,  F. J. Keil,  C. Kelley,  Jihan Kim,  R. A. King,  
 R. Z. Khaliullin,  P. P. Korambath,  W. Kurlancheek,  A. M. Lee,  M. S. Lee,  
 S. V. Levchenko,  Ching Yeh Lin,  D. Liotard,  R. C. Lochan,  I. Lotan,  
 P. E. Maslen,  N. Nair,  D. P. O'Neill,  D. Neuhauser,  E. Neuscamman,  
 C. M. Oana,  R. Olson,  B. Peters,  R. Peverati,  P. A. Pieniazek,  
 Y. M. Rhee,  J. Ritchie,  M. A. Rohrdanz,  E. Rosta,  N. J. Russ,  
 H. F. Schaefer III,  N. E. Schultz,  N. Shenvi,  A. C. Simmonett,  A. Sodt,  
 D. Stuck,  K. S. Thanthiriwatte,  V. Vanovschi,  Tao Wang,  A. Warshel,  
 C. F. Williams,  Q. Wu,  X. Xu,  W. Zhang

 Please cite Q-Chem as follows:
 Y. Shao et al., Mol. Phys. 113, 184-215 (2015)
 DOI: 10.1080/00268976.2014.952696

 Q-Chem 5.3.0 for Intel X86 EM64T Linux

 Parts of Q-Chem use Armadillo 9.800.1 (Horizon Scraper).
 http://arma.sourceforge.net/

 Q-Chem begins on Wed Nov 11 03:51:03 2020  

n0099.mhg0
Host: 0

     Scratch files written to /local/scratch/users/yhljason/NF_PBE_aug-pc-4.inp20201110225815//
Processing $rem in /clusterfs/mhg/diptarka/qchem_transmom//config/preferences:
Processing $rem in /global/home/users/yhljason/.qchemrc:

Checking the input file for inconsistencies... 	...done.

--------------------------------------------------------------
User input:
--------------------------------------------------------------
$molecule
0 3
N1      0.0000  0.0000  0.0000
F2      0.0000  0.0000  1.3170
$end

$rem
jobtype sp
method PBE
xc_grid 000099000590
basis aug-pc-4
max_scf_cycles 200
thresh 14
scf_convergence 8
scf_algorithm gdm
symmetry false
sym_ignore true
unrestricted True
gen_scfman true
internal_stability_iter 15
internal_stability_davidson_iter 200
mem_total 64000
mem_static 1500
n_frozen_core 0
$end



--------------------------------------------------------------
 ----------------------------------------------------------------
             Standard Nuclear Orientation (Angstroms)
    I     Atom           X                Y                Z
 ----------------------------------------------------------------
    1      N       0.0000000000     0.0000000000     0.0000000000
    2      F       0.0000000000     0.0000000000     1.3170000000
 ----------------------------------------------------------------
 Nuclear Repulsion Energy =          25.31371623 hartrees
 There are        9 alpha and        7 beta electrons
 Requested basis set is aug-pc-4
 There are 66 shells and 290 basis functions

 Total QAlloc Memory Limit  64000 MB
 Mega-Array Size      1467 MB
 MEM_STATIC part      1500 MB

                       Distance Matrix (Angstroms)
             N (  1)
   F (  2)  1.317000

 A cutoff of  1.0D-14 yielded   2203 shell pairs
 There are     42941 function pairs (     83838 Cartesian)
 Smallest overlap matrix eigenvalue = 9.57E-06

 Scale SEOQF with 1.000000e-01/1.000000e-01/1.000000e-01

 Standard Electronic Orientation quadrupole field applied
 Nucleus-field energy     =    -0.0000000017 hartrees
 Guess from superposition of atomic densities
 Warning:  Energy on first SCF cycle will be non-variational
 SAD guess density has 16.000000 electrons

 -----------------------------------------------------------------------
  General SCF calculation program by
  Eric Jon Sundstrom, Paul Horn, Yuezhi Mao, Dmitri Zuev, Alec White,
  David Stuck, Shaama M.S., Shane Yost, Joonho Lee, David Small,
  Daniel Levine, Susi Lehtola, Hugh Burton, Evgeny Epifanovsky,
  Bang C. Huynh
 -----------------------------------------------------------------------
 Exchange:  PBE      Correlation:  PBE
 Using Euler-Maclaurin-Lebedev (99,590) quadrature formula
Running Object-Oriented UKS (UHF)
performing a single roothaan step with Fock from read density so that orbitals are available to all algorithms
energy of the guess density (C=0) -154.453556529026
We will preform up to 15 macro iterations over saddle points until a stable solution is found
Energy prior to optimization (guess energy) = -154.352329425067
Begin Timing: Total SCF Calculation
Begin Timing: SCF Single Stationary Point Calculation
begin iterations for algorithm: GDM          
the SCF tolerance is set to 1.00e-08
    1    -154.3523294251      5.28e-02     00000  Normal BFGS step
    2    -154.3562901492      7.00e-02     00000  Normal BFGS step
    3    -154.3613636231      5.89e-02     00000  Normal BFGS step
    4    -154.3634656414      3.00e-02     00000  Normal BFGS step
    5    -154.3663176917      3.66e-03     00000  Normal BFGS step
    6    -154.3663729186      1.58e-03     00000  Normal BFGS step
    7    -154.3663961788      4.35e-04     00000  Normal BFGS step
    8    -154.3663966124      9.70e-05     00000  Normal BFGS step
    9    -154.3663966359      3.72e-06     00000  Normal BFGS step
   10    -154.3663966360      1.86e-06     00000  Normal BFGS step
   11    -154.3663966361      9.69e-08     00000  Normal BFGS step
   12    -154.3663966361      3.51e-08     00000  Normal BFGS step
   13    -154.3663966361      6.66e-08     00000  Normal BFGS step
   14    -154.3663966361      3.81e-09     00000 Convergence criterion met
Timing for Single Stationary Point: 601.00s (wall), 4695.29s (cpu)
Begin Timing: Stability
===================================================
Beginning Test for Internal Stability
===================================================
generating davidson guess vectors based on koopmans excitations
 Warning: Hessian-vector products not implemented
 Finite difference Hessian-vector products will be used.
computing hessian-vector products by finite difference
    1      5.48e-01     00000 Davidson Iteration
computing hessian-vector products by finite difference
    2      5.23e-01     00000 Davidson Iteration
computing hessian-vector products by finite difference
    3      5.67e-02     00000 Davidson Iteration
computing hessian-vector products by finite difference
    4      3.67e-02     00000 Davidson Iteration
computing hessian-vector products by finite difference
    5      1.06e-02     00000 Davidson Iteration
computing hessian-vector products by finite difference
    6      2.56e-03     00000 Davidson Iteration
computing hessian-vector products by finite difference
    7      2.11e-03     00000 Davidson Iteration
computing hessian-vector products by finite difference
    8      1.72e-03     00000 Davidson Iteration
computing hessian-vector products by finite difference
    9      4.28e-04     00000 Davidson Iteration
computing hessian-vector products by finite difference
   10      1.16e-04     00000 Davidson Iteration
computing hessian-vector products by finite difference
   11      3.37e-05     00000 Davidson Converged
converged_eigenvalues
   0.4861
   0.4861
Threshold for negative eigenvalues: -1.0e-05
solution was a local minimum (stable)
===================================================
End Test for Internal Stability
===================================================
Timing for Internal Stability: 2426.00s (wall), 18940.25s (cpu)
Our SCF solution is stable!
Timing for Total SCF: 3027.00s (wall), 23635.59s (cpu)
 Total energy in the final basis set =     -154.3663966361
<S^2> =          2.005059492
    ==================================================
              The end of Object-Oriented SCFman       
    ==================================================

 --------------------------------------------------------------

                    Orbital Energies (a.u.)
 --------------------------------------------------------------

 Alpha MOs
 -- Occupied --
-24.3576 -14.1311  -1.2245  -0.7361  -0.4851  -0.4851  -0.4713  -0.2565
 -0.2565
 -- Virtual --
 -0.0085   0.0018   0.0253   0.0253   0.0493   0.0664   0.0733   0.0733
  0.1226   0.1229   0.1229   0.1279   0.1279   0.1520   0.1776   0.1915
  0.1915   0.2329   0.2540   0.2540   0.2826   0.2826   0.2833   0.2833
  0.3374   0.3374   0.3384   0.3384   0.3515   0.3704   0.3744   0.3744
  0.4089   0.4433   0.4433   0.4810   0.4851   0.4851   0.5022   0.5022
  0.5195   0.5195   0.5818   0.5996   0.5996   0.6098   0.6098   0.6166
  0.6511   0.6511   0.6972   0.6972   0.7413   0.7413   0.7447   0.7447
  0.7797   0.7797   0.7864   0.7991   0.7991   0.7999   0.7999   0.8207
  0.8389   0.8389   0.8522   0.8522   0.9031   0.9163   0.9163   0.9452
  0.9452   0.9730   0.9730   0.9844   1.0167   1.0167   1.0538   1.0538
  1.0567   1.0567   1.1524   1.2087   1.2087   1.2535   1.2659   1.2659
  1.2910   1.2910   1.3126   1.3254   1.3254   1.3434   1.3434   1.3916
  1.3916   1.3975   1.4659   1.4659   1.5253   1.5253   1.5573   1.6350
  1.6350   1.9414   1.9414   1.9895   1.9895   2.0087   2.0721   2.0721
  2.1400   2.1400   2.2266   2.2266   2.2456   2.2603   2.2603   2.2866
  2.6062   2.7359   2.7359   2.7410   2.7410   2.7755   2.9430   3.0343
  3.0343   3.1015   3.1015   3.2696   3.2696   3.3603   3.7197   3.7252
  3.7252   4.5397   4.5397   4.5749   4.5843   4.5843   4.7888   4.7888
  4.9518   4.9518   4.9724   4.9724   5.0577   5.0835   5.0835   5.3546
  5.3546   5.3822   5.3822   5.5204   5.7136   5.7136   5.7468   6.0269
  6.0269   6.0684   6.1534   6.1534   6.2578   6.2578   6.6959   6.6959
  6.8138   6.8138   6.8397   7.0547   7.0547   7.0567   7.1967   7.1967
  7.3697   7.3697   7.6654   8.0111   8.0111   8.4371   8.8460   8.8460
  9.4510   9.4510   9.9671  10.1785  11.1118  11.1118  11.1323  11.1323
 11.1933  11.1933  11.2117  11.2117  11.2407  11.2407  11.2624  11.2624
 11.3584  11.3698  11.3698  11.9510  11.9510  12.0695  12.0695  12.5859
 12.6089  12.6089  12.6272  12.6272  12.8432  12.8432  13.0466  13.0466
 13.9547  13.9547  13.9585  14.0217  14.0217  14.1319  14.1319  14.2433
 14.2433  14.3287  14.6182  14.6182  14.6503  14.6503  14.8623  14.8623
 15.0052  15.2315  15.3644  15.3644  15.4263  15.4263  15.9813  16.6909
 16.6909  16.9467  16.9467  17.4336  17.4336  18.4685  19.1343  20.0170
 20.0170  20.1181  20.1181  20.7800  20.7800  22.0810  22.0810  22.1206
 22.6065  25.8212  25.8212  27.3503  30.1793  30.1793  30.6614  30.6614
 32.2718  41.4859  41.4859  41.8154  44.3909  47.5001  47.5002  47.6737
 47.6737  48.4052  91.1332  91.1333  91.4259  91.4259  92.4663 102.1743
202.0809

 Beta MOs
 -- Occupied --
-24.3488 -14.0953  -1.2028  -0.6742  -0.4494  -0.4494  -0.4253
 -- Virtual --
 -0.1470  -0.1470   0.0017   0.0196   0.0333   0.0333   0.0687   0.0720
  0.0762   0.0762   0.1298   0.1383   0.1383   0.1409   0.1409   0.1643
  0.1869   0.2002   0.2002   0.2370   0.2584   0.2584   0.2895   0.2895
  0.2957   0.2957   0.3522   0.3522   0.3523   0.3523   0.3572   0.3769
  0.3884   0.3884   0.4273   0.4633   0.4633   0.4906   0.5036   0.5036
  0.5182   0.5182   0.5304   0.5304   0.5910   0.6097   0.6097   0.6204
  0.6222   0.6222   0.6616   0.6616   0.7088   0.7088   0.7542   0.7542
  0.7657   0.7657   0.7930   0.7930   0.7976   0.8167   0.8167   0.8194
  0.8194   0.8283   0.8547   0.8547   0.8643   0.8643   0.9132   0.9265
  0.9265   0.9567   0.9567   0.9825   0.9825   1.0042   1.0232   1.0232
  1.0790   1.0790   1.0842   1.0842   1.1709   1.2170   1.2170   1.2617
  1.2680   1.2680   1.3025   1.3025   1.3302   1.3537   1.3537   1.3595
  1.3595   1.4023   1.4023   1.4071   1.4943   1.4943   1.5614   1.5614
  1.5784   1.6751   1.6751   1.9707   1.9707   2.0174   2.0450   2.0450
  2.0935   2.0935   2.1555   2.1555   2.2490   2.2490   2.2688   2.2717
  2.2717   2.3051   2.6277   2.7559   2.7559   2.7882   2.7882   2.8230
  2.9739   3.1154   3.1154   3.1468   3.1468   3.2988   3.2988   3.3958
  3.7353   3.8143   3.8143   4.6047   4.6047   4.6224   4.7025   4.7025
  4.8338   4.8338   5.0558   5.0558   5.0751   5.0751   5.0917   5.1016
  5.1016   5.3709   5.3709   5.4376   5.4376   5.5322   5.7346   5.7346
  5.7555   6.0417   6.0417   6.1042   6.1917   6.1917   6.2964   6.2964
  6.7688   6.7688   6.8848   6.9570   6.9570   7.0685   7.0685   7.0858
  7.2124   7.2124   7.4074   7.4074   7.7616   8.0367   8.0367   8.4525
  8.9474   8.9474   9.4915   9.4915  10.0252  10.2012  11.1898  11.1898
 11.2059  11.2059  11.2939  11.2939  11.3642  11.3642  11.3727  11.3727
 11.4056  11.4270  11.4270  11.4649  11.4649  11.9964  11.9964  12.1016
 12.1016  12.6175  12.6283  12.6283  12.6436  12.6436  12.8747  12.8747
 13.0791  13.0791  13.9780  13.9780  13.9797  14.0568  14.0568  14.3287
 14.3287  14.3491  14.3819  14.3819  14.6475  14.6475  14.7443  14.7443
 14.8956  14.8956  15.0318  15.2850  15.3979  15.3979  15.5042  15.5042
 16.0168  16.8518  16.8518  17.0146  17.0146  17.4813  17.4813  18.5084
 19.1924  20.0504  20.0504  20.1421  20.1421  20.7990  20.7990  22.0968
 22.0968  22.1470  22.6456  25.9340  25.9340  27.3968  30.2183  30.2183
 30.6813  30.6813  32.2830  41.5091  41.5091  41.8284  44.4043  47.6245
 47.6246  47.7446  47.7446  48.4580  91.1581  91.1581  91.4388  91.4388
 92.4747 102.2130 202.0901
 --------------------------------------------------------------

          Ground-State Mulliken Net Atomic Charges

     Atom                 Charge (a.u.)    Spin (a.u.)
  --------------------------------------------------------
      1 N                     0.057451       1.792091
      2 F                    -0.057451       0.207909
  --------------------------------------------------------
  Sum of atomic charges =     0.000000
  Sum of spin   charges =     2.000000

 -----------------------------------------------------------------
                    Cartesian Multipole Moments
 -----------------------------------------------------------------
    Charge (ESU x 10^10)
                -0.0000
    Dipole Moment (Debye)
         X      -0.0000      Y      -0.0000      Z       0.3136
       Tot       0.3136
    Quadrupole Moments (Debye-Ang)
        XX     -10.3151     XY      -0.0000     YY     -10.3151
        XZ      -0.0000     YZ       0.0000     ZZ     -10.3736
    Octopole Moments (Debye-Ang^2)
       XXX      -0.0000    XXY      -0.0000    XYY      -0.0000
       YYY      -0.0000    XXZ      -6.0195    XYZ      -0.0000
       YYZ      -6.0195    XZZ      -0.0000    YZZ      -0.0000
       ZZZ     -18.5346
    Hexadecapole Moments (Debye-Ang^3)
      XXXX      -8.4966   XXXY      -0.0000   XXYY      -2.8322
      XYYY      -0.0000   YYYY      -8.4966   XXXZ       0.0000
      XXYZ       0.0000   XYYZ      -0.0000   YYYZ       0.0000
      XXZZ     -11.0369   XYZZ      -0.0000   YYZZ     -11.0369
      XZZZ       0.0000   YZZZ      -0.0000   ZZZZ     -56.0589
 -----------------------------------------------------------------
Archival summary:
1\1\n0099.mhg0\SP\ProcedureUnspecified\BasisUnspecified\11(3)\yhljason\WedNov1104:42:592020WedNov1104:42:592020\0\\#,ProcedureUnspecified,BasisUnspecified,\\0,3\N\F,1,1.317\\\@

 Total job time:  3115.52s(wall), 24323.51s(cpu) 
 Wed Nov 11 04:42:59 2020

        *************************************************************
        *                                                           *
        *  Thank you very much for using Q-Chem.  Have a nice day.  *
        *                                                           *
        *************************************************************


