                  Welcome to Q-Chem
     A Quantum Leap Into The Future Of Chemistry


 Q-Chem 5.3 (devel), Q-Chem, Inc., Pleasanton, CA (2020)

 Yihan Shao,  Zhengting Gan,  E. Epifanovsky,  A. T. B. Gilbert,  M. Wormit,  
 J. Kussmann,  A. W. Lange,  A. Behn,  Jia Deng,  Xintian Feng,  D. Ghosh,  
 M. Goldey,  P. R. Horn,  L. D. Jacobson,  I. Kaliman,  T. Kus,  A. Landau,  
 Jie Liu,  E. I. Proynov,  R. M. Richard,  R. P. Steele,  E. J. Sundstrom,  
 H. L. Woodcock III,  P. M. Zimmerman,  D. Zuev,  B. Alam,  B. Albrecht,  
 E. Alguire,  S. A. Baeppler,  D. Barton,  Z. Benda,  Y. A. Bernard,  
 E. J. Berquist,  K. B. Bravaya,  H. Burton,  K. Carter-Fenk,  D. Casanova,  
 Chun-Min Chang,  Yunqing Chen,  A. Chien,  K. D. Closser,  M. P. Coons,  
 S. Coriani,  S. Dasgupta,  A. L. Dempwolff,  M. Diedenhofen,  Hainam Do,  
 R. G. Edgar,  Po-Tung Fang,  S. Faraji,  S. Fatehi,  Qingguo Feng,  
 J. Fosso-Tande,  J. Gayvert,  Qinghui Ge,  A. Ghysels,  G. Gidofalvi,  
 J. Gomes,  J. Gonthier,  A. Gunina,  D. Hait,  M. W. D. Hanson-Heine,  
 P. H. P. Harbach,  A. W. Hauser,  M. F. Herbst,  J. E. Herr,  
 E. G. Hohenstein,  Z. C. Holden,  Kerwin Hui,  B. C. Huynh,  T.-C. Jagau,  
 Hyunjun Ji,  B. Kaduk,  K. Khistyaev,  Jaehoon Kim,  P. Klunzinger,  K. Koh,  
 D. Kosenkov,  L. Koulias,  T. Kowalczyk,  C. M. Krauter,  A. Kunitsa,  
 Ka Un Lao,  A. Laurent,  K. V. Lawler,  Joonho Lee,  D. Lefrancois,  
 S. Lehtola,  D. S. Levine,  Yi-Pei Li,  You-Sheng Lin,  Fenglai Liu,  
 Kuan-Yu Liu,  E. Livshits,  M. Loipersberger,  A. Luenser,  P. Manohar,  
 E. Mansoor,  S. F. Manzer,  Shan-Ping Mao,  Yuezhi Mao,  N. Mardirossian,  
 A. V. Marenich,  T. Markovich,  L. A. Martinez-Martinez,  S. A. Maurer,  
 N. J. Mayhall,  S. C. McKenzie,  J.-M. Mewes,  P. Morgante,  A. F. Morrison,  
 J. W. Mullinax,  K. Nanda,  T. S. Nguyen-Beck,  R. Olivares-Amaya,  
 K. J. Oosterbaan,  J. A. Parkhill,  S. K. Paul,  F. Pavosevic,  Zheng Pei,  
 T. M. Perrine,  F. Plasser,  P. Pokhilko,  S. Prager,  A. Prociuk,  
 E. Ramos,  B. Rana,  D. R. Rehn,  F. Rob,  M. Scheurer,  M. Schneider,  
 N. Sergueev,  S. M. Sharada,  S. Sharma,  D. W. Small,  T. Stauch,  
 C. J. Stein,  T. Stein,  Yu-Chuan Su,  S. P. Veccham,  Zhen Tao,  
 A. J. W. Thom,  A. Tkatchenko,  T. Tsuchimochi,  N. M. Tubman,  L. Vogt,  
 M. L. Vidal,  O. Vydrov,  M. A. Watson,  J. Wenzel,  M. de Wergifosse,  
 T. A. Wesolowski,  A. White,  J. Witte,  A. Yamada,  Jun Yang,  K. Yao,  
 S. Yeganeh,  S. R. Yost,  Zhi-Qiang You,  A. Zech,  Igor Ying Zhang,  
 Xing Zhang,  Yan Zhao,  Ying Zhu,  B. R. Brooks,  G. K. L. Chan,  
 C. J. Cramer,  M. S. Gordon,  W. J. Hehre,  A. Klamt,  M. W. Schmidt,  
 C. D. Sherrill,  D. G. Truhlar,  A. Aspuru-Guzik,  R. Baer,  A. T. Bell,  
 N. A. Besley,  Jeng-Da Chai,  A. E. DePrince, III,  R. A. DiStasio Jr.,  
 A. Dreuw,  B. D. Dunietz,  T. R. Furlani,  Chao-Ping Hsu,  Yousung Jung,  
 Jing Kong,  D. S. Lambrecht,  WanZhen Liang,  C. Ochsenfeld,  
 V. A. Rassolov,  L. V. Slipchenko,  J. E. Subotnik,  T. Van Voorhis,  
 J. M. Herbert,  A. I. Krylov,  P. M. W. Gill,  M. Head-Gordon

 Contributors to earlier versions of Q-Chem not listed above: 
 R. D. Adamson,  B. Austin,  J. Baker,  G. J. O. Beran,  K. Brandhorst,  
 S. T. Brown,  E. F. C. Byrd,  A. K. Chakraborty,  C.-L. Cheng,  
 Siu Hung Chien,  D. M. Chipman,  D. L. Crittenden,  H. Dachsel,  
 R. J. Doerksen,  A. D. Dutoi,  L. Fusti-Molnar,  W. A. Goddard III,  
 A. Golubeva-Zadorozhnaya,  S. R. Gwaltney,  G. Hawkins,  A. Heyden,  
 S. Hirata,  G. Kedziora,  F. J. Keil,  C. Kelley,  Jihan Kim,  R. A. King,  
 R. Z. Khaliullin,  P. P. Korambath,  W. Kurlancheek,  A. M. Lee,  M. S. Lee,  
 S. V. Levchenko,  Ching Yeh Lin,  D. Liotard,  R. C. Lochan,  I. Lotan,  
 P. E. Maslen,  N. Nair,  D. P. O'Neill,  D. Neuhauser,  E. Neuscamman,  
 C. M. Oana,  R. Olson,  B. Peters,  R. Peverati,  P. A. Pieniazek,  
 Y. M. Rhee,  J. Ritchie,  M. A. Rohrdanz,  E. Rosta,  N. J. Russ,  
 H. F. Schaefer III,  N. E. Schultz,  N. Shenvi,  A. C. Simmonett,  A. Sodt,  
 D. Stuck,  K. S. Thanthiriwatte,  V. Vanovschi,  Tao Wang,  A. Warshel,  
 C. F. Williams,  Q. Wu,  X. Xu,  W. Zhang

 Please cite Q-Chem as follows:
 Y. Shao et al., Mol. Phys. 113, 184-215 (2015)
 DOI: 10.1080/00268976.2014.952696

 Q-Chem 5.3.0 for Intel X86 EM64T Linux

 Parts of Q-Chem use Armadillo 9.800.1 (Horizon Scraper).
 http://arma.sourceforge.net/

 Q-Chem begins on Wed Nov 11 03:59:56 2020  

n0057.mhg0
Host: 0

     Scratch files written to /local/scratch/users/yhljason/NF_Slater_aug-pc-4.inp20201110225818//
Processing $rem in /clusterfs/mhg/diptarka/qchem_transmom//config/preferences:
Processing $rem in /global/home/users/yhljason/.qchemrc:

Checking the input file for inconsistencies... 	...done.

--------------------------------------------------------------
User input:
--------------------------------------------------------------
$molecule
0 3
N1      0.0000  0.0000  0.0000
F2      0.0000  0.0000  1.3170
$end

$rem
jobtype sp
exchange slater
xc_grid 000099000590
basis aug-pc-4
max_scf_cycles 200
thresh 14
scf_convergence 8
scf_algorithm gdm
symmetry false
sym_ignore true
unrestricted True
gen_scfman true
internal_stability_iter 15
internal_stability_davidson_iter 200
mem_total 64000
mem_static 1500
n_frozen_core 0
$end



--------------------------------------------------------------
 ----------------------------------------------------------------
             Standard Nuclear Orientation (Angstroms)
    I     Atom           X                Y                Z
 ----------------------------------------------------------------
    1      N       0.0000000000     0.0000000000     0.0000000000
    2      F       0.0000000000     0.0000000000     1.3170000000
 ----------------------------------------------------------------
 Nuclear Repulsion Energy =          25.31371623 hartrees
 There are        9 alpha and        7 beta electrons
 Requested basis set is aug-pc-4
 There are 66 shells and 290 basis functions

 Total QAlloc Memory Limit  64000 MB
 Mega-Array Size      1467 MB
 MEM_STATIC part      1500 MB

                       Distance Matrix (Angstroms)
             N (  1)
   F (  2)  1.317000

 A cutoff of  1.0D-14 yielded   2203 shell pairs
 There are     42941 function pairs (     83838 Cartesian)
 Smallest overlap matrix eigenvalue = 9.57E-06

 Scale SEOQF with 1.000000e-01/1.000000e-01/1.000000e-01

 Standard Electronic Orientation quadrupole field applied
 Nucleus-field energy     =    -0.0000000017 hartrees
 Guess from superposition of atomic densities
 Warning:  Energy on first SCF cycle will be non-variational
 SAD guess density has 16.000000 electrons

 -----------------------------------------------------------------------
  General SCF calculation program by
  Eric Jon Sundstrom, Paul Horn, Yuezhi Mao, Dmitri Zuev, Alec White,
  David Stuck, Shaama M.S., Shane Yost, Joonho Lee, David Small,
  Daniel Levine, Susi Lehtola, Hugh Burton, Evgeny Epifanovsky,
  Bang C. Huynh
 -----------------------------------------------------------------------
 Exchange:  Slater     
 Using Euler-Maclaurin-Lebedev (99,590) quadrature formula
Running Object-Oriented UKS (UHF)
performing a single roothaan step with Fock from read density so that orbitals are available to all algorithms
energy of the guess density (C=0) -152.407757188322
We will preform up to 15 macro iterations over saddle points until a stable solution is found
Energy prior to optimization (guess energy) = -152.310238768709
Begin Timing: Total SCF Calculation
Begin Timing: SCF Single Stationary Point Calculation
begin iterations for algorithm: GDM          
the SCF tolerance is set to 1.00e-08
    1    -152.3102387687      8.35e-02     00000  Normal BFGS step
    2    -152.2867179969      2.23e-01     00000 Line search: overstep
    3    -152.3299106815      2.89e-02     00000  Normal BFGS step
    4    -152.3261512553      7.76e-02     00000 Line search: overstep
    5    -152.3339402769      1.99e-02     00000  Normal BFGS step
    6    -152.3351752764      3.44e-03     00000  Normal BFGS step
    7    -152.3352761058      2.23e-03     00000  Normal BFGS step
    8    -152.3352942310      3.01e-04     00000  Normal BFGS step
    9    -152.3352948398      5.37e-05     00000  Normal BFGS step
   10    -152.3352948638      2.03e-05     00000  Normal BFGS step
   11    -152.3352948648      2.28e-06     00000  Normal BFGS step
   12    -152.3352948649      3.43e-07     00000  Normal BFGS step
   13    -152.3352948649      4.60e-08     00000  Normal BFGS step
   14    -152.3352948649      5.51e-08     00000  Normal BFGS step
   15    -152.3352948649      4.87e-08     00000  Normal BFGS step
   16    -152.3352948649      2.05e-09     00000 Convergence criterion met
Timing for Single Stationary Point: 669.00s (wall), 5273.25s (cpu)
Begin Timing: Stability
===================================================
Beginning Test for Internal Stability
===================================================
generating davidson guess vectors based on koopmans excitations
 Warning: Hessian-vector products not implemented
 Finite difference Hessian-vector products will be used.
computing hessian-vector products by finite difference
    1      5.12e-01     00000 Davidson Iteration
computing hessian-vector products by finite difference
    2      1.78e-01     00000 Davidson Iteration
computing hessian-vector products by finite difference
    3      4.55e-02     00000 Davidson Iteration
computing hessian-vector products by finite difference
    4      4.16e-02     00000 Davidson Iteration
computing hessian-vector products by finite difference
    5      1.61e-02     00000 Davidson Iteration
computing hessian-vector products by finite difference
    6      9.55e-03     00000 Davidson Iteration
computing hessian-vector products by finite difference
    7      2.74e-03     00000 Davidson Iteration
computing hessian-vector products by finite difference
    8      1.17e-03     00000 Davidson Iteration
computing hessian-vector products by finite difference
    9      4.36e-04     00000 Davidson Iteration
computing hessian-vector products by finite difference
   10      8.64e-05     00000 Davidson Iteration
computing hessian-vector products by finite difference
   11      3.63e-05     00000 Davidson Converged
converged_eigenvalues
   0.4523
   0.4523
Threshold for negative eigenvalues: -1.0e-05
solution was a local minimum (stable)
===================================================
End Test for Internal Stability
===================================================
Timing for Internal Stability: 2302.00s (wall), 18108.77s (cpu)
Our SCF solution is stable!
Timing for Total SCF: 2971.00s (wall), 23382.09s (cpu)
 Total energy in the final basis set =     -152.3352948649
<S^2> =          2.006686498
    ==================================================
              The end of Object-Oriented SCFman       
    ==================================================

 --------------------------------------------------------------

                    Orbital Energies (a.u.)
 --------------------------------------------------------------

 Alpha MOs
 -- Occupied --
-24.1265 -13.9495  -1.1714  -0.6889  -0.4453  -0.4453  -0.4340  -0.2196
 -0.2196
 -- Virtual --
  0.0106   0.0197   0.0340   0.0340   0.0641   0.0745   0.0814   0.0814
  0.1349   0.1361   0.1361   0.1448   0.1448   0.1687   0.1905   0.2061
  0.2061   0.2498   0.2732   0.2732   0.3006   0.3006   0.3045   0.3045
  0.3528   0.3528   0.3531   0.3531   0.3671   0.3875   0.3910   0.3910
  0.4247   0.4625   0.4625   0.4975   0.5040   0.5040   0.5224   0.5224
  0.5418   0.5418   0.6010   0.6192   0.6192   0.6289   0.6289   0.6379
  0.6711   0.6711   0.7183   0.7183   0.7631   0.7631   0.7637   0.7637
  0.8019   0.8019   0.8064   0.8204   0.8204   0.8216   0.8216   0.8433
  0.8604   0.8604   0.8752   0.8752   0.9247   0.9377   0.9377   0.9664
  0.9664   0.9945   0.9945   1.0061   1.0407   1.0407   1.0767   1.0767
  1.0793   1.0793   1.1722   1.2325   1.2325   1.2762   1.2911   1.2911
  1.3112   1.3112   1.3370   1.3515   1.3515   1.3667   1.3667   1.4163
  1.4163   1.4197   1.4909   1.4909   1.5473   1.5473   1.5826   1.6577
  1.6577   1.9645   1.9645   2.0149   2.0149   2.0390   2.1019   2.1019
  2.1745   2.1745   2.2524   2.2524   2.2680   2.2844   2.2844   2.3130
  2.6303   2.7645   2.7645   2.7696   2.7696   2.8073   2.9711   3.0653
  3.0653   3.1294   3.1294   3.2975   3.2975   3.3857   3.7430   3.7504
  3.7504   4.5764   4.5764   4.6056   4.6243   4.6243   4.8235   4.8235
  4.9924   4.9924   5.0107   5.0107   5.0921   5.1292   5.1292   5.3963
  5.3963   5.4190   5.4190   5.5612   5.7454   5.7454   5.7837   6.0721
  6.0721   6.1017   6.1929   6.1929   6.3009   6.3009   6.7285   6.7285
  6.8512   6.8512   6.8699   7.0919   7.0970   7.0970   7.2373   7.2373
  7.4089   7.4089   7.7035   8.0527   8.0527   8.4675   8.8738   8.8738
  9.4925   9.4925   9.9982  10.2179  11.1579  11.1579  11.1654  11.1654
 11.2363  11.2363  11.2487  11.2487  11.2899  11.2899  11.3145  11.3145
 11.3904  11.4137  11.4137  11.9913  11.9913  12.1173  12.1173  12.6243
 12.6594  12.6594  12.6756  12.6756  12.8847  12.8847  13.0940  13.0940
 13.9922  13.9922  13.9925  14.0700  14.0700  14.1834  14.1834  14.2906
 14.2906  14.3659  14.6668  14.6668  14.6942  14.6942  14.9230  14.9230
 15.0559  15.2717  15.4188  15.4188  15.4608  15.4608  16.0127  16.6906
 16.6906  16.9499  16.9499  17.4716  17.4716  18.4777  19.1832  20.0830
 20.0830  20.1820  20.1820  20.8418  20.8418  22.1395  22.1395  22.1788
 22.6639  25.9078  25.9078  27.4217  30.1802  30.1802  30.6568  30.6568
 32.2716  41.5914  41.5914  41.9222  44.4928  47.5542  47.5543  47.7218
 47.7218  48.4498  91.2053  91.2053  91.4955  91.4955  92.5371 102.5621
202.6370

 Beta MOs
 -- Occupied --
-24.1161 -13.9016  -1.1430  -0.6174  -0.4046  -0.4046  -0.3670
 -- Virtual --
 -0.0988  -0.0988   0.0183   0.0324   0.0396   0.0396   0.0784   0.0830
  0.0830   0.0983   0.1435   0.1521   0.1521   0.1554   0.1554   0.1861
  0.2059   0.2137   0.2137   0.2532   0.2767   0.2767   0.3094   0.3094
  0.3103   0.3103   0.3667   0.3667   0.3671   0.3671   0.3713   0.3931
  0.4065   0.4065   0.4484   0.4847   0.4847   0.5146   0.5277   0.5277
  0.5350   0.5350   0.5519   0.5519   0.6091   0.6269   0.6269   0.6397
  0.6397   0.6409   0.6821   0.6821   0.7319   0.7319   0.7776   0.7776
  0.7880   0.7880   0.8142   0.8142   0.8207   0.8386   0.8386   0.8397
  0.8397   0.8517   0.8793   0.8793   0.8889   0.8889   0.9341   0.9476
  0.9476   0.9780   0.9780   1.0035   1.0035   1.0304   1.0458   1.0458
  1.1050   1.1050   1.1134   1.1134   1.1986   1.2429   1.2429   1.2890
  1.2928   1.2928   1.3262   1.3262   1.3572   1.3817   1.3817   1.3839
  1.3839   1.4278   1.4278   1.4332   1.5238   1.5238   1.5938   1.5938
  1.6128   1.7057   1.7057   2.0035   2.0035   2.0508   2.0755   2.0755
  2.1281   2.1281   2.1918   2.1918   2.2793   2.2793   2.2991   2.2991
  2.3040   2.3375   2.6590   2.7891   2.7891   2.8211   2.8211   2.8631
  3.0158   3.1580   3.1580   3.1909   3.1909   3.3357   3.3357   3.4328
  3.7779   3.8534   3.8534   4.6574   4.6574   4.6693   4.7508   4.7508
  4.8856   4.8856   5.1074   5.1074   5.1212   5.1212   5.1386   5.1496
  5.1496   5.4156   5.4156   5.4897   5.4897   5.5759   5.7721   5.7721
  5.7961   6.0887   6.0887   6.1534   6.2432   6.2432   6.3445   6.3445
  6.8219   6.8219   6.9332   7.0057   7.0057   7.1124   7.1124   7.1390
  7.2571   7.2571   7.4600   7.4600   7.8207   8.0843   8.0843   8.5070
  9.0051   9.0051   9.5425   9.5425  10.0825  10.2508  11.2508  11.2508
 11.2697  11.2697  11.3557  11.3557  11.4272  11.4272  11.4290  11.4290
 11.4666  11.4904  11.4904  11.5245  11.5245  12.0483  12.0483  12.1505
 12.1505  12.6662  12.6800  12.6800  12.6947  12.6947  12.9275  12.9275
 13.1332  13.1332  14.0201  14.0201  14.0316  14.1141  14.1141  14.3931
 14.3942  14.3942  14.4521  14.4521  14.7025  14.7025  14.8166  14.8166
 14.9572  14.9572  15.0892  15.3529  15.4585  15.4585  15.5752  15.5752
 16.0749  16.8884  16.8884  17.0583  17.0583  17.5358  17.5358  18.5587
 19.2629  20.1176  20.1177  20.2081  20.2081  20.8638  20.8638  22.1591
 22.1591  22.2221  22.7233  26.0187  26.0187  27.4869  30.2194  30.2194
 30.6800  30.6800  32.2886  41.6141  41.6141  41.9393  44.5088  47.6797
 47.6797  47.8080  47.8080  48.5233  91.2308  91.2308  91.5102  91.5102
 92.5482 102.6107 202.6463
 --------------------------------------------------------------

          Ground-State Mulliken Net Atomic Charges

     Atom                 Charge (a.u.)    Spin (a.u.)
  --------------------------------------------------------
      1 N                     0.088265       1.825583
      2 F                    -0.088265       0.174417
  --------------------------------------------------------
  Sum of atomic charges =     0.000000
  Sum of spin   charges =     2.000000

 -----------------------------------------------------------------
                    Cartesian Multipole Moments
 -----------------------------------------------------------------
    Charge (ESU x 10^10)
                -0.0000
    Dipole Moment (Debye)
         X      -0.0000      Y      -0.0000      Z       0.3394
       Tot       0.3394
    Quadrupole Moments (Debye-Ang)
        XX     -10.5787     XY       0.0000     YY     -10.5787
        XZ      -0.0000     YZ      -0.0000     ZZ     -10.6236
    Octopole Moments (Debye-Ang^2)
       XXX      -0.0000    XXY      -0.0000    XYY      -0.0000
       YYY      -0.0000    XXZ      -6.1282    XYZ       0.0000
       YYZ      -6.1282    XZZ       0.0000    YZZ      -0.0000
       ZZZ     -18.8586
    Hexadecapole Moments (Debye-Ang^3)
      XXXX      -9.0992   XXXY       0.0000   XXYY      -3.0331
      XYYY       0.0000   YYYY      -9.0992   XXXZ      -0.0000
      XXYZ       0.0000   XYYZ      -0.0000   YYYZ       0.0000
      XXZZ     -11.4107   XYZZ      -0.0000   YYZZ     -11.4107
      XZZZ       0.0000   YZZZ       0.0000   ZZZZ     -57.6181
 -----------------------------------------------------------------
Archival summary:
1\1\n0057.mhg0\SP\ProcedureUnspecified\BasisUnspecified\11(3)\yhljason\WedNov1104:50:532020WedNov1104:50:532020\0\\#,ProcedureUnspecified,BasisUnspecified,\\0,3\N\F,1,1.317\\\@

 Total job time:  3057.36s(wall), 24052.82s(cpu) 
 Wed Nov 11 04:50:53 2020

        *************************************************************
        *                                                           *
        *  Thank you very much for using Q-Chem.  Have a nice day.  *
        *                                                           *
        *************************************************************


