                  Welcome to Q-Chem
     A Quantum Leap Into The Future Of Chemistry


 Q-Chem 5.3 (devel), Q-Chem, Inc., Pleasanton, CA (2020)

 Yihan Shao,  Zhengting Gan,  E. Epifanovsky,  A. T. B. Gilbert,  M. Wormit,  
 J. Kussmann,  A. W. Lange,  A. Behn,  Jia Deng,  Xintian Feng,  D. Ghosh,  
 M. Goldey,  P. R. Horn,  L. D. Jacobson,  I. Kaliman,  T. Kus,  A. Landau,  
 Jie Liu,  E. I. Proynov,  R. M. Richard,  R. P. Steele,  E. J. Sundstrom,  
 H. L. Woodcock III,  P. M. Zimmerman,  D. Zuev,  B. Alam,  B. Albrecht,  
 E. Alguire,  S. A. Baeppler,  D. Barton,  Z. Benda,  Y. A. Bernard,  
 E. J. Berquist,  K. B. Bravaya,  H. Burton,  K. Carter-Fenk,  D. Casanova,  
 Chun-Min Chang,  Yunqing Chen,  A. Chien,  K. D. Closser,  M. P. Coons,  
 S. Coriani,  S. Dasgupta,  A. L. Dempwolff,  M. Diedenhofen,  Hainam Do,  
 R. G. Edgar,  Po-Tung Fang,  S. Faraji,  S. Fatehi,  Qingguo Feng,  
 J. Fosso-Tande,  J. Gayvert,  Qinghui Ge,  A. Ghysels,  G. Gidofalvi,  
 J. Gomes,  J. Gonthier,  A. Gunina,  D. Hait,  M. W. D. Hanson-Heine,  
 P. H. P. Harbach,  A. W. Hauser,  M. F. Herbst,  J. E. Herr,  
 E. G. Hohenstein,  Z. C. Holden,  Kerwin Hui,  B. C. Huynh,  T.-C. Jagau,  
 Hyunjun Ji,  B. Kaduk,  K. Khistyaev,  Jaehoon Kim,  P. Klunzinger,  K. Koh,  
 D. Kosenkov,  L. Koulias,  T. Kowalczyk,  C. M. Krauter,  A. Kunitsa,  
 Ka Un Lao,  A. Laurent,  K. V. Lawler,  Joonho Lee,  D. Lefrancois,  
 S. Lehtola,  D. S. Levine,  Yi-Pei Li,  You-Sheng Lin,  Fenglai Liu,  
 Kuan-Yu Liu,  E. Livshits,  M. Loipersberger,  A. Luenser,  P. Manohar,  
 E. Mansoor,  S. F. Manzer,  Shan-Ping Mao,  Yuezhi Mao,  N. Mardirossian,  
 A. V. Marenich,  T. Markovich,  L. A. Martinez-Martinez,  S. A. Maurer,  
 N. J. Mayhall,  S. C. McKenzie,  J.-M. Mewes,  P. Morgante,  A. F. Morrison,  
 J. W. Mullinax,  K. Nanda,  T. S. Nguyen-Beck,  R. Olivares-Amaya,  
 K. J. Oosterbaan,  J. A. Parkhill,  S. K. Paul,  F. Pavosevic,  Zheng Pei,  
 T. M. Perrine,  F. Plasser,  P. Pokhilko,  S. Prager,  A. Prociuk,  
 E. Ramos,  B. Rana,  D. R. Rehn,  F. Rob,  M. Scheurer,  M. Schneider,  
 N. Sergueev,  S. M. Sharada,  S. Sharma,  D. W. Small,  T. Stauch,  
 C. J. Stein,  T. Stein,  Yu-Chuan Su,  S. P. Veccham,  Zhen Tao,  
 A. J. W. Thom,  A. Tkatchenko,  T. Tsuchimochi,  N. M. Tubman,  L. Vogt,  
 M. L. Vidal,  O. Vydrov,  M. A. Watson,  J. Wenzel,  M. de Wergifosse,  
 T. A. Wesolowski,  A. White,  J. Witte,  A. Yamada,  Jun Yang,  K. Yao,  
 S. Yeganeh,  S. R. Yost,  Zhi-Qiang You,  A. Zech,  Igor Ying Zhang,  
 Xing Zhang,  Yan Zhao,  Ying Zhu,  B. R. Brooks,  G. K. L. Chan,  
 C. J. Cramer,  M. S. Gordon,  W. J. Hehre,  A. Klamt,  M. W. Schmidt,  
 C. D. Sherrill,  D. G. Truhlar,  A. Aspuru-Guzik,  R. Baer,  A. T. Bell,  
 N. A. Besley,  Jeng-Da Chai,  A. E. DePrince, III,  R. A. DiStasio Jr.,  
 A. Dreuw,  B. D. Dunietz,  T. R. Furlani,  Chao-Ping Hsu,  Yousung Jung,  
 Jing Kong,  D. S. Lambrecht,  WanZhen Liang,  C. Ochsenfeld,  
 V. A. Rassolov,  L. V. Slipchenko,  J. E. Subotnik,  T. Van Voorhis,  
 J. M. Herbert,  A. I. Krylov,  P. M. W. Gill,  M. Head-Gordon

 Contributors to earlier versions of Q-Chem not listed above: 
 R. D. Adamson,  B. Austin,  J. Baker,  G. J. O. Beran,  K. Brandhorst,  
 S. T. Brown,  E. F. C. Byrd,  A. K. Chakraborty,  C.-L. Cheng,  
 Siu Hung Chien,  D. M. Chipman,  D. L. Crittenden,  H. Dachsel,  
 R. J. Doerksen,  A. D. Dutoi,  L. Fusti-Molnar,  W. A. Goddard III,  
 A. Golubeva-Zadorozhnaya,  S. R. Gwaltney,  G. Hawkins,  A. Heyden,  
 S. Hirata,  G. Kedziora,  F. J. Keil,  C. Kelley,  Jihan Kim,  R. A. King,  
 R. Z. Khaliullin,  P. P. Korambath,  W. Kurlancheek,  A. M. Lee,  M. S. Lee,  
 S. V. Levchenko,  Ching Yeh Lin,  D. Liotard,  R. C. Lochan,  I. Lotan,  
 P. E. Maslen,  N. Nair,  D. P. O'Neill,  D. Neuhauser,  E. Neuscamman,  
 C. M. Oana,  R. Olson,  B. Peters,  R. Peverati,  P. A. Pieniazek,  
 Y. M. Rhee,  J. Ritchie,  M. A. Rohrdanz,  E. Rosta,  N. J. Russ,  
 H. F. Schaefer III,  N. E. Schultz,  N. Shenvi,  A. C. Simmonett,  A. Sodt,  
 D. Stuck,  K. S. Thanthiriwatte,  V. Vanovschi,  Tao Wang,  A. Warshel,  
 C. F. Williams,  Q. Wu,  X. Xu,  W. Zhang

 Please cite Q-Chem as follows:
 Y. Shao et al., Mol. Phys. 113, 184-215 (2015)
 DOI: 10.1080/00268976.2014.952696

 Q-Chem 5.3.0 for Intel X86 EM64T Linux

 Parts of Q-Chem use Armadillo 9.800.1 (Horizon Scraper).
 http://arma.sourceforge.net/

 Q-Chem begins on Wed Nov 11 04:37:18 2020  

n0071.mhg0
Host: 0

     Scratch files written to /local/scratch/users/yhljason/NO2_PBE0_aug-pc-4.inp20201110225832//
Processing $rem in /clusterfs/mhg/diptarka/qchem_transmom//config/preferences:
Processing $rem in /global/home/users/yhljason/.qchemrc:

Checking the input file for inconsistencies... 	...done.

--------------------------------------------------------------
User input:
--------------------------------------------------------------
$molecule
0 2
N1	0.0000	0.0000	0.0000
O2	0.0000	1.0989	0.4653
O3	0.0000	-1.0989	0.4653
$end

$rem
jobtype sp
method PBE0
xc_grid 000099000590
basis aug-pc-4
max_scf_cycles 200
thresh 14
scf_convergence 8
scf_algorithm gdm
symmetry false
sym_ignore true
unrestricted True
gen_scfman true
internal_stability_iter 15
internal_stability_davidson_iter 200
mem_total 64000
mem_static 1500
n_frozen_core 0
$end



--------------------------------------------------------------
 ----------------------------------------------------------------
             Standard Nuclear Orientation (Angstroms)
    I     Atom           X                Y                Z
 ----------------------------------------------------------------
    1      N       0.0000000000     0.0000000000     0.0000000000
    2      O       0.0000000000     1.0989000000     0.4653000000
    3      O       0.0000000000    -1.0989000000     0.4653000000
 ----------------------------------------------------------------
 Nuclear Repulsion Energy =          65.07473744 hartrees
 There are       12 alpha and       11 beta electrons
 Requested basis set is aug-pc-4
 There are 99 shells and 435 basis functions

 Total QAlloc Memory Limit  64000 MB
 Mega-Array Size      1467 MB
 MEM_STATIC part      1500 MB

                       Distance Matrix (Angstroms)
             N (  1)   O (  2)
   O (  2)  1.193350
   O (  3)  1.193350  2.197800

 A cutoff of  1.0D-14 yielded   4874 shell pairs
 There are     95406 function pairs (    186191 Cartesian)
 Smallest overlap matrix eigenvalue = 1.31E-06

 Scale SEOQF with 1.000000e-01/1.000000e-01/1.000000e-01

 Standard Electronic Orientation quadrupole field applied
 Nucleus-field energy     =     0.0000000010 hartrees
 Guess from superposition of atomic densities
 Warning:  Energy on first SCF cycle will be non-variational
 SAD guess density has 23.000000 electrons

 -----------------------------------------------------------------------
  General SCF calculation program by
  Eric Jon Sundstrom, Paul Horn, Yuezhi Mao, Dmitri Zuev, Alec White,
  David Stuck, Shaama M.S., Shane Yost, Joonho Lee, David Small,
  Daniel Levine, Susi Lehtola, Hugh Burton, Evgeny Epifanovsky,
  Bang C. Huynh
 -----------------------------------------------------------------------
 Exchange:     0.2500 Hartree-Fock + 0.7500 PBE
 Correlation:  1.0000 PBE
 Using Euler-Maclaurin-Lebedev (99,590) quadrature formula
Running Object-Oriented UKS (UHF)
performing a single roothaan step with Fock from read density so that orbitals are available to all algorithms
energy of the guess density (C=0) -205.531473099105
We will preform up to 15 macro iterations over saddle points until a stable solution is found
Energy prior to optimization (guess energy) = -204.882562781624
Begin Timing: Total SCF Calculation
Begin Timing: SCF Single Stationary Point Calculation
begin iterations for algorithm: GDM          
the SCF tolerance is set to 1.00e-08
    1    -204.8825627816      2.99e-01     00000  Descent step
    2    -204.9458215210      1.32e-01     00000  Normal BFGS step
    3    -204.9656515478      4.96e-03     00000  Normal BFGS step
    4    -204.9659680462      2.74e-03     00000  Normal BFGS step
    5    -204.9660387571      5.87e-04     00000  Normal BFGS step
    6    -204.9660413323      1.78e-04     00000  Normal BFGS step
    7    -204.9660418160      1.11e-04     00000  Normal BFGS step
    8    -204.9660418436      4.40e-05     00000  Normal BFGS step
    9    -204.9660418493      9.10e-06     00000  Normal BFGS step
   10    -204.9660418496      1.57e-06     00000  Normal BFGS step
   11    -204.9660418497      3.85e-07     00000  Normal BFGS step
   12    -204.9660418497      1.41e-07     00000  Normal BFGS step
   13    -204.9660418497      1.15e-07     00000  Normal BFGS step
   14    -204.9660418497      6.26e-08     00000  Normal BFGS step
   15    -204.9660418497      1.67e-08     00000  Normal BFGS step
   16    -204.9660418497      4.42e-08     00000  Normal BFGS step
   17    -204.9660418497      3.66e-10     00000 Convergence criterion met
Timing for Single Stationary Point: 5978.00s (wall), 47059.04s (cpu)
Begin Timing: Stability
===================================================
Beginning Test for Internal Stability
===================================================
generating davidson guess vectors based on koopmans excitations
 Warning: Hessian-vector products not implemented
 Finite difference Hessian-vector products will be used.
computing hessian-vector products by finite difference
    1      5.71e-01     00000 Davidson Iteration
computing hessian-vector products by finite difference
    2      1.25e-01     00000 Davidson Iteration
computing hessian-vector products by finite difference
    3      5.47e-02     00000 Davidson Iteration
computing hessian-vector products by finite difference
    4      1.49e-02     00000 Davidson Iteration
computing hessian-vector products by finite difference
    5      8.53e-03     00000 Davidson Iteration
computing hessian-vector products by finite difference
    6      1.85e-03     00000 Davidson Iteration
computing hessian-vector products by finite difference
    7      4.63e-04     00000 Davidson Iteration
computing hessian-vector products by finite difference
    8      7.62e-05     00000 Davidson Iteration
computing hessian-vector products by finite difference
    9      1.52e-03     00000 Davidson Iteration
computing hessian-vector products by finite difference
   10      4.01e-04     00000 Davidson Iteration
computing hessian-vector products by finite difference
   11      5.94e-05     00000 Davidson Converged
converged_eigenvalues
   0.2122
   0.1894
Threshold for negative eigenvalues: -1.0e-05
solution was a local minimum (stable)
===================================================
End Test for Internal Stability
===================================================
Timing for Internal Stability: 16598.00s (wall), 131093.65s (cpu)
Our SCF solution is stable!
Timing for Total SCF: 22576.00s (wall), 178152.88s (cpu)
 Total energy in the final basis set =     -204.9660418497
<S^2> =          0.754466442
    ==================================================
              The end of Object-Oriented SCFman       
    ==================================================

 --------------------------------------------------------------

                    Orbital Energies (a.u.)
 --------------------------------------------------------------

 Alpha MOs
 -- Occupied --
-19.3242 -19.3241 -14.6371  -1.3258  -1.1757  -0.7088  -0.6074  -0.6008
 -0.5946  -0.4072  -0.4000  -0.3099
 -- Virtual --
 -0.0887   0.0074   0.0271   0.0272   0.0286   0.0580   0.0599   0.0602
  0.0633   0.0675   0.0885   0.1029   0.1144   0.1193   0.1224   0.1555
  0.1607   0.1714   0.1721   0.1721   0.1852   0.1899   0.1945   0.2048
  0.2063   0.2149   0.2185   0.2520   0.2537   0.2632   0.2662   0.2683
  0.2881   0.2965   0.3146   0.3300   0.3366   0.3390   0.3430   0.3583
  0.3696   0.3806   0.3877   0.3884   0.4005   0.4019   0.4086   0.4101
  0.4260   0.4336   0.4370   0.4421   0.4598   0.4629   0.4700   0.4727
  0.4743   0.4795   0.5148   0.5370   0.5428   0.5492   0.5697   0.5704
  0.5711   0.5790   0.5945   0.6133   0.6205   0.6216   0.6237   0.6352
  0.6546   0.6990   0.7017   0.7042   0.7122   0.7230   0.7260   0.7360
  0.7447   0.7464   0.7522   0.7737   0.7926   0.7960   0.8175   0.8229
  0.8258   0.8478   0.8488   0.8569   0.8713   0.8791   0.8823   0.8862
  0.8893   0.9059   0.9090   0.9092   0.9288   0.9374   0.9385   0.9451
  0.9516   0.9526   0.9575   0.9846   0.9870   1.0035   1.0062   1.0090
  1.0103   1.0218   1.0465   1.0511   1.0525   1.0792   1.0890   1.0916
  1.1033   1.1100   1.1428   1.1463   1.1559   1.1652   1.1859   1.2334
  1.2388   1.2473   1.2504   1.2555   1.2567   1.2695   1.2788   1.2982
  1.2986   1.3010   1.3282   1.3487   1.3525   1.3731   1.3786   1.3908
  1.4429   1.4430   1.4684   1.5046   1.5058   1.5208   1.5521   1.6281
  1.6510   1.7143   1.7775   1.8355   1.8460   1.8492   1.8717   1.8784
  1.8910   1.9300   1.9312   1.9589   1.9995   2.0770   2.0932   2.1439
  2.1708   2.2167   2.2374   2.2438   2.2452   2.2697   2.3072   2.3074
  2.3299   2.4951   2.5076   2.5321   2.5433   2.6235   2.6348   2.6574
  2.7443   2.8611   2.9354   2.9639   2.9773   2.9974   3.0431   3.0548
  3.1145   3.1476   3.2030   3.3810   3.3890   3.4196   3.6166   3.6189
  3.7683   3.9008   3.9892   4.1335   4.1698   4.1806   4.2306   4.2654
  4.3035   4.3261   4.3898   4.4293   4.4584   4.5780   4.5838   4.5945
  4.6354   4.6366   4.7334   4.7732   4.8229   4.8435   4.8532   4.9921
  5.0666   5.1378   5.1688   5.2485   5.3004   5.3404   5.3955   5.4035
  5.4380   5.4755   5.5930   5.6218   5.6785   5.7794   5.8078   5.8873
  5.9841   5.9915   6.0043   6.0456   6.1120   6.1845   6.2111   6.2141
  6.3199   6.3335   6.4580   6.5479   6.7144   6.7886   6.8235   6.8526
  6.8925   7.0107   7.0341   7.3380   7.3563   7.5298   7.5873   7.6203
  7.6370   8.0328   8.1218   8.2060   8.3437   8.5033   8.5877   8.6891
  8.7124   9.0379   9.0685   9.1423   9.2593   9.5298   9.6333   9.6419
  9.6538   9.7495  10.2798  10.3118  10.3219  10.5389  10.6726  10.7449
 10.9355  10.9563  10.9803  11.0694  11.1792  11.1845  11.2466  11.2624
 11.3053  11.3194  11.3342  11.3380  11.3423  11.4455  11.4950  11.5624
 11.8097  11.8225  11.9227  12.1089  12.1093  12.1107  12.1108  12.1684
 12.1957  12.3006  12.3313  12.4607  12.6002  12.6092  12.7331  12.7754
 12.8035  12.8335  12.8666  12.8997  12.9109  12.9342  12.9384  13.0377
 13.2151  13.2667  13.3109  13.3695  13.4044  13.5968  13.7629  14.1276
 14.1540  14.2449  14.3602  14.4018  14.5844  14.7056  14.8923  15.0942
 15.1776  15.2272  15.3410  15.5482  15.6248  15.6561  15.8055  16.2174
 16.5125  16.5517  16.5799  16.6340  16.8922  16.9282  17.0857  17.0945
 17.0992  17.1071  17.1687  17.3254  17.3407  17.3885  17.4308  17.9735
 18.0128  18.0559  18.1041  18.2086  18.2586  18.3047  18.5245  18.8497
 19.0044  19.1114  19.1332  19.2438  19.6070  20.5473  20.9121  23.1823
 23.2309  23.2480  23.2685  24.5040  24.5237  24.5241  24.7549  24.7854
 25.9724  26.1147  26.3872  28.0326  29.9164  30.7330  31.6667  32.1766
 32.2387  32.2390  32.5048  34.5446  34.6222  47.8668  47.8981  48.2148
 49.2069  49.7985  66.8931  66.9266  66.9332  66.9478  67.6017  67.6473
 67.7399  67.8041  69.2057  69.6466 107.7037 143.9455 145.0700

 Beta MOs
 -- Occupied --
-19.3148 -19.3148 -14.6255  -1.3060  -1.1537  -0.6733  -0.5837  -0.5769
 -0.5573  -0.3936  -0.3640
 -- Virtual --
 -0.1434  -0.0714   0.0129   0.0281   0.0306   0.0317   0.0594   0.0607
  0.0629   0.0659   0.0702   0.0893   0.1045   0.1204   0.1218   0.1270
  0.1602   0.1634   0.1730   0.1750   0.1762   0.1877   0.1920   0.2007
  0.2090   0.2120   0.2197   0.2201   0.2555   0.2617   0.2647   0.2702
  0.2713   0.2948   0.2996   0.3180   0.3323   0.3422   0.3426   0.3460
  0.3633   0.3742   0.3871   0.3914   0.3938   0.4028   0.4127   0.4129
  0.4135   0.4285   0.4351   0.4393   0.4451   0.4627   0.4653   0.4793
  0.4799   0.4841   0.4875   0.5158   0.5460   0.5477   0.5538   0.5724
  0.5742   0.5750   0.5866   0.5998   0.6159   0.6260   0.6272   0.6283
  0.6413   0.6565   0.7028   0.7076   0.7105   0.7176   0.7277   0.7306
  0.7386   0.7480   0.7492   0.7586   0.7808   0.7946   0.7997   0.8243
  0.8279   0.8291   0.8513   0.8528   0.8626   0.8759   0.8852   0.8866
  0.8885   0.8934   0.9117   0.9131   0.9153   0.9370   0.9403   0.9408
  0.9488   0.9549   0.9576   0.9675   0.9871   0.9933   1.0076   1.0093
  1.0162   1.0181   1.0256   1.0487   1.0562   1.0568   1.0860   1.0925
  1.0954   1.1076   1.1154   1.1469   1.1501   1.1578   1.1713   1.1932
  1.2390   1.2447   1.2511   1.2536   1.2597   1.2605   1.2738   1.2857
  1.2992   1.3017   1.3034   1.3326   1.3515   1.3568   1.3786   1.3811
  1.3981   1.4457   1.4465   1.4752   1.5151   1.5184   1.5275   1.5554
  1.6378   1.6586   1.7323   1.7937   1.8492   1.8547   1.8548   1.8735
  1.8897   1.8948   1.9423   1.9474   1.9646   2.0085   2.0925   2.1021
  2.1506   2.1823   2.2216   2.2450   2.2496   2.2528   2.2740   2.3096
  2.3150   2.3388   2.5025   2.5138   2.5461   2.5490   2.6322   2.6433
  2.6657   2.7505   2.8711   2.9434   2.9804   2.9810   3.0058   3.0536
  3.0690   3.1347   3.1625   3.2188   3.3840   3.4008   3.4276   3.6301
  3.6312   3.7854   3.9099   4.0161   4.1470   4.1827   4.1855   4.2427
  4.2830   4.3144   4.3315   4.4048   4.4525   4.4681   4.5890   4.5916
  4.6019   4.6540   4.6541   4.7455   4.7793   4.8420   4.8574   4.8599
  5.0158   5.0794   5.1628   5.1812   5.2619   5.3113   5.3506   5.4164
  5.4166   5.4483   5.4919   5.6083   5.6333   5.6836   5.7937   5.8178
  5.8972   5.9969   6.0008   6.0163   6.0518   6.1306   6.1879   6.2227
  6.2243   6.3310   6.3485   6.4783   6.5590   6.7208   6.8055   6.8531
  6.8864   6.9066   7.0204   7.0459   7.3579   7.3589   7.5383   7.6045
  7.6361   7.6568   8.0480   8.1317   8.2207   8.3505   8.5141   8.6071
  8.7022   8.7196   9.0484   9.0882   9.1693   9.2785   9.5513   9.6501
  9.6532   9.6741   9.7821  10.2951  10.3183  10.3326  10.5574  10.6950
 10.7610  10.9541  10.9592  10.9964  11.0816  11.2072  11.2132  11.2651
 11.2891  11.3310  11.3356  11.3403  11.3601  11.3669  11.4652  11.4998
 11.5889  11.8293  11.8400  11.9379  12.1213  12.1215  12.1255  12.1257
 12.1827  12.2103  12.3140  12.3449  12.4796  12.6202  12.6312  12.7450
 12.7866  12.8163  12.8608  12.8838  12.9115  12.9335  12.9437  12.9572
 13.0506  13.2315  13.2809  13.3242  13.3902  13.4280  13.6142  13.7791
 14.1361  14.1669  14.2656  14.4028  14.4440  14.5985  14.7197  14.9113
 15.1204  15.1894  15.2502  15.3737  15.5608  15.6381  15.6717  15.8117
 16.2318  16.5463  16.5700  16.5957  16.6476  16.9208  16.9344  17.1091
 17.1124  17.1175  17.1276  17.1958  17.3432  17.3595  17.4071  17.4491
 17.9881  18.0345  18.0715  18.1206  18.2276  18.2759  18.3307  18.5332
 18.8584  19.0275  19.1169  19.1612  19.2593  19.6251  20.5611  20.9253
 23.2050  23.2505  23.2691  23.2910  24.5125  24.5315  24.5409  24.7796
 24.8127  25.9865  26.1458  26.3979  28.0525  29.9259  30.7447  31.6784
 32.2004  32.2444  32.2448  32.5302  34.5589  34.6343  47.8904  47.9224
 48.2185  49.2275  49.8068  66.9082  66.9404  66.9470  66.9624  67.6090
 67.6532  67.7588  67.8245  69.2177  69.6593 107.7141 143.9525 145.0769
 --------------------------------------------------------------

          Ground-State Mulliken Net Atomic Charges

     Atom                 Charge (a.u.)    Spin (a.u.)
  --------------------------------------------------------
      1 N                     0.520472       0.428280
      2 O                    -0.260236       0.285860
      3 O                    -0.260236       0.285860
  --------------------------------------------------------
  Sum of atomic charges =     0.000000
  Sum of spin   charges =     1.000000

 -----------------------------------------------------------------
                    Cartesian Multipole Moments
 -----------------------------------------------------------------
    Charge (ESU x 10^10)
                -0.0000
    Dipole Moment (Debye)
         X       0.0000      Y      -0.0000      Z      -0.3542
       Tot       0.3542
    Quadrupole Moments (Debye-Ang)
        XX     -14.8801     XY       0.0000     YY     -17.8447
        XZ       0.0000     YZ      -0.0000     ZZ     -15.8489
    Octopole Moments (Debye-Ang^2)
       XXX       0.0000    XXY      -0.0000    XYY       0.0000
       YYY      -0.0000    XXZ      -4.7105    XYZ       0.0000
       YYZ      -5.2966    XZZ       0.0000    YZZ      -0.0000
       ZZZ     -14.6844
    Hexadecapole Moments (Debye-Ang^3)
      XXXX     -11.5581   XXXY       0.0000   XXYY     -16.7851
      XYYY       0.0000   YYYY     -90.4713   XXXZ       0.0000
      XXYZ      -0.0000   XYYZ      -0.0000   YYYZ      -0.0000
      XXZZ      -6.2628   XYZZ       0.0000   YYZZ     -19.3301
      XZZZ       0.0000   YZZZ      -0.0000   ZZZZ     -26.7508
 -----------------------------------------------------------------
Archival summary:
1\1\n0071.mhg0\SP\ProcedureUnspecified\BasisUnspecified\21(2)\yhljason\WedNov1111:05:252020WedNov1111:05:252020\0\\#,ProcedureUnspecified,BasisUnspecified,\\0,2\N\O,1,1.19335\O,1,1.19335,2,134.102\\\@

 Total job time:  23287.02s(wall), 183738.52s(cpu) 
 Wed Nov 11 11:05:25 2020

        *************************************************************
        *                                                           *
        *  Thank you very much for using Q-Chem.  Have a nice day.  *
        *                                                           *
        *************************************************************


