                  Welcome to Q-Chem
     A Quantum Leap Into The Future Of Chemistry


 Q-Chem 5.3 (devel), Q-Chem, Inc., Pleasanton, CA (2020)

 Yihan Shao,  Zhengting Gan,  E. Epifanovsky,  A. T. B. Gilbert,  M. Wormit,  
 J. Kussmann,  A. W. Lange,  A. Behn,  Jia Deng,  Xintian Feng,  D. Ghosh,  
 M. Goldey,  P. R. Horn,  L. D. Jacobson,  I. Kaliman,  T. Kus,  A. Landau,  
 Jie Liu,  E. I. Proynov,  R. M. Richard,  R. P. Steele,  E. J. Sundstrom,  
 H. L. Woodcock III,  P. M. Zimmerman,  D. Zuev,  B. Alam,  B. Albrecht,  
 E. Alguire,  S. A. Baeppler,  D. Barton,  Z. Benda,  Y. A. Bernard,  
 E. J. Berquist,  K. B. Bravaya,  H. Burton,  K. Carter-Fenk,  D. Casanova,  
 Chun-Min Chang,  Yunqing Chen,  A. Chien,  K. D. Closser,  M. P. Coons,  
 S. Coriani,  S. Dasgupta,  A. L. Dempwolff,  M. Diedenhofen,  Hainam Do,  
 R. G. Edgar,  Po-Tung Fang,  S. Faraji,  S. Fatehi,  Qingguo Feng,  
 J. Fosso-Tande,  J. Gayvert,  Qinghui Ge,  A. Ghysels,  G. Gidofalvi,  
 J. Gomes,  J. Gonthier,  A. Gunina,  D. Hait,  M. W. D. Hanson-Heine,  
 P. H. P. Harbach,  A. W. Hauser,  M. F. Herbst,  J. E. Herr,  
 E. G. Hohenstein,  Z. C. Holden,  Kerwin Hui,  B. C. Huynh,  T.-C. Jagau,  
 Hyunjun Ji,  B. Kaduk,  K. Khistyaev,  Jaehoon Kim,  P. Klunzinger,  K. Koh,  
 D. Kosenkov,  L. Koulias,  T. Kowalczyk,  C. M. Krauter,  A. Kunitsa,  
 Ka Un Lao,  A. Laurent,  K. V. Lawler,  Joonho Lee,  D. Lefrancois,  
 S. Lehtola,  D. S. Levine,  Yi-Pei Li,  You-Sheng Lin,  Fenglai Liu,  
 Kuan-Yu Liu,  E. Livshits,  M. Loipersberger,  A. Luenser,  P. Manohar,  
 E. Mansoor,  S. F. Manzer,  Shan-Ping Mao,  Yuezhi Mao,  N. Mardirossian,  
 A. V. Marenich,  T. Markovich,  L. A. Martinez-Martinez,  S. A. Maurer,  
 N. J. Mayhall,  S. C. McKenzie,  J.-M. Mewes,  P. Morgante,  A. F. Morrison,  
 J. W. Mullinax,  K. Nanda,  T. S. Nguyen-Beck,  R. Olivares-Amaya,  
 K. J. Oosterbaan,  J. A. Parkhill,  S. K. Paul,  F. Pavosevic,  Zheng Pei,  
 T. M. Perrine,  F. Plasser,  P. Pokhilko,  S. Prager,  A. Prociuk,  
 E. Ramos,  B. Rana,  D. R. Rehn,  F. Rob,  M. Scheurer,  M. Schneider,  
 N. Sergueev,  S. M. Sharada,  S. Sharma,  D. W. Small,  T. Stauch,  
 C. J. Stein,  T. Stein,  Yu-Chuan Su,  S. P. Veccham,  Zhen Tao,  
 A. J. W. Thom,  A. Tkatchenko,  T. Tsuchimochi,  N. M. Tubman,  L. Vogt,  
 M. L. Vidal,  O. Vydrov,  M. A. Watson,  J. Wenzel,  M. de Wergifosse,  
 T. A. Wesolowski,  A. White,  J. Witte,  A. Yamada,  Jun Yang,  K. Yao,  
 S. Yeganeh,  S. R. Yost,  Zhi-Qiang You,  A. Zech,  Igor Ying Zhang,  
 Xing Zhang,  Yan Zhao,  Ying Zhu,  B. R. Brooks,  G. K. L. Chan,  
 C. J. Cramer,  M. S. Gordon,  W. J. Hehre,  A. Klamt,  M. W. Schmidt,  
 C. D. Sherrill,  D. G. Truhlar,  A. Aspuru-Guzik,  R. Baer,  A. T. Bell,  
 N. A. Besley,  Jeng-Da Chai,  A. E. DePrince, III,  R. A. DiStasio Jr.,  
 A. Dreuw,  B. D. Dunietz,  T. R. Furlani,  Chao-Ping Hsu,  Yousung Jung,  
 Jing Kong,  D. S. Lambrecht,  WanZhen Liang,  C. Ochsenfeld,  
 V. A. Rassolov,  L. V. Slipchenko,  J. E. Subotnik,  T. Van Voorhis,  
 J. M. Herbert,  A. I. Krylov,  P. M. W. Gill,  M. Head-Gordon

 Contributors to earlier versions of Q-Chem not listed above: 
 R. D. Adamson,  B. Austin,  J. Baker,  G. J. O. Beran,  K. Brandhorst,  
 S. T. Brown,  E. F. C. Byrd,  A. K. Chakraborty,  C.-L. Cheng,  
 Siu Hung Chien,  D. M. Chipman,  D. L. Crittenden,  H. Dachsel,  
 R. J. Doerksen,  A. D. Dutoi,  L. Fusti-Molnar,  W. A. Goddard III,  
 A. Golubeva-Zadorozhnaya,  S. R. Gwaltney,  G. Hawkins,  A. Heyden,  
 S. Hirata,  G. Kedziora,  F. J. Keil,  C. Kelley,  Jihan Kim,  R. A. King,  
 R. Z. Khaliullin,  P. P. Korambath,  W. Kurlancheek,  A. M. Lee,  M. S. Lee,  
 S. V. Levchenko,  Ching Yeh Lin,  D. Liotard,  R. C. Lochan,  I. Lotan,  
 P. E. Maslen,  N. Nair,  D. P. O'Neill,  D. Neuhauser,  E. Neuscamman,  
 C. M. Oana,  R. Olson,  B. Peters,  R. Peverati,  P. A. Pieniazek,  
 Y. M. Rhee,  J. Ritchie,  M. A. Rohrdanz,  E. Rosta,  N. J. Russ,  
 H. F. Schaefer III,  N. E. Schultz,  N. Shenvi,  A. C. Simmonett,  A. Sodt,  
 D. Stuck,  K. S. Thanthiriwatte,  V. Vanovschi,  Tao Wang,  A. Warshel,  
 C. F. Williams,  Q. Wu,  X. Xu,  W. Zhang

 Please cite Q-Chem as follows:
 Y. Shao et al., Mol. Phys. 113, 184-215 (2015)
 DOI: 10.1080/00268976.2014.952696

 Q-Chem 5.3.0 for Intel X86 EM64T Linux

 Parts of Q-Chem use Armadillo 9.800.1 (Horizon Scraper).
 http://arma.sourceforge.net/

 Q-Chem begins on Fri Nov 13 04:02:36 2020  

n0072.mhg0
Host: 0

     Scratch files written to /local/scratch/users/yhljason/PCl_SOGGA11_aug-pc-4.inp20201113040233//
Processing $rem in /clusterfs/mhg/diptarka/qchem_transmom//config/preferences:
Processing $rem in /global/home/users/yhljason/.qchemrc:

Checking the input file for inconsistencies... 	...done.

--------------------------------------------------------------
User input:
--------------------------------------------------------------
$molecule
0 3
P1      0.0000  0.0000  0.0000
Cl2     0.0000  0.0000  2.0176
$end

$rem
jobtype sp
method SOGGA11
xc_grid 000099000590
basis aug-pc-4
max_scf_cycles 200
thresh 14
scf_convergence 8
scf_algorithm gdm
gen_scfman false
stability_analysis true
symmetry false
sym_ignore true
unrestricted True
gen_scfman true
mem_total 64000
mem_static 1500
n_frozen_core 0
max_cis_cycles 200
$end

--------------------------------------------------------------
 ----------------------------------------------------------------
             Standard Nuclear Orientation (Angstroms)
    I     Atom           X                Y                Z
 ----------------------------------------------------------------
    1      P       0.0000000000     0.0000000000     0.0000000000
    2      Cl      0.0000000000     0.0000000000     2.0176000000
 ----------------------------------------------------------------
 Nuclear Repulsion Energy =          66.88153685 hartrees
 There are       17 alpha and       15 beta electrons
 Requested basis set is aug-pc-4
 There are 62 shells and 282 basis functions

 Total QAlloc Memory Limit  64000 MB
 Mega-Array Size      1467 MB
 MEM_STATIC part      1500 MB

                       Distance Matrix (Angstroms)
             P (  1)
   Cl(  2)  2.017600

 A cutoff of  1.0D-14 yielded   1938 shell pairs
 There are     40512 function pairs (     80431 Cartesian)
 Smallest overlap matrix eigenvalue = 2.03E-05

 Scale SEOQF with 1.000000e-01/1.000000e-01/1.000000e-01

 Standard Electronic Orientation quadrupole field applied
 Nucleus-field energy     =    -0.0000000074 hartrees
 Guess from superposition of atomic densities
 Warning:  Energy on first SCF cycle will be non-variational
 SAD guess density has 32.000000 electrons

 -----------------------------------------------------------------------
  General SCF calculation program by
  Eric Jon Sundstrom, Paul Horn, Yuezhi Mao, Dmitri Zuev, Alec White,
  David Stuck, Shaama M.S., Shane Yost, Joonho Lee, David Small,
  Daniel Levine, Susi Lehtola, Hugh Burton, Evgeny Epifanovsky,
  Bang C. Huynh
 -----------------------------------------------------------------------
 Exchange:  SOGGA11      Correlation:  SOGGA11
 Using Euler-Maclaurin-Lebedev (99,590) quadrature formula
 A unrestricted SCF calculation will be
 performed using Roothaan-Hall, GDM
 SCF converges when RMS gradient is below 1.0e-08
 ---------------------------------------
  Cycle       Energy         DIIS error
 ---------------------------------------
    1    -801.6462815530      4.93e-03  Roothaan Step
 ---------------------------------------
  Cycle       Energy        RMS Gradient
 ---------------------------------------
    1    -801.5424836504      4.25e-02   Normal BFGS step
    2    -801.5302950074      1.63e-01  Line search: overstep
    3    -801.5487972642      2.61e-02   Normal BFGS step
    4    -801.5503868181      2.02e-02   Normal BFGS step
    5    -801.5522672862      7.09e-03   Normal BFGS step
    6    -801.5526004284      5.45e-03   Normal BFGS step
    7    -801.5526903674      7.20e-03   Normal BFGS step
    8    -801.5528167549      2.93e-03   Normal BFGS step
    9    -801.5528694692      2.81e-03   Normal BFGS step
   10    -801.5529057257      1.36e-03   Normal BFGS step
   11    -801.5529221525      9.55e-04   Normal BFGS step
   12    -801.5529306140      9.05e-04   Normal BFGS step
   13    -801.5529320057      1.43e-03   Normal BFGS step
   14    -801.5529350518      4.01e-04   Normal BFGS step
   15    -801.5529353506      2.26e-04   Normal BFGS step
   16    -801.5529356742      1.52e-04   Normal BFGS step
   17    -801.5529357135      1.24e-04   Normal BFGS step
   18    -801.5529357739      4.54e-05   Normal BFGS step
   19    -801.5529357787      3.52e-05   Normal BFGS step
   20    -801.5529357859      6.16e-06   Normal BFGS step
   21    -801.5529357866      4.53e-06   Normal BFGS step
   22    -801.5529357869      3.02e-06   Normal BFGS step
   23    -801.5529357870      2.95e-06   Normal BFGS step
   24    -801.5529357871      3.01e-06   Normal BFGS step
   25    -801.5529357871      1.16e-06   Normal BFGS step
   26    -801.5529357871      7.37e-07   Normal BFGS step
   27    -801.5529357871      1.31e-06   Normal BFGS step
   28    -801.5529357871      5.93e-07   Normal BFGS step
   29    -801.5529357871      3.86e-07   Normal BFGS step
   30    -801.5529357871      1.59e-07   Normal BFGS step
   31    -801.5529357871      7.38e-08   Normal BFGS step
   32    -801.5529357871      5.06e-08   Normal BFGS step
   33    -801.5529357871      6.79e-08   Normal BFGS step
   34    -801.5529357871      3.71e-08   Normal BFGS step
   35    -801.5529357871      1.28e-08   Normal BFGS step
   36    -801.5529357871      9.13e-09  Convergence criterion met
 ---------------------------------------
 SCF time:   CPU 20224.50s  wall 1289.00s 
<S^2> =          2.008496409
 SCF   energy in the final basis set =     -801.5529357871
 Total energy in the final basis set =     -801.5529357871

 Direct TDDFT/TDA calculation will be performed
 Exchange:  SOGGA11      Correlation:  SOGGA11
 Using Euler-Maclaurin-Lebedev (99,590) quadrature formula
 CIS energy converged when residual is below 10e- 6
 NRoots was altered as:  1 -->  2
 ---------------------------------------------------
 Iter    Rts Conv    Rts Left    Ttl Dev     Max Dev
 ---------------------------------------------------
   1         0           2      0.001804    0.000902
   2         0           2      0.000535    0.000268
   3         0           2      0.000266    0.000133
   4         0           2      0.000087    0.000044
   5         0           2      0.000059    0.000029
   6         0           2      0.000026    0.000013
   7         0           2      0.000012    0.000006
   8         0           2      0.000005    0.000003
   9         2           0      0.000001    0.000001    Roots Converged
 ---------------------------------------------------

 ---------------------------------------------------
         TDDFT/TDA Excitation Energies              
 ---------------------------------------------------

 Excited state   1: excitation energy (eV) =    3.5093
 Total energy for state  1:                  -801.42397140 au
    <S**2>     :  2.0185
    Trans. Mom.:  0.0470 X   0.0032 Y  -0.0000 Z
    Strength   :     0.0001908708
    S(    1) --> V(    1) amplitude =  0.9932 alpha

 Excited state   2: excitation energy (eV) =    3.5093
 Total energy for state  2:                  -801.42397140 au
    <S**2>     :  2.0185
    Trans. Mom.: -0.0032 X   0.0470 Y   0.0000 Z
    Strength   :     0.0001908708
    S(    2) --> V(    1) amplitude =  0.9932 alpha

 ---------------------------------------------------

 Stability analysis will be performed
 ---------------------------------------------------
 Iter    Rts Conv    Rts Left    Ttl Dev     Max Dev
 ---------------------------------------------------
   1         2           2      0.002824    0.000706
   2         2           2      0.000698    0.000340
   3         2           2      0.000664    0.000323
   4         2           2      0.000758    0.000371
   5         2           2      0.001490    0.000736
   6         2           2      0.002314    0.001148
   7         2           2      0.002256    0.001119
   8         2           2      0.001265    0.000628
   9         2           2      0.000808    0.000421
  10         2           2      0.000613    0.000354
  11         2           2      0.000335    0.000183
  12         2           2      0.000225    0.000119
  13         2           2      0.000177    0.000083
  14         2           2      0.000133    0.000073
  15         2           2      0.000096    0.000052
  16         2           2      0.000059    0.000026
  17         2           2      0.000043    0.000016
  18         2           2      0.000034    0.000011
  19         3           1      0.000029    0.000012
  20         3           1      0.000026    0.000011
  21         3           1      0.000025    0.000011
  22         4           0      0.000024    0.000011    Roots Converged
 UKS-> UKS   stable,    smallest eigenvalue:      0.0897032
 UKS->CUKS   stable,    smallest eigenvalue:      0.1248281
 ---------------------------------------------------
  SETman timing summary (seconds)
  CPU time             41809.36s
  System time              0.00s
  Wall time             2628.99s

 --------------------------------------------------------------

                    Orbital Energies (a.u.)
 --------------------------------------------------------------

 Alpha MOs
 -- Occupied --
******** -76.3876  -9.2068  -7.0444  -7.0389  -7.0389  -6.3571  -4.5892
 -4.5892  -4.5890  -0.8016  -0.5499  -0.3649  -0.3464  -0.3464  -0.2089
 -0.2089
 -- Virtual --
 -0.0841  -0.0634  -0.0433  -0.0433  -0.0416  -0.0273  -0.0192  -0.0192
 -0.0013   0.0351   0.0351   0.0433   0.0433   0.0627   0.0662   0.0749
  0.0749   0.0959   0.0959   0.1092   0.1222   0.1222   0.1467   0.1467
  0.1474   0.1474   0.1648   0.1757   0.1757   0.1870   0.1870   0.1907
  0.2501   0.2735   0.2735   0.2762   0.2762   0.2992   0.2992   0.3112
  0.3112   0.3177   0.3177   0.3203   0.3228   0.3508   0.3508   0.4108
  0.4109   0.4110   0.4130   0.4130   0.4256   0.4256   0.4343   0.4343
  0.4348   0.4348   0.4592   0.4721   0.4847   0.4847   0.5168   0.5168
  0.5408   0.5408   0.5432   0.5592   0.5592   0.5850   0.5954   0.5954
  0.6020   0.6020   0.6363   0.6363   0.6582   0.6582   0.6615   0.6615
  0.6713   0.7265   0.7265   0.7507   0.7507   0.7721   0.7721   0.8143
  0.8335   0.8335   0.8433   0.8433   0.8576   0.8576   0.8690   0.8830
  0.8830   0.8916   0.8960   0.8961   0.9059   0.9059   0.9661   0.9662
  0.9765   1.0245   1.0380   1.0380   1.1015   1.1015   1.1192   1.1192
  1.2015   1.2016   1.2788   1.2788   1.3061   1.3061   1.3252   1.3955
  1.4567   1.4567   1.5575   1.5907   1.5907   1.7567   1.7638   1.7638
  1.8294   1.9873   1.9874   2.0629   2.0629   2.0666   2.0667   2.1531
  2.1531   2.1565   2.1565   2.1586   2.2011   2.2011   2.2506   2.2506
  2.5115   2.5575   2.5575   2.5770   2.7897   2.7897   2.8108   2.8108
  2.8530   2.8530   2.9645   2.9734   2.9734   2.9937   2.9937   3.0207
  3.0967   3.0967   3.1151   3.1151   3.1677   3.4958   3.4958   3.5003
  3.5003   3.6377   3.6377   3.9540   4.0532   4.0822   4.0822   4.5730
  4.6190   4.6190   4.6432   4.6432   4.6515   4.6516   4.6529   4.6529
  4.7578   4.7578   4.8300   4.9805   4.9805   5.2460   5.2743   5.2743
  5.4901   5.4901   5.6297   5.6297   5.6306   5.6307   5.6816   5.6816
  5.7151   5.7151   5.8405   5.8752   5.8752   6.0940   6.0941   6.4185
  6.5014   6.5014   6.7991   7.2249   7.2249   7.2631   7.2631   7.4033
  7.4034   7.7996   7.7996   7.9134   9.0634   9.0635   9.0764   9.0764
  9.2627   9.2627   9.5707   9.5707   9.6528  10.1952  10.1952  10.2944
 10.2944  10.4836  10.4836  11.0339  12.7524  12.7524  12.7910  12.7910
 12.9264  12.9264  13.0708  15.9676  15.9676  16.0599  16.0599  16.4749
 17.5737  17.5737  17.7267  17.7267  18.1737  21.7454  38.5671  58.8695
 58.8695  58.9289  58.9289  59.1700  65.8183  65.8183  65.9129  65.9129
 66.1827

 Beta MOs
 -- Occupied --
******** -76.3803  -9.2046  -7.0435  -7.0360  -7.0360  -6.3464  -4.5828
 -4.5740  -4.5740  -0.7919  -0.5068  -0.3395  -0.3309  -0.3309
 -- Virtual --
 -0.1601  -0.1601  -0.0865  -0.0757  -0.0577  -0.0577  -0.0462  -0.0273
 -0.0245  -0.0245  -0.0119  -0.0031  -0.0024   0.0310   0.0310   0.0314
  0.0431   0.0431   0.0535   0.0833   0.0836   0.0861   0.0861   0.1000
  0.1313   0.1313   0.1316   0.1327   0.1352   0.1352   0.1437   0.1572
  0.1572   0.1657   0.1807   0.1952   0.1952   0.2452   0.2455   0.2614
  0.2614   0.2733   0.2837   0.2837   0.2986   0.2988   0.3107   0.3332
  0.3333   0.3648   0.3768   0.3768   0.3870   0.3870   0.3920   0.3920
  0.3926   0.3926   0.4238   0.4503   0.4504   0.4511   0.4518   0.4521
  0.4691   0.4691   0.4929   0.4929   0.5540   0.5544   0.5544   0.5635
  0.5682   0.5682   0.5834   0.5834   0.6175   0.6175   0.6223   0.6224
  0.6504   0.6504   0.6765   0.6768   0.7294   0.7397   0.7397   0.7427
  0.7427   0.7755   0.8313   0.8313   0.8478   0.8596   0.8597   0.8674
  0.8674   0.8754   0.8754   0.8766   0.8770   0.8900   0.8900   0.9369
  0.9716   0.9721   0.9846   1.0391   1.0634   1.0634   1.1608   1.1610
  1.1679   1.1679   1.1774   1.1774   1.2830   1.2830   1.3105   1.3105
  1.3353   1.4080   1.4762   1.4763   1.5527   1.6071   1.6071   1.7530
  1.7659   1.7659   1.8397   2.0059   2.0059   2.0746   2.0746   2.0792
  2.0793   2.1820   2.2072   2.2072   2.2136   2.2136   2.2391   2.2391
  2.2838   2.2838   2.5548   2.5734   2.5734   2.6237   2.8202   2.8202
  2.8401   2.8401   2.9356   2.9356   2.9892   3.0337   3.0350   3.0350
  3.0777   3.0777   3.1400   3.1400   3.1470   3.1470   3.2009   3.5143
  3.5143   3.5212   3.5212   3.6556   3.6556   3.9591   4.0707   4.0979
  4.0979   4.6029   4.6327   4.6327   4.7081   4.7081   4.7251   4.7251
  4.7340   4.7340   4.7969   4.7969   4.8497   5.0111   5.0111   5.2583
  5.3249   5.3250   5.5239   5.5239   5.6405   5.6405   5.6431   5.6431
  5.6921   5.6921   5.7271   5.7271   5.8762   5.8830   5.8830   6.1119
  6.1120   6.4351   6.5190   6.5190   6.8084   7.3262   7.3262   7.3342
  7.3342   7.4554   7.4554   7.8375   7.8375   7.9421   9.0751   9.0751
  9.0850   9.0850   9.2701   9.2702   9.5815   9.5815   9.6636  10.2584
 10.2584  10.3408  10.3409  10.5129  10.5129  11.0517  12.7586  12.7586
 12.7958  12.7958  12.9301  12.9301  13.0734  16.0336  16.0336  16.1027
 16.1027  16.5126  17.5756  17.5756  17.7277  17.7277  18.1746  21.7594
 38.5777  58.8930  58.8930  58.9433  58.9433  59.1820  65.8219  65.8219
 65.9148  65.9148  66.1840
 --------------------------------------------------------------

          Ground-State Mulliken Net Atomic Charges

     Atom                 Charge (a.u.)    Spin (a.u.)
  --------------------------------------------------------
      1 P                    -2.442988       2.329682
      2 Cl                    2.442988      -0.329682
  --------------------------------------------------------
  Sum of atomic charges =    -0.000000
  Sum of spin   charges =     2.000000

 -----------------------------------------------------------------
                    Cartesian Multipole Moments
 -----------------------------------------------------------------
    Charge (ESU x 10^10)
                -0.0000
    Dipole Moment (Debye)
         X       0.0000      Y      -0.0000      Z      -0.1937
       Tot       0.1937
    Quadrupole Moments (Debye-Ang)
        XX     -26.2625     XY      -0.0000     YY     -26.2625
        XZ       0.0000     YZ      -0.0000     ZZ     -24.8399
    Octopole Moments (Debye-Ang^2)
       XXX       0.0000    XXY      -0.0000    XYY       0.0000
       YYY      -0.0000    XXZ     -25.2131    XYZ      -0.0000
       YYZ     -25.2131    XZZ       0.0000    YZZ      -0.0000
       ZZZ     -71.2891
    Hexadecapole Moments (Debye-Ang^3)
      XXXX     -39.7412   XXXY      -0.0000   XXYY     -13.2471
      XYYY      -0.0000   YYYY     -39.7412   XXXZ       0.0000
      XXYZ      -0.0000   XYYZ       0.0000   YYYZ      -0.0000
      XXZZ     -63.7880   XYZZ      -0.0000   YYZZ     -63.7880
      XZZZ       0.0000   YZZZ      -0.0000   ZZZZ    -316.7477
 -----------------------------------------------------------------
Archival summary:
1\1\n0072.mhg0\SP\ProcedureUnspecified\BasisUnspecified\l11(3)\yhljason\FriNov1305:07:592020FriNov1305:07:592020\0\\#,ProcedureUnspecified,BasisUnspecified,\\0,3\P\Cl,1,2.0176\\\@

 Total job time:  3923.40s(wall), 62054.40s(cpu) 
 Fri Nov 13 05:07:59 2020

        *************************************************************
        *                                                           *
        *  Thank you very much for using Q-Chem.  Have a nice day.  *
        *                                                           *
        *************************************************************


