                  Welcome to Q-Chem
     A Quantum Leap Into The Future Of Chemistry


 Q-Chem 5.3 (devel), Q-Chem, Inc., Pleasanton, CA (2020)

 Yihan Shao,  Zhengting Gan,  E. Epifanovsky,  A. T. B. Gilbert,  M. Wormit,  
 J. Kussmann,  A. W. Lange,  A. Behn,  Jia Deng,  Xintian Feng,  D. Ghosh,  
 M. Goldey,  P. R. Horn,  L. D. Jacobson,  I. Kaliman,  T. Kus,  A. Landau,  
 Jie Liu,  E. I. Proynov,  R. M. Richard,  R. P. Steele,  E. J. Sundstrom,  
 H. L. Woodcock III,  P. M. Zimmerman,  D. Zuev,  B. Alam,  B. Albrecht,  
 E. Alguire,  S. A. Baeppler,  D. Barton,  Z. Benda,  Y. A. Bernard,  
 E. J. Berquist,  K. B. Bravaya,  H. Burton,  K. Carter-Fenk,  D. Casanova,  
 Chun-Min Chang,  Yunqing Chen,  A. Chien,  K. D. Closser,  M. P. Coons,  
 S. Coriani,  S. Dasgupta,  A. L. Dempwolff,  M. Diedenhofen,  Hainam Do,  
 R. G. Edgar,  Po-Tung Fang,  S. Faraji,  S. Fatehi,  Qingguo Feng,  
 J. Fosso-Tande,  J. Gayvert,  Qinghui Ge,  A. Ghysels,  G. Gidofalvi,  
 J. Gomes,  J. Gonthier,  A. Gunina,  D. Hait,  M. W. D. Hanson-Heine,  
 P. H. P. Harbach,  A. W. Hauser,  M. F. Herbst,  J. E. Herr,  
 E. G. Hohenstein,  Z. C. Holden,  Kerwin Hui,  B. C. Huynh,  T.-C. Jagau,  
 Hyunjun Ji,  B. Kaduk,  K. Khistyaev,  Jaehoon Kim,  P. Klunzinger,  K. Koh,  
 D. Kosenkov,  L. Koulias,  T. Kowalczyk,  C. M. Krauter,  A. Kunitsa,  
 Ka Un Lao,  A. Laurent,  K. V. Lawler,  Joonho Lee,  D. Lefrancois,  
 S. Lehtola,  D. S. Levine,  Yi-Pei Li,  You-Sheng Lin,  Fenglai Liu,  
 Kuan-Yu Liu,  E. Livshits,  M. Loipersberger,  A. Luenser,  P. Manohar,  
 E. Mansoor,  S. F. Manzer,  Shan-Ping Mao,  Yuezhi Mao,  N. Mardirossian,  
 A. V. Marenich,  T. Markovich,  L. A. Martinez-Martinez,  S. A. Maurer,  
 N. J. Mayhall,  S. C. McKenzie,  J.-M. Mewes,  P. Morgante,  A. F. Morrison,  
 J. W. Mullinax,  K. Nanda,  T. S. Nguyen-Beck,  R. Olivares-Amaya,  
 K. J. Oosterbaan,  J. A. Parkhill,  S. K. Paul,  F. Pavosevic,  Zheng Pei,  
 T. M. Perrine,  F. Plasser,  P. Pokhilko,  S. Prager,  A. Prociuk,  
 E. Ramos,  B. Rana,  D. R. Rehn,  F. Rob,  M. Scheurer,  M. Schneider,  
 N. Sergueev,  S. M. Sharada,  S. Sharma,  D. W. Small,  T. Stauch,  
 C. J. Stein,  T. Stein,  Yu-Chuan Su,  S. P. Veccham,  Zhen Tao,  
 A. J. W. Thom,  A. Tkatchenko,  T. Tsuchimochi,  N. M. Tubman,  L. Vogt,  
 M. L. Vidal,  O. Vydrov,  M. A. Watson,  J. Wenzel,  M. de Wergifosse,  
 T. A. Wesolowski,  A. White,  J. Witte,  A. Yamada,  Jun Yang,  K. Yao,  
 S. Yeganeh,  S. R. Yost,  Zhi-Qiang You,  A. Zech,  Igor Ying Zhang,  
 Xing Zhang,  Yan Zhao,  Ying Zhu,  B. R. Brooks,  G. K. L. Chan,  
 C. J. Cramer,  M. S. Gordon,  W. J. Hehre,  A. Klamt,  M. W. Schmidt,  
 C. D. Sherrill,  D. G. Truhlar,  A. Aspuru-Guzik,  R. Baer,  A. T. Bell,  
 N. A. Besley,  Jeng-Da Chai,  A. E. DePrince, III,  R. A. DiStasio Jr.,  
 A. Dreuw,  B. D. Dunietz,  T. R. Furlani,  Chao-Ping Hsu,  Yousung Jung,  
 Jing Kong,  D. S. Lambrecht,  WanZhen Liang,  C. Ochsenfeld,  
 V. A. Rassolov,  L. V. Slipchenko,  J. E. Subotnik,  T. Van Voorhis,  
 J. M. Herbert,  A. I. Krylov,  P. M. W. Gill,  M. Head-Gordon

 Contributors to earlier versions of Q-Chem not listed above: 
 R. D. Adamson,  B. Austin,  J. Baker,  G. J. O. Beran,  K. Brandhorst,  
 S. T. Brown,  E. F. C. Byrd,  A. K. Chakraborty,  C.-L. Cheng,  
 Siu Hung Chien,  D. M. Chipman,  D. L. Crittenden,  H. Dachsel,  
 R. J. Doerksen,  A. D. Dutoi,  L. Fusti-Molnar,  W. A. Goddard III,  
 A. Golubeva-Zadorozhnaya,  S. R. Gwaltney,  G. Hawkins,  A. Heyden,  
 S. Hirata,  G. Kedziora,  F. J. Keil,  C. Kelley,  Jihan Kim,  R. A. King,  
 R. Z. Khaliullin,  P. P. Korambath,  W. Kurlancheek,  A. M. Lee,  M. S. Lee,  
 S. V. Levchenko,  Ching Yeh Lin,  D. Liotard,  R. C. Lochan,  I. Lotan,  
 P. E. Maslen,  N. Nair,  D. P. O'Neill,  D. Neuhauser,  E. Neuscamman,  
 C. M. Oana,  R. Olson,  B. Peters,  R. Peverati,  P. A. Pieniazek,  
 Y. M. Rhee,  J. Ritchie,  M. A. Rohrdanz,  E. Rosta,  N. J. Russ,  
 H. F. Schaefer III,  N. E. Schultz,  N. Shenvi,  A. C. Simmonett,  A. Sodt,  
 D. Stuck,  K. S. Thanthiriwatte,  V. Vanovschi,  Tao Wang,  A. Warshel,  
 C. F. Williams,  Q. Wu,  X. Xu,  W. Zhang

 Please cite Q-Chem as follows:
 Y. Shao et al., Mol. Phys. 113, 184-215 (2015)
 DOI: 10.1080/00268976.2014.952696

 Q-Chem 5.3.0 for Intel X86 EM64T Linux

 Parts of Q-Chem use Armadillo 9.800.1 (Horizon Scraper).
 http://arma.sourceforge.net/

 Q-Chem begins on Wed Nov 11 04:56:24 2020  

n0088.mhg0
Host: 0

     Scratch files written to /local/scratch/users/yhljason/PCl_B97_aug-pc-4.inp20201110225841//
Processing $rem in /clusterfs/mhg/diptarka/qchem_transmom//config/preferences:
Processing $rem in /global/home/users/yhljason/.qchemrc:

Checking the input file for inconsistencies... 	...done.

--------------------------------------------------------------
User input:
--------------------------------------------------------------
$molecule
0 3
P1      0.0000  0.0000  0.0000
Cl2     0.0000  0.0000  2.0176
$end

$rem
jobtype sp
method B97
xc_grid 000099000590
basis aug-pc-4
max_scf_cycles 200
thresh 14
scf_convergence 8
scf_algorithm gdm
symmetry false
sym_ignore true
unrestricted True
gen_scfman true
internal_stability_iter 15
internal_stability_davidson_iter 200
mem_total 64000
mem_static 1500
n_frozen_core 0
$end



--------------------------------------------------------------
 ----------------------------------------------------------------
             Standard Nuclear Orientation (Angstroms)
    I     Atom           X                Y                Z
 ----------------------------------------------------------------
    1      P       0.0000000000     0.0000000000     0.0000000000
    2      Cl      0.0000000000     0.0000000000     2.0176000000
 ----------------------------------------------------------------
 Nuclear Repulsion Energy =          66.88153685 hartrees
 There are       17 alpha and       15 beta electrons
 Requested basis set is aug-pc-4
 There are 62 shells and 282 basis functions

 Total QAlloc Memory Limit  64000 MB
 Mega-Array Size      1467 MB
 MEM_STATIC part      1500 MB

                       Distance Matrix (Angstroms)
             P (  1)
   Cl(  2)  2.017600

 A cutoff of  1.0D-14 yielded   1938 shell pairs
 There are     40512 function pairs (     80431 Cartesian)
 Smallest overlap matrix eigenvalue = 2.03E-05

 Scale SEOQF with 1.000000e-01/1.000000e-01/1.000000e-01

 Standard Electronic Orientation quadrupole field applied
 Nucleus-field energy     =    -0.0000000074 hartrees
 Guess from superposition of atomic densities
 Warning:  Energy on first SCF cycle will be non-variational
 SAD guess density has 32.000000 electrons

 -----------------------------------------------------------------------
  General SCF calculation program by
  Eric Jon Sundstrom, Paul Horn, Yuezhi Mao, Dmitri Zuev, Alec White,
  David Stuck, Shaama M.S., Shane Yost, Joonho Lee, David Small,
  Daniel Levine, Susi Lehtola, Hugh Burton, Evgeny Epifanovsky,
  Bang C. Huynh
 -----------------------------------------------------------------------
 Exchange:     0.1943 Hartree-Fock + 1.0000 B97
 Correlation:  1.0000 B97
 Using Euler-Maclaurin-Lebedev (99,590) quadrature formula
Running Object-Oriented UKS (UHF)
performing a single roothaan step with Fock from read density so that orbitals are available to all algorithms
energy of the guess density (C=0) -801.534341425960
We will preform up to 15 macro iterations over saddle points until a stable solution is found
Energy prior to optimization (guess energy) = -801.451838639346
Begin Timing: Total SCF Calculation
Begin Timing: SCF Single Stationary Point Calculation
begin iterations for algorithm: GDM          
the SCF tolerance is set to 1.00e-08
    1    -801.4518386393      4.11e-02     00000  Normal BFGS step
    2    -801.4493543234      8.61e-02     00000 Line search: overstep
    3    -801.4574290671      2.31e-02     00000  Normal BFGS step
    4    -801.4594699254      5.09e-03     00000  Normal BFGS step
    5    -801.4595659123      1.18e-03     00000  Normal BFGS step
    6    -801.4595788397      2.71e-04     00000  Normal BFGS step
    7    -801.4595792382      8.85e-05     00000  Normal BFGS step
    8    -801.4595792631      2.30e-05     00000  Normal BFGS step
    9    -801.4595792663      1.46e-05     00000  Normal BFGS step
   10    -801.4595792671      4.04e-06     00000  Normal BFGS step
   11    -801.4595792671      1.19e-06     00000  Normal BFGS step
   12    -801.4595792671      1.21e-07     00000  Normal BFGS step
   13    -801.4595792671      2.75e-08     00000  Normal BFGS step
   14    -801.4595792671      7.89e-09     00000 Convergence criterion met
Timing for Single Stationary Point: 864.00s (wall), 6840.05s (cpu)
Begin Timing: Stability
===================================================
Beginning Test for Internal Stability
===================================================
generating davidson guess vectors based on koopmans excitations
 Warning: Hessian-vector products not implemented
 Finite difference Hessian-vector products will be used.
computing hessian-vector products by finite difference
    1      7.48e-01     00000 Davidson Iteration
computing hessian-vector products by finite difference
    2      2.96e-01     00000 Davidson Iteration
computing hessian-vector products by finite difference
    3      1.16e-01     00000 Davidson Iteration
computing hessian-vector products by finite difference
    4      1.20e-02     00000 Davidson Iteration
computing hessian-vector products by finite difference
    5      2.63e-03     00000 Davidson Iteration
computing hessian-vector products by finite difference
    6      2.76e-03     00000 Davidson Iteration
computing hessian-vector products by finite difference
    7      6.43e-04     00000 Davidson Iteration
computing hessian-vector products by finite difference
    8      1.47e-04     00000 Davidson Iteration
computing hessian-vector products by finite difference
    9      1.31e-04     00000 Davidson Iteration
computing hessian-vector products by finite difference
   10      3.98e-05     00000 Davidson Iteration
computing hessian-vector products by finite difference
   11      3.48e-05     00000 Davidson Converged
converged_eigenvalues
   0.2718
   0.2718
Threshold for negative eigenvalues: -1.0e-05
solution was a local minimum (stable)
===================================================
End Test for Internal Stability
===================================================
Timing for Internal Stability: 3435.00s (wall), 27166.69s (cpu)
Our SCF solution is stable!
Timing for Total SCF: 4299.00s (wall), 34006.80s (cpu)
 Total energy in the final basis set =     -801.4595792671
<S^2> =          2.007242590
    ==================================================
              The end of Object-Oriented SCFman       
    ==================================================

 --------------------------------------------------------------

                    Orbital Energies (a.u.)
 --------------------------------------------------------------

 Alpha MOs
 -- Occupied --
******** -77.0463  -9.4829  -7.2351  -7.2310  -7.2310  -6.5994  -4.7551
 -4.7551  -4.7527  -0.8678  -0.6013  -0.3948  -0.3817  -0.3817  -0.2389
 -0.2389
 -- Virtual --
 -0.0437  -0.0036   0.0164   0.0164   0.0251   0.0387   0.0494   0.0494
  0.0661   0.0661   0.0878   0.0955   0.0955   0.1014   0.1075   0.1075
  0.1168   0.1495   0.1570   0.1570   0.1685   0.1685   0.1948   0.1948
  0.1964   0.1964   0.1987   0.1987   0.2237   0.2266   0.2266   0.2452
  0.2610   0.2610   0.2807   0.3105   0.3117   0.3117   0.3379   0.3379
  0.3525   0.3525   0.3554   0.3554   0.3803   0.3803   0.3912   0.4138
  0.4138   0.4300   0.4314   0.4314   0.4365   0.4365   0.4569   0.4569
  0.4630   0.4630   0.4982   0.5228   0.5228   0.5391   0.5391   0.5404
  0.5477   0.5477   0.5486   0.5486   0.5539   0.5779   0.5779   0.6095
  0.6095   0.6113   0.6363   0.6363   0.6709   0.6709   0.6788   0.6788
  0.7087   0.7087   0.7259   0.7879   0.7879   0.8180   0.8180   0.8324
  0.8447   0.8447   0.8488   0.8488   0.8819   0.8819   0.9038   0.9129
  0.9129   0.9135   0.9135   0.9478   0.9478   0.9605   0.9789   0.9789
  0.9829   1.0409   1.0751   1.0751   1.1622   1.1622   1.1641   1.1641
  1.2554   1.2554   1.3349   1.3349   1.3665   1.3665   1.4065   1.4314
  1.5294   1.5294   1.6284   1.6919   1.6919   1.8209   1.8244   1.8244
  1.9187   2.0547   2.0547   2.1343   2.1343   2.1759   2.1759   2.2326
  2.2326   2.2350   2.2350   2.2376   2.3104   2.3104   2.3361   2.3361
  2.6108   2.6423   2.6423   2.6702   2.8665   2.8665   2.9121   2.9121
  2.9413   2.9413   3.0423   3.0496   3.0496   3.1104   3.1151   3.1151
  3.1697   3.1697   3.1984   3.1984   3.2529   3.5675   3.5675   3.5821
  3.5821   3.7123   3.7123   4.0501   4.1639   4.1706   4.1706   4.6873
  4.7360   4.7360   4.7381   4.7381   4.7393   4.7393   4.7707   4.7707
  4.8499   4.8499   4.9479   5.0881   5.0881   5.3655   5.3837   5.3837
  5.5864   5.5864   5.7403   5.7404   5.7433   5.7433   5.8164   5.8164
  5.8189   5.8189   5.9365   6.0083   6.0083   6.1938   6.1938   6.5371
  6.6003   6.6003   6.9072   7.3189   7.3189   7.3655   7.3655   7.5051
  7.5051   7.8978   7.8978   8.0170   9.1858   9.1858   9.2000   9.2000
  9.3886   9.3887   9.7027   9.7027   9.7887  10.3818  10.3818  10.4755
 10.4755  10.6534  10.6534  11.1932  12.9717  12.9717  13.0104  13.0104
 13.1457  13.1457  13.2895  16.1866  16.1866  16.2822  16.2822  16.7006
 17.7379  17.7379  17.8938  17.8938  18.3446  21.9314  38.8539  59.1189
 59.1189  59.1806  59.1806  59.4221  66.1276  66.1276  66.2212  66.2212
 66.4889

 Beta MOs
 -- Occupied --
******** -77.0382  -9.4813  -7.2344  -7.2275  -7.2275  -6.5920  -4.7476
 -4.7390  -4.7390  -0.8554  -0.5432  -0.3657  -0.3605  -0.3605
 -- Virtual --
 -0.1195  -0.1195  -0.0242   0.0098   0.0325   0.0325   0.0371   0.0451
  0.0584   0.0584   0.0857   0.0857   0.0979   0.1122   0.1146   0.1146
  0.1227   0.1234   0.1234   0.1607   0.1729   0.1729   0.1767   0.1767
  0.2181   0.2181   0.2203   0.2203   0.2225   0.2225   0.2383   0.2443
  0.2443   0.2516   0.2840   0.2840   0.2936   0.3211   0.3211   0.3227
  0.3501   0.3501   0.3620   0.3620   0.3778   0.3778   0.3977   0.3977
  0.4012   0.4256   0.4256   0.4357   0.4438   0.4438   0.4571   0.4571
  0.4765   0.4765   0.4828   0.4828   0.5065   0.5375   0.5375   0.5483
  0.5496   0.5496   0.5520   0.5520   0.5690   0.5705   0.5705   0.5851
  0.5851   0.6188   0.6216   0.6216   0.6470   0.6470   0.6817   0.6817
  0.6939   0.6939   0.7260   0.7260   0.7397   0.7982   0.7982   0.8356
  0.8356   0.8432   0.8520   0.8520   0.8591   0.8591   0.8936   0.8936
  0.9083   0.9156   0.9156   0.9192   0.9192   0.9542   0.9542   0.9753
  0.9932   0.9932   1.0017   1.0467   1.0871   1.0871   1.1931   1.1931
  1.2152   1.2152   1.2706   1.2706   1.3414   1.3414   1.3871   1.3871
  1.4132   1.4507   1.5571   1.5571   1.6432   1.7005   1.7005   1.8223
  1.8362   1.8362   1.9269   2.1006   2.1006   2.1706   2.1706   2.1940
  2.1940   2.2688   2.2928   2.2928   2.3157   2.3157   2.3223   2.3223
  2.3635   2.3635   2.6327   2.6526   2.6526   2.7004   2.9192   2.9192
  2.9204   2.9204   2.9677   2.9677   3.0609   3.0920   3.0920   3.1221
  3.1502   3.1502   3.2050   3.2050   3.2164   3.2164   3.2702   3.5782
  3.5782   3.6006   3.6006   3.7224   3.7224   4.0554   4.1718   4.1799
  4.1799   4.7112   4.7792   4.7792   4.7891   4.7891   4.8115   4.8115
  4.8288   4.8288   4.8829   4.8829   4.9527   5.1075   5.1075   5.3718
  5.4082   5.4082   5.6105   5.6105   5.7478   5.7478   5.7534   5.7534
  5.8210   5.8210   5.8284   5.8284   5.9629   6.0127   6.0127   6.2081
  6.2081   6.5504   6.6144   6.6144   6.9158   7.3973   7.3973   7.4232
  7.4232   7.5509   7.5509   7.9337   7.9337   8.0428   9.1999   9.1999
  9.2099   9.2099   9.3964   9.3964   9.7085   9.7085   9.7926  10.3835
 10.3835  10.4745  10.4745  10.6512  10.6512  11.1927  12.9758  12.9758
 13.0130  13.0130  13.1475  13.1475  13.2909  16.2012  16.2012  16.2892
 16.2892  16.7067  17.7460  17.7460  17.8981  17.8981  18.3485  21.9514
 38.8563  59.1415  59.1415  59.1943  59.1943  59.4330  66.1327  66.1327
 66.2239  66.2239  66.4909
 --------------------------------------------------------------

          Ground-State Mulliken Net Atomic Charges

     Atom                 Charge (a.u.)    Spin (a.u.)
  --------------------------------------------------------
      1 P                    -0.085473       1.716296
      2 Cl                    0.085473       0.283704
  --------------------------------------------------------
  Sum of atomic charges =     0.000000
  Sum of spin   charges =     2.000000

 -----------------------------------------------------------------
                    Cartesian Multipole Moments
 -----------------------------------------------------------------
    Charge (ESU x 10^10)
                 0.0000
    Dipole Moment (Debye)
         X       0.0000      Y       0.0000      Z      -0.4384
       Tot       0.4384
    Quadrupole Moments (Debye-Ang)
        XX     -25.8290     XY       0.0000     YY     -25.8290
        XZ       0.0000     YZ       0.0000     ZZ     -25.3892
    Octopole Moments (Debye-Ang^2)
       XXX       0.0000    XXY       0.0000    XYY       0.0000
       YYY       0.0000    XXZ     -25.0713    XYZ      -0.0000
       YYZ     -25.0713    XZZ       0.0000    YZZ       0.0000
       ZZZ     -73.6754
    Hexadecapole Moments (Debye-Ang^3)
      XXXX     -35.5984   XXXY       0.0000   XXYY     -11.8661
      XYYY       0.0000   YYYY     -35.5984   XXXZ      -0.0000
      XXYZ       0.0000   XYYZ       0.0000   YYYZ       0.0000
      XXZZ     -62.8147   XYZZ      -0.0000   YYZZ     -62.8147
      XZZZ       0.0000   YZZZ       0.0000   ZZZZ    -321.2375
 -----------------------------------------------------------------
Archival summary:
1\1\n0088.mhg0\SP\ProcedureUnspecified\BasisUnspecified\l11(3)\yhljason\WedNov1106:10:132020WedNov1106:10:132020\0\\#,ProcedureUnspecified,BasisUnspecified,\\0,3\P\Cl,1,2.0176\\\@

 Total job time:  4429.44s(wall), 35029.55s(cpu) 
 Wed Nov 11 06:10:13 2020

        *************************************************************
        *                                                           *
        *  Thank you very much for using Q-Chem.  Have a nice day.  *
        *                                                           *
        *************************************************************


