                  Welcome to Q-Chem
     A Quantum Leap Into The Future Of Chemistry


 Q-Chem 5.3 (devel), Q-Chem, Inc., Pleasanton, CA (2020)

 Yihan Shao,  Zhengting Gan,  E. Epifanovsky,  A. T. B. Gilbert,  M. Wormit,  
 J. Kussmann,  A. W. Lange,  A. Behn,  Jia Deng,  Xintian Feng,  D. Ghosh,  
 M. Goldey,  P. R. Horn,  L. D. Jacobson,  I. Kaliman,  T. Kus,  A. Landau,  
 Jie Liu,  E. I. Proynov,  R. M. Richard,  R. P. Steele,  E. J. Sundstrom,  
 H. L. Woodcock III,  P. M. Zimmerman,  D. Zuev,  B. Alam,  B. Albrecht,  
 E. Alguire,  S. A. Baeppler,  D. Barton,  Z. Benda,  Y. A. Bernard,  
 E. J. Berquist,  K. B. Bravaya,  H. Burton,  K. Carter-Fenk,  D. Casanova,  
 Chun-Min Chang,  Yunqing Chen,  A. Chien,  K. D. Closser,  M. P. Coons,  
 S. Coriani,  S. Dasgupta,  A. L. Dempwolff,  M. Diedenhofen,  Hainam Do,  
 R. G. Edgar,  Po-Tung Fang,  S. Faraji,  S. Fatehi,  Qingguo Feng,  
 J. Fosso-Tande,  J. Gayvert,  Qinghui Ge,  A. Ghysels,  G. Gidofalvi,  
 J. Gomes,  J. Gonthier,  A. Gunina,  D. Hait,  M. W. D. Hanson-Heine,  
 P. H. P. Harbach,  A. W. Hauser,  M. F. Herbst,  J. E. Herr,  
 E. G. Hohenstein,  Z. C. Holden,  Kerwin Hui,  B. C. Huynh,  T.-C. Jagau,  
 Hyunjun Ji,  B. Kaduk,  K. Khistyaev,  Jaehoon Kim,  P. Klunzinger,  K. Koh,  
 D. Kosenkov,  L. Koulias,  T. Kowalczyk,  C. M. Krauter,  A. Kunitsa,  
 Ka Un Lao,  A. Laurent,  K. V. Lawler,  Joonho Lee,  D. Lefrancois,  
 S. Lehtola,  D. S. Levine,  Yi-Pei Li,  You-Sheng Lin,  Fenglai Liu,  
 Kuan-Yu Liu,  E. Livshits,  M. Loipersberger,  A. Luenser,  P. Manohar,  
 E. Mansoor,  S. F. Manzer,  Shan-Ping Mao,  Yuezhi Mao,  N. Mardirossian,  
 A. V. Marenich,  T. Markovich,  L. A. Martinez-Martinez,  S. A. Maurer,  
 N. J. Mayhall,  S. C. McKenzie,  J.-M. Mewes,  P. Morgante,  A. F. Morrison,  
 J. W. Mullinax,  K. Nanda,  T. S. Nguyen-Beck,  R. Olivares-Amaya,  
 K. J. Oosterbaan,  J. A. Parkhill,  S. K. Paul,  F. Pavosevic,  Zheng Pei,  
 T. M. Perrine,  F. Plasser,  P. Pokhilko,  S. Prager,  A. Prociuk,  
 E. Ramos,  B. Rana,  D. R. Rehn,  F. Rob,  M. Scheurer,  M. Schneider,  
 N. Sergueev,  S. M. Sharada,  S. Sharma,  D. W. Small,  T. Stauch,  
 C. J. Stein,  T. Stein,  Yu-Chuan Su,  S. P. Veccham,  Zhen Tao,  
 A. J. W. Thom,  A. Tkatchenko,  T. Tsuchimochi,  N. M. Tubman,  L. Vogt,  
 M. L. Vidal,  O. Vydrov,  M. A. Watson,  J. Wenzel,  M. de Wergifosse,  
 T. A. Wesolowski,  A. White,  J. Witte,  A. Yamada,  Jun Yang,  K. Yao,  
 S. Yeganeh,  S. R. Yost,  Zhi-Qiang You,  A. Zech,  Igor Ying Zhang,  
 Xing Zhang,  Yan Zhao,  Ying Zhu,  B. R. Brooks,  G. K. L. Chan,  
 C. J. Cramer,  M. S. Gordon,  W. J. Hehre,  A. Klamt,  M. W. Schmidt,  
 C. D. Sherrill,  D. G. Truhlar,  A. Aspuru-Guzik,  R. Baer,  A. T. Bell,  
 N. A. Besley,  Jeng-Da Chai,  A. E. DePrince, III,  R. A. DiStasio Jr.,  
 A. Dreuw,  B. D. Dunietz,  T. R. Furlani,  Chao-Ping Hsu,  Yousung Jung,  
 Jing Kong,  D. S. Lambrecht,  WanZhen Liang,  C. Ochsenfeld,  
 V. A. Rassolov,  L. V. Slipchenko,  J. E. Subotnik,  T. Van Voorhis,  
 J. M. Herbert,  A. I. Krylov,  P. M. W. Gill,  M. Head-Gordon

 Contributors to earlier versions of Q-Chem not listed above: 
 R. D. Adamson,  B. Austin,  J. Baker,  G. J. O. Beran,  K. Brandhorst,  
 S. T. Brown,  E. F. C. Byrd,  A. K. Chakraborty,  C.-L. Cheng,  
 Siu Hung Chien,  D. M. Chipman,  D. L. Crittenden,  H. Dachsel,  
 R. J. Doerksen,  A. D. Dutoi,  L. Fusti-Molnar,  W. A. Goddard III,  
 A. Golubeva-Zadorozhnaya,  S. R. Gwaltney,  G. Hawkins,  A. Heyden,  
 S. Hirata,  G. Kedziora,  F. J. Keil,  C. Kelley,  Jihan Kim,  R. A. King,  
 R. Z. Khaliullin,  P. P. Korambath,  W. Kurlancheek,  A. M. Lee,  M. S. Lee,  
 S. V. Levchenko,  Ching Yeh Lin,  D. Liotard,  R. C. Lochan,  I. Lotan,  
 P. E. Maslen,  N. Nair,  D. P. O'Neill,  D. Neuhauser,  E. Neuscamman,  
 C. M. Oana,  R. Olson,  B. Peters,  R. Peverati,  P. A. Pieniazek,  
 Y. M. Rhee,  J. Ritchie,  M. A. Rohrdanz,  E. Rosta,  N. J. Russ,  
 H. F. Schaefer III,  N. E. Schultz,  N. Shenvi,  A. C. Simmonett,  A. Sodt,  
 D. Stuck,  K. S. Thanthiriwatte,  V. Vanovschi,  Tao Wang,  A. Warshel,  
 C. F. Williams,  Q. Wu,  X. Xu,  W. Zhang

 Please cite Q-Chem as follows:
 Y. Shao et al., Mol. Phys. 113, 184-215 (2015)
 DOI: 10.1080/00268976.2014.952696

 Q-Chem 5.3.0 for Intel X86 EM64T Linux

 Parts of Q-Chem use Armadillo 9.800.1 (Horizon Scraper).
 http://arma.sourceforge.net/

 Q-Chem begins on Mon Aug 24 13:13:54 2020  

n0044.mhg0
Host: 0

     Scratch files written to /local/scratch/users/yhljason/C2H_HFLYP_aug-pc-4.inp20200824001516//
Processing $rem in /clusterfs/mhg/diptarka/qchem_transmom//config/preferences:
Processing $rem in /global/home/users/yhljason/.qchemrc:

Checking the input file for inconsistencies... 	...done.

--------------------------------------------------------------
User input:
--------------------------------------------------------------
$molecule
0 2
C1	0.0000	0.0000	0.0000
C2	0.0000	0.0000	-1.2165
H3	0.0000	0.0000	1.0465
$end

$rem
jobtype sp
method HFLYP
xc_grid 000099000590
basis aug-pc-4
max_scf_cycles 200
thresh 14
scf_convergence 8
scf_algorithm gdm
symmetry false
sym_ignore true
unrestricted true
gen_scfman true
internal_stability_iter 15
internal_stability_davidson_iter 200
mem_total 64000
mem_static 1500
n_frozen_core 0
$end


--------------------------------------------------------------
 ----------------------------------------------------------------
             Standard Nuclear Orientation (Angstroms)
    I     Atom           X                Y                Z
 ----------------------------------------------------------------
    1      C       0.0000000000     0.0000000000     0.0000000000
    2      C       0.0000000000     0.0000000000    -1.2165000000
    3      H       0.0000000000     0.0000000000     1.0465000000
 ----------------------------------------------------------------
 Nuclear Repulsion Energy =          20.09700731 hartrees
 There are        7 alpha and        6 beta electrons
 Requested basis set is aug-pc-4
 There are 90 shells and 378 basis functions

 Total QAlloc Memory Limit  64000 MB
 Mega-Array Size      1467 MB
 MEM_STATIC part      1500 MB

                       Distance Matrix (Angstroms)
             C (  1)   C (  2)
   C (  2)  1.216500
   H (  3)  1.046500  2.263000

 A cutoff of  1.0D-14 yielded   4071 shell pairs
 There are     72439 function pairs (    136168 Cartesian)
 Smallest overlap matrix eigenvalue = 3.65E-07
 Linear dependence detected in AO basis
 Tighter screening thresholds may be required for diffuse basis sets
 Use S2THRESH > 14 and THRESH = 14 in case of SCF convergence issues
 Number of orthogonalized atomic orbitals = 376
 Maximum deviation from orthogonality = 7.782E-11

 Scale SEOQF with 1.000000e-01/1.000000e-01/1.000000e-01

 Standard Electronic Orientation quadrupole field applied
 Nucleus-field energy     =    -0.0000000011 hartrees
 Guess from superposition of atomic densities
 Warning:  Energy on first SCF cycle will be non-variational
 SAD guess density has 13.000000 electrons

 -----------------------------------------------------------------------
  General SCF calculation program by
  Eric Jon Sundstrom, Paul Horn, Yuezhi Mao, Dmitri Zuev, Alec White,
  David Stuck, Shaama M.S., Shane Yost, Joonho Lee, David Small,
  Daniel Levine, Susi Lehtola, Hugh Burton, Evgeny Epifanovsky,
  Bang C. Huynh
 -----------------------------------------------------------------------
 Exchange:     1.0000 Hartree-Fock
 Correlation:  1.0000 LYP
 Using Euler-Maclaurin-Lebedev (99,590) quadrature formula
Running Object-Oriented UKS (UHF)
performing a single roothaan step with Fock from read density so that orbitals are available to all algorithms
energy of the guess density (C=0) -76.808371640102
We will preform up to 15 macro iterations over saddle points until a stable solution is found
Energy prior to optimization (guess energy) = -76.528846687363
Begin Timing: Total SCF Calculation
Begin Timing: SCF Single Stationary Point Calculation
begin iterations for algorithm: GDM          
the SCF tolerance is set to 1.00e-08
    1     -76.5288466874      9.35e-02     00000  Normal BFGS step
    2     -76.5628614378      6.98e-02     00000  Normal BFGS step
    3     -76.5713918616      1.48e-02     00000  Normal BFGS step
    4     -76.5733025234      9.34e-03     00000  Normal BFGS step
    5     -76.5744680161      7.86e-03     00000  Normal BFGS step
    6     -76.5752780729      6.87e-03     00000  Normal BFGS step
    7     -76.5759171603      6.72e-03     00000  Normal BFGS step
    8     -76.5761680103      3.60e-03     00000  Normal BFGS step
    9     -76.5762220808      5.11e-04     00000  Normal BFGS step
   10     -76.5762252037      1.68e-04     00000  Normal BFGS step
   11     -76.5762255004      6.01e-05     00000  Normal BFGS step
   12     -76.5762255384      2.05e-05     00000  Normal BFGS step
   13     -76.5762255438      6.04e-06     00000  Normal BFGS step
   14     -76.5762255443      1.89e-06     00000  Normal BFGS step
   15     -76.5762255443      3.80e-07     00000  Normal BFGS step
   16     -76.5762255443      1.13e-07     00000  Normal BFGS step
   17     -76.5762255443      2.77e-08     00000  Normal BFGS step
   18     -76.5762255443      7.47e-09     00000 Convergence criterion met
Timing for Single Stationary Point: 1714.00s (wall), 13462.09s (cpu)
Begin Timing: Stability
===================================================
Beginning Test for Internal Stability
===================================================
generating davidson guess vectors based on koopmans excitations
 Warning: Hessian-vector products not implemented
 Finite difference Hessian-vector products will be used.
computing hessian-vector products by finite difference
    1      4.73e-01     00000 Davidson Iteration
computing hessian-vector products by finite difference
    2      2.45e-01     00000 Davidson Iteration
computing hessian-vector products by finite difference
    3      5.20e-02     00000 Davidson Iteration
computing hessian-vector products by finite difference
    4      1.04e-02     00000 Davidson Iteration
computing hessian-vector products by finite difference
    5      3.58e-03     00000 Davidson Iteration
computing hessian-vector products by finite difference
    6      1.09e-03     00000 Davidson Iteration
computing hessian-vector products by finite difference
    7      2.69e-04     00000 Davidson Iteration
computing hessian-vector products by finite difference
    8      9.82e-05     00000 Davidson Iteration
computing hessian-vector products by finite difference
    9      7.27e-05     00000 Davidson Converged
converged_eigenvalues
   0.1099
   0.1099
Threshold for negative eigenvalues: -1.0e-05
solution was a local minimum (stable)
===================================================
End Test for Internal Stability
===================================================
Timing for Internal Stability: 4266.00s (wall), 33482.96s (cpu)
Our SCF solution is stable!
Timing for Total SCF: 5980.00s (wall), 46945.17s (cpu)
 Total energy in the final basis set =      -76.5762255443
<S^2> =          0.876610446
    ==================================================
              The end of Object-Oriented SCFman       
    ==================================================

 --------------------------------------------------------------

                    Orbital Energies (a.u.)
 --------------------------------------------------------------

 Alpha MOs
 -- Occupied --
-11.3397 -11.2875  -1.0855  -0.7866  -0.6252  -0.4674  -0.4674
 -- Virtual --
  0.0161   0.0232   0.0313   0.0313   0.0430   0.0430   0.0434   0.0740
  0.0772   0.0969   0.0969   0.1110   0.1110   0.1136   0.1140   0.1140
  0.1361   0.1419   0.1419   0.1460   0.1460   0.1672   0.1672   0.1751
  0.1843   0.1934   0.2178   0.2178   0.2208   0.2208   0.2429   0.2572
  0.2572   0.2663   0.2663   0.2736   0.2736   0.2852   0.2852   0.2996
  0.3148   0.3148   0.3179   0.3195   0.3195   0.3404   0.3404   0.3420
  0.3420   0.3532   0.3702   0.3702   0.3869   0.3941   0.3941   0.4037
  0.4137   0.4137   0.4285   0.4285   0.4613   0.4710   0.4710   0.4880
  0.5092   0.5092   0.5242   0.5242   0.5269   0.5269   0.5513   0.5513
  0.5579   0.5583   0.5583   0.5891   0.5894   0.5894   0.5944   0.5944
  0.6082   0.6082   0.6173   0.6173   0.6408   0.6480   0.6480   0.6616
  0.6616   0.6673   0.6673   0.6795   0.6795   0.6917   0.6917   0.7125
  0.7125   0.7219   0.7340   0.7602   0.7712   0.7712   0.7817   0.7817
  0.7968   0.7968   0.8010   0.8010   0.8278   0.8278   0.8532   0.8532
  0.8564   0.8564   0.8586   0.8868   0.8868   0.8907   0.9181   0.9181
  0.9396   0.9396   0.9450   0.9450   0.9739   0.9879   0.9922   0.9922
  1.1135   1.1135   1.1413   1.1508   1.1871   1.1871   1.2793   1.2793
  1.3191   1.3610   1.3753   1.3753   1.4195   1.4195   1.4438   1.4438
  1.5272   1.5272   1.5525   1.6082   1.7120   1.7120   1.7446   1.7446
  1.7473   1.8901   1.8901   1.9595   1.9595   2.0208   2.0780   2.0780
  2.2144   2.2144   2.2463   2.3291   2.3291   2.3295   2.3906   2.3906
  2.4319   2.4319   2.5034   2.5319   2.5319   2.5756   2.7864   2.8835
  2.8835   2.9152   2.9152   2.9508   3.0583   3.0583   3.3267   3.3280
  3.3280   3.6977   3.6977   3.7448   3.7698   3.7698   3.8670   3.8670
  3.9875   4.2290   4.2290   4.2426   4.2426   4.2684   4.2684   4.2728
  4.3020   4.3020   4.4863   4.4863   4.5102   4.5102   4.5464   4.6016
  4.6016   4.6171   4.6171   4.6874   4.6874   4.8027   4.9192   4.9192
  4.9468   4.9468   5.0830   5.1136   5.1136   5.2076   5.2076   5.3236
  5.3236   5.4122   5.4712   5.4712   5.5969   5.5969   5.6964   5.7771
  5.8442   5.8442   6.5365   6.5770   6.5770   6.6702   6.6702   6.7200
  6.9985   6.9985   7.0784   7.1091   7.1091   7.6441   7.6522   7.6522
  8.0769   8.2017   8.2017   8.5406   9.1937   9.1937   9.2715   9.2715
  9.7829  10.0187  10.4118  10.4118  10.5058  10.5058  10.6003  10.6003
 10.6407  10.6407  10.7188  10.7188  10.7729  10.7729  10.8324  10.8324
 11.1426  11.1426  11.1846  11.1846  11.2059  11.3171  11.3171  11.4725
 11.6096  11.6096  11.7417  11.7417  11.8405  11.9326  11.9326  12.0779
 12.0779  12.1155  12.1155  12.1480  12.1480  12.1725  12.1725  12.2370
 12.2370  12.2738  12.2738  12.3310  12.3310  12.3827  12.3827  12.5332
 12.5346  12.5346  12.7235  12.7235  12.7905  13.1313  13.1313  13.1766
 13.1766  13.2548  13.2548  13.4210  13.6406  13.6406  13.6611  14.0276
 14.0276  14.4932  14.5406  14.5406  15.5683  15.5683  15.6379  16.6153
 16.6153  16.7983  17.1441  17.1441  17.1618  17.3079  17.3079  17.6772
 17.6772  18.2954  18.7813  19.0343  19.0343  19.5846  19.5846  20.1680
 20.1680  21.0670  21.8896  21.8896  22.0003  24.4097  24.4097  24.6853
 26.7779  32.8495  32.8495  32.9323  32.9323  33.1085  33.1085  34.2459
 34.2459  34.3826  36.4091  42.0023  76.4959  78.9331  91.9961  91.9961
 93.3708

 Beta MOs
 -- Occupied --
-11.2982 -11.2918  -1.0462  -0.7678  -0.4492  -0.4492
 -- Virtual --
 -0.0542   0.0183   0.0246   0.0318   0.0318   0.0430   0.0430   0.0432
  0.0759   0.0834   0.1064   0.1064   0.1113   0.1113   0.1119   0.1119
  0.1148   0.1347   0.1419   0.1419   0.1459   0.1459   0.1790   0.1807
  0.1807   0.1874   0.1937   0.2180   0.2180   0.2193   0.2193   0.2481
  0.2568   0.2568   0.2681   0.2681   0.2743   0.2743   0.2852   0.2852
  0.2973   0.3116   0.3116   0.3184   0.3286   0.3286   0.3391   0.3391
  0.3417   0.3417   0.3572   0.3699   0.3699   0.3894   0.3940   0.3940
  0.4060   0.4131   0.4131   0.4300   0.4300   0.4674   0.4674   0.4685
  0.4876   0.5067   0.5067   0.5228   0.5228   0.5271   0.5271   0.5515
  0.5515   0.5581   0.5581   0.5593   0.5862   0.5866   0.5866   0.5913
  0.5913   0.6175   0.6175   0.6180   0.6180   0.6459   0.6459   0.6496
  0.6608   0.6608   0.6638   0.6638   0.6813   0.6813   0.6918   0.6918
  0.7124   0.7124   0.7218   0.7475   0.7561   0.7686   0.7686   0.7752
  0.7752   0.7937   0.7937   0.8015   0.8015   0.8270   0.8270   0.8497
  0.8497   0.8552   0.8552   0.8648   0.8865   0.8865   0.8915   0.9138
  0.9138   0.9410   0.9410   0.9458   0.9458   0.9750   0.9852   0.9882
  0.9882   1.1132   1.1132   1.1541   1.1616   1.1942   1.1942   1.2828
  1.2828   1.3225   1.3724   1.3751   1.3751   1.4193   1.4193   1.4375
  1.4375   1.5346   1.5346   1.5524   1.6119   1.7110   1.7110   1.7457
  1.7457   1.7502   1.8889   1.8889   1.9559   1.9559   2.0255   2.0735
  2.0735   2.2243   2.2243   2.2419   2.3324   2.3324   2.3356   2.3854
  2.3854   2.4289   2.4289   2.5068   2.5346   2.5346   2.5780   2.7926
  2.8819   2.8819   2.9117   2.9117   2.9511   3.0612   3.0612   3.3287
  3.3287   3.3303   3.6966   3.6966   3.7471   3.7688   3.7688   3.8691
  3.8691   3.9872   4.2277   4.2277   4.2426   4.2426   4.2706   4.2706
  4.2728   4.3045   4.3045   4.4858   4.4858   4.5077   4.5077   4.5476
  4.6002   4.6002   4.6149   4.6149   4.6917   4.6917   4.8082   4.9134
  4.9134   4.9384   4.9384   5.0834   5.1163   5.1163   5.2058   5.2058
  5.3133   5.3133   5.4006   5.4672   5.4672   5.5953   5.5953   5.6970
  5.7731   5.8383   5.8383   6.5381   6.5722   6.5722   6.6711   6.6711
  6.7180   6.9957   6.9957   7.0748   7.1058   7.1058   7.6424   7.6496
  7.6496   8.0772   8.1968   8.1968   8.5396   9.1947   9.1947   9.2727
  9.2727   9.7827  10.0175  10.4129  10.4129  10.5022  10.5022  10.5991
 10.5991  10.6369  10.6369  10.7148  10.7148  10.7709  10.7709  10.8269
 10.8269  11.1384  11.1384  11.1823  11.1823  11.2069  11.3151  11.3151
 11.4664  11.6040  11.6040  11.7369  11.7369  11.8355  11.9281  11.9281
 12.0784  12.0784  12.1069  12.1069  12.1438  12.1438  12.1705  12.1705
 12.2163  12.2163  12.2680  12.2680  12.3279  12.3279  12.3790  12.3790
 12.5196  12.5249  12.5249  12.7219  12.7219  12.7793  13.1158  13.1158
 13.1704  13.1704  13.2322  13.2322  13.4183  13.6388  13.6388  13.6495
 14.0260  14.0260  14.4800  14.5263  14.5263  15.5635  15.5635  15.6388
 16.6120  16.6120  16.7969  17.1438  17.1438  17.1628  17.3065  17.3065
 17.6770  17.6770  18.2948  18.7816  19.0360  19.0360  19.5844  19.5844
 20.1664  20.1664  21.0672  21.8893  21.8893  21.9994  24.4114  24.4114
 24.6850  26.7796  32.8492  32.8492  32.9315  32.9315  33.1080  33.1080
 34.2454  34.2454  34.3827  36.4092  42.0085  76.5026  78.9352  92.0000
 92.0000  93.3747
 --------------------------------------------------------------

          Ground-State Mulliken Net Atomic Charges

     Atom                 Charge (a.u.)    Spin (a.u.)
  --------------------------------------------------------
      1 C                    -0.364919      -0.491584
      2 C                     0.347960       1.491459
      3 H                     0.016959       0.000125
  --------------------------------------------------------
  Sum of atomic charges =     0.000000
  Sum of spin   charges =     1.000000

 -----------------------------------------------------------------
                    Cartesian Multipole Moments
 -----------------------------------------------------------------
    Charge (ESU x 10^10)
                -0.0000
    Dipole Moment (Debye)
         X       0.0000      Y      -0.0000      Z       0.7716
       Tot       0.7716
    Quadrupole Moments (Debye-Ang)
        XX     -12.9459     XY       0.0000     YY     -12.9459
        XZ       0.0000     YZ      -0.0000     ZZ      -8.5760
    Octopole Moments (Debye-Ang^2)
       XXX       0.0000    XXY      -0.0000    XYY       0.0000
       YYY      -0.0000    XXZ       6.7123    XYZ       0.0000
       YYZ       6.7123    XZZ       0.0000    YZZ       0.0000
       ZZZ      16.4289
    Hexadecapole Moments (Debye-Ang^3)
      XXXX     -15.8968   XXXY       0.0000   XXYY      -5.2989
      XYYY       0.0000   YYYY     -15.8968   XXXZ      -0.0000
      XXYZ      -0.0000   XYYZ      -0.0000   YYYZ      -0.0000
      XXZZ     -13.5429   XYZZ       0.0000   YYZZ     -13.5429
      XZZZ      -0.0000   YZZZ      -0.0000   ZZZZ     -55.3380
 -----------------------------------------------------------------
Archival summary:
1\1\n0044.mhg0\SP\ProcedureUnspecified\BasisUnspecified\21(2)\yhljason\MonAug2414:56:562020MonAug2414:56:562020\0\\#,ProcedureUnspecified,BasisUnspecified,\\0,2\C\H,1,1.0465\C,1,1.2165,2,180\\HF=-76.5762255\\@

 Total job time:  6182.30s(wall), 48527.55s(cpu) 
 Mon Aug 24 14:56:56 2020

        *************************************************************
        *                                                           *
        *  Thank you very much for using Q-Chem.  Have a nice day.  *
        *                                                           *
        *************************************************************


