Q-Chem Developer Version!
                  Welcome to Q-Chem
     A Quantum Leap Into The Future Of Chemistry


 Q-Chem 5.1, Q-Chem, Inc., Pleasanton, CA (2018)

 Yihan Shao,  Zhengting Gan,  E. Epifanovsky,  A. T. B. Gilbert,  M. Wormit,  
 J. Kussmann,  A. W. Lange,  A. Behn,  Jia Deng,  Xintian Feng,  D. Ghosh,  
 M. Goldey,  P. R. Horn,  L. D. Jacobson,  I. Kaliman,  T. Kus,  A. Landau,  
 Jie Liu,  E. I. Proynov,  R. M. Richard,  R. P. Steele,  E. J. Sundstrom,  
 H. L. Woodcock III,  P. M. Zimmerman,  D. Zuev,  B. Albrecht,  E. Alguire,  
 S. A. Baeppler,  D. Barton,  Z. Benda,  Y. A. Bernard,  E. J. Berquist,  
 K. B. Bravaya,  H. Burton,  D. Casanova,  Chun-Min Chang,  Yunqing Chen,  
 A. Chien,  K. D. Closser,  M. P. Coons,  S. Coriani,  S. Dasgupta,  
 A. L. Dempwolff,  M. Diedenhofen,  Hainam Do,  R. G. Edgar,  Po-Tung Fang,  
 S. Faraji,  S. Fatehi,  Qingguo Feng,  K. D. Fenk,  J. Fosso-Tande,  
 Qinghui Ge,  A. Ghysels,  G. Gidofalvi,  J. Gomes,  J. Gonthier,  A. Gunina,  
 D. Hait,  M. W. D. Hanson-Heine,  P. H. P. Harbach,  A. W. Hauser,  
 J. E. Herr,  E. G. Hohenstein,  Z. C. Holden,  Kerwin Hui,  B. C. Huynh,  
 T.-C. Jagau,  Hyunjun Ji,  B. Kaduk,  K. Khistyaev,  Jaehoon Kim,  
 P. Klunzinger,  K. Koh,  D. Kosenkov,  L. Koulias,  T. Kowalczyk,  
 C. M. Krauter,  A. Kunitsa,  Ka Un Lao,  A. Laurent,  K. V. Lawler,  
 Joonho Lee,  D. Lefrancois,  S. Lehtola,  D. S. Levine,  Yi-Pei Li,  
 You-Sheng Lin,  Fenglai Liu,  E. Livshits,  A. Luenser,  P. Manohar,  
 E. Mansoor,  S. F. Manzer,  Shan-Ping Mao,  Yuezhi Mao,  N. Mardirossian,  
 A. V. Marenich,  T. Markovich,  L. A. Martinez-Martinez,  S. A. Maurer,  
 N. J. Mayhall,  S. C. McKenzie,  J.-M. Mewes,  A. F. Morrison,  
 J. W. Mullinax,  K. Nanda,  T. S. Nguyen-Beck,  R. Olivares-Amaya,  
 J. A. Parkhill,  T. M. Perrine,  F. Plasser,  P. Pokhilko,  S. Prager,  
 A. Prociuk,  E. Ramos,  D. R. Rehn,  F. Rob,  M. Schneider,  N. Sergueev,  
 S. M. Sharada,  S. Sharma,  D. W. Small,  T. Stauch,  T. Stein,  
 Yu-Chuan Su,  A. J. W. Thom,  A. Tkatchenko,  T. Tsuchimochi,  N. M. Tubman,  
 L. Vogt,  M. L. Vidal,  O. Vydrov,  M. A. Watson,  J. Wenzel,  
 M. de Wergifosse,  T. A. Wesolowski,  A. White,  J. Witte,  A. Yamada,  
 Jun Yang,  K. Yao,  S. Yeganeh,  S. R. Yost,  Zhi-Qiang You,  A. Zech,  
 Igor Ying Zhang,  Xing Zhang,  Yan Zhao,  Ying Zhu,  B. R. Brooks,  
 G. K. L. Chan,  C. J. Cramer,  M. S. Gordon,  W. J. Hehre,  A. Klamt,  
 M. W. Schmidt,  C. D. Sherrill,  D. G. Truhlar,  A. Aspuru-Guzik,  R. Baer,  
 A. T. Bell,  N. A. Besley,  Jeng-Da Chai,  A. E. DePrince, III,  
 R. A. DiStasio Jr.,  A. Dreuw,  B. D. Dunietz,  T. R. Furlani,  
 Chao-Ping Hsu,  Yousung Jung,  Jing Kong,  D. S. Lambrecht,  WanZhen Liang,  
 C. Ochsenfeld,  V. A. Rassolov,  L. V. Slipchenko,  J. E. Subotnik,  
 T. Van Voorhis,  J. M. Herbert,  A. I. Krylov,  P. M. W. Gill,  M. Head-Gordon

 Contributors to earlier versions of Q-Chem not listed above: 
 R. D. Adamson,  B. Austin,  J. Baker,  G. J. O. Beran,  K. Brandhorst,  
 S. T. Brown,  E. F. C. Byrd,  A. K. Chakraborty,  C.-L. Cheng,  
 Siu Hung Chien,  D. M. Chipman,  D. L. Crittenden,  H. Dachsel,  
 R. J. Doerksen,  A. D. Dutoi,  L. Fusti-Molnar,  W. A. Goddard III,  
 A. Golubeva-Zadorozhnaya,  S. R. Gwaltney,  G. Hawkins,  A. Heyden,  
 S. Hirata,  G. Kedziora,  F. J. Keil,  C. Kelley,  Jihan Kim,  R. A. King,  
 R. Z. Khaliullin,  P. P. Korambath,  W. Kurlancheek,  A. M. Lee,  M. S. Lee,  
 S. V. Levchenko,  Ching Yeh Lin,  D. Liotard,  R. C. Lochan,  I. Lotan,  
 P. E. Maslen,  N. Nair,  D. P. O'Neill,  D. Neuhauser,  E. Neuscamman,  
 C. M. Oana,  R. Olson,  B. Peters,  R. Peverati,  P. A. Pieniazek,  
 Y. M. Rhee,  J. Ritchie,  M. A. Rohrdanz,  E. Rosta,  N. J. Russ,  
 H. F. Schaefer III,  N. E. Schultz,  N. Shenvi,  A. C. Simmonett,  A. Sodt,  
 D. Stuck,  K. S. Thanthiriwatte,  V. Vanovschi,  Tao Wang,  A. Warshel,  
 C. F. Williams,  Q. Wu,  X. Xu,  W. Zhang

 Please cite Q-Chem as follows:
 Y. Shao et al., Mol. Phys. 113, 184-215 (2015)
 DOI: 10.1080/00268976.2014.952696

 Q-Chem 5.1.1 for Intel X86 EM64T Linux

 Parts of Q-Chem use Armadillo 8.300.2 (Tropical Shenanigans).
 http://arma.sourceforge.net/

 Q-Chem begins on Tue Aug 25 14:28:17 2020  

Host: n0077.mhg0
0

     Scratch files written to /local/scratch/users/yhljason/SCl2_MGGA_MS2_aug-pc-4.inp20200825134934//
Input Ideriv = 2
Curr. Ideriv = -1
Max.  Ideriv = 2
Input Ideriv = 1
Curr. Ideriv = 2
Max.  Ideriv = 1

Checking the input file for inconsistencies... 	...done.

--------------------------------------------------------------
User input:
--------------------------------------------------------------
$molecule
0 1
S1      0.0000  0.0000  0.8544
Cl2     0.0000  1.5740  -0.4021
Cl3     0.0000  -1.5740 -0.4021
$end

$rem
jobtype sp
method MGGA_MS2
xc_grid 000099000590
basis aug-pc-4
max_scf_cycles 200
thresh 14
scf_convergence 8
scf_algorithm gdm
symmetry false
sym_ignore true
unrestricted true
gen_scfman true
internal_stability_iter 15
internal_stability_davidson_iter 200
mem_total 64000
mem_static 1500
n_frozen_core 0
$end


--------------------------------------------------------------
 ----------------------------------------------------------------
             Standard Nuclear Orientation (Angstroms)
    I     Atom           X                Y                Z
 ----------------------------------------------------------------
    1      S       0.0000000000     0.0000000000     0.8544000000
    2      Cl      0.0000000000     1.5740000000    -0.4021000000
    3      Cl      0.0000000000    -1.5740000000    -0.4021000000
 ----------------------------------------------------------------
 Nuclear Repulsion Energy =   191.5151328936 hartrees
 There are       25 alpha and       25 beta electrons
 Requested basis set is aug-pc-4
 There are 93 shells and 423 basis functions

 Total QAlloc Memory Limit  64000 MB
 Mega-Array Size      1467 MB
 MEM_STATIC part      1500 MB

                       Distance Matrix (Angstroms)
             S (  1)   Cl(  2)
   Cl(  2)  2.014018
   Cl(  3)  2.014018  3.148000
 
 A cutoff of  1.0D-14 yielded   4245 shell pairs
 There are     89029 function pairs (    176878 Cartesian)
 
 -------------------------------------------------------
 OpenMP Integral Computing Module                       
 Release: version 1.0, May 2013, Q-Chem Inc. Pittsburgh 
 -------------------------------------------------------
 Integral Job Info:
 Integral job number is                      11
 Integral operator is                         1
 short-range coefficients                     0
 long-range coefficients              100000000
 Omega coefficients                           0
 if combine SR and LR in K                    0
 Integral screening is                        0
 Integral computing path is                   2
 max size of driver memory is           6400000
 size of driver memory is               5498286
 size of scratch memory is             27847117
 max col of scratch BK array             194481
 max len of scratch array in speh3         5572
 max len of scratch index in speh4           72
 max int batch size is                      520
 min int batch size is                       52
 fixed nKL is                                 7
 max L of basis functions is                  5
 order of int derivative is                   0
 number of shells is                         93
 number of basis is                         594
 number of cartesian basis is               594
 number of contracted shell pairs          4245
 number of primitive shell pairs          23182
 maxK2 (contraction) of shell pair          225
 max number of K2 of shell pair               1
 max number of CS2 of shell pair            323
 max number of PS2 of shell pair           1584
 mem total for path MDJ                 1253768
 -------------------------------------------------------
 Smallest overlap matrix eigenvalue = 7.67E-06

 Scale SEOQF with 1.000000e-01/1.000000e-01/1.000000e-01

 Standard Electronic Orientation quadrupole field applied
 Nucleus-field energy     =     0.0000000042 hartrees
 Guess from superposition of atomic densities
 Warning:  Energy on first SCF cycle will be non-variational
 SAD guess density has 50.000000 electrons

 -----------------------------------------------------------------------
  General SCF calculation program by
  Eric Jon Sundstrom, Paul Horn, Yuezhi Mao, Dmitri Zuev, Alec White,
  David Stuck, Shaama M.S., Shane Yost, Joonho Lee, David Small,
  Daniel Levine, Susi Lehtola, Hugh Burton, Evgeny Epifanovsky
 -----------------------------------------------------------------------
 Exchange:  MGGA_MS2      Correlation:  regTPSS
 Using Euler-Maclaurin-Lebedev (99,590) quadrature formula
Running Object-Oriented UKS (UHF)
performing a single roothaan step with Fock from read density so that orbitals are available to all algorithms
energy of the guess density (C=0) -1318.955553927021
We will preform up to 15 macro iterations over saddle points until a stable solution is found
Energy prior to optimization (guess energy) = -1318.644117337746
Begin Timing: Total SCF Calculation
Begin Timing: SCF Single Stationary Point Calculation
begin iterations for algorithm: GDM          
the SCF tolerance is set to 1.00e-08
    1   -1318.6441173377      6.66e-02     00000  Normal BFGS step
    2   -1318.6273393467      1.43e-01     00000 Line search: overstep
    3   -1318.6524432954      1.50e-02     00000  Normal BFGS step
    4   -1318.6539548660      5.33e-03     00000  Normal BFGS step
    5   -1318.6542160082      1.51e-03     00000  Normal BFGS step
    6   -1318.6542361029      7.41e-04     00000  Normal BFGS step
    7   -1318.6542396028      2.57e-04     00000  Normal BFGS step
    8   -1318.6542399047      1.07e-04     00000  Normal BFGS step
    9   -1318.6542399581      2.23e-05     00000  Normal BFGS step
   10   -1318.6542399581      1.45e-05     00000  Normal BFGS step
   11   -1318.6542399606      4.87e-07     00000  Normal BFGS step
   12   -1318.6542399606      1.41e-07     00000  Normal BFGS step
   13   -1318.6542399606      1.78e-08     00000  Normal BFGS step
   14   -1318.6542399606      9.63e-09     00000 Convergence criterion met
Timing for Single Stationary Point: 1121.00s (wall), 8659.93s (cpu)
Begin Timing: Stability
===================================================
Beginning Test for Internal Stability
===================================================
generating davidson guess vectors based on koopmans excitations
    1      8.38e-01     00000 Davidson Iteration
    2      3.09e-01     00000 Davidson Iteration
    3      3.45e-02     00000 Davidson Iteration
    4      2.11e-02     00000 Davidson Iteration
    5      1.93e-03     00000 Davidson Iteration
    6      1.15e-03     00000 Davidson Iteration
    7      5.67e-04     00000 Davidson Iteration
    8      2.41e-04     00000 Davidson Iteration
    9      1.11e-04     00000 Davidson Iteration
   10      4.95e-05     00000 Davidson Iteration
   11      6.53e-04     00000 Davidson Iteration
   12      1.87e-04     00000 Davidson Iteration
   13      8.51e-05     00000 Davidson Converged
converged_eigenvalues
   0.1237
   0.2545
Threshold for negative eigenvalues: -1.0e-05
solution was a local minimum (stable)
===================================================
End Test for Internal Stability
===================================================
Our SCF solution is stable!
Timing for Total SCF: 14700.00s (wall), 116698.82s (cpu)
 Total energy in the final basis set =    -1318.6542399606
<S^2> =          0.000000000
    ==================================================
              The end of Object-Oriented SCFman       
    ==================================================
 
 --------------------------------------------------------------
 
                    Orbital Energies (a.u.)
 --------------------------------------------------------------
 
 Alpha MOs
 -- Occupied --
*******-101.016 -88.439  -9.381  -9.381  -7.924  -7.086  -7.086
 -7.075  -7.075  -7.073  -7.073  -5.835  -5.831  -5.817  -0.879
 -0.817  -0.647  -0.449  -0.408  -0.377  -0.327  -0.324  -0.315
 -0.228
 -- Virtual --
 -0.111  -0.097  -0.002   0.018   0.019   0.021   0.038   0.040
  0.046   0.048   0.049   0.070   0.082   0.089   0.092   0.096
  0.101   0.102   0.109   0.120   0.132   0.138   0.143   0.147
  0.162   0.163   0.165   0.172   0.174   0.179   0.184   0.198
  0.211   0.212   0.219   0.223   0.226   0.227   0.234   0.235
  0.248   0.252   0.265   0.276   0.291   0.305   0.310   0.312
  0.323   0.328   0.336   0.348   0.360   0.366   0.370   0.381
  0.382   0.389   0.391   0.401   0.408   0.411   0.415   0.430
  0.437   0.445   0.460   0.460   0.465   0.467   0.474   0.481
  0.488   0.492   0.497   0.509   0.510   0.523   0.533   0.540
  0.546   0.551   0.552   0.575   0.583   0.585   0.591   0.596
  0.605   0.607   0.615   0.617   0.629   0.634   0.667   0.669
  0.679   0.681   0.690   0.703   0.715   0.716   0.717   0.720
  0.728   0.734   0.736   0.741   0.746   0.774   0.793   0.813
  0.813   0.815   0.820   0.833   0.838   0.842   0.846   0.854
  0.855   0.873   0.881   0.895   0.896   0.912   0.916   0.921
  0.926   0.954   0.954   0.960   0.961   0.978   0.985   0.989
  0.994   0.995   1.016   1.023   1.033   1.035   1.051   1.058
  1.072   1.095   1.097   1.101   1.114   1.123   1.140   1.153
  1.156   1.158   1.161   1.164   1.175   1.182   1.232   1.263
  1.265   1.336   1.358   1.405   1.414   1.423   1.452   1.472
  1.519   1.522   1.542   1.576   1.579   1.599   1.635   1.653
  1.660   1.682   1.683   1.738   1.788   1.812   1.812   1.817
  1.881   1.942   1.954   1.963   1.965   1.991   1.993   2.059
  2.103   2.140   2.303   2.332   2.351   2.364   2.402   2.456
  2.462   2.466   2.483   2.491   2.519   2.529   2.597   2.616
  2.657   2.666   2.765   2.776   2.825   2.836   2.854   2.909
  3.072   3.079   3.080   3.084   3.088   3.092   3.114   3.120
  3.133   3.212   3.288   3.302   3.370   3.405   3.411   3.563
  3.605   3.618   3.619   3.651   3.655   3.707   3.721   3.731
  3.744   3.782   3.815   3.821   3.827   3.838   3.873   3.884
  3.907   3.987   4.022   4.046   4.151   4.189   4.201   4.365
  4.380   4.381   4.400   4.443   4.522   4.936   4.962   5.006
  5.007   5.064   5.075   5.137   5.205   5.304   5.312   5.360
  5.370   5.391   5.450   5.462   5.467   5.485   5.592   5.605
  5.926   5.953   5.996   6.033   6.036   6.046   6.060   6.065
  6.071   6.072   6.075   6.077   6.083   6.104   6.105   6.105
  6.105   6.119   6.123   6.138   6.170   6.194   6.203   6.289
  6.470   6.520   6.540   6.585   6.695   6.808   6.813   7.023
  7.030   7.035   7.149   7.231   7.358   8.441   8.484   8.530
  8.662   8.850   8.913   8.920   9.118   9.255   9.394   9.402
  9.403   9.405   9.405   9.410   9.424   9.429   9.553   9.576
  9.578   9.641  10.057  10.137  10.144  10.150  10.156  10.261
 11.880  11.898  11.902  11.917  11.954  12.203  12.364  13.054
 13.074  13.098  13.101  13.102  13.131  13.136  13.143  13.202
 13.212  13.250  13.320  13.389  13.389  17.136  17.182  17.217
 17.435  17.725  17.843  17.892  17.917  17.918  17.959  17.962
 17.971  18.072  18.399  18.417  30.898  39.154  39.738  63.094
 63.126  63.146  63.271  63.447  66.539  66.569  66.583  66.584
 66.614  66.617  66.623  66.677  66.873  66.902
 
 Beta MOs
 -- Occupied --
*******-101.016 -88.439  -9.381  -9.381  -7.924  -7.086  -7.086
 -7.075  -7.075  -7.073  -7.073  -5.835  -5.831  -5.817  -0.879
 -0.817  -0.647  -0.449  -0.408  -0.377  -0.327  -0.324  -0.315
 -0.228
 -- Virtual --
 -0.111  -0.097  -0.002   0.018   0.019   0.021   0.038   0.040
  0.046   0.048   0.049   0.070   0.082   0.089   0.092   0.096
  0.101   0.102   0.109   0.120   0.132   0.138   0.143   0.147
  0.162   0.163   0.165   0.172   0.174   0.179   0.184   0.198
  0.211   0.212   0.219   0.223   0.226   0.227   0.234   0.235
  0.248   0.252   0.265   0.276   0.291   0.305   0.310   0.312
  0.323   0.328   0.336   0.348   0.360   0.366   0.370   0.381
  0.382   0.389   0.391   0.401   0.408   0.411   0.415   0.430
  0.437   0.445   0.460   0.460   0.465   0.467   0.474   0.481
  0.488   0.492   0.497   0.509   0.510   0.523   0.533   0.540
  0.546   0.551   0.552   0.575   0.583   0.585   0.591   0.596
  0.605   0.607   0.615   0.617   0.629   0.634   0.667   0.669
  0.679   0.681   0.690   0.703   0.715   0.716   0.717   0.720
  0.728   0.734   0.736   0.741   0.746   0.774   0.793   0.813
  0.813   0.815   0.820   0.833   0.838   0.842   0.846   0.854
  0.855   0.873   0.881   0.895   0.896   0.912   0.916   0.921
  0.926   0.954   0.954   0.960   0.961   0.978   0.985   0.989
  0.994   0.995   1.016   1.023   1.033   1.035   1.051   1.058
  1.072   1.095   1.097   1.101   1.114   1.123   1.140   1.153
  1.156   1.158   1.161   1.164   1.175   1.182   1.232   1.263
  1.265   1.336   1.358   1.405   1.414   1.423   1.452   1.472
  1.519   1.522   1.542   1.576   1.579   1.599   1.635   1.653
  1.660   1.682   1.683   1.738   1.788   1.812   1.812   1.817
  1.881   1.942   1.954   1.963   1.965   1.991   1.993   2.059
  2.103   2.140   2.303   2.332   2.351   2.364   2.402   2.456
  2.462   2.466   2.483   2.491   2.519   2.529   2.597   2.616
  2.657   2.666   2.765   2.776   2.825   2.836   2.854   2.909
  3.072   3.079   3.080   3.084   3.088   3.092   3.114   3.120
  3.133   3.212   3.288   3.302   3.370   3.405   3.411   3.563
  3.605   3.618   3.619   3.651   3.655   3.707   3.721   3.731
  3.744   3.782   3.815   3.821   3.827   3.838   3.873   3.884
  3.907   3.987   4.022   4.046   4.151   4.189   4.201   4.365
  4.380   4.381   4.400   4.443   4.522   4.936   4.962   5.006
  5.007   5.064   5.075   5.137   5.205   5.304   5.312   5.360
  5.370   5.391   5.450   5.462   5.467   5.485   5.592   5.605
  5.926   5.953   5.996   6.033   6.036   6.046   6.060   6.065
  6.071   6.072   6.075   6.077   6.083   6.104   6.105   6.105
  6.105   6.119   6.123   6.138   6.170   6.194   6.203   6.289
  6.470   6.520   6.540   6.585   6.695   6.808   6.813   7.023
  7.030   7.035   7.149   7.231   7.358   8.441   8.484   8.530
  8.662   8.850   8.913   8.920   9.118   9.255   9.394   9.402
  9.403   9.405   9.405   9.410   9.424   9.429   9.553   9.576
  9.578   9.641  10.057  10.137  10.144  10.150  10.156  10.261
 11.880  11.898  11.902  11.917  11.954  12.203  12.364  13.054
 13.074  13.098  13.101  13.102  13.131  13.136  13.143  13.202
 13.212  13.250  13.320  13.389  13.389  17.136  17.182  17.217
 17.435  17.725  17.843  17.892  17.917  17.918  17.959  17.962
 17.971  18.072  18.399  18.417  30.898  39.154  39.738  63.094
 63.126  63.146  63.271  63.447  66.539  66.569  66.583  66.584
 66.614  66.617  66.623  66.677  66.873  66.902
 --------------------------------------------------------------
 
          Ground-State Mulliken Net Atomic Charges

     Atom                 Charge (a.u.)    Spin (a.u.)
  --------------------------------------------------------
      1 S                     0.186290      -0.000000
      2 Cl                   -0.093145       0.000000
      3 Cl                   -0.093145       0.000000
  --------------------------------------------------------
  Sum of atomic charges =     0.000000
  Sum of spin   charges =     0.000000

 -----------------------------------------------------------------
                    Cartesian Multipole Moments
 -----------------------------------------------------------------
    Charge (ESU x 10^10)
                 0.0000
    Dipole Moment (Debye)
         X      -0.0000      Y      -0.0000      Z       0.3142
       Tot       0.3142
    Quadrupole Moments (Debye-Ang)
        XX     -38.9257     XY      -0.0000     YY     -36.1032
        XZ      -0.0000     YZ       0.0000     ZZ     -35.9394
    Octopole Moments (Debye-Ang^2)
       XXX      -0.0000    XXY      -0.0000    XYY       0.0000
       YYY      -0.0000    XXZ      -1.5695    XYZ      -0.0000
       YYZ      -3.7509    XZZ      -0.0000    YZZ      -0.0000
       ZZZ      -1.0751
    Hexadecapole Moments (Debye-Ang^3)
      XXXX     -46.7466   XXXY      -0.0000   XXYY     -78.3273
      XYYY      -0.0000   YYYY    -391.1315   XXXZ      -0.0000
      XXYZ      -0.0000   XYYZ      -0.0000   YYYZ       0.0000
      XXZZ     -29.7420   XYZZ      -0.0000   YYZZ     -80.9827
      XZZZ      -0.0000   YZZZ      -0.0000   ZZZZ    -116.0514
 -----------------------------------------------------------------
Archival summary:
1\1\n0077.mhg0\SP\ProcedureUnspecified\BasisUnspecified\l21\yhljason\TueAug2518:35:262020TueAug2518:35:262020\0\\#,ProcedureUnspecified,BasisUnspecified,\\0,1\S\Cl,1,2.01402\Cl,1,2.01402,2,102.8\\\@

 Total job time:  14829.76s(wall), 117566.23s(cpu) 
 Tue Aug 25 18:35:26 2020

        *************************************************************
        *                                                           *
        *  Thank you very much for using Q-Chem.  Have a nice day.  *
        *                                                           *
        *************************************************************


