                  Welcome to Q-Chem
     A Quantum Leap Into The Future Of Chemistry


 Q-Chem 5.3 (devel), Q-Chem, Inc., Pleasanton, CA (2020)

 Yihan Shao,  Zhengting Gan,  E. Epifanovsky,  A. T. B. Gilbert,  M. Wormit,  
 J. Kussmann,  A. W. Lange,  A. Behn,  Jia Deng,  Xintian Feng,  D. Ghosh,  
 M. Goldey,  P. R. Horn,  L. D. Jacobson,  I. Kaliman,  T. Kus,  A. Landau,  
 Jie Liu,  E. I. Proynov,  R. M. Richard,  R. P. Steele,  E. J. Sundstrom,  
 H. L. Woodcock III,  P. M. Zimmerman,  D. Zuev,  B. Alam,  B. Albrecht,  
 E. Alguire,  S. A. Baeppler,  D. Barton,  Z. Benda,  Y. A. Bernard,  
 E. J. Berquist,  K. B. Bravaya,  H. Burton,  K. Carter-Fenk,  D. Casanova,  
 Chun-Min Chang,  Yunqing Chen,  A. Chien,  K. D. Closser,  M. P. Coons,  
 S. Coriani,  S. Dasgupta,  A. L. Dempwolff,  M. Diedenhofen,  Hainam Do,  
 R. G. Edgar,  Po-Tung Fang,  S. Faraji,  S. Fatehi,  Qingguo Feng,  
 J. Fosso-Tande,  J. Gayvert,  Qinghui Ge,  A. Ghysels,  G. Gidofalvi,  
 J. Gomes,  J. Gonthier,  A. Gunina,  D. Hait,  M. W. D. Hanson-Heine,  
 P. H. P. Harbach,  A. W. Hauser,  M. F. Herbst,  J. E. Herr,  
 E. G. Hohenstein,  Z. C. Holden,  Kerwin Hui,  B. C. Huynh,  T.-C. Jagau,  
 Hyunjun Ji,  B. Kaduk,  K. Khistyaev,  Jaehoon Kim,  P. Klunzinger,  K. Koh,  
 D. Kosenkov,  L. Koulias,  T. Kowalczyk,  C. M. Krauter,  A. Kunitsa,  
 Ka Un Lao,  A. Laurent,  K. V. Lawler,  Joonho Lee,  D. Lefrancois,  
 S. Lehtola,  D. S. Levine,  Yi-Pei Li,  You-Sheng Lin,  Fenglai Liu,  
 Kuan-Yu Liu,  E. Livshits,  M. Loipersberger,  A. Luenser,  P. Manohar,  
 E. Mansoor,  S. F. Manzer,  Shan-Ping Mao,  Yuezhi Mao,  N. Mardirossian,  
 A. V. Marenich,  T. Markovich,  L. A. Martinez-Martinez,  S. A. Maurer,  
 N. J. Mayhall,  S. C. McKenzie,  J.-M. Mewes,  P. Morgante,  A. F. Morrison,  
 J. W. Mullinax,  K. Nanda,  T. S. Nguyen-Beck,  R. Olivares-Amaya,  
 K. J. Oosterbaan,  J. A. Parkhill,  S. K. Paul,  F. Pavosevic,  Zheng Pei,  
 T. M. Perrine,  F. Plasser,  P. Pokhilko,  S. Prager,  A. Prociuk,  
 E. Ramos,  B. Rana,  D. R. Rehn,  F. Rob,  M. Scheurer,  M. Schneider,  
 N. Sergueev,  S. M. Sharada,  S. Sharma,  D. W. Small,  T. Stauch,  
 C. J. Stein,  T. Stein,  Yu-Chuan Su,  S. P. Veccham,  Zhen Tao,  
 A. J. W. Thom,  A. Tkatchenko,  T. Tsuchimochi,  N. M. Tubman,  L. Vogt,  
 M. L. Vidal,  O. Vydrov,  M. A. Watson,  J. Wenzel,  M. de Wergifosse,  
 T. A. Wesolowski,  A. White,  J. Witte,  A. Yamada,  Jun Yang,  K. Yao,  
 S. Yeganeh,  S. R. Yost,  Zhi-Qiang You,  A. Zech,  Igor Ying Zhang,  
 Xing Zhang,  Yan Zhao,  Ying Zhu,  B. R. Brooks,  G. K. L. Chan,  
 C. J. Cramer,  M. S. Gordon,  W. J. Hehre,  A. Klamt,  M. W. Schmidt,  
 C. D. Sherrill,  D. G. Truhlar,  A. Aspuru-Guzik,  R. Baer,  A. T. Bell,  
 N. A. Besley,  Jeng-Da Chai,  A. E. DePrince, III,  R. A. DiStasio Jr.,  
 A. Dreuw,  B. D. Dunietz,  T. R. Furlani,  Chao-Ping Hsu,  Yousung Jung,  
 Jing Kong,  D. S. Lambrecht,  WanZhen Liang,  C. Ochsenfeld,  
 V. A. Rassolov,  L. V. Slipchenko,  J. E. Subotnik,  T. Van Voorhis,  
 J. M. Herbert,  A. I. Krylov,  P. M. W. Gill,  M. Head-Gordon

 Contributors to earlier versions of Q-Chem not listed above: 
 R. D. Adamson,  B. Austin,  J. Baker,  G. J. O. Beran,  K. Brandhorst,  
 S. T. Brown,  E. F. C. Byrd,  A. K. Chakraborty,  C.-L. Cheng,  
 Siu Hung Chien,  D. M. Chipman,  D. L. Crittenden,  H. Dachsel,  
 R. J. Doerksen,  A. D. Dutoi,  L. Fusti-Molnar,  W. A. Goddard III,  
 A. Golubeva-Zadorozhnaya,  S. R. Gwaltney,  G. Hawkins,  A. Heyden,  
 S. Hirata,  G. Kedziora,  F. J. Keil,  C. Kelley,  Jihan Kim,  R. A. King,  
 R. Z. Khaliullin,  P. P. Korambath,  W. Kurlancheek,  A. M. Lee,  M. S. Lee,  
 S. V. Levchenko,  Ching Yeh Lin,  D. Liotard,  R. C. Lochan,  I. Lotan,  
 P. E. Maslen,  N. Nair,  D. P. O'Neill,  D. Neuhauser,  E. Neuscamman,  
 C. M. Oana,  R. Olson,  B. Peters,  R. Peverati,  P. A. Pieniazek,  
 Y. M. Rhee,  J. Ritchie,  M. A. Rohrdanz,  E. Rosta,  N. J. Russ,  
 H. F. Schaefer III,  N. E. Schultz,  N. Shenvi,  A. C. Simmonett,  A. Sodt,  
 D. Stuck,  K. S. Thanthiriwatte,  V. Vanovschi,  Tao Wang,  A. Warshel,  
 C. F. Williams,  Q. Wu,  X. Xu,  W. Zhang

 Please cite Q-Chem as follows:
 Y. Shao et al., Mol. Phys. 113, 184-215 (2015)
 DOI: 10.1080/00268976.2014.952696

 Q-Chem 5.3.0 for Intel X86 EM64T Linux

 Parts of Q-Chem use Armadillo 9.800.1 (Horizon Scraper).
 http://arma.sourceforge.net/

 Q-Chem begins on Thu Aug 20 22:07:04 2020  

n0041.mhg0
Host: 0

     Scratch files written to /local/scratch/users/yhljason/LiCN_B3LYP_aug-pc-4.inp20200820214301//
Processing $rem in /clusterfs/mhg/diptarka/qchem_transmom//config/preferences:
Processing $rem in /global/home/users/yhljason/.qchemrc:

Checking the input file for inconsistencies... 	...done.

--------------------------------------------------------------
User input:
--------------------------------------------------------------
$molecule
0 1
     Li        1.4157454937   -0.6164252897    0.0000000000
        C        -0.6780148225   -0.3855159545    0.0000000000
        N        -0.0211306712    0.6069412443    0.0000000000
$end

$rem
jobtype sp
method B3LYP
xc_grid 000099000590
basis aug-pc-4
max_scf_cycles 200
thresh 14
scf_convergence 8
scf_algorithm gdm
symmetry false
sym_ignore true
unrestricted true
gen_scfman true
internal_stability_iter 15
internal_stability_davidson_iter 200
mem_total 64000
mem_static 1500
n_frozen_core 0
$end


--------------------------------------------------------------
 ----------------------------------------------------------------
             Standard Nuclear Orientation (Angstroms)
    I     Atom           X                Y                Z
 ----------------------------------------------------------------
    1      Li      1.4157454937    -0.6164252897     0.0000000000
    2      C      -0.6780148225    -0.3855159545     0.0000000000
    3      N      -0.0211306712     0.6069412443     0.0000000000
 ----------------------------------------------------------------
 Nuclear Repulsion Energy =          29.08502787 hartrees
 There are        8 alpha and        8 beta electrons
 Requested basis set is aug-pc-4
 There are 89 shells and 373 basis functions

 Total QAlloc Memory Limit  64000 MB
 Mega-Array Size      1467 MB
 MEM_STATIC part      1500 MB

                       Distance Matrix (Angstroms)
             Li(  1)   C (  2)
   C (  2)  2.106455
   N (  3)  1.887124  1.190155

 A cutoff of  1.0D-14 yielded   4005 shell pairs
 There are     70733 function pairs (    133836 Cartesian)
 Smallest overlap matrix eigenvalue = 8.82E-07
 Linear dependence detected in AO basis
 Tighter screening thresholds may be required for diffuse basis sets
 Use S2THRESH > 14 and THRESH = 14 in case of SCF convergence issues
 Number of orthogonalized atomic orbitals = 372
 Maximum deviation from orthogonality = 6.723E-11

 Scale SEOQF with 1.000000e-01/1.000000e-01/1.000000e-01

 Standard Electronic Orientation quadrupole field applied
 Nucleus-field energy     =     0.0000000006 hartrees
 Guess from superposition of atomic densities
 Warning:  Energy on first SCF cycle will be non-variational
 SAD guess density has 16.000000 electrons

 -----------------------------------------------------------------------
  General SCF calculation program by
  Eric Jon Sundstrom, Paul Horn, Yuezhi Mao, Dmitri Zuev, Alec White,
  David Stuck, Shaama M.S., Shane Yost, Joonho Lee, David Small,
  Daniel Levine, Susi Lehtola, Hugh Burton, Evgeny Epifanovsky,
  Bang C. Huynh
 -----------------------------------------------------------------------
 Exchange:     0.2000 Hartree-Fock + 0.0800 Slater + 0.7200 B88
 Correlation:  0.1900 VWN1RPA + 0.8100 LYP
 Using Euler-Maclaurin-Lebedev (99,590) quadrature formula
Running Object-Oriented UKS (UHF)
performing a single roothaan step with Fock from read density so that orbitals are available to all algorithms
energy of the guess density (C=0) -100.499686864830
We will preform up to 15 macro iterations over saddle points until a stable solution is found
Energy prior to optimization (guess energy) = -100.353105232327
Begin Timing: Total SCF Calculation
Begin Timing: SCF Single Stationary Point Calculation
begin iterations for algorithm: GDM          
the SCF tolerance is set to 1.00e-08
    1    -100.3531052323      8.55e-02     00000  Descent step
    2    -100.4025808929      1.22e-01     00000  Normal BFGS step
    3    -100.4187248820      6.27e-02     00000  Normal BFGS step
    4    -100.4258791518      2.15e-02     00000  Normal BFGS step
    5    -100.4301063859      3.60e-03     00000  Normal BFGS step
    6    -100.4301579641      1.21e-03     00000  Normal BFGS step
    7    -100.4301690175      3.53e-04     00000  Normal BFGS step
    8    -100.4301694730      9.18e-05     00000  Normal BFGS step
    9    -100.4301694920      3.12e-06     00000  Normal BFGS step
   10    -100.4301694921      4.23e-07     00000  Normal BFGS step
   11    -100.4301694921      1.87e-07     00000  Normal BFGS step
   12    -100.4301694921      8.55e-08     00000  Normal BFGS step
   13    -100.4301694921      2.82e-08     00000  Normal BFGS step
   14    -100.4301694921      1.06e-08     00000  Normal BFGS step
   15    -100.4301694921      5.49e-10     00000 Convergence criterion met
Timing for Single Stationary Point: 1564.00s (wall), 12281.82s (cpu)
Begin Timing: Stability
===================================================
Beginning Test for Internal Stability
===================================================
generating davidson guess vectors based on koopmans excitations
 Warning: Hessian-vector products not implemented
 Finite difference Hessian-vector products will be used.
computing hessian-vector products by finite difference
    1      3.01e-01     00000 Davidson Iteration
computing hessian-vector products by finite difference
    2      2.16e-01     00000 Davidson Iteration
computing hessian-vector products by finite difference
    3      1.28e-01     00000 Davidson Iteration
computing hessian-vector products by finite difference
    4      1.14e-02     00000 Davidson Iteration
computing hessian-vector products by finite difference
    5      1.06e-02     00000 Davidson Iteration
computing hessian-vector products by finite difference
    6      1.03e-02     00000 Davidson Iteration
computing hessian-vector products by finite difference
    7      1.04e-02     00000 Davidson Iteration
computing hessian-vector products by finite difference
    8      9.28e-03     00000 Davidson Iteration
computing hessian-vector products by finite difference
    9      3.91e-03     00000 Davidson Iteration
computing hessian-vector products by finite difference
   10      2.01e-03     00000 Davidson Iteration
computing hessian-vector products by finite difference
   11      6.67e-04     00000 Davidson Iteration
computing hessian-vector products by finite difference
   12      9.18e-05     00000 Davidson Iteration
computing hessian-vector products by finite difference
   13      1.12e-04     00000 Davidson Iteration
computing hessian-vector products by finite difference
   14      1.50e-05     00000 Davidson Converged
converged_eigenvalues
   0.2853
   0.3377
Threshold for negative eigenvalues: -1.0e-05
solution was a local minimum (stable)
===================================================
End Test for Internal Stability
===================================================
Timing for Internal Stability: 7063.00s (wall), 55416.91s (cpu)
Our SCF solution is stable!
Timing for Total SCF: 8627.00s (wall), 67698.84s (cpu)
 Total energy in the final basis set =     -100.4301694921
<S^2> =         -0.000000000
    ==================================================
              The end of Object-Oriented SCFman       
    ==================================================

 --------------------------------------------------------------

                    Orbital Energies (a.u.)
 --------------------------------------------------------------

 Alpha MOs
 -- Occupied --
-14.2727 -10.1511  -2.0477  -0.8609  -0.3964  -0.3276  -0.3073  -0.2643
 -- Virtual --
 -0.0605  -0.0138  -0.0057   0.0017   0.0102   0.0114   0.0199   0.0294
  0.0322   0.0358   0.0366   0.0407   0.0437   0.0439   0.0469   0.0637
  0.0645   0.0667   0.0705   0.0739   0.0787   0.0871   0.0910   0.0949
  0.0978   0.0986   0.1075   0.1110   0.1157   0.1176   0.1266   0.1359
  0.1381   0.1409   0.1427   0.1529   0.1579   0.1590   0.1610   0.1613
  0.1652   0.1656   0.1735   0.1751   0.1823   0.1826   0.1894   0.1971
  0.2010   0.2058   0.2101   0.2214   0.2326   0.2535   0.2628   0.2718
  0.2731   0.2762   0.2775   0.2882   0.2906   0.2987   0.3029   0.3142
  0.3148   0.3281   0.3407   0.3425   0.3467   0.3520   0.3716   0.3807
  0.3885   0.3920   0.3967   0.4075   0.4093   0.4209   0.4287   0.4315
  0.4385   0.4445   0.4601   0.4719   0.4832   0.4845   0.5062   0.5187
  0.5236   0.5323   0.5430   0.5495   0.5682   0.5751   0.5783   0.5859
  0.5865   0.5965   0.6054   0.6065   0.6316   0.6332   0.6461   0.6464
  0.6583   0.6586   0.6667   0.6701   0.6770   0.6834   0.6864   0.6945
  0.6949   0.7001   0.7055   0.7224   0.7474   0.7510   0.7764   0.7932
  0.8064   0.8127   0.8187   0.8401   0.8530   0.8604   0.8729   0.8778
  0.8932   0.9252   0.9257   0.9384   0.9596   0.9599   0.9685   0.9730
  0.9922   1.0107   1.0111   1.0144   1.0430   1.0472   1.0569   1.0701
  1.0738   1.1018   1.1067   1.1087   1.1244   1.1529   1.1547   1.1885
  1.1994   1.2131   1.2231   1.2561   1.2762   1.2912   1.2938   1.3333
  1.3639   1.3856   1.4522   1.5132   1.5678   1.5821   1.6169   1.6403
  1.6564   1.6930   1.7383   1.8048   1.8303   1.8470   1.8815   1.9123
  1.9889   2.0091   2.0628   2.1294   2.1482   2.1670   2.2177   2.2308
  2.2457   2.2579   2.2680   2.2688   2.3220   2.3901   2.4303   2.4979
  2.4987   2.5243   2.5285   2.5770   2.6021   2.6594   2.6663   2.7104
  2.7596   2.7707   2.7824   2.8634   2.9153   2.9452   3.0330   3.0661
  3.1106   3.1150   3.1293   3.1853   3.2427   3.2529   3.3054   3.3504
  3.3590   3.4951   3.5247   3.6108   3.8145   3.9358   4.1378   4.1992
  4.2506   4.2625   4.3127   4.3259   4.4092   4.4525   4.5225   4.6221
  4.6531   4.6919   4.7958   4.8281   4.8859   4.9143   4.9262   4.9444
  4.9793   5.0470   5.1235   5.2110   5.3148   5.3448   5.3504   5.4127
  5.4258   5.4868   5.5111   5.6255   5.7462   5.7524   5.8965   6.0057
  6.1065   6.1263   6.1728   6.3617   6.4101   6.5042   6.5571   6.7432
  6.7498   6.8622   6.9347   6.9946   7.1658   7.2052   7.3897   7.7979
  8.2305   8.3733   8.4367   9.2900   9.5524   9.8769  10.2785  10.2974
 10.3057  10.3536  10.3842  10.5251  10.5449  10.5592  10.6164  10.7353
 10.7383  10.8649  10.9424  10.9477  11.0062  11.1579  11.1953  11.5065
 11.5841  11.5920  11.6240  11.6450  11.6796  11.6884  11.6905  11.7223
 11.7755  11.8373  11.8374  11.9317  12.0175  12.0530  12.2042  12.2260
 12.2281  12.3682  12.5743  12.6214  12.7548  12.8253  12.9131  13.0822
 13.0861  13.6213  13.8154  13.8776  14.6564  14.6912  14.7643  14.8790
 14.8881  15.1339  15.1891  15.4956  15.5288  15.5674  15.9363  16.0157
 16.1516  16.8667  17.0259  17.0880  17.2478  17.8089  17.8501  17.8803
 18.7878  19.2285  19.2769  21.4898  24.0345  26.3618  26.6373  28.1336
 32.1420  32.2301  33.0786  33.0964  34.5783  47.9970  48.1121  48.2508
 48.3062  49.1715  74.5284 104.6523

 Beta MOs
 -- Occupied --
-14.2727 -10.1511  -2.0477  -0.8609  -0.3964  -0.3276  -0.3073  -0.2643
 -- Virtual --
 -0.0605  -0.0138  -0.0057   0.0017   0.0102   0.0114   0.0199   0.0294
  0.0322   0.0358   0.0366   0.0407   0.0437   0.0439   0.0469   0.0637
  0.0645   0.0667   0.0705   0.0739   0.0787   0.0871   0.0910   0.0949
  0.0978   0.0986   0.1075   0.1110   0.1157   0.1176   0.1266   0.1359
  0.1381   0.1409   0.1427   0.1529   0.1579   0.1590   0.1610   0.1613
  0.1652   0.1656   0.1735   0.1751   0.1823   0.1826   0.1894   0.1971
  0.2010   0.2058   0.2101   0.2214   0.2326   0.2535   0.2628   0.2718
  0.2731   0.2762   0.2775   0.2882   0.2906   0.2987   0.3029   0.3142
  0.3148   0.3281   0.3407   0.3425   0.3467   0.3520   0.3716   0.3807
  0.3885   0.3920   0.3967   0.4075   0.4093   0.4209   0.4287   0.4315
  0.4385   0.4445   0.4601   0.4719   0.4832   0.4845   0.5062   0.5187
  0.5236   0.5323   0.5430   0.5495   0.5682   0.5751   0.5783   0.5859
  0.5865   0.5965   0.6054   0.6065   0.6316   0.6332   0.6461   0.6464
  0.6583   0.6586   0.6667   0.6701   0.6770   0.6834   0.6864   0.6945
  0.6949   0.7001   0.7055   0.7224   0.7474   0.7510   0.7764   0.7932
  0.8064   0.8127   0.8187   0.8401   0.8530   0.8604   0.8729   0.8778
  0.8932   0.9252   0.9257   0.9384   0.9596   0.9599   0.9685   0.9730
  0.9922   1.0107   1.0111   1.0144   1.0430   1.0472   1.0569   1.0701
  1.0738   1.1018   1.1067   1.1087   1.1244   1.1529   1.1547   1.1885
  1.1994   1.2131   1.2231   1.2561   1.2762   1.2912   1.2938   1.3333
  1.3639   1.3856   1.4522   1.5132   1.5678   1.5821   1.6169   1.6403
  1.6564   1.6930   1.7383   1.8048   1.8303   1.8470   1.8815   1.9123
  1.9889   2.0091   2.0628   2.1294   2.1482   2.1670   2.2177   2.2308
  2.2457   2.2579   2.2680   2.2688   2.3220   2.3901   2.4303   2.4979
  2.4987   2.5243   2.5285   2.5770   2.6021   2.6594   2.6663   2.7104
  2.7596   2.7707   2.7824   2.8634   2.9153   2.9452   3.0330   3.0661
  3.1106   3.1150   3.1293   3.1853   3.2427   3.2529   3.3054   3.3504
  3.3590   3.4951   3.5247   3.6108   3.8145   3.9358   4.1378   4.1992
  4.2506   4.2625   4.3127   4.3259   4.4092   4.4525   4.5225   4.6221
  4.6531   4.6919   4.7958   4.8281   4.8859   4.9143   4.9262   4.9444
  4.9793   5.0470   5.1235   5.2110   5.3148   5.3448   5.3504   5.4127
  5.4258   5.4868   5.5111   5.6255   5.7462   5.7524   5.8965   6.0057
  6.1065   6.1263   6.1728   6.3617   6.4101   6.5042   6.5571   6.7432
  6.7498   6.8622   6.9347   6.9946   7.1658   7.2052   7.3897   7.7979
  8.2305   8.3733   8.4367   9.2900   9.5524   9.8769  10.2785  10.2974
 10.3057  10.3536  10.3842  10.5251  10.5449  10.5592  10.6164  10.7353
 10.7383  10.8649  10.9424  10.9477  11.0062  11.1579  11.1953  11.5065
 11.5841  11.5920  11.6240  11.6450  11.6796  11.6884  11.6905  11.7223
 11.7755  11.8373  11.8374  11.9317  12.0175  12.0530  12.2042  12.2260
 12.2281  12.3682  12.5743  12.6214  12.7548  12.8253  12.9131  13.0822
 13.0861  13.6213  13.8154  13.8776  14.6564  14.6912  14.7643  14.8790
 14.8881  15.1339  15.1891  15.4956  15.5288  15.5674  15.9363  16.0157
 16.1516  16.8667  17.0259  17.0880  17.2478  17.8089  17.8501  17.8803
 18.7878  19.2285  19.2769  21.4898  24.0345  26.3618  26.6373  28.1336
 32.1420  32.2301  33.0786  33.0964  34.5783  47.9970  48.1121  48.2508
 48.3062  49.1715  74.5284 104.6523
 --------------------------------------------------------------

          Ground-State Mulliken Net Atomic Charges

     Atom                 Charge (a.u.)    Spin (a.u.)
  --------------------------------------------------------
      1 Li                    0.732582       0.000000
      2 C                    -0.251835      -0.000000
      3 N                    -0.480747      -0.000000
  --------------------------------------------------------
  Sum of atomic charges =    -0.000000
  Sum of spin   charges =     0.000000

 -----------------------------------------------------------------
                    Cartesian Multipole Moments
 -----------------------------------------------------------------
    Charge (ESU x 10^10)
                -0.0000
    Dipole Moment (Debye)
         X       6.4102      Y      -2.5441      Z       0.0000
       Tot       6.8966
    Quadrupole Moments (Debye-Ang)
        XX      -6.1169     XY      -5.8145     YY     -15.4354
        XZ       0.0000     YZ       0.0000     ZZ     -14.5188
    Octopole Moments (Debye-Ang^2)
       XXX      24.7772    XXY      -5.3539    XYY       6.9413
       YYY      -1.7080    XXZ      -0.0000    XYZ      -0.0000
       YYZ      -0.0000    XZZ       3.3462    YZZ      -0.4052
       ZZZ      -0.0000
    Hexadecapole Moments (Debye-Ang^3)
      XXXX     -25.6842   XXXY     -15.1822   XXYY     -12.3828
      XYYY      -8.3971   YYYY     -46.2636   XXXZ      -0.0000
      XXYZ       0.0000   XYYZ      -0.0000   YYYZ       0.0000
      XXZZ     -10.5218   XYZZ      -1.8300   YYZZ     -10.6931
      XZZZ      -0.0000   YZZZ       0.0000   ZZZZ     -19.1765
 -----------------------------------------------------------------
Archival summary:
1\1\n0041.mhg0\SP\ProcedureUnspecified\BasisUnspecified\11i1\yhljason\FriAug2100:34:222020FriAug2100:34:222020\0\\#,ProcedureUnspecified,BasisUnspecified,\\0,1\N\C,1,1.19015\Li,1,1.88712,2,83.0883\\\@

 Total job time:  8837.96s(wall), 69351.47s(cpu) 
 Fri Aug 21 00:34:22 2020

        *************************************************************
        *                                                           *
        *  Thank you very much for using Q-Chem.  Have a nice day.  *
        *                                                           *
        *************************************************************


