                  Welcome to Q-Chem
     A Quantum Leap Into The Future Of Chemistry


 Q-Chem 5.3 (devel), Q-Chem, Inc., Pleasanton, CA (2020)

 Yihan Shao,  Zhengting Gan,  E. Epifanovsky,  A. T. B. Gilbert,  M. Wormit,  
 J. Kussmann,  A. W. Lange,  A. Behn,  Jia Deng,  Xintian Feng,  D. Ghosh,  
 M. Goldey,  P. R. Horn,  L. D. Jacobson,  I. Kaliman,  T. Kus,  A. Landau,  
 Jie Liu,  E. I. Proynov,  R. M. Richard,  R. P. Steele,  E. J. Sundstrom,  
 H. L. Woodcock III,  P. M. Zimmerman,  D. Zuev,  B. Alam,  B. Albrecht,  
 E. Alguire,  S. A. Baeppler,  D. Barton,  Z. Benda,  Y. A. Bernard,  
 E. J. Berquist,  K. B. Bravaya,  H. Burton,  K. Carter-Fenk,  D. Casanova,  
 Chun-Min Chang,  Yunqing Chen,  A. Chien,  K. D. Closser,  M. P. Coons,  
 S. Coriani,  S. Dasgupta,  A. L. Dempwolff,  M. Diedenhofen,  Hainam Do,  
 R. G. Edgar,  Po-Tung Fang,  S. Faraji,  S. Fatehi,  Qingguo Feng,  
 J. Fosso-Tande,  J. Gayvert,  Qinghui Ge,  A. Ghysels,  G. Gidofalvi,  
 J. Gomes,  J. Gonthier,  A. Gunina,  D. Hait,  M. W. D. Hanson-Heine,  
 P. H. P. Harbach,  A. W. Hauser,  M. F. Herbst,  J. E. Herr,  
 E. G. Hohenstein,  Z. C. Holden,  Kerwin Hui,  B. C. Huynh,  T.-C. Jagau,  
 Hyunjun Ji,  B. Kaduk,  K. Khistyaev,  Jaehoon Kim,  P. Klunzinger,  K. Koh,  
 D. Kosenkov,  L. Koulias,  T. Kowalczyk,  C. M. Krauter,  A. Kunitsa,  
 Ka Un Lao,  A. Laurent,  K. V. Lawler,  Joonho Lee,  D. Lefrancois,  
 S. Lehtola,  D. S. Levine,  Yi-Pei Li,  You-Sheng Lin,  Fenglai Liu,  
 Kuan-Yu Liu,  E. Livshits,  M. Loipersberger,  A. Luenser,  P. Manohar,  
 E. Mansoor,  S. F. Manzer,  Shan-Ping Mao,  Yuezhi Mao,  N. Mardirossian,  
 A. V. Marenich,  T. Markovich,  L. A. Martinez-Martinez,  S. A. Maurer,  
 N. J. Mayhall,  S. C. McKenzie,  J.-M. Mewes,  P. Morgante,  A. F. Morrison,  
 J. W. Mullinax,  K. Nanda,  T. S. Nguyen-Beck,  R. Olivares-Amaya,  
 K. J. Oosterbaan,  J. A. Parkhill,  S. K. Paul,  F. Pavosevic,  Zheng Pei,  
 T. M. Perrine,  F. Plasser,  P. Pokhilko,  S. Prager,  A. Prociuk,  
 E. Ramos,  B. Rana,  D. R. Rehn,  F. Rob,  M. Scheurer,  M. Schneider,  
 N. Sergueev,  S. M. Sharada,  S. Sharma,  D. W. Small,  T. Stauch,  
 C. J. Stein,  T. Stein,  Yu-Chuan Su,  S. P. Veccham,  Zhen Tao,  
 A. J. W. Thom,  A. Tkatchenko,  T. Tsuchimochi,  N. M. Tubman,  L. Vogt,  
 M. L. Vidal,  O. Vydrov,  M. A. Watson,  J. Wenzel,  M. de Wergifosse,  
 T. A. Wesolowski,  A. White,  J. Witte,  A. Yamada,  Jun Yang,  K. Yao,  
 S. Yeganeh,  S. R. Yost,  Zhi-Qiang You,  A. Zech,  Igor Ying Zhang,  
 Xing Zhang,  Yan Zhao,  Ying Zhu,  B. R. Brooks,  G. K. L. Chan,  
 C. J. Cramer,  M. S. Gordon,  W. J. Hehre,  A. Klamt,  M. W. Schmidt,  
 C. D. Sherrill,  D. G. Truhlar,  A. Aspuru-Guzik,  R. Baer,  A. T. Bell,  
 N. A. Besley,  Jeng-Da Chai,  A. E. DePrince, III,  R. A. DiStasio Jr.,  
 A. Dreuw,  B. D. Dunietz,  T. R. Furlani,  Chao-Ping Hsu,  Yousung Jung,  
 Jing Kong,  D. S. Lambrecht,  WanZhen Liang,  C. Ochsenfeld,  
 V. A. Rassolov,  L. V. Slipchenko,  J. E. Subotnik,  T. Van Voorhis,  
 J. M. Herbert,  A. I. Krylov,  P. M. W. Gill,  M. Head-Gordon

 Contributors to earlier versions of Q-Chem not listed above: 
 R. D. Adamson,  B. Austin,  J. Baker,  G. J. O. Beran,  K. Brandhorst,  
 S. T. Brown,  E. F. C. Byrd,  A. K. Chakraborty,  C.-L. Cheng,  
 Siu Hung Chien,  D. M. Chipman,  D. L. Crittenden,  H. Dachsel,  
 R. J. Doerksen,  A. D. Dutoi,  L. Fusti-Molnar,  W. A. Goddard III,  
 A. Golubeva-Zadorozhnaya,  S. R. Gwaltney,  G. Hawkins,  A. Heyden,  
 S. Hirata,  G. Kedziora,  F. J. Keil,  C. Kelley,  Jihan Kim,  R. A. King,  
 R. Z. Khaliullin,  P. P. Korambath,  W. Kurlancheek,  A. M. Lee,  M. S. Lee,  
 S. V. Levchenko,  Ching Yeh Lin,  D. Liotard,  R. C. Lochan,  I. Lotan,  
 P. E. Maslen,  N. Nair,  D. P. O'Neill,  D. Neuhauser,  E. Neuscamman,  
 C. M. Oana,  R. Olson,  B. Peters,  R. Peverati,  P. A. Pieniazek,  
 Y. M. Rhee,  J. Ritchie,  M. A. Rohrdanz,  E. Rosta,  N. J. Russ,  
 H. F. Schaefer III,  N. E. Schultz,  N. Shenvi,  A. C. Simmonett,  A. Sodt,  
 D. Stuck,  K. S. Thanthiriwatte,  V. Vanovschi,  Tao Wang,  A. Warshel,  
 C. F. Williams,  Q. Wu,  X. Xu,  W. Zhang

 Please cite Q-Chem as follows:
 Y. Shao et al., Mol. Phys. 113, 184-215 (2015)
 DOI: 10.1080/00268976.2014.952696

 Q-Chem 5.3.0 for Intel X86 EM64T Linux

 Parts of Q-Chem use Armadillo 9.800.1 (Horizon Scraper).
 http://arma.sourceforge.net/

 Q-Chem begins on Sat Aug 22 02:37:21 2020  

n0068.mhg0
Host: 0

     Scratch files written to /local/scratch/users/yhljason/NaH_PBE0_aug-pc-4.inp20200821084006//
Processing $rem in /clusterfs/mhg/diptarka/qchem_transmom//config/preferences:
Processing $rem in /global/home/users/yhljason/.qchemrc:

Checking the input file for inconsistencies... 	...done.

--------------------------------------------------------------
User input:
--------------------------------------------------------------
$molecule
0 1
Na1	0.0000	0.0000	0.0000
H2	0.0000	0.0000	1.8874
$end

$rem
jobtype sp
method PBE0
xc_grid 000099000590
basis aug-pc-4
max_scf_cycles 200
thresh 14
scf_convergence 8
scf_algorithm gdm
symmetry false
sym_ignore true
unrestricted true
gen_scfman true
internal_stability_iter 15
internal_stability_davidson_iter 200
mem_total 64000
mem_static 1500
n_frozen_core 0
$end


--------------------------------------------------------------
 ----------------------------------------------------------------
             Standard Nuclear Orientation (Angstroms)
    I     Atom           X                Y                Z
 ----------------------------------------------------------------
    1      Na      0.0000000000     0.0000000000     0.0000000000
    2      H       0.0000000000     0.0000000000     1.8874000000
 ----------------------------------------------------------------
 Nuclear Repulsion Energy =           3.08411006 hartrees
 There are        6 alpha and        6 beta electrons
 Requested basis set is aug-pc-4
 There are 47 shells and 173 basis functions

 Total QAlloc Memory Limit  64000 MB
 Mega-Array Size      1467 MB
 MEM_STATIC part      1500 MB

                       Distance Matrix (Angstroms)
             Na(  1)
   H (  2)  1.887400

 A cutoff of  1.0D-14 yielded   1128 shell pairs
 There are     15440 function pairs (     25825 Cartesian)
 Smallest overlap matrix eigenvalue = 2.06E-05

 Scale SEOQF with 1.000000e-02/1.000000e-02/1.000000e-02

 Standard Electronic Orientation quadrupole field applied
 Guess from superposition of atomic densities
 Warning:  Energy on first SCF cycle will be non-variational
 SAD guess density has 12.000000 electrons

 -----------------------------------------------------------------------
  General SCF calculation program by
  Eric Jon Sundstrom, Paul Horn, Yuezhi Mao, Dmitri Zuev, Alec White,
  David Stuck, Shaama M.S., Shane Yost, Joonho Lee, David Small,
  Daniel Levine, Susi Lehtola, Hugh Burton, Evgeny Epifanovsky,
  Bang C. Huynh
 -----------------------------------------------------------------------
 Exchange:     0.2500 Hartree-Fock + 0.7500 PBE
 Correlation:  1.0000 PBE
 Using Euler-Maclaurin-Lebedev (99,590) quadrature formula
Running Object-Oriented UKS (UHF)
performing a single roothaan step with Fock from read density so that orbitals are available to all algorithms
 using 8 threads for integral computing
 -------------------------------------------------------
 OpenMP Integral computing Module                
 Release: version 2.0, May 2017, Q-Chem Inc. Pleasanton 
 -------------------------------------------------------
energy of the guess density (C=0) -162.635513259930
 using 8 threads for integral computing
 -------------------------------------------------------
 OpenMP Integral computing Module                
 Release: version 2.0, May 2017, Q-Chem Inc. Pleasanton 
 -------------------------------------------------------
We will preform up to 15 macro iterations over saddle points until a stable solution is found
Energy prior to optimization (guess energy) = -162.719538819329
Begin Timing: Total SCF Calculation
Begin Timing: SCF Single Stationary Point Calculation
begin iterations for algorithm: GDM          
the SCF tolerance is set to 1.00e-08
    1    -162.7195388193      1.43e-01     00000  Descent step
    2    -162.6969360000      2.66e-01     00000 Line search: overstep
    3    -162.7486447567      1.72e-02     00000  Normal BFGS step
    4    -162.7501985453      4.00e-03     00000  Normal BFGS step
    5    -162.7502940221      7.45e-04     00000  Normal BFGS step
    6    -162.7502953933      1.45e-04     00000  Normal BFGS step
    7    -162.7502955217      4.10e-05     00000  Normal BFGS step
    8    -162.7502955243      1.55e-05     00000  Normal BFGS step
    9    -162.7502955247      4.93e-07     00000  Normal BFGS step
   10    -162.7502955247      7.34e-08     00000  Normal BFGS step
   11    -162.7502955247      6.29e-09     00000 Convergence criterion met
Timing for Single Stationary Point: 63.00s (wall), 478.67s (cpu)
Begin Timing: Stability
===================================================
Beginning Test for Internal Stability
===================================================
generating davidson guess vectors based on koopmans excitations
    1      4.72e-01     00000 Davidson Iteration
    2      2.48e-01     00000 Davidson Iteration
    3      3.14e-02     00000 Davidson Iteration
    4      3.63e-03     00000 Davidson Iteration
    5      7.21e-04     00000 Davidson Iteration
    6      1.85e-04     00000 Davidson Iteration
    7      3.89e-05     00000 Davidson Converged
converged_eigenvalues
   0.1083
   0.2706
Threshold for negative eigenvalues: -1.0e-05
solution was a local minimum (stable)
===================================================
End Test for Internal Stability
===================================================
Timing for Internal Stability: 68.00s (wall), 528.28s (cpu)
Our SCF solution is stable!
Timing for Total SCF: 131.00s (wall), 1006.97s (cpu)
 Total energy in the final basis set =     -162.7502955247
<S^2> =         -0.000000000
    ==================================================
              The end of Object-Oriented SCFman       
    ==================================================

 --------------------------------------------------------------

                    Orbital Energies (a.u.)
 --------------------------------------------------------------

 Alpha MOs
 -- Occupied --
-38.5228  -2.2520  -1.1643  -1.1643  -1.1614  -0.1885
 -- Virtual --
 -0.0473  -0.0024  -0.0024   0.0034   0.0131   0.0216   0.0216   0.0277
  0.0342   0.0428   0.0428   0.0434   0.0434   0.0523   0.0701   0.0800
  0.0800   0.0846   0.0869   0.0869   0.0879   0.0879   0.0883   0.0883
  0.1073   0.1267   0.1365   0.1365   0.1390   0.1390   0.1408   0.1408
  0.1408   0.1408   0.1412   0.1412   0.1425   0.1893   0.2137   0.2145
  0.2145   0.2310   0.2310   0.2695   0.2695   0.2906   0.3080   0.3493
  0.3493   0.3623   0.3779   0.3779   0.3853   0.3853   0.4354   0.4354
  0.4410   0.4704   0.4704   0.5234   0.5234   0.5502   0.5502   0.5523
  0.5929   0.5990   0.5990   0.6082   0.6082   0.6152   0.6152   0.6545
  0.6898   0.7062   0.7062   0.8669   0.8669   0.8754   0.9714   0.9714
  1.0083   1.0083   1.1399   1.1399   1.1730   1.3123   1.3139   1.3139
  1.4205   1.4279   1.4279   1.4484   1.4484   1.4862   1.4862   1.5203
  1.5203   1.5516   1.5516   1.5658   1.5854   1.5854   1.8536   1.8813
  1.8813   2.1175   2.9790   2.9790   3.0868   3.0868   3.2112   3.4399
  3.4755   3.4755   3.6870   3.6870   3.7689   3.8242   3.8906   3.8906
  4.0667   4.0667   4.1130   4.1130   4.1316   4.1316   4.1330   4.2768
  4.2768   4.6991   5.7574   5.7574   5.8567   5.8567   6.4175   8.4398
  8.4398   8.6791   8.8992   8.8992   9.0185   9.0185   9.3610  10.4214
 12.4805  12.4805  12.5975  12.5975  12.8004  12.8004  12.9240  17.0046
 17.0046  17.0049  17.0049  17.0051  17.0051  17.0081  17.0081  17.0163
 23.3784  23.3784  23.6228  38.7444  91.1354  91.1354  91.3103

 Beta MOs
 -- Occupied --
-38.5228  -2.2520  -1.1643  -1.1643  -1.1614  -0.1885
 -- Virtual --
 -0.0473  -0.0024  -0.0024   0.0034   0.0131   0.0216   0.0216   0.0277
  0.0342   0.0428   0.0428   0.0434   0.0434   0.0523   0.0701   0.0800
  0.0800   0.0846   0.0869   0.0869   0.0879   0.0879   0.0883   0.0883
  0.1073   0.1267   0.1365   0.1365   0.1390   0.1390   0.1408   0.1408
  0.1408   0.1408   0.1412   0.1412   0.1425   0.1893   0.2137   0.2145
  0.2145   0.2310   0.2310   0.2695   0.2695   0.2906   0.3080   0.3493
  0.3493   0.3623   0.3779   0.3779   0.3853   0.3853   0.4354   0.4354
  0.4410   0.4704   0.4704   0.5234   0.5234   0.5502   0.5502   0.5523
  0.5929   0.5990   0.5990   0.6082   0.6082   0.6152   0.6152   0.6545
  0.6898   0.7062   0.7062   0.8669   0.8669   0.8754   0.9714   0.9714
  1.0083   1.0083   1.1399   1.1399   1.1730   1.3123   1.3139   1.3139
  1.4205   1.4279   1.4279   1.4484   1.4484   1.4862   1.4862   1.5203
  1.5203   1.5516   1.5516   1.5658   1.5854   1.5854   1.8536   1.8813
  1.8813   2.1175   2.9790   2.9790   3.0868   3.0868   3.2112   3.4399
  3.4755   3.4755   3.6870   3.6870   3.7689   3.8242   3.8906   3.8906
  4.0667   4.0667   4.1130   4.1130   4.1316   4.1316   4.1330   4.2768
  4.2768   4.6991   5.7574   5.7574   5.8567   5.8567   6.4175   8.4398
  8.4398   8.6791   8.8992   8.8992   9.0185   9.0185   9.3610  10.4214
 12.4805  12.4805  12.5975  12.5975  12.8004  12.8004  12.9240  17.0046
 17.0046  17.0049  17.0049  17.0051  17.0051  17.0081  17.0081  17.0163
 23.3784  23.3784  23.6228  38.7444  91.1354  91.1354  91.3103
 --------------------------------------------------------------

          Ground-State Mulliken Net Atomic Charges

     Atom                 Charge (a.u.)    Spin (a.u.)
  --------------------------------------------------------
      1 Na                    0.698488       0.000000
      2 H                    -0.698488       0.000000
  --------------------------------------------------------
  Sum of atomic charges =    -0.000000
  Sum of spin   charges =     0.000000

 -----------------------------------------------------------------
                    Cartesian Multipole Moments
 -----------------------------------------------------------------
    Charge (ESU x 10^10)
                -0.0000
    Dipole Moment (Debye)
         X      -0.0000      Y       0.0000      Z      -6.2036
       Tot       6.2036
    Quadrupole Moments (Debye-Ang)
        XX      -8.6864     XY      -0.0000     YY      -8.6864
        XZ      -0.0000     YZ       0.0000     ZZ     -17.8116
    Octopole Moments (Debye-Ang^2)
       XXX      -0.0000    XXY       0.0000    XYY      -0.0000
       YYY       0.0000    XXZ      -7.6349    XYZ      -0.0000
       YYZ      -7.6349    XZZ      -0.0000    YZZ       0.0000
       ZZZ     -36.1426
    Hexadecapole Moments (Debye-Ang^3)
      XXXX     -17.5424   XXXY      -0.0000   XXYY      -5.8475
      XYYY      -0.0000   YYYY     -17.5424   XXXZ       0.0000
      XXYZ       0.0000   XYYZ      -0.0000   YYYZ       0.0000
      XXZZ     -17.7945   XYZZ      -0.0000   YYZZ     -17.7945
      XZZZ      -0.0000   YZZZ       0.0000   ZZZZ    -108.8177
 -----------------------------------------------------------------
Archival summary:
1\1\n0068.mhg0\SP\ProcedureUnspecified\BasisUnspecified\a11\yhljason\SatAug2202:39:412020SatAug2202:39:412020\0\\#,ProcedureUnspecified,BasisUnspecified,\\0,1\Na\H,1,1.8874\\\@

 Total job time:  140.32s(wall), 1070.12s(cpu) 
 Sat Aug 22 02:39:41 2020

        *************************************************************
        *                                                           *
        *  Thank you very much for using Q-Chem.  Have a nice day.  *
        *                                                           *
        *************************************************************


