                  Welcome to Q-Chem
     A Quantum Leap Into The Future Of Chemistry


 Q-Chem 5.3 (devel), Q-Chem, Inc., Pleasanton, CA (2020)

 Yihan Shao,  Zhengting Gan,  E. Epifanovsky,  A. T. B. Gilbert,  M. Wormit,  
 J. Kussmann,  A. W. Lange,  A. Behn,  Jia Deng,  Xintian Feng,  D. Ghosh,  
 M. Goldey,  P. R. Horn,  L. D. Jacobson,  I. Kaliman,  T. Kus,  A. Landau,  
 Jie Liu,  E. I. Proynov,  R. M. Richard,  R. P. Steele,  E. J. Sundstrom,  
 H. L. Woodcock III,  P. M. Zimmerman,  D. Zuev,  B. Alam,  B. Albrecht,  
 E. Alguire,  S. A. Baeppler,  D. Barton,  Z. Benda,  Y. A. Bernard,  
 E. J. Berquist,  K. B. Bravaya,  H. Burton,  K. Carter-Fenk,  D. Casanova,  
 Chun-Min Chang,  Yunqing Chen,  A. Chien,  K. D. Closser,  M. P. Coons,  
 S. Coriani,  S. Dasgupta,  A. L. Dempwolff,  M. Diedenhofen,  Hainam Do,  
 R. G. Edgar,  Po-Tung Fang,  S. Faraji,  S. Fatehi,  Qingguo Feng,  
 J. Fosso-Tande,  J. Gayvert,  Qinghui Ge,  A. Ghysels,  G. Gidofalvi,  
 J. Gomes,  J. Gonthier,  A. Gunina,  D. Hait,  M. W. D. Hanson-Heine,  
 P. H. P. Harbach,  A. W. Hauser,  M. F. Herbst,  J. E. Herr,  
 E. G. Hohenstein,  Z. C. Holden,  Kerwin Hui,  B. C. Huynh,  T.-C. Jagau,  
 Hyunjun Ji,  B. Kaduk,  K. Khistyaev,  Jaehoon Kim,  P. Klunzinger,  K. Koh,  
 D. Kosenkov,  L. Koulias,  T. Kowalczyk,  C. M. Krauter,  A. Kunitsa,  
 Ka Un Lao,  A. Laurent,  K. V. Lawler,  Joonho Lee,  D. Lefrancois,  
 S. Lehtola,  D. S. Levine,  Yi-Pei Li,  You-Sheng Lin,  Fenglai Liu,  
 Kuan-Yu Liu,  E. Livshits,  M. Loipersberger,  A. Luenser,  P. Manohar,  
 E. Mansoor,  S. F. Manzer,  Shan-Ping Mao,  Yuezhi Mao,  N. Mardirossian,  
 A. V. Marenich,  T. Markovich,  L. A. Martinez-Martinez,  S. A. Maurer,  
 N. J. Mayhall,  S. C. McKenzie,  J.-M. Mewes,  P. Morgante,  A. F. Morrison,  
 J. W. Mullinax,  K. Nanda,  T. S. Nguyen-Beck,  R. Olivares-Amaya,  
 K. J. Oosterbaan,  J. A. Parkhill,  S. K. Paul,  F. Pavosevic,  Zheng Pei,  
 T. M. Perrine,  F. Plasser,  P. Pokhilko,  S. Prager,  A. Prociuk,  
 E. Ramos,  B. Rana,  D. R. Rehn,  F. Rob,  M. Scheurer,  M. Schneider,  
 N. Sergueev,  S. M. Sharada,  S. Sharma,  D. W. Small,  T. Stauch,  
 C. J. Stein,  T. Stein,  Yu-Chuan Su,  S. P. Veccham,  Zhen Tao,  
 A. J. W. Thom,  A. Tkatchenko,  T. Tsuchimochi,  N. M. Tubman,  L. Vogt,  
 M. L. Vidal,  O. Vydrov,  M. A. Watson,  J. Wenzel,  M. de Wergifosse,  
 T. A. Wesolowski,  A. White,  J. Witte,  A. Yamada,  Jun Yang,  K. Yao,  
 S. Yeganeh,  S. R. Yost,  Zhi-Qiang You,  A. Zech,  Igor Ying Zhang,  
 Xing Zhang,  Yan Zhao,  Ying Zhu,  B. R. Brooks,  G. K. L. Chan,  
 C. J. Cramer,  M. S. Gordon,  W. J. Hehre,  A. Klamt,  M. W. Schmidt,  
 C. D. Sherrill,  D. G. Truhlar,  A. Aspuru-Guzik,  R. Baer,  A. T. Bell,  
 N. A. Besley,  Jeng-Da Chai,  A. E. DePrince, III,  R. A. DiStasio Jr.,  
 A. Dreuw,  B. D. Dunietz,  T. R. Furlani,  Chao-Ping Hsu,  Yousung Jung,  
 Jing Kong,  D. S. Lambrecht,  WanZhen Liang,  C. Ochsenfeld,  
 V. A. Rassolov,  L. V. Slipchenko,  J. E. Subotnik,  T. Van Voorhis,  
 J. M. Herbert,  A. I. Krylov,  P. M. W. Gill,  M. Head-Gordon

 Contributors to earlier versions of Q-Chem not listed above: 
 R. D. Adamson,  B. Austin,  J. Baker,  G. J. O. Beran,  K. Brandhorst,  
 S. T. Brown,  E. F. C. Byrd,  A. K. Chakraborty,  C.-L. Cheng,  
 Siu Hung Chien,  D. M. Chipman,  D. L. Crittenden,  H. Dachsel,  
 R. J. Doerksen,  A. D. Dutoi,  L. Fusti-Molnar,  W. A. Goddard III,  
 A. Golubeva-Zadorozhnaya,  S. R. Gwaltney,  G. Hawkins,  A. Heyden,  
 S. Hirata,  G. Kedziora,  F. J. Keil,  C. Kelley,  Jihan Kim,  R. A. King,  
 R. Z. Khaliullin,  P. P. Korambath,  W. Kurlancheek,  A. M. Lee,  M. S. Lee,  
 S. V. Levchenko,  Ching Yeh Lin,  D. Liotard,  R. C. Lochan,  I. Lotan,  
 P. E. Maslen,  N. Nair,  D. P. O'Neill,  D. Neuhauser,  E. Neuscamman,  
 C. M. Oana,  R. Olson,  B. Peters,  R. Peverati,  P. A. Pieniazek,  
 Y. M. Rhee,  J. Ritchie,  M. A. Rohrdanz,  E. Rosta,  N. J. Russ,  
 H. F. Schaefer III,  N. E. Schultz,  N. Shenvi,  A. C. Simmonett,  A. Sodt,  
 D. Stuck,  K. S. Thanthiriwatte,  V. Vanovschi,  Tao Wang,  A. Warshel,  
 C. F. Williams,  Q. Wu,  X. Xu,  W. Zhang

 Please cite Q-Chem as follows:
 Y. Shao et al., Mol. Phys. 113, 184-215 (2015)
 DOI: 10.1080/00268976.2014.952696

 Q-Chem 5.3.0 for Intel X86 EM64T Linux

 Parts of Q-Chem use Armadillo 9.800.1 (Horizon Scraper).
 http://arma.sourceforge.net/

 Q-Chem begins on Sat Aug 22 01:02:36 2020  

n0063.mhg0
Host: 0

     Scratch files written to /local/scratch/users/yhljason/NOCl_wB97M-V_aug-pc-4.inp20200821083959//
Processing $rem in /clusterfs/mhg/diptarka/qchem_transmom//config/preferences:
Processing $rem in /global/home/users/yhljason/.qchemrc:

Checking the input file for inconsistencies... 	...done.

--------------------------------------------------------------
User input:
--------------------------------------------------------------
$molecule
0 1
Cl1     -0.5312 -0.9298 0.0000
N2      0.0000  0.9724  0.0000
O3      1.1287  1.1250  0.0000
$end

$rem
jobtype sp
method wB97M-V
xc_grid 000099000590
basis aug-pc-4
max_scf_cycles 200
thresh 14
scf_convergence 8
scf_algorithm gdm
symmetry false
sym_ignore true
unrestricted true
gen_scfman true
internal_stability_iter 15
internal_stability_davidson_iter 200
mem_total 64000
mem_static 1500
n_frozen_core 0
$end


--------------------------------------------------------------
 ----------------------------------------------------------------
             Standard Nuclear Orientation (Angstroms)
    I     Atom           X                Y                Z
 ----------------------------------------------------------------
    1      Cl     -0.5312000000    -0.9298000000     0.0000000000
    2      N       0.0000000000     0.9724000000     0.0000000000
    3      O       1.1287000000     1.1250000000     0.0000000000
 ----------------------------------------------------------------
 Nuclear Repulsion Energy =          85.14841978 hartrees
 There are       16 alpha and       16 beta electrons
 Requested basis set is aug-pc-4
 There are 97 shells and 431 basis functions

 Total QAlloc Memory Limit  64000 MB
 Mega-Array Size      1467 MB
 MEM_STATIC part      1500 MB

                       Distance Matrix (Angstroms)
             Cl(  1)   N (  2)
   N (  2)  1.974978
   O (  3)  2.641490  1.138969

 A cutoff of  1.0D-14 yielded   4644 shell pairs
 There are     92920 function pairs (    182449 Cartesian)
 Smallest overlap matrix eigenvalue = 1.41E-06

 Scale SEOQF with 1.000000e-01/1.000000e-01/1.000000e-01

 Standard Electronic Orientation quadrupole field applied
 Nucleus-field energy     =     0.0000000028 hartrees
 Guess from superposition of atomic densities
 Warning:  Energy on first SCF cycle will be non-variational
 SAD guess density has 32.000000 electrons

 -----------------------------------------------------------------------
  General SCF calculation program by
  Eric Jon Sundstrom, Paul Horn, Yuezhi Mao, Dmitri Zuev, Alec White,
  David Stuck, Shaama M.S., Shane Yost, Joonho Lee, David Small,
  Daniel Levine, Susi Lehtola, Hugh Burton, Evgeny Epifanovsky,
  Bang C. Huynh
 -----------------------------------------------------------------------
 Exchange:     0.1500 Hartree-Fock + 1.0000 wB97M-V + LR-HF
 Correlation:  1.0000 wB97M-V
 Using Euler-Maclaurin-Lebedev (99,590) quadrature formula
 Nonlocal Correlation:  VV10 with C = 0.0100 and b = 6.00 and scale = 1.00000
 Grid used for NLC:  SG-1 standard quadrature
Running Object-Oriented UKS (UHF)
performing a single roothaan step with Fock from read density so that orbitals are available to all algorithms
 -------------------------------------------------------
 OpenMP BLAS3 based DFT computing Module                
 Release: version 1.0, May 2013, Q-Chem Inc. Pittsburgh 
 -------------------------------------------------------
 -------------------------------------------------------
 OpenMP BLAS3 based DFT computing Module                
 Release: version 1.0, May 2013, Q-Chem Inc. Pittsburgh 
 -------------------------------------------------------
 -------------------------------------------------------
 OpenMP BLAS3 based DFT computing Module                
 Release: version 1.0, May 2013, Q-Chem Inc. Pittsburgh 
 -------------------------------------------------------
energy of the guess density (C=0) -590.300714431166
 -------------------------------------------------------
 OpenMP BLAS3 based DFT computing Module                
 Release: version 1.0, May 2013, Q-Chem Inc. Pittsburgh 
 -------------------------------------------------------
 -------------------------------------------------------
 OpenMP BLAS3 based DFT computing Module                
 Release: version 1.0, May 2013, Q-Chem Inc. Pittsburgh 
 -------------------------------------------------------
 -------------------------------------------------------
 OpenMP BLAS3 based DFT computing Module                
 Release: version 1.0, May 2013, Q-Chem Inc. Pittsburgh 
 -------------------------------------------------------
We will preform up to 15 macro iterations over saddle points until a stable solution is found
Energy prior to optimization (guess energy) = -589.997862489852
Begin Timing: Total SCF Calculation
Begin Timing: SCF Single Stationary Point Calculation
begin iterations for algorithm: GDM          
the SCF tolerance is set to 1.00e-08
    1    -589.9978624899      3.02e-01     00000  Descent step
    2    -590.1084287337      6.18e-02     00000  Normal BFGS step
    3    -590.1172765954      3.34e-02     00000  Normal BFGS step
    4    -590.1184483026      3.25e-02     00000  Normal BFGS step
    5    -590.1197632214      6.68e-03     00000  Normal BFGS step
    6    -590.1198652190      2.63e-03     00000  Normal BFGS step
    7    -590.1198947404      1.12e-03     00000  Normal BFGS step
    8    -590.1198985982      1.06e-04     00000  Normal BFGS step
    9    -590.1198987433      3.08e-05     00000  Normal BFGS step
   10    -590.1198987541      8.14e-06     00000  Normal BFGS step
   11    -590.1198987551      3.05e-06     00000  Normal BFGS step
   12    -590.1198987551      1.16e-06     00000  Normal BFGS step
   13    -590.1198987552      3.13e-07     00000  Normal BFGS step
   14    -590.1198987552      1.40e-07     00000  Normal BFGS step
   15    -590.1198987552      2.84e-08     00000  Normal BFGS step
   16    -590.1198987552      2.80e-08     00000  Normal BFGS step
  GDM::WARNING energy changes are now smaller than effective accuracy.
  GDM::        calculation will continue, but THRESH should be increased
  GDM::        or SCF_CONVERGENCE decreased. 
  GDM::        effective_thresh = 1.45e-08
   17    -590.1198987552      2.03e-08     00000  Normal BFGS step
   18    -590.1198987552      8.63e-10     00000 Convergence criterion met
Timing for Single Stationary Point: 15249.00s (wall), 120521.99s (cpu)
Begin Timing: Stability
===================================================
Beginning Test for Internal Stability
===================================================
generating davidson guess vectors based on koopmans excitations
computing hessian-vector products by finite difference
    1      7.16e-01     00000 Davidson Iteration
computing hessian-vector products by finite difference
    2      1.01e-01     00000 Davidson Iteration
computing hessian-vector products by finite difference
    3      1.36e-01     00000 Davidson Iteration
computing hessian-vector products by finite difference
    4      2.41e-02     00000 Davidson Iteration
computing hessian-vector products by finite difference
    5      2.58e-02     00000 Davidson Iteration
computing hessian-vector products by finite difference
    6      8.70e-03     00000 Davidson Iteration
computing hessian-vector products by finite difference
    7      3.22e-03     00000 Davidson Iteration
computing hessian-vector products by finite difference
    8      1.17e-03     00000 Davidson Iteration
computing hessian-vector products by finite difference
    9      4.61e-04     00000 Davidson Iteration
computing hessian-vector products by finite difference
   10      1.07e-03     00000 Davidson Iteration
computing hessian-vector products by finite difference
   11      2.71e-04     00000 Davidson Converged
converged_eigenvalues
   0.1183
   0.2159
Threshold for negative eigenvalues: -1.0e-05
solution was a local minimum (stable)
===================================================
End Test for Internal Stability
===================================================
Timing for Internal Stability: 44150.00s (wall), 349060.12s (cpu)
Our SCF solution is stable!
Timing for Total SCF: 59399.00s (wall), 469582.31s (cpu)
 Total energy in the final basis set =     -590.1198987552
<S^2> =         -0.000000000
    ==================================================
              The end of Object-Oriented SCFman       
    ==================================================

 --------------------------------------------------------------

                    Orbital Energies (a.u.)
 --------------------------------------------------------------

 Alpha MOs
 -- Occupied --
******** -19.5126 -14.7500  -9.6340  -7.3364  -7.3303  -7.3292  -1.4396
 -0.9530  -0.8326  -0.6834  -0.6773  -0.6602  -0.4200  -0.4162  -0.3985
 -- Virtual --
 -0.0507  -0.0094   0.0152   0.0296   0.0315   0.0321   0.0554   0.0566
  0.0572   0.0640   0.0652   0.0837   0.1080   0.1242   0.1367   0.1390
  0.1625   0.1626   0.1702   0.1777   0.1816   0.1903   0.1904   0.1959
  0.1983   0.2000   0.2108   0.2131   0.2331   0.2346   0.2456   0.2570
  0.2701   0.2817   0.3022   0.3180   0.3182   0.3379   0.3410   0.3464
  0.3557   0.3614   0.3686   0.3690   0.3888   0.3909   0.4012   0.4055
  0.4169   0.4253   0.4284   0.4358   0.4511   0.4533   0.4569   0.4695
  0.4757   0.4849   0.4901   0.4981   0.5038   0.5083   0.5266   0.5365
  0.5409   0.5550   0.5664   0.5742   0.5816   0.5998   0.6165   0.6290
  0.6293   0.6372   0.6560   0.6591   0.6606   0.6800   0.6928   0.6937
  0.6993   0.7057   0.7120   0.7220   0.7244   0.7306   0.7414   0.7565
  0.7586   0.7587   0.7796   0.7879   0.8051   0.8150   0.8238   0.8366
  0.8514   0.8625   0.8667   0.8699   0.8728   0.8827   0.8876   0.8937
  0.9022   0.9129   0.9361   0.9404   0.9422   0.9473   0.9517   0.9530
  0.9662   0.9790   0.9853   0.9908   0.9922   0.9971   0.9998   1.0163
  1.0206   1.0473   1.0489   1.0618   1.0900   1.0990   1.1000   1.1129
  1.1235   1.1272   1.1342   1.1469   1.1509   1.1630   1.1733   1.1824
  1.1933   1.2018   1.2173   1.2331   1.2344   1.2718   1.2725   1.2761
  1.2873   1.2961   1.3065   1.3210   1.3289   1.3501   1.3849   1.4099
  1.4380   1.5222   1.5289   1.5909   1.5929   1.6488   1.6672   1.6725
  1.6879   1.7119   1.7602   1.7754   1.8340   1.8369   1.8756   1.8885
  1.9052   1.9471   1.9473   1.9773   2.0036   2.0167   2.0593   2.0832
  2.1324   2.1552   2.1631   2.2070   2.2631   2.2656   2.3185   2.3420
  2.3676   2.4125   2.4739   2.4836   2.4928   2.5309   2.5500   2.5924
  2.6409   2.6510   2.7960   2.8625   2.9366   2.9381   3.0006   3.0424
  3.0484   3.0879   3.1044   3.1290   3.1394   3.2503   3.2558   3.3090
  3.3278   3.3534   3.4817   3.5076   3.5338   3.7983   3.8301   3.8488
  3.8798   3.9052   3.9728   4.0461   4.0543   4.1161   4.1467   4.2005
  4.2282   4.2682   4.2899   4.2922   4.4492   4.4749   4.5487   4.6051
  4.6398   4.7066   4.7205   4.7502   4.8435   4.9522   5.0410   5.0768
  5.1175   5.1375   5.2130   5.2434   5.3062   5.3815   5.4325   5.4675
  5.4828   5.5381   5.5819   5.7879   5.8069   5.8332   5.8371   5.8374
  5.8395   5.8609   5.9094   5.9227   6.0015   6.0136   6.0195   6.0895
  6.0905   6.1143   6.1615   6.1883   6.2428   6.2768   6.3070   6.3618
  6.5654   6.5999   6.7319   6.7624   6.8234   6.8466   7.0493   7.0950
  7.0964   7.1120   7.3883   7.5698   7.6531   7.8162   7.9366   8.0250
  8.4456   8.5087   8.6433   9.1520   9.2956   9.3027   9.3075   9.3257
  9.3453   9.3924   9.4284   9.4604   9.5808   9.6362   9.6694   9.7916
 10.0099  10.4585  10.4746  10.6053  10.9558  11.1092  11.1398  11.1620
 11.2073  11.2224  11.2689  11.3188  11.3517  11.4065  11.4697  11.4784
 11.5235  11.5838  11.6954  11.9691  12.0642  12.1613  12.1676  12.1678
 12.2529  12.5156  12.5214  12.8807  12.9202  13.0685  13.1079  13.2134
 13.2465  13.2645  13.3087  13.3209  13.3358  13.3604  13.3958  13.4059
 13.4319  13.4737  13.8631  13.8716  14.3228  14.4060  14.4474  14.5451
 14.8809  14.9759  15.1560  15.2403  15.3881  15.6174  15.7618  16.2827
 16.2854  16.3085  16.4906  16.6074  16.8291  17.0785  17.1675  17.1702
 17.2281  17.4374  17.4628  18.0302  18.0337  18.0836  18.1284  18.1789
 18.2195  18.5815  18.9449  18.9832  19.0686  19.1600  19.2501  20.8757
 23.3109  23.3647  24.2276  24.6400  24.7757  26.2711  26.5039  26.8608
 29.2057  31.6247  32.2408  32.4101  34.7412  39.6577  48.0107  48.0775
 48.3332  48.4653  49.7113  66.7633  66.7662  66.7928  66.8299  67.0803
 67.0945  67.1360  67.8971  67.9870  69.6503 107.3260 145.7209

 Beta MOs
 -- Occupied --
******** -19.5126 -14.7500  -9.6340  -7.3364  -7.3303  -7.3292  -1.4396
 -0.9530  -0.8326  -0.6834  -0.6773  -0.6602  -0.4200  -0.4162  -0.3985
 -- Virtual --
 -0.0507  -0.0094   0.0152   0.0296   0.0315   0.0321   0.0554   0.0566
  0.0572   0.0640   0.0652   0.0837   0.1080   0.1242   0.1367   0.1390
  0.1625   0.1626   0.1702   0.1777   0.1816   0.1903   0.1904   0.1959
  0.1983   0.2000   0.2108   0.2131   0.2331   0.2346   0.2456   0.2570
  0.2701   0.2817   0.3022   0.3180   0.3182   0.3379   0.3410   0.3464
  0.3557   0.3614   0.3686   0.3690   0.3888   0.3909   0.4012   0.4055
  0.4169   0.4253   0.4284   0.4358   0.4511   0.4533   0.4569   0.4695
  0.4757   0.4849   0.4901   0.4981   0.5038   0.5083   0.5266   0.5365
  0.5409   0.5550   0.5664   0.5742   0.5816   0.5998   0.6165   0.6290
  0.6293   0.6372   0.6560   0.6591   0.6606   0.6800   0.6928   0.6937
  0.6993   0.7057   0.7120   0.7220   0.7244   0.7306   0.7414   0.7565
  0.7586   0.7587   0.7796   0.7879   0.8051   0.8150   0.8238   0.8366
  0.8514   0.8625   0.8667   0.8699   0.8728   0.8827   0.8876   0.8937
  0.9022   0.9129   0.9361   0.9404   0.9422   0.9473   0.9517   0.9530
  0.9662   0.9790   0.9853   0.9908   0.9922   0.9971   0.9998   1.0163
  1.0206   1.0473   1.0489   1.0618   1.0900   1.0990   1.1000   1.1129
  1.1235   1.1272   1.1342   1.1469   1.1509   1.1630   1.1733   1.1824
  1.1933   1.2018   1.2173   1.2331   1.2344   1.2718   1.2725   1.2761
  1.2873   1.2961   1.3065   1.3210   1.3289   1.3501   1.3849   1.4099
  1.4380   1.5222   1.5289   1.5909   1.5929   1.6488   1.6672   1.6725
  1.6879   1.7119   1.7602   1.7754   1.8340   1.8369   1.8756   1.8885
  1.9052   1.9471   1.9473   1.9773   2.0036   2.0167   2.0593   2.0832
  2.1324   2.1552   2.1631   2.2070   2.2631   2.2656   2.3185   2.3420
  2.3676   2.4125   2.4739   2.4836   2.4928   2.5309   2.5500   2.5924
  2.6409   2.6510   2.7960   2.8625   2.9366   2.9381   3.0006   3.0424
  3.0484   3.0879   3.1044   3.1290   3.1394   3.2503   3.2558   3.3090
  3.3278   3.3534   3.4817   3.5076   3.5338   3.7983   3.8301   3.8488
  3.8798   3.9052   3.9728   4.0461   4.0543   4.1161   4.1467   4.2005
  4.2282   4.2682   4.2899   4.2922   4.4492   4.4749   4.5487   4.6051
  4.6398   4.7066   4.7205   4.7502   4.8435   4.9522   5.0410   5.0768
  5.1175   5.1375   5.2130   5.2434   5.3062   5.3815   5.4325   5.4675
  5.4828   5.5381   5.5819   5.7879   5.8069   5.8332   5.8371   5.8374
  5.8395   5.8609   5.9094   5.9227   6.0015   6.0136   6.0195   6.0895
  6.0905   6.1143   6.1615   6.1883   6.2428   6.2768   6.3070   6.3618
  6.5654   6.5999   6.7319   6.7624   6.8234   6.8466   7.0493   7.0950
  7.0964   7.1120   7.3883   7.5698   7.6531   7.8162   7.9366   8.0250
  8.4456   8.5087   8.6433   9.1520   9.2956   9.3027   9.3075   9.3257
  9.3453   9.3924   9.4284   9.4604   9.5808   9.6362   9.6694   9.7916
 10.0099  10.4585  10.4746  10.6053  10.9558  11.1092  11.1398  11.1620
 11.2073  11.2224  11.2689  11.3188  11.3517  11.4065  11.4697  11.4784
 11.5235  11.5838  11.6954  11.9691  12.0642  12.1613  12.1676  12.1678
 12.2529  12.5156  12.5214  12.8807  12.9202  13.0685  13.1079  13.2134
 13.2465  13.2645  13.3087  13.3209  13.3358  13.3604  13.3958  13.4059
 13.4319  13.4737  13.8631  13.8716  14.3228  14.4060  14.4474  14.5451
 14.8809  14.9759  15.1560  15.2403  15.3881  15.6174  15.7618  16.2827
 16.2854  16.3085  16.4906  16.6074  16.8291  17.0785  17.1675  17.1702
 17.2281  17.4374  17.4628  18.0302  18.0337  18.0836  18.1284  18.1789
 18.2195  18.5815  18.9449  18.9832  19.0686  19.1600  19.2501  20.8757
 23.3109  23.3647  24.2276  24.6400  24.7757  26.2711  26.5039  26.8608
 29.2057  31.6247  32.2408  32.4101  34.7412  39.6577  48.0107  48.0775
 48.3332  48.4653  49.7113  66.7633  66.7662  66.7928  66.8299  67.0803
 67.0945  67.1360  67.8971  67.9870  69.6503 107.3260 145.7209
 --------------------------------------------------------------

          Ground-State Mulliken Net Atomic Charges

     Atom                 Charge (a.u.)    Spin (a.u.)
  --------------------------------------------------------
      1 Cl                   -0.440840       0.000000
      2 N                     0.405739       0.000000
      3 O                     0.035101      -0.000000
  --------------------------------------------------------
  Sum of atomic charges =    -0.000000
  Sum of spin   charges =    -0.000000

 -----------------------------------------------------------------
                    Cartesian Multipole Moments
 -----------------------------------------------------------------
    Charge (ESU x 10^10)
                -0.0000
    Dipole Moment (Debye)
         X       0.8998      Y       1.7764      Z      -0.0000
       Tot       1.9913
    Quadrupole Moments (Debye-Ang)
        XX     -24.0615     XY       0.3690     YY     -22.8252
        XZ      -0.0000     YZ      -0.0000     ZZ     -22.9077
    Octopole Moments (Debye-Ang^2)
       XXX       4.9489    XXY       1.5994    XYY       1.1289
       YYY       3.6919    XXZ      -0.0000    XYZ      -0.0000
       YYZ      -0.0000    XZZ       2.0027    YZZ       2.7391
       ZZZ      -0.0000
    Hexadecapole Moments (Debye-Ang^3)
      XXXX     -85.8799   XXXY     -38.0010   XXYY     -40.7614
      XYYY     -35.2795   YYYY    -154.8746   XXXZ      -0.0000
      XXYZ      -0.0000   XYYZ      -0.0000   YYYZ      -0.0000
      XXZZ     -17.9715   XYZZ     -12.3351   YYZZ     -29.9333
      XZZZ      -0.0000   YZZZ      -0.0000   ZZZZ     -24.2725
 -----------------------------------------------------------------
Archival summary:
1\1\n0063.mhg0\SP\ProcedureUnspecified\BasisUnspecified\l111\yhljason\SatAug2218:01:012020SatAug2218:01:012020\0\\#,ProcedureUnspecified,BasisUnspecified,\\0,1\Cl\N,1,1.97498\O,2,1.13897,1,113.302\\\@

 Total job time:  61105.38s(wall), 483059.82s(cpu) 
 Sat Aug 22 18:01:01 2020

        *************************************************************
        *                                                           *
        *  Thank you very much for using Q-Chem.  Have a nice day.  *
        *                                                           *
        *************************************************************


