                  Welcome to Q-Chem
     A Quantum Leap Into The Future Of Chemistry


 Q-Chem 5.3 (devel), Q-Chem, Inc., Pleasanton, CA (2020)

 Yihan Shao,  Zhengting Gan,  E. Epifanovsky,  A. T. B. Gilbert,  M. Wormit,  
 J. Kussmann,  A. W. Lange,  A. Behn,  Jia Deng,  Xintian Feng,  D. Ghosh,  
 M. Goldey,  P. R. Horn,  L. D. Jacobson,  I. Kaliman,  T. Kus,  A. Landau,  
 Jie Liu,  E. I. Proynov,  R. M. Richard,  R. P. Steele,  E. J. Sundstrom,  
 H. L. Woodcock III,  P. M. Zimmerman,  D. Zuev,  B. Alam,  B. Albrecht,  
 E. Alguire,  S. A. Baeppler,  D. Barton,  Z. Benda,  Y. A. Bernard,  
 E. J. Berquist,  K. B. Bravaya,  H. Burton,  K. Carter-Fenk,  D. Casanova,  
 Chun-Min Chang,  Yunqing Chen,  A. Chien,  K. D. Closser,  M. P. Coons,  
 S. Coriani,  S. Dasgupta,  A. L. Dempwolff,  M. Diedenhofen,  Hainam Do,  
 R. G. Edgar,  Po-Tung Fang,  S. Faraji,  S. Fatehi,  Qingguo Feng,  
 J. Fosso-Tande,  J. Gayvert,  Qinghui Ge,  A. Ghysels,  G. Gidofalvi,  
 J. Gomes,  J. Gonthier,  A. Gunina,  D. Hait,  M. W. D. Hanson-Heine,  
 P. H. P. Harbach,  A. W. Hauser,  M. F. Herbst,  J. E. Herr,  
 E. G. Hohenstein,  Z. C. Holden,  Kerwin Hui,  B. C. Huynh,  T.-C. Jagau,  
 Hyunjun Ji,  B. Kaduk,  K. Khistyaev,  Jaehoon Kim,  P. Klunzinger,  K. Koh,  
 D. Kosenkov,  L. Koulias,  T. Kowalczyk,  C. M. Krauter,  A. Kunitsa,  
 Ka Un Lao,  A. Laurent,  K. V. Lawler,  Joonho Lee,  D. Lefrancois,  
 S. Lehtola,  D. S. Levine,  Yi-Pei Li,  You-Sheng Lin,  Fenglai Liu,  
 Kuan-Yu Liu,  E. Livshits,  M. Loipersberger,  A. Luenser,  P. Manohar,  
 E. Mansoor,  S. F. Manzer,  Shan-Ping Mao,  Yuezhi Mao,  N. Mardirossian,  
 A. V. Marenich,  T. Markovich,  L. A. Martinez-Martinez,  S. A. Maurer,  
 N. J. Mayhall,  S. C. McKenzie,  J.-M. Mewes,  P. Morgante,  A. F. Morrison,  
 J. W. Mullinax,  K. Nanda,  T. S. Nguyen-Beck,  R. Olivares-Amaya,  
 K. J. Oosterbaan,  J. A. Parkhill,  S. K. Paul,  F. Pavosevic,  Zheng Pei,  
 T. M. Perrine,  F. Plasser,  P. Pokhilko,  S. Prager,  A. Prociuk,  
 E. Ramos,  B. Rana,  D. R. Rehn,  F. Rob,  M. Scheurer,  M. Schneider,  
 N. Sergueev,  S. M. Sharada,  S. Sharma,  D. W. Small,  T. Stauch,  
 C. J. Stein,  T. Stein,  Yu-Chuan Su,  S. P. Veccham,  Zhen Tao,  
 A. J. W. Thom,  A. Tkatchenko,  T. Tsuchimochi,  N. M. Tubman,  L. Vogt,  
 M. L. Vidal,  O. Vydrov,  M. A. Watson,  J. Wenzel,  M. de Wergifosse,  
 T. A. Wesolowski,  A. White,  J. Witte,  A. Yamada,  Jun Yang,  K. Yao,  
 S. Yeganeh,  S. R. Yost,  Zhi-Qiang You,  A. Zech,  Igor Ying Zhang,  
 Xing Zhang,  Yan Zhao,  Ying Zhu,  B. R. Brooks,  G. K. L. Chan,  
 C. J. Cramer,  M. S. Gordon,  W. J. Hehre,  A. Klamt,  M. W. Schmidt,  
 C. D. Sherrill,  D. G. Truhlar,  A. Aspuru-Guzik,  R. Baer,  A. T. Bell,  
 N. A. Besley,  Jeng-Da Chai,  A. E. DePrince, III,  R. A. DiStasio Jr.,  
 A. Dreuw,  B. D. Dunietz,  T. R. Furlani,  Chao-Ping Hsu,  Yousung Jung,  
 Jing Kong,  D. S. Lambrecht,  WanZhen Liang,  C. Ochsenfeld,  
 V. A. Rassolov,  L. V. Slipchenko,  J. E. Subotnik,  T. Van Voorhis,  
 J. M. Herbert,  A. I. Krylov,  P. M. W. Gill,  M. Head-Gordon

 Contributors to earlier versions of Q-Chem not listed above: 
 R. D. Adamson,  B. Austin,  J. Baker,  G. J. O. Beran,  K. Brandhorst,  
 S. T. Brown,  E. F. C. Byrd,  A. K. Chakraborty,  C.-L. Cheng,  
 Siu Hung Chien,  D. M. Chipman,  D. L. Crittenden,  H. Dachsel,  
 R. J. Doerksen,  A. D. Dutoi,  L. Fusti-Molnar,  W. A. Goddard III,  
 A. Golubeva-Zadorozhnaya,  S. R. Gwaltney,  G. Hawkins,  A. Heyden,  
 S. Hirata,  G. Kedziora,  F. J. Keil,  C. Kelley,  Jihan Kim,  R. A. King,  
 R. Z. Khaliullin,  P. P. Korambath,  W. Kurlancheek,  A. M. Lee,  M. S. Lee,  
 S. V. Levchenko,  Ching Yeh Lin,  D. Liotard,  R. C. Lochan,  I. Lotan,  
 P. E. Maslen,  N. Nair,  D. P. O'Neill,  D. Neuhauser,  E. Neuscamman,  
 C. M. Oana,  R. Olson,  B. Peters,  R. Peverati,  P. A. Pieniazek,  
 Y. M. Rhee,  J. Ritchie,  M. A. Rohrdanz,  E. Rosta,  N. J. Russ,  
 H. F. Schaefer III,  N. E. Schultz,  N. Shenvi,  A. C. Simmonett,  A. Sodt,  
 D. Stuck,  K. S. Thanthiriwatte,  V. Vanovschi,  Tao Wang,  A. Warshel,  
 C. F. Williams,  Q. Wu,  X. Xu,  W. Zhang

 Please cite Q-Chem as follows:
 Y. Shao et al., Mol. Phys. 113, 184-215 (2015)
 DOI: 10.1080/00268976.2014.952696

 Q-Chem 5.3.0 for Intel X86 EM64T Linux

 Parts of Q-Chem use Armadillo 9.800.1 (Horizon Scraper).
 http://arma.sourceforge.net/

 Q-Chem begins on Sat Aug 22 00:32:50 2020  

n0075.mhg0
Host: 0

     Scratch files written to /local/scratch/users/yhljason/NOCl_CAM-B3LYP_aug-pc-4.inp20200821083957//
Processing $rem in /clusterfs/mhg/diptarka/qchem_transmom//config/preferences:
Processing $rem in /global/home/users/yhljason/.qchemrc:

Checking the input file for inconsistencies... 	...done.

--------------------------------------------------------------
User input:
--------------------------------------------------------------
$molecule
0 1
Cl1     -0.5312 -0.9298 0.0000
N2      0.0000  0.9724  0.0000
O3      1.1287  1.1250  0.0000
$end

$rem
jobtype sp
method CAM-B3LYP
xc_grid 000099000590
basis aug-pc-4
max_scf_cycles 200
thresh 14
scf_convergence 8
scf_algorithm gdm
symmetry false
sym_ignore true
unrestricted true
gen_scfman true
internal_stability_iter 15
internal_stability_davidson_iter 200
mem_total 64000
mem_static 1500
n_frozen_core 0
$end


--------------------------------------------------------------
 ----------------------------------------------------------------
             Standard Nuclear Orientation (Angstroms)
    I     Atom           X                Y                Z
 ----------------------------------------------------------------
    1      Cl     -0.5312000000    -0.9298000000     0.0000000000
    2      N       0.0000000000     0.9724000000     0.0000000000
    3      O       1.1287000000     1.1250000000     0.0000000000
 ----------------------------------------------------------------
 Nuclear Repulsion Energy =          85.14841978 hartrees
 There are       16 alpha and       16 beta electrons
 Requested basis set is aug-pc-4
 There are 97 shells and 431 basis functions

 Total QAlloc Memory Limit  64000 MB
 Mega-Array Size      1467 MB
 MEM_STATIC part      1500 MB

                       Distance Matrix (Angstroms)
             Cl(  1)   N (  2)
   N (  2)  1.974978
   O (  3)  2.641490  1.138969

 A cutoff of  1.0D-14 yielded   4644 shell pairs
 There are     92920 function pairs (    182449 Cartesian)
 Smallest overlap matrix eigenvalue = 1.41E-06

 Scale SEOQF with 1.000000e-01/1.000000e-01/1.000000e-01

 Standard Electronic Orientation quadrupole field applied
 Nucleus-field energy     =     0.0000000028 hartrees
 Guess from superposition of atomic densities
 Warning:  Energy on first SCF cycle will be non-variational
 SAD guess density has 32.000000 electrons

 -----------------------------------------------------------------------
  General SCF calculation program by
  Eric Jon Sundstrom, Paul Horn, Yuezhi Mao, Dmitri Zuev, Alec White,
  David Stuck, Shaama M.S., Shane Yost, Joonho Lee, David Small,
  Daniel Levine, Susi Lehtola, Hugh Burton, Evgeny Epifanovsky,
  Bang C. Huynh
 -----------------------------------------------------------------------
 Exchange:     0.1900 Hartree-Fock + 0.3500 B88 + 0.4600 muB88 + LR-HF
 Correlation:  0.1900 VWN5 + 0.8100 LYP
 Using Euler-Maclaurin-Lebedev (99,590) quadrature formula
Running Object-Oriented UKS (UHF)
performing a single roothaan step with Fock from read density so that orbitals are available to all algorithms
energy of the guess density (C=0) -590.368970830045
We will preform up to 15 macro iterations over saddle points until a stable solution is found
Energy prior to optimization (guess energy) = -590.038586052661
Begin Timing: Total SCF Calculation
Begin Timing: SCF Single Stationary Point Calculation
begin iterations for algorithm: GDM          
the SCF tolerance is set to 1.00e-08
    1    -590.0385860527      3.47e-01     00000  Descent step
    2    -590.0940599083      1.98e-01     00000  Descent step
    3    -590.1133909736      1.96e-01     00000  Normal BFGS step
    4    -590.1459296953      2.12e-02     00000  Normal BFGS step
    5    -590.1458743027      3.08e-02     00000 Line search: overstep
    6    -590.1466593384      5.31e-03     00000  Normal BFGS step
    7    -590.1468685548      2.49e-03     00000  Normal BFGS step
    8    -590.1469009153      3.80e-04     00000  Normal BFGS step
    9    -590.1469019369      1.76e-04     00000  Normal BFGS step
   10    -590.1469020978      2.99e-05     00000  Normal BFGS step
   11    -590.1469021024      8.40e-06     00000  Normal BFGS step
   12    -590.1469021032      2.73e-06     00000  Normal BFGS step
   13    -590.1469021033      1.15e-06     00000  Normal BFGS step
   14    -590.1469021033      4.10e-07     00000  Normal BFGS step
   15    -590.1469021033      4.53e-07     00000  Normal BFGS step
   16    -590.1469021033      3.94e-08     00000  Normal BFGS step
   17    -590.1469021033      7.21e-09     00000 Convergence criterion met
Timing for Single Stationary Point: 13063.00s (wall), 103468.32s (cpu)
Begin Timing: Stability
===================================================
Beginning Test for Internal Stability
===================================================
generating davidson guess vectors based on koopmans excitations
 Warning: Hessian-vector products not implemented
 Finite difference Hessian-vector products will be used.
computing hessian-vector products by finite difference
    1      7.21e-01     00000 Davidson Iteration
computing hessian-vector products by finite difference
    2      1.12e-01     00000 Davidson Iteration
computing hessian-vector products by finite difference
    3      1.14e-01     00000 Davidson Iteration
computing hessian-vector products by finite difference
    4      1.80e-02     00000 Davidson Iteration
computing hessian-vector products by finite difference
    5      1.83e-02     00000 Davidson Iteration
computing hessian-vector products by finite difference
    6      4.49e-03     00000 Davidson Iteration
computing hessian-vector products by finite difference
    7      2.43e-03     00000 Davidson Iteration
computing hessian-vector products by finite difference
    8      8.13e-04     00000 Davidson Iteration
computing hessian-vector products by finite difference
    9      2.49e-04     00000 Davidson Iteration
computing hessian-vector products by finite difference
   10      1.04e-04     00000 Davidson Iteration
computing hessian-vector products by finite difference
   11      2.69e-05     00000 Davidson Iteration
computing hessian-vector products by finite difference
   12      9.46e-04     00000 Davidson Iteration
computing hessian-vector products by finite difference
   13      6.02e-05     00000 Davidson Converged
converged_eigenvalues
   0.0852
   0.2157
Threshold for negative eigenvalues: -1.0e-05
solution was a local minimum (stable)
===================================================
End Test for Internal Stability
===================================================
Timing for Internal Stability: 39978.00s (wall), 316632.91s (cpu)
Our SCF solution is stable!
Timing for Total SCF: 53041.00s (wall), 420101.41s (cpu)
 Total energy in the final basis set =     -590.1469021033
<S^2> =          0.000000000
    ==================================================
              The end of Object-Oriented SCFman       
    ==================================================

 --------------------------------------------------------------

                    Orbital Energies (a.u.)
 --------------------------------------------------------------

 Alpha MOs
 -- Occupied --
******** -19.3830 -14.6362  -9.5252  -7.2865  -7.2799  -7.2785  -1.3935
 -0.9148  -0.7896  -0.6471  -0.6416  -0.6233  -0.3893  -0.3848  -0.3690
 -- Virtual --
 -0.0967  -0.0494   0.0132   0.0282   0.0313   0.0325   0.0556   0.0565
  0.0570   0.0638   0.0641   0.0836   0.1029   0.1179   0.1322   0.1345
  0.1579   0.1582   0.1640   0.1759   0.1770   0.1833   0.1862   0.1884
  0.2002   0.2022   0.2046   0.2082   0.2345   0.2364   0.2471   0.2515
  0.2711   0.2749   0.2970   0.3114   0.3152   0.3314   0.3314   0.3364
  0.3447   0.3532   0.3568   0.3628   0.3786   0.3855   0.3927   0.4048
  0.4173   0.4200   0.4284   0.4289   0.4332   0.4468   0.4504   0.4585
  0.4669   0.4760   0.4783   0.4881   0.4953   0.5006   0.5183   0.5323
  0.5349   0.5412   0.5572   0.5605   0.5775   0.5933   0.6090   0.6146
  0.6269   0.6323   0.6503   0.6567   0.6577   0.6717   0.6799   0.6900
  0.6951   0.6965   0.7047   0.7117   0.7213   0.7286   0.7291   0.7480
  0.7498   0.7512   0.7731   0.7825   0.8007   0.8135   0.8223   0.8304
  0.8477   0.8559   0.8617   0.8705   0.8736   0.8774   0.8838   0.8861
  0.9037   0.9112   0.9290   0.9362   0.9431   0.9455   0.9568   0.9570
  0.9609   0.9730   0.9776   0.9881   0.9916   0.9982   0.9984   1.0075
  1.0170   1.0562   1.0563   1.0621   1.0815   1.0920   1.1006   1.1092
  1.1178   1.1225   1.1405   1.1418   1.1519   1.1688   1.1802   1.1843
  1.1932   1.2090   1.2155   1.2346   1.2361   1.2716   1.2721   1.2753
  1.2884   1.2997   1.3051   1.3253   1.3295   1.3567   1.3801   1.4088
  1.4319   1.5151   1.5206   1.5790   1.5819   1.6390   1.6577   1.6579
  1.6735   1.7007   1.7514   1.7606   1.8206   1.8241   1.8666   1.8747
  1.8961   1.9343   1.9347   1.9673   1.9942   2.0036   2.0476   2.0776
  2.1220   2.1497   2.1504   2.1971   2.2527   2.2532   2.3024   2.3289
  2.3535   2.3989   2.4600   2.4736   2.4792   2.5152   2.5358   2.5832
  2.6263   2.6423   2.7928   2.8592   2.9322   2.9381   2.9941   3.0335
  3.0399   3.0796   3.0986   3.1191   3.1355   3.2435   3.2472   3.3028
  3.3202   3.3431   3.4744   3.5049   3.5295   3.7960   3.8248   3.8454
  3.8763   3.8821   3.9672   4.0325   4.0496   4.1119   4.1336   4.1841
  4.2128   4.2567   4.2692   4.2787   4.4361   4.4526   4.5303   4.5704
  4.6270   4.6863   4.7148   4.7289   4.8294   4.9446   5.0105   5.0404
  5.0667   5.1177   5.1964   5.2320   5.2921   5.3517   5.4047   5.4546
  5.4723   5.5220   5.5701   5.7669   5.8166   5.8514   5.8619   5.8647
  5.8652   5.8784   5.9222   5.9260   5.9803   5.9883   6.0132   6.0513
  6.0539   6.0774   6.1620   6.1729   6.2351   6.2662   6.2821   6.3435
  6.5585   6.5884   6.7090   6.7413   6.8113   6.8297   7.0402   7.0820
  7.0882   7.1026   7.3661   7.5683   7.6285   7.7963   7.9114   8.0033
  8.4075   8.4840   8.6213   9.0979   9.2592   9.2958   9.2983   9.3161
  9.3330   9.3794   9.3973   9.4376   9.5346   9.5909   9.6554   9.7760
  9.9859  10.3981  10.4547  10.5497  10.8839  11.0732  11.1209  11.1411
 11.1813  11.1972  11.2573  11.3044  11.3237  11.3346  11.4477  11.4574
 11.5253  11.5302  11.6717  11.9332  12.0049  12.1176  12.1177  12.1306
 12.2240  12.4812  12.4879  12.8189  12.8592  13.0095  13.0490  13.1332
 13.1337  13.1809  13.1975  13.2202  13.2491  13.2653  13.3045  13.3437
 13.3740  13.3851  13.8336  13.8426  14.2739  14.3574  14.4371  14.5350
 14.8705  14.9728  15.1478  15.2296  15.3826  15.6142  15.7697  16.2304
 16.2491  16.2714  16.4221  16.5400  16.7475  16.9821  17.0901  17.0928
 17.1370  17.3603  17.3853  17.9545  17.9579  18.0053  18.0508  18.1023
 18.1428  18.5028  18.8571  18.9043  18.9882  19.0788  19.1686  20.7685
 23.1426  23.1966  24.1310  24.4817  24.6127  26.1228  26.4097  26.7683
 29.0690  31.4642  32.1119  32.2759  34.5972  39.4618  47.8328  47.8985
 48.1489  48.2799  49.5187  66.2823  66.2845  66.3105  66.3480  66.5974
 66.8169  66.8557  67.6231  67.7017  69.3648 106.1642 144.2566

 Beta MOs
 -- Occupied --
******** -19.3830 -14.6362  -9.5252  -7.2865  -7.2799  -7.2785  -1.3935
 -0.9148  -0.7896  -0.6471  -0.6416  -0.6233  -0.3893  -0.3848  -0.3690
 -- Virtual --
 -0.0967  -0.0494   0.0132   0.0282   0.0313   0.0325   0.0556   0.0565
  0.0570   0.0638   0.0641   0.0836   0.1029   0.1179   0.1322   0.1345
  0.1579   0.1582   0.1640   0.1759   0.1770   0.1833   0.1862   0.1884
  0.2002   0.2022   0.2046   0.2082   0.2345   0.2364   0.2471   0.2515
  0.2711   0.2749   0.2970   0.3114   0.3152   0.3314   0.3314   0.3364
  0.3447   0.3532   0.3568   0.3628   0.3786   0.3855   0.3927   0.4048
  0.4173   0.4200   0.4284   0.4289   0.4332   0.4468   0.4504   0.4585
  0.4669   0.4760   0.4783   0.4881   0.4953   0.5006   0.5183   0.5323
  0.5349   0.5412   0.5572   0.5605   0.5775   0.5933   0.6090   0.6146
  0.6269   0.6323   0.6503   0.6567   0.6577   0.6717   0.6799   0.6900
  0.6951   0.6965   0.7047   0.7117   0.7213   0.7286   0.7291   0.7480
  0.7498   0.7512   0.7731   0.7825   0.8007   0.8135   0.8223   0.8304
  0.8477   0.8559   0.8617   0.8705   0.8736   0.8774   0.8838   0.8861
  0.9037   0.9112   0.9290   0.9362   0.9431   0.9455   0.9568   0.9570
  0.9609   0.9730   0.9776   0.9881   0.9916   0.9982   0.9984   1.0075
  1.0170   1.0562   1.0563   1.0621   1.0815   1.0920   1.1006   1.1092
  1.1178   1.1225   1.1405   1.1418   1.1519   1.1688   1.1802   1.1843
  1.1932   1.2090   1.2155   1.2346   1.2361   1.2716   1.2721   1.2753
  1.2884   1.2997   1.3051   1.3253   1.3295   1.3567   1.3801   1.4088
  1.4319   1.5151   1.5206   1.5790   1.5819   1.6390   1.6577   1.6579
  1.6735   1.7007   1.7514   1.7606   1.8206   1.8241   1.8666   1.8747
  1.8961   1.9343   1.9347   1.9673   1.9942   2.0036   2.0476   2.0776
  2.1220   2.1497   2.1504   2.1971   2.2527   2.2532   2.3024   2.3289
  2.3535   2.3989   2.4600   2.4736   2.4792   2.5152   2.5358   2.5832
  2.6263   2.6423   2.7928   2.8592   2.9322   2.9381   2.9941   3.0335
  3.0399   3.0796   3.0986   3.1191   3.1355   3.2435   3.2472   3.3028
  3.3202   3.3431   3.4744   3.5049   3.5295   3.7960   3.8248   3.8454
  3.8763   3.8821   3.9672   4.0325   4.0496   4.1119   4.1336   4.1841
  4.2128   4.2567   4.2692   4.2787   4.4361   4.4526   4.5303   4.5704
  4.6270   4.6863   4.7148   4.7289   4.8294   4.9446   5.0105   5.0404
  5.0667   5.1177   5.1964   5.2320   5.2921   5.3517   5.4047   5.4546
  5.4723   5.5220   5.5701   5.7669   5.8166   5.8514   5.8619   5.8647
  5.8652   5.8784   5.9222   5.9260   5.9803   5.9883   6.0132   6.0513
  6.0539   6.0774   6.1620   6.1729   6.2351   6.2662   6.2821   6.3435
  6.5585   6.5884   6.7090   6.7413   6.8113   6.8297   7.0402   7.0820
  7.0882   7.1026   7.3661   7.5683   7.6285   7.7963   7.9114   8.0033
  8.4075   8.4840   8.6213   9.0979   9.2592   9.2958   9.2983   9.3161
  9.3330   9.3794   9.3973   9.4376   9.5346   9.5909   9.6554   9.7760
  9.9859  10.3981  10.4547  10.5497  10.8839  11.0732  11.1209  11.1411
 11.1813  11.1972  11.2573  11.3044  11.3237  11.3346  11.4477  11.4574
 11.5253  11.5302  11.6717  11.9332  12.0049  12.1176  12.1177  12.1306
 12.2240  12.4812  12.4879  12.8189  12.8592  13.0095  13.0490  13.1332
 13.1337  13.1809  13.1975  13.2202  13.2491  13.2653  13.3045  13.3437
 13.3740  13.3851  13.8336  13.8426  14.2739  14.3574  14.4371  14.5350
 14.8705  14.9728  15.1478  15.2296  15.3826  15.6142  15.7697  16.2304
 16.2491  16.2714  16.4221  16.5400  16.7475  16.9821  17.0901  17.0928
 17.1370  17.3603  17.3853  17.9545  17.9579  18.0053  18.0508  18.1023
 18.1428  18.5028  18.8571  18.9043  18.9882  19.0788  19.1686  20.7685
 23.1426  23.1966  24.1310  24.4817  24.6127  26.1228  26.4097  26.7683
 29.0690  31.4642  32.1119  32.2759  34.5972  39.4618  47.8328  47.8985
 48.1489  48.2799  49.5187  66.2823  66.2845  66.3105  66.3480  66.5974
 66.8169  66.8557  67.6231  67.7017  69.3648 106.1642 144.2566
 --------------------------------------------------------------

          Ground-State Mulliken Net Atomic Charges

     Atom                 Charge (a.u.)    Spin (a.u.)
  --------------------------------------------------------
      1 Cl                   -0.277086      -0.000000
      2 N                     0.398180      -0.000000
      3 O                    -0.121094       0.000000
  --------------------------------------------------------
  Sum of atomic charges =     0.000000
  Sum of spin   charges =    -0.000000

 -----------------------------------------------------------------
                    Cartesian Multipole Moments
 -----------------------------------------------------------------
    Charge (ESU x 10^10)
                -0.0000
    Dipole Moment (Debye)
         X       0.8527      Y       1.6686      Z       0.0000
       Tot       1.8738
    Quadrupole Moments (Debye-Ang)
        XX     -24.0674     XY       0.3355     YY     -22.8349
        XZ      -0.0000     YZ      -0.0000     ZZ     -22.8135
    Octopole Moments (Debye-Ang^2)
       XXX       4.6998    XXY       1.4332    XYY       1.0636
       YYY       3.4203    XXZ       0.0000    XYZ      -0.0000
       YYZ       0.0000    XZZ       1.9545    YZZ       2.6533
       ZZZ       0.0000
    Hexadecapole Moments (Debye-Ang^3)
      XXXX     -85.8293   XXXY     -38.1597   XXYY     -40.8043
      XYYY     -35.3045   YYYY    -154.6401   XXXZ      -0.0000
      XXYZ       0.0000   XYYZ       0.0000   YYYZ      -0.0000
      XXZZ     -17.8767   XYZZ     -12.3211   YYZZ     -29.8067
      XZZZ      -0.0000   YZZZ      -0.0000   ZZZZ     -23.9384
 -----------------------------------------------------------------
Archival summary:
1\1\n0075.mhg0\SP\ProcedureUnspecified\BasisUnspecified\l111\yhljason\SatAug2215:37:332020SatAug2215:37:332020\0\\#,ProcedureUnspecified,BasisUnspecified,\\0,1\Cl\N,1,1.97498\O,2,1.13897,1,113.302\\\@

 Total job time:  54282.95s(wall), 429943.61s(cpu) 
 Sat Aug 22 15:37:33 2020

        *************************************************************
        *                                                           *
        *  Thank you very much for using Q-Chem.  Have a nice day.  *
        *                                                           *
        *************************************************************


