                  Welcome to Q-Chem
     A Quantum Leap Into The Future Of Chemistry


 Q-Chem 5.3 (devel), Q-Chem, Inc., Pleasanton, CA (2020)

 Yihan Shao,  Zhengting Gan,  E. Epifanovsky,  A. T. B. Gilbert,  M. Wormit,  
 J. Kussmann,  A. W. Lange,  A. Behn,  Jia Deng,  Xintian Feng,  D. Ghosh,  
 M. Goldey,  P. R. Horn,  L. D. Jacobson,  I. Kaliman,  T. Kus,  A. Landau,  
 Jie Liu,  E. I. Proynov,  R. M. Richard,  R. P. Steele,  E. J. Sundstrom,  
 H. L. Woodcock III,  P. M. Zimmerman,  D. Zuev,  B. Alam,  B. Albrecht,  
 E. Alguire,  S. A. Baeppler,  D. Barton,  Z. Benda,  Y. A. Bernard,  
 E. J. Berquist,  K. B. Bravaya,  H. Burton,  K. Carter-Fenk,  D. Casanova,  
 Chun-Min Chang,  Yunqing Chen,  A. Chien,  K. D. Closser,  M. P. Coons,  
 S. Coriani,  S. Dasgupta,  A. L. Dempwolff,  M. Diedenhofen,  Hainam Do,  
 R. G. Edgar,  Po-Tung Fang,  S. Faraji,  S. Fatehi,  Qingguo Feng,  
 J. Fosso-Tande,  J. Gayvert,  Qinghui Ge,  A. Ghysels,  G. Gidofalvi,  
 J. Gomes,  J. Gonthier,  A. Gunina,  D. Hait,  M. W. D. Hanson-Heine,  
 P. H. P. Harbach,  A. W. Hauser,  M. F. Herbst,  J. E. Herr,  
 E. G. Hohenstein,  Z. C. Holden,  Kerwin Hui,  B. C. Huynh,  T.-C. Jagau,  
 Hyunjun Ji,  B. Kaduk,  K. Khistyaev,  Jaehoon Kim,  P. Klunzinger,  K. Koh,  
 D. Kosenkov,  L. Koulias,  T. Kowalczyk,  C. M. Krauter,  A. Kunitsa,  
 Ka Un Lao,  A. Laurent,  K. V. Lawler,  Joonho Lee,  D. Lefrancois,  
 S. Lehtola,  D. S. Levine,  Yi-Pei Li,  You-Sheng Lin,  Fenglai Liu,  
 Kuan-Yu Liu,  E. Livshits,  M. Loipersberger,  A. Luenser,  P. Manohar,  
 E. Mansoor,  S. F. Manzer,  Shan-Ping Mao,  Yuezhi Mao,  N. Mardirossian,  
 A. V. Marenich,  T. Markovich,  L. A. Martinez-Martinez,  S. A. Maurer,  
 N. J. Mayhall,  S. C. McKenzie,  J.-M. Mewes,  P. Morgante,  A. F. Morrison,  
 J. W. Mullinax,  K. Nanda,  T. S. Nguyen-Beck,  R. Olivares-Amaya,  
 K. J. Oosterbaan,  J. A. Parkhill,  S. K. Paul,  F. Pavosevic,  Zheng Pei,  
 T. M. Perrine,  F. Plasser,  P. Pokhilko,  S. Prager,  A. Prociuk,  
 E. Ramos,  B. Rana,  D. R. Rehn,  F. Rob,  M. Scheurer,  M. Schneider,  
 N. Sergueev,  S. M. Sharada,  S. Sharma,  D. W. Small,  T. Stauch,  
 C. J. Stein,  T. Stein,  Yu-Chuan Su,  S. P. Veccham,  Zhen Tao,  
 A. J. W. Thom,  A. Tkatchenko,  T. Tsuchimochi,  N. M. Tubman,  L. Vogt,  
 M. L. Vidal,  O. Vydrov,  M. A. Watson,  J. Wenzel,  M. de Wergifosse,  
 T. A. Wesolowski,  A. White,  J. Witte,  A. Yamada,  Jun Yang,  K. Yao,  
 S. Yeganeh,  S. R. Yost,  Zhi-Qiang You,  A. Zech,  Igor Ying Zhang,  
 Xing Zhang,  Yan Zhao,  Ying Zhu,  B. R. Brooks,  G. K. L. Chan,  
 C. J. Cramer,  M. S. Gordon,  W. J. Hehre,  A. Klamt,  M. W. Schmidt,  
 C. D. Sherrill,  D. G. Truhlar,  A. Aspuru-Guzik,  R. Baer,  A. T. Bell,  
 N. A. Besley,  Jeng-Da Chai,  A. E. DePrince, III,  R. A. DiStasio Jr.,  
 A. Dreuw,  B. D. Dunietz,  T. R. Furlani,  Chao-Ping Hsu,  Yousung Jung,  
 Jing Kong,  D. S. Lambrecht,  WanZhen Liang,  C. Ochsenfeld,  
 V. A. Rassolov,  L. V. Slipchenko,  J. E. Subotnik,  T. Van Voorhis,  
 J. M. Herbert,  A. I. Krylov,  P. M. W. Gill,  M. Head-Gordon

 Contributors to earlier versions of Q-Chem not listed above: 
 R. D. Adamson,  B. Austin,  J. Baker,  G. J. O. Beran,  K. Brandhorst,  
 S. T. Brown,  E. F. C. Byrd,  A. K. Chakraborty,  C.-L. Cheng,  
 Siu Hung Chien,  D. M. Chipman,  D. L. Crittenden,  H. Dachsel,  
 R. J. Doerksen,  A. D. Dutoi,  L. Fusti-Molnar,  W. A. Goddard III,  
 A. Golubeva-Zadorozhnaya,  S. R. Gwaltney,  G. Hawkins,  A. Heyden,  
 S. Hirata,  G. Kedziora,  F. J. Keil,  C. Kelley,  Jihan Kim,  R. A. King,  
 R. Z. Khaliullin,  P. P. Korambath,  W. Kurlancheek,  A. M. Lee,  M. S. Lee,  
 S. V. Levchenko,  Ching Yeh Lin,  D. Liotard,  R. C. Lochan,  I. Lotan,  
 P. E. Maslen,  N. Nair,  D. P. O'Neill,  D. Neuhauser,  E. Neuscamman,  
 C. M. Oana,  R. Olson,  B. Peters,  R. Peverati,  P. A. Pieniazek,  
 Y. M. Rhee,  J. Ritchie,  M. A. Rohrdanz,  E. Rosta,  N. J. Russ,  
 H. F. Schaefer III,  N. E. Schultz,  N. Shenvi,  A. C. Simmonett,  A. Sodt,  
 D. Stuck,  K. S. Thanthiriwatte,  V. Vanovschi,  Tao Wang,  A. Warshel,  
 C. F. Williams,  Q. Wu,  X. Xu,  W. Zhang

 Please cite Q-Chem as follows:
 Y. Shao et al., Mol. Phys. 113, 184-215 (2015)
 DOI: 10.1080/00268976.2014.952696

 Q-Chem 5.3.0 for Intel X86 EM64T Linux

 Parts of Q-Chem use Armadillo 9.800.1 (Horizon Scraper).
 http://arma.sourceforge.net/

 Q-Chem begins on Fri Aug 21 02:58:20 2020  

n0047.mhg0
Host: 0

     Scratch files written to /local/scratch/users/yhljason/NOCl_BLYP_aug-pc-4.inp20200820235132//
Processing $rem in /clusterfs/mhg/diptarka/qchem_transmom//config/preferences:
Processing $rem in /global/home/users/yhljason/.qchemrc:

Checking the input file for inconsistencies... 	...done.

--------------------------------------------------------------
User input:
--------------------------------------------------------------
$molecule
0 1
Cl1     -0.5312 -0.9298 0.0000
N2      0.0000  0.9724  0.0000
O3      1.1287  1.1250  0.0000
$end

$rem
jobtype sp
method BLYP
xc_grid 000099000590
basis aug-pc-4
max_scf_cycles 200
thresh 14
scf_convergence 8
scf_algorithm gdm
symmetry false
sym_ignore true
unrestricted true
gen_scfman true
internal_stability_iter 15
internal_stability_davidson_iter 200
mem_total 64000
mem_static 1500
n_frozen_core 0
$end


--------------------------------------------------------------
 ----------------------------------------------------------------
             Standard Nuclear Orientation (Angstroms)
    I     Atom           X                Y                Z
 ----------------------------------------------------------------
    1      Cl     -0.5312000000    -0.9298000000     0.0000000000
    2      N       0.0000000000     0.9724000000     0.0000000000
    3      O       1.1287000000     1.1250000000     0.0000000000
 ----------------------------------------------------------------
 Nuclear Repulsion Energy =          85.14841978 hartrees
 There are       16 alpha and       16 beta electrons
 Requested basis set is aug-pc-4
 There are 97 shells and 431 basis functions

 Total QAlloc Memory Limit  64000 MB
 Mega-Array Size      1467 MB
 MEM_STATIC part      1500 MB

                       Distance Matrix (Angstroms)
             Cl(  1)   N (  2)
   N (  2)  1.974978
   O (  3)  2.641490  1.138969

 A cutoff of  1.0D-14 yielded   4644 shell pairs
 There are     92920 function pairs (    182449 Cartesian)
 Smallest overlap matrix eigenvalue = 1.41E-06

 Scale SEOQF with 1.000000e-01/1.000000e-01/1.000000e-01

 Standard Electronic Orientation quadrupole field applied
 Nucleus-field energy     =     0.0000000028 hartrees
 Guess from superposition of atomic densities
 Warning:  Energy on first SCF cycle will be non-variational
 SAD guess density has 32.000000 electrons

 -----------------------------------------------------------------------
  General SCF calculation program by
  Eric Jon Sundstrom, Paul Horn, Yuezhi Mao, Dmitri Zuev, Alec White,
  David Stuck, Shaama M.S., Shane Yost, Joonho Lee, David Small,
  Daniel Levine, Susi Lehtola, Hugh Burton, Evgeny Epifanovsky,
  Bang C. Huynh
 -----------------------------------------------------------------------
 Exchange:  B88      Correlation:  LYP
 Using Euler-Maclaurin-Lebedev (99,590) quadrature formula
Running Object-Oriented UKS (UHF)
performing a single roothaan step with Fock from read density so that orbitals are available to all algorithms
energy of the guess density (C=0) -590.489660825873
We will preform up to 15 macro iterations over saddle points until a stable solution is found
Energy prior to optimization (guess energy) = -590.121929842298
Begin Timing: Total SCF Calculation
Begin Timing: SCF Single Stationary Point Calculation
begin iterations for algorithm: GDM          
the SCF tolerance is set to 1.00e-08
    1    -590.1219298423      4.76e-01     00000  Descent step
    2    -589.9550247276      7.56e-01     00000 Line search: overstep
    3    -590.1794990696      1.00e-01     00000  Normal BFGS step
    4    -590.1104619522      3.76e-01     00000 Line search: overstep
    5    -590.1878671690      6.61e-02     00000  Normal BFGS step
    6    -590.1873281524      7.88e-02     00000 Line search: overstep
    7    -590.1916066910      4.02e-03     00000  Normal BFGS step
    8    -590.1917617870      2.27e-03     00000  Normal BFGS step
    9    -590.1917858160      1.15e-03     00000  Normal BFGS step
   10    -590.1917890404      4.64e-04     00000  Normal BFGS step
   11    -590.1917896207      1.10e-04     00000  Normal BFGS step
   12    -590.1917896856      7.74e-05     00000  Normal BFGS step
   13    -590.1917896970      1.74e-05     00000  Normal BFGS step
   14    -590.1917896983      6.75e-06     00000  Normal BFGS step
   15    -590.1917896986      3.45e-06     00000  Normal BFGS step
   16    -590.1917896986      1.13e-06     00000  Normal BFGS step
   17    -590.1917896986      3.04e-07     00000  Normal BFGS step
   18    -590.1917896986      4.74e-07     00000  Normal BFGS step
   19    -590.1917896986      2.26e-07     00000  Normal BFGS step
   20    -590.1917896986      3.27e-07     00000  Normal BFGS step
   21    -590.1917896986      2.66e-07     00000  Normal BFGS step
   22    -590.1917896986      2.92e-08     00000  Normal BFGS step
   23    -590.1917896986      1.34e-08     00000  Normal BFGS step
  GDM::WARNING energy changes are now smaller than effective accuracy.
  GDM::        calculation will continue, but THRESH should be increased
  GDM::        or SCF_CONVERGENCE decreased. 
  GDM::        effective_thresh = 1.33e-08
   24    -590.1917896986      4.99e-10     00000 Convergence criterion met
Timing for Single Stationary Point: 3752.00s (wall), 29450.29s (cpu)
Begin Timing: Stability
===================================================
Beginning Test for Internal Stability
===================================================
generating davidson guess vectors based on koopmans excitations
 Warning: Hessian-vector products not implemented
 Finite difference Hessian-vector products will be used.
computing hessian-vector products by finite difference
    1      7.00e-01     00000 Davidson Iteration
computing hessian-vector products by finite difference
    2      2.09e-01     00000 Davidson Iteration
computing hessian-vector products by finite difference
    3      1.42e-02     00000 Davidson Iteration
computing hessian-vector products by finite difference
    4      1.02e-02     00000 Davidson Iteration
computing hessian-vector products by finite difference
    5      6.19e-03     00000 Davidson Iteration
computing hessian-vector products by finite difference
    6      1.39e-03     00000 Davidson Iteration
computing hessian-vector products by finite difference
    7      5.91e-04     00000 Davidson Iteration
computing hessian-vector products by finite difference
    8      1.56e-04     00000 Davidson Iteration
computing hessian-vector products by finite difference
    9      3.63e-05     00000 Davidson Iteration
computing hessian-vector products by finite difference
   10      3.10e-02     00000 Davidson Iteration
computing hessian-vector products by finite difference
   11      1.53e-02     00000 Davidson Iteration
computing hessian-vector products by finite difference
   12      6.63e-03     00000 Davidson Iteration
computing hessian-vector products by finite difference
   13      3.35e-03     00000 Davidson Iteration
computing hessian-vector products by finite difference
   14      7.78e-04     00000 Davidson Iteration
computing hessian-vector products by finite difference
   15      2.11e-04     00000 Davidson Iteration
computing hessian-vector products by finite difference
   16      6.39e-05     00000 Davidson Converged
converged_eigenvalues
   0.1100
   0.1644
Threshold for negative eigenvalues: -1.0e-05
solution was a local minimum (stable)
===================================================
End Test for Internal Stability
===================================================
Timing for Internal Stability: 12772.00s (wall), 100051.28s (cpu)
Our SCF solution is stable!
Timing for Total SCF: 16524.00s (wall), 129501.74s (cpu)
 Total energy in the final basis set =     -590.1917896986
<S^2> =          0.000000000
    ==================================================
              The end of Object-Oriented SCFman       
    ==================================================

 --------------------------------------------------------------

                    Orbital Energies (a.u.)
 --------------------------------------------------------------

 Alpha MOs
 -- Occupied --
******** -18.9404 -14.2224  -9.1715  -7.0007  -6.9946  -6.9919  -1.1985
 -0.7519  -0.6337  -0.5104  -0.5084  -0.4794  -0.2865  -0.2762  -0.2691
 -- Virtual --
 -0.1798  -0.1190  -0.0119   0.0076   0.0141   0.0151   0.0396   0.0403
  0.0416   0.0466   0.0501   0.0695   0.0789   0.0908   0.1045   0.1069
  0.1214   0.1290   0.1300   0.1415   0.1442   0.1499   0.1517   0.1568
  0.1662   0.1733   0.1810   0.1830   0.2100   0.2115   0.2219   0.2226
  0.2442   0.2455   0.2611   0.2708   0.2718   0.2837   0.2857   0.2980
  0.3023   0.3164   0.3167   0.3228   0.3389   0.3481   0.3562   0.3582
  0.3711   0.3842   0.3846   0.3918   0.3997   0.4042   0.4142   0.4160
  0.4217   0.4291   0.4319   0.4433   0.4518   0.4602   0.4645   0.4859
  0.4887   0.4912   0.5068   0.5091   0.5340   0.5451   0.5539   0.5638
  0.5754   0.5872   0.5963   0.6118   0.6161   0.6186   0.6247   0.6401
  0.6435   0.6462   0.6525   0.6525   0.6693   0.6708   0.6830   0.6934
  0.6975   0.7017   0.7208   0.7327   0.7521   0.7684   0.7734   0.7747
  0.7958   0.7977   0.8086   0.8178   0.8253   0.8266   0.8298   0.8326
  0.8547   0.8600   0.8727   0.8802   0.8938   0.8977   0.9005   0.9075
  0.9151   0.9154   0.9247   0.9296   0.9311   0.9378   0.9463   0.9582
  0.9615   0.9999   1.0029   1.0102   1.0199   1.0225   1.0314   1.0406
  1.0463   1.0633   1.0855   1.0905   1.0965   1.1140   1.1217   1.1331
  1.1359   1.1585   1.1619   1.1694   1.1759   1.2060   1.2203   1.2206
  1.2321   1.2412   1.2446   1.2695   1.2697   1.3009   1.3123   1.3388
  1.3607   1.4358   1.4387   1.4847   1.4986   1.5473   1.5561   1.5667
  1.5751   1.5992   1.6609   1.6641   1.7193   1.7203   1.7669   1.7719
  1.7951   1.8219   1.8365   1.8701   1.8929   1.9027   1.9436   1.9750
  2.0189   2.0478   2.0535   2.0964   2.1452   2.1493   2.1833   2.2148
  2.2383   2.2820   2.3326   2.3649   2.3712   2.3921   2.4205   2.4733
  2.5043   2.5292   2.6863   2.7486   2.8117   2.8342   2.8683   2.8919
  2.9004   2.9437   2.9732   2.9922   3.0191   3.1124   3.1241   3.1744
  3.2035   3.2219   3.3464   3.3758   3.4075   3.6625   3.6865   3.6888
  3.7259   3.7506   3.8157   3.8872   3.8969   3.9599   3.9898   4.0390
  4.0769   4.1134   4.1252   4.1445   4.2969   4.3123   4.3816   4.4240
  4.4880   4.5429   4.5833   4.5885   4.6894   4.8043   4.8403   4.8933
  4.8959   4.9724   5.0510   5.0862   5.1483   5.1898   5.2549   5.3112
  5.3285   5.3731   5.4247   5.6130   5.6588   5.6906   5.6983   5.6991
  5.7002   5.7186   5.7638   5.7700   5.8210   5.8248   5.8515   5.8659
  5.8713   5.9145   6.0035   6.0212   6.0834   6.1141   6.1202   6.1909
  6.4016   6.4334   6.5579   6.5882   6.6593   6.6782   6.8846   6.9286
  6.9300   6.9532   7.2127   7.4083   7.4722   7.6363   7.7577   7.8484
  8.2385   8.3264   8.4598   8.9257   9.0806   9.1056   9.1085   9.1285
  9.1467   9.1937   9.2179   9.2537   9.3488   9.4050   9.4724   9.5940
  9.8120  10.2087  10.2787  10.3584  10.6884  10.8986  10.9518  10.9703
 11.0088  11.0267  11.0920  11.1355  11.1397  11.1498  11.2773  11.2800
 11.3531  11.3662  11.4999  11.7473  11.8151  11.9394  11.9396  11.9541
 12.0470  12.3066  12.3132  12.6192  12.6599  12.8104  12.8501  12.9010
 12.9052  12.9669  12.9787  12.9914  13.0181  13.0518  13.0918  13.1582
 13.1637  13.1950  13.6559  13.6649  14.0805  14.1607  14.2614  14.3592
 14.6970  14.7965  14.9719  15.0541  15.2016  15.4402  15.5930  16.0455
 16.0640  16.0847  16.2400  16.3542  16.5452  16.7957  16.8813  16.8840
 16.9491  17.1520  17.1773  17.6862  17.6897  17.7390  17.7928  17.8956
 17.9277  18.2399  18.6463  18.7001  18.7785  18.8812  18.9686  20.5514
 22.9084  22.9624  23.8898  24.2488  24.3761  25.8691  26.1400  26.4952
 28.7932  31.1821  31.7926  31.9520  34.2804  39.1811  47.5410  47.6063
 47.8552  47.9851  49.2227  65.8208  65.8231  65.8497  65.8878  66.1373
 66.4558  66.4943  67.2641  67.3390  69.0040 105.5956 143.5832

 Beta MOs
 -- Occupied --
******** -18.9404 -14.2224  -9.1715  -7.0007  -6.9946  -6.9919  -1.1985
 -0.7519  -0.6337  -0.5104  -0.5084  -0.4794  -0.2865  -0.2762  -0.2691
 -- Virtual --
 -0.1798  -0.1190  -0.0119   0.0076   0.0141   0.0151   0.0396   0.0403
  0.0416   0.0466   0.0501   0.0695   0.0789   0.0908   0.1045   0.1069
  0.1214   0.1290   0.1300   0.1415   0.1442   0.1499   0.1517   0.1568
  0.1662   0.1733   0.1810   0.1830   0.2100   0.2115   0.2219   0.2226
  0.2442   0.2455   0.2611   0.2708   0.2718   0.2837   0.2857   0.2980
  0.3023   0.3164   0.3167   0.3228   0.3389   0.3481   0.3562   0.3582
  0.3711   0.3842   0.3846   0.3918   0.3997   0.4042   0.4142   0.4160
  0.4217   0.4291   0.4319   0.4433   0.4518   0.4602   0.4645   0.4859
  0.4887   0.4912   0.5068   0.5091   0.5340   0.5451   0.5539   0.5638
  0.5754   0.5872   0.5963   0.6118   0.6161   0.6186   0.6247   0.6401
  0.6435   0.6462   0.6525   0.6525   0.6693   0.6708   0.6830   0.6934
  0.6975   0.7017   0.7208   0.7327   0.7521   0.7684   0.7734   0.7747
  0.7958   0.7977   0.8086   0.8178   0.8253   0.8266   0.8298   0.8326
  0.8547   0.8600   0.8727   0.8802   0.8938   0.8977   0.9005   0.9075
  0.9151   0.9154   0.9247   0.9296   0.9311   0.9378   0.9463   0.9582
  0.9615   0.9999   1.0029   1.0102   1.0199   1.0225   1.0314   1.0406
  1.0463   1.0633   1.0855   1.0905   1.0965   1.1140   1.1217   1.1331
  1.1359   1.1585   1.1619   1.1694   1.1759   1.2060   1.2203   1.2206
  1.2321   1.2412   1.2446   1.2695   1.2697   1.3009   1.3123   1.3388
  1.3607   1.4358   1.4387   1.4847   1.4986   1.5473   1.5561   1.5667
  1.5751   1.5992   1.6609   1.6641   1.7193   1.7203   1.7669   1.7719
  1.7951   1.8219   1.8365   1.8701   1.8929   1.9027   1.9436   1.9750
  2.0189   2.0478   2.0535   2.0964   2.1452   2.1493   2.1833   2.2148
  2.2383   2.2820   2.3326   2.3649   2.3712   2.3921   2.4205   2.4733
  2.5043   2.5292   2.6863   2.7486   2.8117   2.8342   2.8683   2.8919
  2.9004   2.9437   2.9732   2.9922   3.0191   3.1124   3.1241   3.1744
  3.2035   3.2219   3.3464   3.3758   3.4075   3.6625   3.6865   3.6888
  3.7259   3.7506   3.8157   3.8872   3.8969   3.9599   3.9898   4.0390
  4.0769   4.1134   4.1252   4.1445   4.2969   4.3123   4.3816   4.4240
  4.4880   4.5429   4.5833   4.5885   4.6894   4.8043   4.8403   4.8933
  4.8959   4.9724   5.0510   5.0862   5.1483   5.1898   5.2549   5.3112
  5.3285   5.3731   5.4247   5.6130   5.6588   5.6906   5.6983   5.6991
  5.7002   5.7186   5.7638   5.7700   5.8210   5.8248   5.8515   5.8659
  5.8713   5.9145   6.0035   6.0212   6.0834   6.1141   6.1202   6.1909
  6.4016   6.4334   6.5579   6.5882   6.6593   6.6782   6.8846   6.9286
  6.9300   6.9532   7.2127   7.4083   7.4722   7.6363   7.7577   7.8484
  8.2385   8.3264   8.4598   8.9257   9.0806   9.1056   9.1085   9.1285
  9.1467   9.1937   9.2179   9.2537   9.3488   9.4050   9.4724   9.5940
  9.8120  10.2087  10.2787  10.3584  10.6884  10.8986  10.9518  10.9703
 11.0088  11.0267  11.0920  11.1355  11.1397  11.1498  11.2773  11.2800
 11.3531  11.3662  11.4999  11.7473  11.8151  11.9394  11.9396  11.9541
 12.0470  12.3066  12.3132  12.6192  12.6599  12.8104  12.8501  12.9010
 12.9052  12.9669  12.9787  12.9914  13.0181  13.0518  13.0918  13.1582
 13.1637  13.1950  13.6559  13.6649  14.0805  14.1607  14.2614  14.3592
 14.6970  14.7965  14.9719  15.0541  15.2016  15.4402  15.5930  16.0455
 16.0640  16.0847  16.2400  16.3542  16.5452  16.7957  16.8813  16.8840
 16.9491  17.1520  17.1773  17.6862  17.6897  17.7390  17.7928  17.8956
 17.9277  18.2399  18.6463  18.7001  18.7785  18.8812  18.9686  20.5514
 22.9084  22.9624  23.8898  24.2488  24.3761  25.8691  26.1400  26.4952
 28.7932  31.1821  31.7926  31.9520  34.2804  39.1811  47.5410  47.6063
 47.8552  47.9851  49.2227  65.8208  65.8231  65.8497  65.8878  66.1373
 66.4558  66.4943  67.2641  67.3390  69.0040 105.5956 143.5832
 --------------------------------------------------------------

          Ground-State Mulliken Net Atomic Charges

     Atom                 Charge (a.u.)    Spin (a.u.)
  --------------------------------------------------------
      1 Cl                   -0.284372      -0.000000
      2 N                     0.376615       0.000000
      3 O                    -0.092244      -0.000000
  --------------------------------------------------------
  Sum of atomic charges =     0.000000
  Sum of spin   charges =    -0.000000

 -----------------------------------------------------------------
                    Cartesian Multipole Moments
 -----------------------------------------------------------------
    Charge (ESU x 10^10)
                -0.0000
    Dipole Moment (Debye)
         X       0.8261      Y       1.4682      Z      -0.0000
       Tot       1.6846
    Quadrupole Moments (Debye-Ang)
        XX     -24.1243     XY       0.3545     YY     -22.9822
        XZ       0.0000     YZ      -0.0000     ZZ     -22.7802
    Octopole Moments (Debye-Ang^2)
       XXX       4.5780    XXY       1.4013    XYY       1.2140
       YYY       3.6888    XXZ      -0.0000    XYZ       0.0000
       YYZ       0.0000    XZZ       1.8782    YZZ       2.3995
       ZZZ      -0.0000
    Hexadecapole Moments (Debye-Ang^3)
      XXXX     -86.8909   XXXY     -38.4642   XXYY     -41.2762
      XYYY     -35.5784   YYYY    -156.3323   XXXZ       0.0000
      XXYZ      -0.0000   XYYZ      -0.0000   YYYZ      -0.0000
      XXZZ     -18.0569   XYZZ     -12.2773   YYZZ     -29.9459
      XZZZ       0.0000   YZZZ      -0.0000   ZZZZ     -24.1785
 -----------------------------------------------------------------
Archival summary:
1\1\n0047.mhg0\SP\ProcedureUnspecified\BasisUnspecified\l111\yhljason\FriAug2107:38:412020FriAug2107:38:412020\0\\#,ProcedureUnspecified,BasisUnspecified,\\0,1\Cl\N,1,1.97498\O,2,1.13897,1,113.302\\\@

 Total job time:  16821.53s(wall), 131805.91s(cpu) 
 Fri Aug 21 07:38:41 2020

        *************************************************************
        *                                                           *
        *  Thank you very much for using Q-Chem.  Have a nice day.  *
        *                                                           *
        *************************************************************


