Q-Chem Developer Version!
                  Welcome to Q-Chem
     A Quantum Leap Into The Future Of Chemistry


 Q-Chem 5.1, Q-Chem, Inc., Pleasanton, CA (2018)

 Yihan Shao,  Zhengting Gan,  E. Epifanovsky,  A. T. B. Gilbert,  M. Wormit,  
 J. Kussmann,  A. W. Lange,  A. Behn,  Jia Deng,  Xintian Feng,  D. Ghosh,  
 M. Goldey,  P. R. Horn,  L. D. Jacobson,  I. Kaliman,  T. Kus,  A. Landau,  
 Jie Liu,  E. I. Proynov,  R. M. Richard,  R. P. Steele,  E. J. Sundstrom,  
 H. L. Woodcock III,  P. M. Zimmerman,  D. Zuev,  B. Albrecht,  E. Alguire,  
 S. A. Baeppler,  D. Barton,  Z. Benda,  Y. A. Bernard,  E. J. Berquist,  
 K. B. Bravaya,  H. Burton,  D. Casanova,  Chun-Min Chang,  Yunqing Chen,  
 A. Chien,  K. D. Closser,  M. P. Coons,  S. Coriani,  S. Dasgupta,  
 A. L. Dempwolff,  M. Diedenhofen,  Hainam Do,  R. G. Edgar,  Po-Tung Fang,  
 S. Faraji,  S. Fatehi,  Qingguo Feng,  K. D. Fenk,  J. Fosso-Tande,  
 Qinghui Ge,  A. Ghysels,  G. Gidofalvi,  J. Gomes,  J. Gonthier,  A. Gunina,  
 D. Hait,  M. W. D. Hanson-Heine,  P. H. P. Harbach,  A. W. Hauser,  
 J. E. Herr,  E. G. Hohenstein,  Z. C. Holden,  Kerwin Hui,  B. C. Huynh,  
 T.-C. Jagau,  Hyunjun Ji,  B. Kaduk,  K. Khistyaev,  Jaehoon Kim,  
 P. Klunzinger,  K. Koh,  D. Kosenkov,  L. Koulias,  T. Kowalczyk,  
 C. M. Krauter,  A. Kunitsa,  Ka Un Lao,  A. Laurent,  K. V. Lawler,  
 Joonho Lee,  D. Lefrancois,  S. Lehtola,  D. S. Levine,  Yi-Pei Li,  
 You-Sheng Lin,  Fenglai Liu,  E. Livshits,  A. Luenser,  P. Manohar,  
 E. Mansoor,  S. F. Manzer,  Shan-Ping Mao,  Yuezhi Mao,  N. Mardirossian,  
 A. V. Marenich,  T. Markovich,  L. A. Martinez-Martinez,  S. A. Maurer,  
 N. J. Mayhall,  S. C. McKenzie,  J.-M. Mewes,  A. F. Morrison,  
 J. W. Mullinax,  K. Nanda,  T. S. Nguyen-Beck,  R. Olivares-Amaya,  
 J. A. Parkhill,  T. M. Perrine,  F. Plasser,  P. Pokhilko,  S. Prager,  
 A. Prociuk,  E. Ramos,  D. R. Rehn,  F. Rob,  M. Schneider,  N. Sergueev,  
 S. M. Sharada,  S. Sharma,  D. W. Small,  T. Stauch,  T. Stein,  
 Yu-Chuan Su,  A. J. W. Thom,  A. Tkatchenko,  T. Tsuchimochi,  N. M. Tubman,  
 L. Vogt,  M. L. Vidal,  O. Vydrov,  M. A. Watson,  J. Wenzel,  
 M. de Wergifosse,  T. A. Wesolowski,  A. White,  J. Witte,  A. Yamada,  
 Jun Yang,  K. Yao,  S. Yeganeh,  S. R. Yost,  Zhi-Qiang You,  A. Zech,  
 Igor Ying Zhang,  Xing Zhang,  Yan Zhao,  Ying Zhu,  B. R. Brooks,  
 G. K. L. Chan,  C. J. Cramer,  M. S. Gordon,  W. J. Hehre,  A. Klamt,  
 M. W. Schmidt,  C. D. Sherrill,  D. G. Truhlar,  A. Aspuru-Guzik,  R. Baer,  
 A. T. Bell,  N. A. Besley,  Jeng-Da Chai,  A. E. DePrince, III,  
 R. A. DiStasio Jr.,  A. Dreuw,  B. D. Dunietz,  T. R. Furlani,  
 Chao-Ping Hsu,  Yousung Jung,  Jing Kong,  D. S. Lambrecht,  WanZhen Liang,  
 C. Ochsenfeld,  V. A. Rassolov,  L. V. Slipchenko,  J. E. Subotnik,  
 T. Van Voorhis,  J. M. Herbert,  A. I. Krylov,  P. M. W. Gill,  M. Head-Gordon

 Contributors to earlier versions of Q-Chem not listed above: 
 R. D. Adamson,  B. Austin,  J. Baker,  G. J. O. Beran,  K. Brandhorst,  
 S. T. Brown,  E. F. C. Byrd,  A. K. Chakraborty,  C.-L. Cheng,  
 Siu Hung Chien,  D. M. Chipman,  D. L. Crittenden,  H. Dachsel,  
 R. J. Doerksen,  A. D. Dutoi,  L. Fusti-Molnar,  W. A. Goddard III,  
 A. Golubeva-Zadorozhnaya,  S. R. Gwaltney,  G. Hawkins,  A. Heyden,  
 S. Hirata,  G. Kedziora,  F. J. Keil,  C. Kelley,  Jihan Kim,  R. A. King,  
 R. Z. Khaliullin,  P. P. Korambath,  W. Kurlancheek,  A. M. Lee,  M. S. Lee,  
 S. V. Levchenko,  Ching Yeh Lin,  D. Liotard,  R. C. Lochan,  I. Lotan,  
 P. E. Maslen,  N. Nair,  D. P. O'Neill,  D. Neuhauser,  E. Neuscamman,  
 C. M. Oana,  R. Olson,  B. Peters,  R. Peverati,  P. A. Pieniazek,  
 Y. M. Rhee,  J. Ritchie,  M. A. Rohrdanz,  E. Rosta,  N. J. Russ,  
 H. F. Schaefer III,  N. E. Schultz,  N. Shenvi,  A. C. Simmonett,  A. Sodt,  
 D. Stuck,  K. S. Thanthiriwatte,  V. Vanovschi,  Tao Wang,  A. Warshel,  
 C. F. Williams,  Q. Wu,  X. Xu,  W. Zhang

 Please cite Q-Chem as follows:
 Y. Shao et al., Mol. Phys. 113, 184-215 (2015)
 DOI: 10.1080/00268976.2014.952696

 Q-Chem 5.1.1 for Intel X86 EM64T Linux

 Parts of Q-Chem use Armadillo 8.300.2 (Tropical Shenanigans).
 http://arma.sourceforge.net/

 Q-Chem begins on Sat Oct  3 02:42:54 2020  

Host: n0088.mhg0
0

     Scratch files written to /local/scratch/users/yhljason/CSO_DSD-PBEPBE-D3_aug-cc-pcV5Z.inp20201003024248//
Input Ideriv = 0
Curr. Ideriv = -1
Max.  Ideriv = 0
Analytic post-HF gradients are not available with non-HF exchange
Input Ideriv = 0
Curr. Ideriv = 0
Max.  Ideriv = 0

Checking the input file for inconsistencies... 	...done.

--------------------------------------------------------------
User input:
--------------------------------------------------------------
$molecule
0 1
C1      0.0000  0.0000  0.0000
O2      0.0000  0.0000  1.1600
S3      0.0000  0.0000  -1.5600
$end

$rem
jobtype sp
method DSD-PBEPBE-D3
xc_grid 000099000590
basis aug-cc-pcV5Z
max_scf_cycles 200
thresh 14
scf_convergence 8
scf_algorithm gdm
symmetry false
sym_ignore true
unrestricted false
gen_scfman true
internal_stability_iter 15
internal_stability_davidson_iter 200
mem_total 128000
cc_memory 96000
cc_backend xm
mem_static 1500
n_frozen_core 10000
$end



--------------------------------------------------------------
 Adding empirical dispersion correction 
 ----------------------------------------------------------------
 Doing -D3(BJ) with
 s6 =   0.78000
 s8 =   0.00000
 a1 =   0.00000
 a2 =   6.10000
 -D3 energy without 3body term =     -0.0016494781 hartrees
 ----------------------------------------------------------------
             Standard Nuclear Orientation (Angstroms)
    I     Atom           X                Y                Z
 ----------------------------------------------------------------
    1      C       0.0000000000     0.0000000000     0.0000000000
    2      O       0.0000000000     0.0000000000     1.1600000000
    3      S       0.0000000000     0.0000000000    -1.5600000000
 ----------------------------------------------------------------
 Nuclear Repulsion Energy =    79.3625469677 hartrees
 There are       15 alpha and       15 beta electrons
 Requested basis set is aug-cc-pCV5Z
 There are 129 shells and 579 basis functions

 Total QAlloc Memory Limit 128000 MB
 Mega-Array Size      1467 MB
 MEM_STATIC part      1500 MB

                       Distance Matrix (Angstroms)
             C (  1)   O (  2)
   O (  2)  1.160000
   S (  3)  1.560000  2.720000
 
 A cutoff of  1.0D-14 yielded   7402 shell pairs
 There are    153258 function pairs (    302551 Cartesian)
 
 -------------------------------------------------------
 OpenMP Integral Computing Module                       
 Release: version 1.0, May 2013, Q-Chem Inc. Pittsburgh 
 -------------------------------------------------------
 Integral Job Info:
 Integral job number is                      11
 Integral operator is                         1
 short-range coefficients                     0
 long-range coefficients              100000000
 Omega coefficients                           0
 if combine SR and LR in K                    0
 Integral screening is                        0
 Integral computing path is                   2
 max size of driver memory is           6400000
 size of driver memory is               5498286
 size of scratch memory is             29792225
 max col of scratch BK array             194481
 max len of scratch array in speh3         5572
 max len of scratch index in speh4           72
 max int batch size is                      520
 min int batch size is                       52
 fixed nKL is                                25
 max L of basis functions is                  5
 order of int derivative is                   0
 number of shells is                        129
 number of basis is                         809
 number of cartesian basis is               809
 number of contracted shell pairs          7402
 number of primitive shell pairs          14351
 maxK2 (contraction) of shell pair          121
 max number of K2 of shell pair               1
 max number of CS2 of shell pair            698
 max number of PS2 of shell pair            780
 mem total for path MDJ                 1547632
 -------------------------------------------------------
 Smallest overlap matrix eigenvalue = 5.26E-06

 Scale SEOQF with 1.000000e-01/1.000000e-01/1.000000e-01

 Standard Electronic Orientation quadrupole field applied
 Nucleus-field energy     =    -0.0000000053 hartrees
 Guess from superposition of atomic densities
 Warning:  Energy on first SCF cycle will be non-variational
 SAD guess density has 30.000000 electrons

 -----------------------------------------------------------------------
  General SCF calculation program by
  Eric Jon Sundstrom, Paul Horn, Yuezhi Mao, Dmitri Zuev, Alec White,
  David Stuck, Shaama M.S., Shane Yost, Joonho Lee, David Small,
  Daniel Levine, Susi Lehtola, Hugh Burton, Evgeny Epifanovsky
 -----------------------------------------------------------------------
 Exchange:     0.6800 Hartree-Fock + 0.3200 PBE
 Correlation:  0.4900 PBE
 Using Euler-Maclaurin-Lebedev (99,590) quadrature formula
 Dispersion:   Grimme D3
Running Object-Oriented RKS (RHF)
 LTot/LBra/LKet=          20          10          10
 LTot/LBra/LKet=          20          10          10

 Q-Chem warning:

 in GenH1, ket side, handled with new code

 LTot/LBra/LKet=          20          10          10
 LTot/LBra/LKet=          19           9          10

 Q-Chem warning:

 in GenH1, ket side, handled with new code

 LTot/LBra/LKet=          20          10          10
 LTot/LBra/LKet=          19           9          10
 LTot/LBra/LKet=          19           9          10

 Q-Chem warning:

 in GenH1, ket side, handled with new code


 Q-Chem warning:

 in GenH1, ket side, handled with new code

 LTot/LBra/LKet=          19           9          10

 Q-Chem warning:

 in GenH1, ket side, handled with new code


 Q-Chem warning:

 in GenH1, ket side, handled with new code


 Q-Chem warning:

 in GenH1, ket side, handled with new code


 Q-Chem warning:

 in GenH1, ket side, handled with new code

 LTot/LBra/LBra=          20          10          10

 Q-Chem warning:

 in GenH1, bra side, handled with new code

We will preform up to 15 macro iterations over saddle points until a stable solution is found
Energy prior to optimization (guess energy) = -510.798716967856
Begin Timing: Total SCF Calculation
Begin Timing: SCF Single Stationary Point Calculation
begin iterations for algorithm: GDM          
the SCF tolerance is set to 1.00e-08
    1    -510.7987169679      1.36e-01     00000  Normal BFGS step
    2    -510.7762076573      1.81e-01     00000 Line search: overstep
    3    -510.8436558835      1.35e-02     00000  Normal BFGS step
    4    -510.8472384188      1.00e-02     00000  Normal BFGS step
    5    -510.8474782119      8.19e-03     00000  Normal BFGS step
    6    -510.8476819223      4.26e-04     00000  Normal BFGS step
    7    -510.8476846029      1.40e-04     00000  Normal BFGS step
    8    -510.8476848490      4.30e-05     00000  Normal BFGS step
    9    -510.8476848670      6.31e-06     00000  Normal BFGS step
   10    -510.8476848676      6.30e-07     00000  Normal BFGS step
   11    -510.8476848676      1.53e-07     00000  Normal BFGS step
   12    -510.8476848676      4.00e-08     00000  Normal BFGS step
   13    -510.8476848676      1.27e-08     00000  Normal BFGS step
   14    -510.8476848676      1.13e-08     00000  Normal BFGS step
   15    -510.8476848676      2.74e-09     00000 Convergence criterion met
Timing for Single Stationary Point: 19117.00s (wall), 152926.74s (cpu)
Begin Timing: Stability
===================================================
Beginning Test for Internal Stability
===================================================
generating davidson guess vectors based on koopmans excitations
    1      7.12e+00     00000 Davidson Iteration
    2      2.25e+00     00000 Davidson Iteration
    3      1.56e-01     00000 Davidson Iteration
    4      1.76e-01     00000 Davidson Iteration
    5      6.58e-02     00000 Davidson Iteration
    6      6.76e-02     00000 Davidson Iteration
    7      4.02e-02     00000 Davidson Iteration
    8      2.38e-01     00000 Davidson Iteration
    9      5.92e-02     00000 Davidson Iteration
   10      2.49e-02     00000 Davidson Iteration
   11      1.23e-02     00000 Davidson Iteration
   12      1.14e-02     00000 Davidson Iteration
   13      1.21e-02     00000 Davidson Iteration
   14      3.18e-03     00000 Davidson Iteration
   15      6.45e-04     00000 Davidson Iteration
   16      1.31e-04     00000 Davidson Iteration
   17      1.07e-04     00000 Davidson Iteration
   18      5.74e-05     00000 Davidson Iteration
   19      6.26e-05     00000 Davidson Converged
converged_eigenvalues
   0.7508
   0.7508
Threshold for negative eigenvalues: -1.0e-05
solution was a local minimum (stable)
===================================================
End Test for Internal Stability
===================================================
Our SCF solution is stable!
Timing for Total SCF: 50871.00s (wall), 406082.08s (cpu)
 Total energy in the final basis set =     -510.8476848676
    ==================================================
              The end of Object-Oriented SCFman       
    ==================================================

 Q-Chem fatal error occurred in module libmdc/qalloc.C, line 49:

 Illegal memory length in mega_alloc


 Please submit a crash report at q-chem.com/reporter 
 
 
 
User input: 2 of 2 
 
Q-Chem Developer Version!
                  Welcome to Q-Chem
     A Quantum Leap Into The Future Of Chemistry


 Q-Chem 5.1, Q-Chem, Inc., Pleasanton, CA (2018)

 Yihan Shao,  Zhengting Gan,  E. Epifanovsky,  A. T. B. Gilbert,  M. Wormit,  
 J. Kussmann,  A. W. Lange,  A. Behn,  Jia Deng,  Xintian Feng,  D. Ghosh,  
 M. Goldey,  P. R. Horn,  L. D. Jacobson,  I. Kaliman,  T. Kus,  A. Landau,  
 Jie Liu,  E. I. Proynov,  R. M. Richard,  R. P. Steele,  E. J. Sundstrom,  
 H. L. Woodcock III,  P. M. Zimmerman,  D. Zuev,  B. Albrecht,  E. Alguire,  
 S. A. Baeppler,  D. Barton,  Z. Benda,  Y. A. Bernard,  E. J. Berquist,  
 K. B. Bravaya,  H. Burton,  D. Casanova,  Chun-Min Chang,  Yunqing Chen,  
 A. Chien,  K. D. Closser,  M. P. Coons,  S. Coriani,  S. Dasgupta,  
 A. L. Dempwolff,  M. Diedenhofen,  Hainam Do,  R. G. Edgar,  Po-Tung Fang,  
 S. Faraji,  S. Fatehi,  Qingguo Feng,  K. D. Fenk,  J. Fosso-Tande,  
 Qinghui Ge,  A. Ghysels,  G. Gidofalvi,  J. Gomes,  J. Gonthier,  A. Gunina,  
 D. Hait,  M. W. D. Hanson-Heine,  P. H. P. Harbach,  A. W. Hauser,  
 J. E. Herr,  E. G. Hohenstein,  Z. C. Holden,  Kerwin Hui,  B. C. Huynh,  
 T.-C. Jagau,  Hyunjun Ji,  B. Kaduk,  K. Khistyaev,  Jaehoon Kim,  
 P. Klunzinger,  K. Koh,  D. Kosenkov,  L. Koulias,  T. Kowalczyk,  
 C. M. Krauter,  A. Kunitsa,  Ka Un Lao,  A. Laurent,  K. V. Lawler,  
 Joonho Lee,  D. Lefrancois,  S. Lehtola,  D. S. Levine,  Yi-Pei Li,  
 You-Sheng Lin,  Fenglai Liu,  E. Livshits,  A. Luenser,  P. Manohar,  
 E. Mansoor,  S. F. Manzer,  Shan-Ping Mao,  Yuezhi Mao,  N. Mardirossian,  
 A. V. Marenich,  T. Markovich,  L. A. Martinez-Martinez,  S. A. Maurer,  
 N. J. Mayhall,  S. C. McKenzie,  J.-M. Mewes,  A. F. Morrison,  
 J. W. Mullinax,  K. Nanda,  T. S. Nguyen-Beck,  R. Olivares-Amaya,  
 J. A. Parkhill,  T. M. Perrine,  F. Plasser,  P. Pokhilko,  S. Prager,  
 A. Prociuk,  E. Ramos,  D. R. Rehn,  F. Rob,  M. Schneider,  N. Sergueev,  
 S. M. Sharada,  S. Sharma,  D. W. Small,  T. Stauch,  T. Stein,  
 Yu-Chuan Su,  A. J. W. Thom,  A. Tkatchenko,  T. Tsuchimochi,  N. M. Tubman,  
 L. Vogt,  M. L. Vidal,  O. Vydrov,  M. A. Watson,  J. Wenzel,  
 M. de Wergifosse,  T. A. Wesolowski,  A. White,  J. Witte,  A. Yamada,  
 Jun Yang,  K. Yao,  S. Yeganeh,  S. R. Yost,  Zhi-Qiang You,  A. Zech,  
 Igor Ying Zhang,  Xing Zhang,  Yan Zhao,  Ying Zhu,  B. R. Brooks,  
 G. K. L. Chan,  C. J. Cramer,  M. S. Gordon,  W. J. Hehre,  A. Klamt,  
 M. W. Schmidt,  C. D. Sherrill,  D. G. Truhlar,  A. Aspuru-Guzik,  R. Baer,  
 A. T. Bell,  N. A. Besley,  Jeng-Da Chai,  A. E. DePrince, III,  
 R. A. DiStasio Jr.,  A. Dreuw,  B. D. Dunietz,  T. R. Furlani,  
 Chao-Ping Hsu,  Yousung Jung,  Jing Kong,  D. S. Lambrecht,  WanZhen Liang,  
 C. Ochsenfeld,  V. A. Rassolov,  L. V. Slipchenko,  J. E. Subotnik,  
 T. Van Voorhis,  J. M. Herbert,  A. I. Krylov,  P. M. W. Gill,  M. Head-Gordon

 Contributors to earlier versions of Q-Chem not listed above: 
 R. D. Adamson,  B. Austin,  J. Baker,  G. J. O. Beran,  K. Brandhorst,  
 S. T. Brown,  E. F. C. Byrd,  A. K. Chakraborty,  C.-L. Cheng,  
 Siu Hung Chien,  D. M. Chipman,  D. L. Crittenden,  H. Dachsel,  
 R. J. Doerksen,  A. D. Dutoi,  L. Fusti-Molnar,  W. A. Goddard III,  
 A. Golubeva-Zadorozhnaya,  S. R. Gwaltney,  G. Hawkins,  A. Heyden,  
 S. Hirata,  G. Kedziora,  F. J. Keil,  C. Kelley,  Jihan Kim,  R. A. King,  
 R. Z. Khaliullin,  P. P. Korambath,  W. Kurlancheek,  A. M. Lee,  M. S. Lee,  
 S. V. Levchenko,  Ching Yeh Lin,  D. Liotard,  R. C. Lochan,  I. Lotan,  
 P. E. Maslen,  N. Nair,  D. P. O'Neill,  D. Neuhauser,  E. Neuscamman,  
 C. M. Oana,  R. Olson,  B. Peters,  R. Peverati,  P. A. Pieniazek,  
 Y. M. Rhee,  J. Ritchie,  M. A. Rohrdanz,  E. Rosta,  N. J. Russ,  
 H. F. Schaefer III,  N. E. Schultz,  N. Shenvi,  A. C. Simmonett,  A. Sodt,  
 D. Stuck,  K. S. Thanthiriwatte,  V. Vanovschi,  Tao Wang,  A. Warshel,  
 C. F. Williams,  Q. Wu,  X. Xu,  W. Zhang

 Please cite Q-Chem as follows:
 Y. Shao et al., Mol. Phys. 113, 184-215 (2015)
 DOI: 10.1080/00268976.2014.952696

 Q-Chem 5.1.1 for Intel X86 EM64T Linux

 Parts of Q-Chem use Armadillo 8.300.2 (Tropical Shenanigans).
 http://arma.sourceforge.net/

 Q-Chem begins on Sat Oct  3 17:15:53 2020  

Host: n0088.mhg0
0

     Scratch files written to /local/scratch/users/yhljason/CSO_DSD-PBEPBE-D3_aug-cc-pcV5Z.inp20201003024248//
The previous job contains 0 fragments, simply inherited here
Input Ideriv = 2
Curr. Ideriv = -1
Max.  Ideriv = 2

Checking the input file for inconsistencies... 	...done.

--------------------------------------------------------------
User input:
--------------------------------------------------------------
$molecule
read
$end

$rem

jobtype sp
method HF
xc_grid 000099000590
basis aug-cc-pcV5Z
max_scf_cycles 0
scf_guess read
thresh 14
scf_convergence 8
mem_total 128000
cc_memory 96000
cc_backend xm
mem_static 1500
symmetry false
sym_ignore true
scf_guess read
unrestricted false
scf_algorithm gdm
n_frozen_core 0
$end


--------------------------------------------------------------
 ----------------------------------------------------------------
             Standard Nuclear Orientation (Angstroms)
    I     Atom           X                Y                Z
 ----------------------------------------------------------------
    1      C       0.0000000000     0.0000000000     0.0000000000
    2      O       0.0000000000     0.0000000000     1.1600000000
    3      S       0.0000000000     0.0000000000    -1.5600000000
 ----------------------------------------------------------------
 Nuclear Repulsion Energy =    79.3641964458 hartrees
 There are       15 alpha and       15 beta electrons
 Requested basis set is aug-cc-pCV5Z
 There are 129 shells and 579 basis functions

 Total QAlloc Memory Limit 128000 MB
 Mega-Array Size      1467 MB
 MEM_STATIC part      1500 MB

                       Distance Matrix (Angstroms)
             C (  1)   O (  2)
   O (  2)  1.160000
   S (  3)  1.560000  2.720000
 
 A cutoff of  1.0D-14 yielded   7402 shell pairs
 There are    153258 function pairs (    302551 Cartesian)
 
 -------------------------------------------------------
 OpenMP Integral Computing Module                       
 Release: version 1.0, May 2013, Q-Chem Inc. Pittsburgh 
 -------------------------------------------------------
 Integral Job Info:
 Integral job number is                      11
 Integral operator is                         1
 short-range coefficients                     0
 long-range coefficients              100000000
 Omega coefficients                           0
 if combine SR and LR in K                    0
 Integral screening is                        0
 Integral computing path is                   2
 max size of driver memory is           6400000
 size of driver memory is               5498286
 size of scratch memory is             29792225
 max col of scratch BK array             194481
 max len of scratch array in speh3         5572
 max len of scratch index in speh4           72
 max int batch size is                      520
 min int batch size is                       52
 fixed nKL is                                25
 max L of basis functions is                  5
 order of int derivative is                   0
 number of shells is                        129
 number of basis is                         809
 number of cartesian basis is               809
 number of contracted shell pairs          7402
 number of primitive shell pairs          14351
 maxK2 (contraction) of shell pair          121
 max number of K2 of shell pair               1
 max number of CS2 of shell pair            698
 max number of PS2 of shell pair            780
 mem total for path MDJ                 1547632
 -------------------------------------------------------
 Smallest overlap matrix eigenvalue = 5.26E-06

 Scale SEOQF with 1.000000e-01/1.000000e-01/1.000000e-01

 Standard Electronic Orientation quadrupole field applied
 Nucleus-field energy     =    -0.0000000053 hartrees
 Guess MOs from SCF MO coefficient file
 Reading MOs from coefficient file
 Reading MOs from coefficient file
 The restricted Hartree-Fock energy will be evaluated
 The orbitals will not be altered
Using Q-Chem read-in guess as SCF_GUESS READ specified.

 using 8 threads for integral computing
 -------------------------------------------------------
 OpenMP Integral computing Module                
 Release: version 2.0, May 2017, Q-Chem Inc. Pleasanton 
 -------------------------------------------------------
 LTot/LBra/LKet=          20          10          10
 LTot/LBra/LKet=          20          10          10
 LTot/LBra/LKet=          20          10          10
 LTot/LBra/LKet=          19           9          10
 LTot/LBra/LKet=          20          10          10

 Q-Chem warning:

 in GenH1, ket side, handled with new code

 LTot/LBra/LKet=          19           9          10

 Q-Chem warning:

 in GenH1, ket side, handled with new code

 LTot/LBra/LKet=          19           9          10
 LTot/LBra/LKet=          20          10          10

 Q-Chem warning:

 in GenH1, ket side, handled with new code


 Q-Chem warning:

 in GenH1, ket side, handled with new code


 Q-Chem warning:

 in GenH1, ket side, handled with new code


 Q-Chem warning:

 in GenH1, ket side, handled with new code


 Q-Chem warning:

 in GenH1, ket side, handled with new code


 Q-Chem warning:

 in GenH1, ket side, handled with new code

 LTot/LBra/LBra=          20          10          10

 Q-Chem warning:

 in GenH1, bra side, handled with new code

TIMEINFO->: J/JK contribution 10626.46 sec.
Avoiding writing the new MOs to disk !!! 
 ---------------------------------------
  Cycle       Energy        RMS Gradient
 ---------------------------------------
    1    -510.3518236791      1.63E-02 Convergence criterion met
 ---------------------------------------
 SCF time:  CPU 10628.90 s  wall 1330.24 s
 SCF   energy in the final basis set = -510.35182368
 Total energy in the final basis set = -510.35182368
 
 --------------------------------------------------------------
 
                    Orbital Energies (a.u.)
 --------------------------------------------------------------
 
 Alpha MOs
 -- Occupied --
-90.740 -20.076 -10.991  -8.589  -6.380  -6.377  -6.377  -1.364
 -0.990  -0.693  -0.592  -0.592  -0.577  -0.380  -0.380
 -- Virtual --
  0.024   0.037   0.037   0.038   0.053   0.053   0.069   0.082
  0.082   0.124   0.131   0.143   0.143   0.151   0.155   0.155
  0.168   0.231   0.231   0.235   0.235   0.251   0.251   0.254
  0.307   0.317   0.317   0.320   0.381   0.400   0.400   0.405
  0.405   0.416   0.416   0.435   0.454   0.454   0.502   0.502
  0.523   0.523   0.527   0.554   0.554   0.560   0.581   0.581
  0.590   0.590   0.623   0.652   0.681   0.681   0.712   0.712
  0.719   0.799   0.814   0.814   0.836   0.836   0.946   0.946
  0.997   0.997   1.018   1.018   1.032   1.066   1.084   1.084
  1.110   1.110   1.117   1.117   1.139   1.140   1.140   1.162
  1.162   1.200   1.213   1.213   1.235   1.235   1.238   1.238
  1.261   1.290   1.314   1.314   1.348   1.396   1.396   1.457
  1.457   1.504   1.536   1.536   1.551   1.551   1.590   1.590
  1.599   1.611   1.611   1.743   1.743   1.754   1.754   1.856
  1.955   1.955   1.958   1.958   2.099   2.110   2.110   2.214
  2.215   2.215   2.268   2.290   2.290   2.327   2.327   2.433
  2.462   2.462   2.555   2.555   2.569   2.569   2.597   2.597
  2.606   2.606   2.634   2.687   2.687   2.694   2.694   2.716
  2.752   2.752   2.825   2.825   2.846   2.846   2.859   2.859
  2.870   2.870   2.910   3.031   3.031   3.043   3.043   3.074
  3.074   3.135   3.225   3.225   3.244   3.257   3.257   3.318
  3.318   3.397   3.397   3.436   3.436   3.436   3.502   3.502
  3.566   3.573   3.573   3.586   3.586   3.828   3.871   3.871
  3.919   3.919   3.932   3.956   3.956   3.974   3.974   4.071
  4.071   4.147   4.352   4.352   4.397   4.397   4.536   4.536
  4.565   4.579   4.579   4.728   4.770   4.770   4.784   4.784
  4.906   4.906   4.919   4.919   4.996   5.021   5.021   5.270
  5.270   5.271   5.271   5.405   5.565   5.565   5.746   5.746
  5.797   5.797   5.798   5.827   6.007   6.007   6.009   6.009
  6.085   6.085   6.105   6.105   6.130   6.130   6.166   6.166
  6.254   6.254   6.289   6.382   6.382   6.441   6.518   6.518
  6.657   6.657   6.713   6.941   6.941   6.962   6.962   7.039
  7.039   7.065   7.072   7.072   7.211   7.211   7.252   7.252
  7.317   7.483   7.483   7.515   7.515   7.527   7.527   7.875
  7.949   8.112   8.112   8.220   8.220   8.278   8.278   8.489
  8.515   8.515   8.711   8.731   8.731   8.980   8.980   8.987
  8.987   9.315   9.315   9.519   9.519   9.709   9.709   9.710
  9.710   9.776   9.842  10.018  10.018  10.079  10.079  10.146
 10.146  10.319  10.319  10.391  10.434  10.434  10.459  10.459
 10.769  10.875  10.875  10.892  10.892  11.541  11.728  11.728
 11.730  11.730  12.308  12.600  12.630  12.630  12.751  12.751
 13.693  14.283  14.283  14.768  14.768  15.496  15.727  15.727
 15.868  15.868  15.995  15.995  16.179  16.241  16.241  16.395
 16.395  16.509  16.750  16.750  16.930  16.930  17.081  17.440
 17.440  17.461  18.833  18.833  19.049  19.049  19.142  19.180
 19.180  19.396  19.396  19.660  19.660  19.801  19.801  19.974
 21.215  21.215  21.932  21.932  22.025  22.025  22.127  22.294
 22.294  22.739  22.739  23.459  23.550  23.550  24.397  24.675
 27.980  27.980  29.034  31.300  33.855  33.855  33.868  33.868
 33.928  33.928  34.123  34.123  34.168  35.174  35.174  36.572
 36.572  38.293  38.498  38.498  39.049  40.174  45.364  45.364
 45.450  45.450  45.653  45.653  46.014  46.385  46.385  46.700
 46.700  47.273  47.273  48.355  50.269  51.563  51.563  52.099
 52.099  52.838  59.412  59.412  61.067  61.067  61.131  61.855
 61.855  62.326  71.397  71.397  71.662  71.662  72.370  72.370
 72.801  72.801  72.869  73.625  83.356  86.070  86.070  86.070
 86.070  86.070  86.071  86.071  86.072  86.072  86.075  86.075
 99.949 106.565 106.565 106.571 106.571 106.596 106.596 106.682
106.682 106.721 107.000 107.000 107.330 107.330 107.972 107.972
108.754 109.105 117.458 117.458 117.904 117.904 118.464 122.109
122.109 122.170 122.170 122.320 122.320 122.656 129.620 164.971
164.971 166.426 166.826 166.826 166.831 166.831 166.841 166.841
166.860 166.860 166.885 180.743 180.743 181.315 181.315 181.585
187.420 187.420 187.559 187.559 187.782 187.782 188.257 194.235
194.235 194.923 220.562 244.984 244.984 244.987 244.987 244.992
244.992 244.993 244.993 245.002 264.698 264.698 265.067 265.067
265.533 271.905 290.566 290.566 290.674 290.674 290.943 290.943
291.123 298.064 298.064 299.289 328.467 328.467 329.130 329.130
329.941 336.813 464.474 464.474 465.744 555.489 555.489 555.884
555.884 556.063 583.544 622.780 622.780 623.423 836.187 836.187
837.2051174.1891189.5672074.872
 --------------------------------------------------------------
 
          Ground-State Mulliken Net Atomic Charges

     Atom                 Charge (a.u.)
  ----------------------------------------
      1 C                     0.695445
      2 O                    -0.342662
      3 S                    -0.352783
  ----------------------------------------
  Sum of atomic charges =     0.000000

 -----------------------------------------------------------------
                    Cartesian Multipole Moments
 -----------------------------------------------------------------
    Charge (ESU x 10^10)
                 0.0000
    Dipole Moment (Debye)
         X       0.0000      Y       0.0000      Z      -0.8352
       Tot       0.8352
    Quadrupole Moments (Debye-Ang)
        XX     -23.4577     XY       0.0000     YY     -23.4577
        XZ      -0.0000     YZ      -0.0000     ZZ     -23.8140
    Octopole Moments (Debye-Ang^2)
       XXX       0.0000    XXY      -0.0000    XYY       0.0000
       YYY       0.0000    XXZ      14.9961    XYZ      -0.0000
       YYZ      14.9961    XZZ       0.0000    YZZ       0.0000
       ZZZ      33.1276
    Hexadecapole Moments (Debye-Ang^3)
      XXXX     -27.2503   XXXY       0.0000   XXYY      -9.0834
      XYYY       0.0000   YYYY     -27.2503   XXXZ      -0.0000
      XXYZ      -0.0000   XYYZ      -0.0000   YYYZ      -0.0000
      XXZZ     -47.9775   XYZZ       0.0000   YYZZ     -47.9775
      XZZZ      -0.0000   YZZZ      -0.0000   ZZZZ    -232.4462
 -----------------------------------------------------------------
Archival summary:
1\1\n0088.mhg0\SP\HF\BasisUnspecified\111\yhljason\SatOct317:38:242020SatOct317:38:242020\0\\#,HF,BasisUnspecified,\\0,1\S\C,1,1.56\O,2,1.16,1,180\\HF=-510.351824\\@

 Total job time:  1351.33s(wall), 10661.27s(cpu) 
 Sat Oct  3 17:38:24 2020

        *************************************************************
        *                                                           *
        *  Thank you very much for using Q-Chem.  Have a nice day.  *
        *                                                           *
        *************************************************************


