Q-Chem Developer Version!
                  Welcome to Q-Chem
     A Quantum Leap Into The Future Of Chemistry


 Q-Chem 5.1, Q-Chem, Inc., Pleasanton, CA (2018)

 Yihan Shao,  Zhengting Gan,  E. Epifanovsky,  A. T. B. Gilbert,  M. Wormit,  
 J. Kussmann,  A. W. Lange,  A. Behn,  Jia Deng,  Xintian Feng,  D. Ghosh,  
 M. Goldey,  P. R. Horn,  L. D. Jacobson,  I. Kaliman,  T. Kus,  A. Landau,  
 Jie Liu,  E. I. Proynov,  R. M. Richard,  R. P. Steele,  E. J. Sundstrom,  
 H. L. Woodcock III,  P. M. Zimmerman,  D. Zuev,  B. Albrecht,  E. Alguire,  
 S. A. Baeppler,  D. Barton,  Z. Benda,  Y. A. Bernard,  E. J. Berquist,  
 K. B. Bravaya,  H. Burton,  D. Casanova,  Chun-Min Chang,  Yunqing Chen,  
 A. Chien,  K. D. Closser,  M. P. Coons,  S. Coriani,  S. Dasgupta,  
 A. L. Dempwolff,  M. Diedenhofen,  Hainam Do,  R. G. Edgar,  Po-Tung Fang,  
 S. Faraji,  S. Fatehi,  Qingguo Feng,  K. D. Fenk,  J. Fosso-Tande,  
 Qinghui Ge,  A. Ghysels,  G. Gidofalvi,  J. Gomes,  J. Gonthier,  A. Gunina,  
 D. Hait,  M. W. D. Hanson-Heine,  P. H. P. Harbach,  A. W. Hauser,  
 J. E. Herr,  E. G. Hohenstein,  Z. C. Holden,  Kerwin Hui,  B. C. Huynh,  
 T.-C. Jagau,  Hyunjun Ji,  B. Kaduk,  K. Khistyaev,  Jaehoon Kim,  
 P. Klunzinger,  K. Koh,  D. Kosenkov,  L. Koulias,  T. Kowalczyk,  
 C. M. Krauter,  A. Kunitsa,  Ka Un Lao,  A. Laurent,  K. V. Lawler,  
 Joonho Lee,  D. Lefrancois,  S. Lehtola,  D. S. Levine,  Yi-Pei Li,  
 You-Sheng Lin,  Fenglai Liu,  E. Livshits,  A. Luenser,  P. Manohar,  
 E. Mansoor,  S. F. Manzer,  Shan-Ping Mao,  Yuezhi Mao,  N. Mardirossian,  
 A. V. Marenich,  T. Markovich,  L. A. Martinez-Martinez,  S. A. Maurer,  
 N. J. Mayhall,  S. C. McKenzie,  J.-M. Mewes,  A. F. Morrison,  
 J. W. Mullinax,  K. Nanda,  T. S. Nguyen-Beck,  R. Olivares-Amaya,  
 J. A. Parkhill,  T. M. Perrine,  F. Plasser,  P. Pokhilko,  S. Prager,  
 A. Prociuk,  E. Ramos,  D. R. Rehn,  F. Rob,  M. Schneider,  N. Sergueev,  
 S. M. Sharada,  S. Sharma,  D. W. Small,  T. Stauch,  T. Stein,  
 Yu-Chuan Su,  A. J. W. Thom,  A. Tkatchenko,  T. Tsuchimochi,  N. M. Tubman,  
 L. Vogt,  M. L. Vidal,  O. Vydrov,  M. A. Watson,  J. Wenzel,  
 M. de Wergifosse,  T. A. Wesolowski,  A. White,  J. Witte,  A. Yamada,  
 Jun Yang,  K. Yao,  S. Yeganeh,  S. R. Yost,  Zhi-Qiang You,  A. Zech,  
 Igor Ying Zhang,  Xing Zhang,  Yan Zhao,  Ying Zhu,  B. R. Brooks,  
 G. K. L. Chan,  C. J. Cramer,  M. S. Gordon,  W. J. Hehre,  A. Klamt,  
 M. W. Schmidt,  C. D. Sherrill,  D. G. Truhlar,  A. Aspuru-Guzik,  R. Baer,  
 A. T. Bell,  N. A. Besley,  Jeng-Da Chai,  A. E. DePrince, III,  
 R. A. DiStasio Jr.,  A. Dreuw,  B. D. Dunietz,  T. R. Furlani,  
 Chao-Ping Hsu,  Yousung Jung,  Jing Kong,  D. S. Lambrecht,  WanZhen Liang,  
 C. Ochsenfeld,  V. A. Rassolov,  L. V. Slipchenko,  J. E. Subotnik,  
 T. Van Voorhis,  J. M. Herbert,  A. I. Krylov,  P. M. W. Gill,  M. Head-Gordon

 Contributors to earlier versions of Q-Chem not listed above: 
 R. D. Adamson,  B. Austin,  J. Baker,  G. J. O. Beran,  K. Brandhorst,  
 S. T. Brown,  E. F. C. Byrd,  A. K. Chakraborty,  C.-L. Cheng,  
 Siu Hung Chien,  D. M. Chipman,  D. L. Crittenden,  H. Dachsel,  
 R. J. Doerksen,  A. D. Dutoi,  L. Fusti-Molnar,  W. A. Goddard III,  
 A. Golubeva-Zadorozhnaya,  S. R. Gwaltney,  G. Hawkins,  A. Heyden,  
 S. Hirata,  G. Kedziora,  F. J. Keil,  C. Kelley,  Jihan Kim,  R. A. King,  
 R. Z. Khaliullin,  P. P. Korambath,  W. Kurlancheek,  A. M. Lee,  M. S. Lee,  
 S. V. Levchenko,  Ching Yeh Lin,  D. Liotard,  R. C. Lochan,  I. Lotan,  
 P. E. Maslen,  N. Nair,  D. P. O'Neill,  D. Neuhauser,  E. Neuscamman,  
 C. M. Oana,  R. Olson,  B. Peters,  R. Peverati,  P. A. Pieniazek,  
 Y. M. Rhee,  J. Ritchie,  M. A. Rohrdanz,  E. Rosta,  N. J. Russ,  
 H. F. Schaefer III,  N. E. Schultz,  N. Shenvi,  A. C. Simmonett,  A. Sodt,  
 D. Stuck,  K. S. Thanthiriwatte,  V. Vanovschi,  Tao Wang,  A. Warshel,  
 C. F. Williams,  Q. Wu,  X. Xu,  W. Zhang

 Please cite Q-Chem as follows:
 Y. Shao et al., Mol. Phys. 113, 184-215 (2015)
 DOI: 10.1080/00268976.2014.952696

 Q-Chem 5.1.1 for Intel X86 EM64T Linux

 Parts of Q-Chem use Armadillo 8.300.2 (Tropical Shenanigans).
 http://arma.sourceforge.net/

 Q-Chem begins on Sat Oct  3 02:42:59 2020  

Host: n0098.mhg0
0

     Scratch files written to /local/scratch/users/yhljason/H2CN_DSD-PBEPBE-D3_aug-cc-pcV5Z.inp20201003024256//
Input Ideriv = 0
Curr. Ideriv = -1
Max.  Ideriv = 0
Input Ideriv = 0
Curr. Ideriv = 0
Max.  Ideriv = 0

Checking the input file for inconsistencies... 	...done.

--------------------------------------------------------------
User input:
--------------------------------------------------------------
$molecule
0 2
        C         0.0000000000    0.0000000000   -0.4906000000
        N         0.0000000000    0.0000000000    0.7226000000
        H         0.0000000000    0.9342000000   -1.0572000000
        H         0.0000000000   -0.9342000000   -1.0572000000
$end

$rem
jobtype sp
method DSD-PBEPBE-D3
xc_grid 000099000590
basis aug-cc-pcV5Z
max_scf_cycles 200
thresh 14
scf_convergence 8
scf_algorithm gdm
symmetry false
sym_ignore true
unrestricted false
gen_scfman true
internal_stability_iter 15
internal_stability_davidson_iter 200
mem_total 128000
cc_memory 96000
cc_backend xm
mem_static 1500
n_frozen_core 10000
$end



--------------------------------------------------------------
 Adding empirical dispersion correction 
 ----------------------------------------------------------------
 Doing -D3(BJ) with
 s6 =   0.78000
 s8 =   0.00000
 a1 =   0.00000
 a2 =   6.10000
 -D3 energy without 3body term =     -0.0009085351 hartrees
 ----------------------------------------------------------------
             Standard Nuclear Orientation (Angstroms)
    I     Atom           X                Y                Z
 ----------------------------------------------------------------
    1      C       0.0000000000     0.0000000000    -0.4906000000
    2      N       0.0000000000     0.0000000000     0.7226000000
    3      H       0.0000000000     0.9342000000    -1.0572000000
    4      H       0.0000000000    -0.9342000000    -1.0572000000
 ----------------------------------------------------------------
 Nuclear Repulsion Energy =    28.0996326943 hartrees
 There are        8 alpha and        7 beta electrons
 Requested basis set is aug-cc-pCV5Z
 There are 122 shells and 522 basis functions

 Total QAlloc Memory Limit 128000 MB
 Mega-Array Size      1467 MB
 MEM_STATIC part      1500 MB

                       Distance Matrix (Angstroms)
             C (  1)   N (  2)   H (  3)
   N (  2)  1.213200
   H (  3)  1.092596  2.010079
   H (  4)  1.092596  2.010079  1.868400
 
 A cutoff of  1.0D-14 yielded   7281 shell pairs
 There are    135061 function pairs (    252783 Cartesian)
 
 -------------------------------------------------------
 OpenMP Integral Computing Module                       
 Release: version 1.0, May 2013, Q-Chem Inc. Pittsburgh 
 -------------------------------------------------------
 Integral Job Info:
 Integral job number is                      11
 Integral operator is                         1
 short-range coefficients                     0
 long-range coefficients              100000000
 Omega coefficients                           0
 if combine SR and LR in K                    0
 Integral screening is                        0
 Integral computing path is                   2
 max size of driver memory is           6400000
 size of driver memory is               5498286
 size of scratch memory is             29551430
 max col of scratch BK array             194481
 max len of scratch array in speh3         5572
 max len of scratch index in speh4           72
 max int batch size is                      520
 min int batch size is                       52
 fixed nKL is                                30
 max L of basis functions is                  5
 order of int derivative is                   0
 number of shells is                        122
 number of basis is                         712
 number of cartesian basis is               712
 number of contracted shell pairs          7281
 number of primitive shell pairs          12955
 maxK2 (contraction) of shell pair          100
 max number of K2 of shell pair               1
 max number of CS2 of shell pair            773
 max number of PS2 of shell pair            960
 mem total for path MDJ                 1328968
 -------------------------------------------------------
 Smallest overlap matrix eigenvalue = 2.42E-06

 Scale SEOQF with 1.000000e-01/1.000000e-01/1.000000e-01

 Standard Electronic Orientation quadrupole field applied
 Nucleus-field energy     =    -0.0000000007 hartrees
 Guess from superposition of atomic densities
 Warning:  Energy on first SCF cycle will be non-variational
 SAD guess density has 15.000000 electrons

 -----------------------------------------------------------------------
  General SCF calculation program by
  Eric Jon Sundstrom, Paul Horn, Yuezhi Mao, Dmitri Zuev, Alec White,
  David Stuck, Shaama M.S., Shane Yost, Joonho Lee, David Small,
  Daniel Levine, Susi Lehtola, Hugh Burton, Evgeny Epifanovsky
 -----------------------------------------------------------------------
 Exchange:     0.6800 Hartree-Fock + 0.3200 PBE
 Correlation:  0.4900 PBE
 Using Euler-Maclaurin-Lebedev (99,590) quadrature formula
 Dispersion:   Grimme D3
Running Object-Oriented ROKS (ROHF)
ROHF occupied orbitals are orthonormal
ROHF occupied orbitals are orthogonal to virtual orbitals
ROHF virtual orbitals are orthonormal
 LTot/LBra/LKet=          16           7           9
 LTot/LBra/LKet=          16           7           9

 Q-Chem warning:

 in GenH1, ket side, handled with new code


 Q-Chem warning:

 in GenH1, ket side, handled with new code

 LTot/LBra/LKet=          16           7           9

 Q-Chem warning:

 in GenH1, ket side, handled with new code

We will preform up to 15 macro iterations over saddle points until a stable solution is found
Energy prior to optimization (guess energy) = -93.036971795793
Begin Timing: Total SCF Calculation
Begin Timing: SCF Single Stationary Point Calculation
begin iterations for algorithm: GDM          
the SCF tolerance is set to 1.00e-08
 LTot/LBra/LBra=          20          10          10

 Q-Chem warning:

 in GenH1, bra side, handled with new code

    1     -93.0369717958      9.21e-01     00000  Descent step
    2     -93.4538423633      2.86e-01     00000  Descent step
    3     -93.6235198863      7.20e-02     00000  Dog-leg BFGS step
    4     -93.6771366429      2.88e-02     00000  Normal BFGS step
    5     -93.6793612035      5.03e-02     00000  Normal BFGS step
    6     -93.6801912466      7.43e-03     00000  Normal BFGS step
    7     -93.6802483068      9.33e-04     00000  Normal BFGS step
    8     -93.6802560347      2.44e-04     00000  Normal BFGS step
    9     -93.6802563158      7.47e-05     00000  Normal BFGS step
   10     -93.6802563585      8.94e-06     00000  Normal BFGS step
   11     -93.6802563592      2.07e-06     00000  Normal BFGS step
   12     -93.6802563593      9.23e-07     00000  Normal BFGS step
   13     -93.6802563593      1.16e-06     00000  Normal BFGS step
   14     -93.6802563593      2.69e-08     00000  Normal BFGS step
   15     -93.6802563593      1.16e-08     00000  Normal BFGS step
   16     -93.6802563593      1.08e-08     00000  Normal BFGS step
   17     -93.6802563593      5.80e-09     00000 Convergence criterion met
The disked orbital energies are calculated using alpha and beta Focks
Timing for Single Stationary Point: 11470.00s (wall), 91257.55s (cpu)
Begin Timing: Stability
===================================================
Beginning Test for Internal Stability
===================================================
generating davidson guess vectors based on koopmans-like excitations
    1      2.91e-01     00000 Davidson Iteration
    2      1.65e-01     00000 Davidson Iteration
    3      7.02e-02     00000 Davidson Iteration
    4      2.33e-02     00000 Davidson Iteration
    5      6.31e-03     00000 Davidson Iteration
    6      1.35e-03     00000 Davidson Iteration
    7      3.34e-04     00000 Davidson Iteration
    8      7.90e-05     00000 Davidson Iteration
    9      3.70e-05     00000 Davidson Converged
converged_eigenvalues
   0.3119
   0.2532
Threshold for negative eigenvalues: -1.0e-05
solution was a local minimum (stable)
===================================================
End Test for Internal Stability
===================================================
Our SCF solution is stable!
The disked orbital energies are calculated using alpha and beta Focks
Timing for Total SCF: 20608.00s (wall), 163867.52s (cpu)
 Total energy in the final basis set =      -93.6802563593
<S^2> =          0.750000000
    ==================================================
              The end of Object-Oriented SCFman       
    ==================================================

 Q-Chem fatal error occurred in module libmdc/qalloc.C, line 49:

 Illegal memory length in mega_alloc


 Please submit a crash report at q-chem.com/reporter 
 
 
 
User input: 2 of 2 
 
Q-Chem Developer Version!
                  Welcome to Q-Chem
     A Quantum Leap Into The Future Of Chemistry


 Q-Chem 5.1, Q-Chem, Inc., Pleasanton, CA (2018)

 Yihan Shao,  Zhengting Gan,  E. Epifanovsky,  A. T. B. Gilbert,  M. Wormit,  
 J. Kussmann,  A. W. Lange,  A. Behn,  Jia Deng,  Xintian Feng,  D. Ghosh,  
 M. Goldey,  P. R. Horn,  L. D. Jacobson,  I. Kaliman,  T. Kus,  A. Landau,  
 Jie Liu,  E. I. Proynov,  R. M. Richard,  R. P. Steele,  E. J. Sundstrom,  
 H. L. Woodcock III,  P. M. Zimmerman,  D. Zuev,  B. Albrecht,  E. Alguire,  
 S. A. Baeppler,  D. Barton,  Z. Benda,  Y. A. Bernard,  E. J. Berquist,  
 K. B. Bravaya,  H. Burton,  D. Casanova,  Chun-Min Chang,  Yunqing Chen,  
 A. Chien,  K. D. Closser,  M. P. Coons,  S. Coriani,  S. Dasgupta,  
 A. L. Dempwolff,  M. Diedenhofen,  Hainam Do,  R. G. Edgar,  Po-Tung Fang,  
 S. Faraji,  S. Fatehi,  Qingguo Feng,  K. D. Fenk,  J. Fosso-Tande,  
 Qinghui Ge,  A. Ghysels,  G. Gidofalvi,  J. Gomes,  J. Gonthier,  A. Gunina,  
 D. Hait,  M. W. D. Hanson-Heine,  P. H. P. Harbach,  A. W. Hauser,  
 J. E. Herr,  E. G. Hohenstein,  Z. C. Holden,  Kerwin Hui,  B. C. Huynh,  
 T.-C. Jagau,  Hyunjun Ji,  B. Kaduk,  K. Khistyaev,  Jaehoon Kim,  
 P. Klunzinger,  K. Koh,  D. Kosenkov,  L. Koulias,  T. Kowalczyk,  
 C. M. Krauter,  A. Kunitsa,  Ka Un Lao,  A. Laurent,  K. V. Lawler,  
 Joonho Lee,  D. Lefrancois,  S. Lehtola,  D. S. Levine,  Yi-Pei Li,  
 You-Sheng Lin,  Fenglai Liu,  E. Livshits,  A. Luenser,  P. Manohar,  
 E. Mansoor,  S. F. Manzer,  Shan-Ping Mao,  Yuezhi Mao,  N. Mardirossian,  
 A. V. Marenich,  T. Markovich,  L. A. Martinez-Martinez,  S. A. Maurer,  
 N. J. Mayhall,  S. C. McKenzie,  J.-M. Mewes,  A. F. Morrison,  
 J. W. Mullinax,  K. Nanda,  T. S. Nguyen-Beck,  R. Olivares-Amaya,  
 J. A. Parkhill,  T. M. Perrine,  F. Plasser,  P. Pokhilko,  S. Prager,  
 A. Prociuk,  E. Ramos,  D. R. Rehn,  F. Rob,  M. Schneider,  N. Sergueev,  
 S. M. Sharada,  S. Sharma,  D. W. Small,  T. Stauch,  T. Stein,  
 Yu-Chuan Su,  A. J. W. Thom,  A. Tkatchenko,  T. Tsuchimochi,  N. M. Tubman,  
 L. Vogt,  M. L. Vidal,  O. Vydrov,  M. A. Watson,  J. Wenzel,  
 M. de Wergifosse,  T. A. Wesolowski,  A. White,  J. Witte,  A. Yamada,  
 Jun Yang,  K. Yao,  S. Yeganeh,  S. R. Yost,  Zhi-Qiang You,  A. Zech,  
 Igor Ying Zhang,  Xing Zhang,  Yan Zhao,  Ying Zhu,  B. R. Brooks,  
 G. K. L. Chan,  C. J. Cramer,  M. S. Gordon,  W. J. Hehre,  A. Klamt,  
 M. W. Schmidt,  C. D. Sherrill,  D. G. Truhlar,  A. Aspuru-Guzik,  R. Baer,  
 A. T. Bell,  N. A. Besley,  Jeng-Da Chai,  A. E. DePrince, III,  
 R. A. DiStasio Jr.,  A. Dreuw,  B. D. Dunietz,  T. R. Furlani,  
 Chao-Ping Hsu,  Yousung Jung,  Jing Kong,  D. S. Lambrecht,  WanZhen Liang,  
 C. Ochsenfeld,  V. A. Rassolov,  L. V. Slipchenko,  J. E. Subotnik,  
 T. Van Voorhis,  J. M. Herbert,  A. I. Krylov,  P. M. W. Gill,  M. Head-Gordon

 Contributors to earlier versions of Q-Chem not listed above: 
 R. D. Adamson,  B. Austin,  J. Baker,  G. J. O. Beran,  K. Brandhorst,  
 S. T. Brown,  E. F. C. Byrd,  A. K. Chakraborty,  C.-L. Cheng,  
 Siu Hung Chien,  D. M. Chipman,  D. L. Crittenden,  H. Dachsel,  
 R. J. Doerksen,  A. D. Dutoi,  L. Fusti-Molnar,  W. A. Goddard III,  
 A. Golubeva-Zadorozhnaya,  S. R. Gwaltney,  G. Hawkins,  A. Heyden,  
 S. Hirata,  G. Kedziora,  F. J. Keil,  C. Kelley,  Jihan Kim,  R. A. King,  
 R. Z. Khaliullin,  P. P. Korambath,  W. Kurlancheek,  A. M. Lee,  M. S. Lee,  
 S. V. Levchenko,  Ching Yeh Lin,  D. Liotard,  R. C. Lochan,  I. Lotan,  
 P. E. Maslen,  N. Nair,  D. P. O'Neill,  D. Neuhauser,  E. Neuscamman,  
 C. M. Oana,  R. Olson,  B. Peters,  R. Peverati,  P. A. Pieniazek,  
 Y. M. Rhee,  J. Ritchie,  M. A. Rohrdanz,  E. Rosta,  N. J. Russ,  
 H. F. Schaefer III,  N. E. Schultz,  N. Shenvi,  A. C. Simmonett,  A. Sodt,  
 D. Stuck,  K. S. Thanthiriwatte,  V. Vanovschi,  Tao Wang,  A. Warshel,  
 C. F. Williams,  Q. Wu,  X. Xu,  W. Zhang

 Please cite Q-Chem as follows:
 Y. Shao et al., Mol. Phys. 113, 184-215 (2015)
 DOI: 10.1080/00268976.2014.952696

 Q-Chem 5.1.1 for Intel X86 EM64T Linux

 Parts of Q-Chem use Armadillo 8.300.2 (Tropical Shenanigans).
 http://arma.sourceforge.net/

 Q-Chem begins on Sat Oct  3 08:29:38 2020  

Host: n0098.mhg0
0

     Scratch files written to /local/scratch/users/yhljason/H2CN_DSD-PBEPBE-D3_aug-cc-pcV5Z.inp20201003024256//
The previous job contains 0 fragments, simply inherited here
Input Ideriv = 1
Curr. Ideriv = -1
Max.  Ideriv = 1

Checking the input file for inconsistencies... 	...done.

--------------------------------------------------------------
User input:
--------------------------------------------------------------
$molecule
read
$end

$rem

jobtype sp
method HF
xc_grid 000099000590
basis aug-cc-pcV5Z
max_scf_cycles 0
scf_guess read
thresh 14
scf_convergence 8
mem_total 128000
cc_memory 96000
cc_backend xm
mem_static 1500
symmetry false
sym_ignore true
scf_guess read
unrestricted false
scf_algorithm gdm
n_frozen_core 0
$end


--------------------------------------------------------------
 ----------------------------------------------------------------
             Standard Nuclear Orientation (Angstroms)
    I     Atom           X                Y                Z
 ----------------------------------------------------------------
    1      C       0.0000000000     0.0000000000    -0.4906000000
    2      N       0.0000000000     0.0000000000     0.7226000000
    3      H       0.0000000000     0.9342000000    -1.0572000000
    4      H       0.0000000000    -0.9342000000    -1.0572000000
 ----------------------------------------------------------------
 Nuclear Repulsion Energy =    28.1005412294 hartrees
 There are        8 alpha and        7 beta electrons
 Requested basis set is aug-cc-pCV5Z
 There are 122 shells and 522 basis functions

 Total QAlloc Memory Limit 128000 MB
 Mega-Array Size      1467 MB
 MEM_STATIC part      1500 MB

                       Distance Matrix (Angstroms)
             C (  1)   N (  2)   H (  3)
   N (  2)  1.213200
   H (  3)  1.092596  2.010079
   H (  4)  1.092596  2.010079  1.868400
 
 A cutoff of  1.0D-14 yielded   7281 shell pairs
 There are    135061 function pairs (    252783 Cartesian)
 
 -------------------------------------------------------
 OpenMP Integral Computing Module                       
 Release: version 1.0, May 2013, Q-Chem Inc. Pittsburgh 
 -------------------------------------------------------
 Integral Job Info:
 Integral job number is                      11
 Integral operator is                         1
 short-range coefficients                     0
 long-range coefficients              100000000
 Omega coefficients                           0
 if combine SR and LR in K                    0
 Integral screening is                        0
 Integral computing path is                   2
 max size of driver memory is           6400000
 size of driver memory is               5498286
 size of scratch memory is             29551430
 max col of scratch BK array             194481
 max len of scratch array in speh3         5572
 max len of scratch index in speh4           72
 max int batch size is                      520
 min int batch size is                       52
 fixed nKL is                                30
 max L of basis functions is                  5
 order of int derivative is                   0
 number of shells is                        122
 number of basis is                         712
 number of cartesian basis is               712
 number of contracted shell pairs          7281
 number of primitive shell pairs          12955
 maxK2 (contraction) of shell pair          100
 max number of K2 of shell pair               1
 max number of CS2 of shell pair            773
 max number of PS2 of shell pair            960
 mem total for path MDJ                 1328968
 -------------------------------------------------------
 Smallest overlap matrix eigenvalue = 2.42E-06

 Scale SEOQF with 1.000000e-01/1.000000e-01/1.000000e-01

 Standard Electronic Orientation quadrupole field applied
 Nucleus-field energy     =    -0.0000000007 hartrees
 Guess MOs from SCF MO coefficient file
 Reading MOs from coefficient file
 Reading MOs from coefficient file
 The restricted Hartree-Fock energy will be evaluated
 The orbitals will not be altered
Using Q-Chem read-in guess as SCF_GUESS READ specified.

 using 8 threads for integral computing
 -------------------------------------------------------
 OpenMP Integral computing Module                
 Release: version 2.0, May 2017, Q-Chem Inc. Pleasanton 
 -------------------------------------------------------
 LTot/LBra/LKet=          20          10          10

 Q-Chem warning:

 in GenH1, ket side, handled with new code

 LTot/LBra/LBra=          20          10          10

 Q-Chem warning:

 in GenH1, bra side, handled with new code

TIMEINFO->: J/JK contribution 4815.62 sec.
Avoiding writing the new MOs to disk !!! 
 ---------------------------------------
  Cycle       Energy        RMS Gradient
 ---------------------------------------
    1     -93.4615682824      2.62E-02 Convergence criterion met
 ---------------------------------------
 SCF time:  CPU 4817.65 s  wall 691.19 s
 SCF   energy in the final basis set = -93.46156828
 Total energy in the final basis set = -93.46156828
 
 --------------------------------------------------------------
 
                    Orbital Energies (a.u.)
 --------------------------------------------------------------
 
 Alpha MOs
 -- Occupied --
-15.098 -10.849  -1.132  -0.744  -0.604  -0.511  -0.443  -0.389
 -- Virtual --
  0.014   0.028   0.040   0.045   0.074   0.085   0.087   0.093
  0.108   0.111   0.136   0.152   0.156   0.181   0.204   0.206
  0.216   0.226   0.241   0.246   0.253   0.261   0.281   0.284
  0.296   0.333   0.336   0.347   0.365   0.369   0.383   0.389
  0.414   0.421   0.442   0.494   0.510   0.508   0.522   0.541
  0.544   0.568   0.580   0.594   0.595   0.615   0.650   0.637
  0.665   0.670   0.678   0.698   0.708   0.728   0.750   0.756
  0.761   0.787   0.851   0.859   0.888   0.921   0.930   0.928
  0.941   0.942   0.950   0.974   1.027   1.038   1.037   1.054
  1.075   1.100   1.121   1.184   1.190   1.215   1.221   1.242
  1.233   1.272   1.281   1.294   1.332   1.364   1.368   1.387
  1.394   1.403   1.417   1.426   1.474   1.505   1.520   1.525
  1.542   1.585   1.639   1.642   1.648   1.683   1.697   1.784
  1.799   1.821   1.847   1.907   1.889   1.925   1.940   1.942
  1.978   1.996   2.001   2.038   2.057   2.104   2.113   2.169
  2.206   2.237   2.244   2.257   2.291   2.349   2.404   2.418
  2.439   2.490   2.505   2.490   2.504   2.546   2.584   2.575
  2.602   2.609   2.693   2.734   2.749   2.777   2.833   2.856
  2.881   2.875   2.923   2.956   2.968   3.006   3.071   3.067
  3.126   3.144   3.211   3.220   3.224   3.279   3.321   3.369
  3.363   3.374   3.408   3.415   3.428   3.453   3.454   3.456
  3.478   3.485   3.530   3.588   3.595   3.605   3.673   3.669
  3.766   3.783   3.812   3.849   3.863   3.935   3.956   4.010
  4.065   4.096   4.110   4.136   4.142   4.177   4.171   4.269
  4.309   4.322   4.311   4.369   4.433   4.492   4.500   4.530
  4.563   4.611   4.641   4.683   4.693   4.799   4.860   4.914
  4.935   4.939   5.070   5.079   5.110   5.172   5.195   5.275
  5.293   5.410   5.433   5.445   5.516   5.524   5.547   5.594
  5.663   5.672   5.678   5.705   5.698   5.718   5.741   5.831
  5.835   5.866   5.880   5.932   6.000   6.010   6.047   6.066
  6.097   6.142   6.234   6.218   6.257   6.264   6.312   6.343
  6.503   6.620   6.685   6.694   6.771   6.821   6.846   6.892
  6.894   7.037   7.224   7.223   7.246   7.326   7.369   7.362
  7.420   7.483   7.510   7.735   7.745   7.765   7.852   7.896
  7.944   8.048   8.162   8.262   8.274   8.327   8.363   8.649
  8.781   8.890   8.995   9.220   9.304   9.415   9.472   9.490
  9.552   9.710   9.783  10.022  10.059  10.118  10.268  10.331
 10.360  10.374  10.381  10.547  10.707  10.749  10.824  10.870
 11.026  11.067  11.213  11.285  11.307  11.414  11.618  11.651
 11.785  12.016  12.028  12.101  12.278  12.284  12.583  12.605
 12.811  12.998  13.050  13.062  13.076  13.111  13.125  13.132
 13.135  13.291  13.309  13.328  13.425  13.439  13.501  13.562
 13.593  13.614  13.696  13.877  13.889  13.981  14.048  14.042
 14.237  14.289  14.290  14.359  14.402  14.435  14.445  14.467
 14.493  14.533  14.531  14.559  14.617  14.634  14.647  14.723
 14.935  14.994  14.997  15.049  15.043  15.060  15.265  15.298
 15.374  15.448  15.505  15.597  15.624  15.698  15.812  15.895
 16.098  16.203  16.218  16.215  16.313  16.584  17.054  17.309
 17.526  17.757  17.810  17.961  18.046  18.078  18.111  18.174
 18.298  18.288  18.300  18.521  18.698  18.921  19.099  19.481
 19.596  19.845  20.602  21.458  21.672  21.953  24.196  24.832
 26.134  29.556  29.819  31.679  36.296  36.566  36.704  37.782
 37.852  47.032  47.102  47.194  47.394  47.540  47.560  48.197
 50.449  50.558  50.884  50.898  51.059  51.602  58.262  58.283
 58.667  58.735  59.044  59.317  59.447  59.590  61.567  61.965
 66.163  82.520  82.737  84.276 107.797 108.001 108.129 108.812
108.885 130.327 150.179 150.260 150.491 150.606 150.912 165.041
166.712 166.917 166.982 166.983 166.985 166.987 166.988 166.988
166.998 167.062 167.147 172.182 187.776 187.809 187.847 187.932
187.996 188.028 188.270 208.416 208.416 208.428 208.427 208.435
208.431 208.437 208.439 208.443 229.112 229.299 230.567 235.516
235.525 235.683 235.716 235.896 236.031 236.039 329.062 329.205
329.256 329.763 329.825 337.554 449.407 455.961 456.020 456.176
456.256 456.499 464.554 466.035 466.346 642.879 643.039 644.131
*******1576.161
 
 Beta MOs
 -- Occupied --
-15.075 -10.849  -1.075  -0.712  -0.566  -0.474  -0.428
 -- Virtual --
  0.051   0.015   0.029   0.043   0.046   0.078   0.087   0.088
  0.094   0.111   0.115   0.138   0.155   0.158   0.185   0.206
  0.208   0.218   0.228   0.242   0.248   0.256   0.264   0.283
  0.285   0.307   0.338   0.339   0.350   0.367   0.374   0.386
  0.395   0.417   0.433   0.446   0.498   0.512   0.514   0.527
  0.544   0.546   0.569   0.583   0.599   0.606   0.617   0.652
  0.653   0.672   0.681   0.685   0.702   0.716   0.738   0.756
  0.760   0.763   0.789   0.856   0.869   0.894   0.926   0.932
  0.935   0.947   0.947   0.955   0.980   1.031   1.040   1.051
  1.059   1.082   1.103   1.124   1.193   1.193   1.219   1.235
  1.247   1.250   1.287   1.296   1.298   1.334   1.367   1.372
  1.397   1.399   1.408   1.426   1.430   1.479   1.508   1.526
  1.528   1.547   1.589   1.646   1.649   1.652   1.684   1.702
  1.800   1.806   1.830   1.850   1.913   1.915   1.933   1.947
  1.949   1.981   2.002   2.004   2.050   2.066   2.111   2.122
  2.179   2.210   2.238   2.250   2.266   2.297   2.361   2.413
  2.427   2.451   2.498   2.509   2.516   2.522   2.564   2.593
  2.593   2.608   2.621   2.700   2.739   2.753   2.790   2.845
  2.865   2.884   2.889   2.926   2.966   2.972   3.011   3.075
  3.077   3.134   3.147   3.218   3.224   3.230   3.293   3.325
  3.372   3.373   3.376   3.411   3.424   3.439   3.456   3.457
  3.460   3.483   3.490   3.539   3.598   3.599   3.610   3.684
  3.687   3.769   3.793   3.828   3.851   3.875   3.938   3.961
  4.013   4.069   4.104   4.115   4.141   4.154   4.182   4.183
  4.272   4.317   4.326   4.327   4.379   4.438   4.498   4.513
  4.533   4.568   4.620   4.646   4.687   4.702   4.807   4.865
  4.928   4.950   4.952   5.088   5.088   5.115   5.175   5.205
  5.287   5.300   5.423   5.440   5.465   5.525   5.538   5.552
  5.616   5.671   5.690   5.695   5.715   5.718   5.725   5.751
  5.844   5.847   5.880   5.882   5.943   6.007   6.016   6.060
  6.079   6.121   6.149   6.243   6.244   6.265   6.277   6.319
  6.349   6.518   6.638   6.692   6.706   6.780   6.836   6.852
  6.900   6.904   7.055   7.236   7.237   7.257   7.335   7.376
  7.378   7.438   7.501   7.521   7.740   7.750   7.779   7.857
  7.901   7.952   8.068   8.164   8.288   8.297   8.342   8.372
  8.651   8.786   8.896   9.014   9.238   9.305   9.419   9.475
  9.493   9.555   9.714   9.786  10.025  10.063  10.121  10.273
 10.335  10.363  10.376  10.384  10.556  10.709  10.756  10.840
 10.873  11.036  11.078  11.258  11.289  11.313  11.425  11.618
 11.654  11.793  12.018  12.035  12.111  12.313  12.318  12.609
 12.629  12.815  13.014  13.057  13.075  13.082  13.116  13.131
 13.139  13.141  13.294  13.318  13.334  13.438  13.444  13.508
 13.570  13.598  13.625  13.702  13.884  13.895  13.993  14.050
 14.054  14.245  14.299  14.300  14.370  14.415  14.449  14.454
 14.486  14.506  14.540  14.542  14.597  14.655  14.666  14.683
 14.738  14.944  15.011  15.012  15.056  15.062  15.080  15.272
 15.311  15.382  15.467  15.514  15.610  15.638  15.716  15.823
 15.906  16.105  16.222  16.227  16.241  16.322  16.601  17.066
 17.321  17.530  17.763  17.815  17.987  18.052  18.087  18.123
 18.209  18.312  18.315  18.320  18.537  18.703  18.929  19.105
 19.488  19.615  19.852  20.607  21.466  21.676  21.954  24.204
 24.833  26.147  29.567  29.871  31.689  36.296  36.566  36.705
 37.782  37.853  47.032  47.103  47.194  47.394  47.540  47.560
 48.198  50.478  50.588  50.888  50.899  51.087  51.612  58.288
 58.308  58.684  58.749  59.045  59.329  59.469  59.590  61.567
 61.966  66.177  82.524  82.760  84.280 107.797 108.001 108.129
108.812 108.885 130.327 150.189 150.271 150.492 150.616 150.916
165.041 166.712 166.917 166.982 166.983 166.985 166.987 166.988
166.988 166.998 167.062 167.147 172.189 187.776 187.809 187.847
187.932 187.996 188.028 188.270 208.428 208.428 208.435 208.436
208.439 208.439 208.442 208.451 208.453 229.114 229.309 230.568
235.523 235.532 235.688 235.721 235.897 236.037 236.043 329.062
329.205 329.256 329.763 329.825 337.554 449.410 455.964 456.023
456.177 456.259 456.500 464.554 466.035 466.346 642.880 643.043
644.1321176.1301576.162
 --------------------------------------------------------------
 
          Ground-State Mulliken Net Atomic Charges

     Atom                 Charge (a.u.)
  ----------------------------------------
      1 C                    -0.163776
      2 N                    -0.347846
      3 H                     0.255811
      4 H                     0.255811
  ----------------------------------------
  Sum of atomic charges =    -0.000000

 -----------------------------------------------------------------
                    Cartesian Multipole Moments
 -----------------------------------------------------------------
    Charge (ESU x 10^10)
                -0.0000
    Dipole Moment (Debye)
         X       0.0000      Y       0.0000      Z      -2.5161
       Tot       2.5161
    Quadrupole Moments (Debye-Ang)
        XX     -12.8515     XY      -0.0000     YY     -11.0076
        XZ      -0.0000     YZ      -0.0000     ZZ     -12.9100
    Octopole Moments (Debye-Ang^2)
       XXX       0.0000    XXY      -0.0000    XYY       0.0000
       YYY       0.0000    XXZ      -0.2463    XYZ      -0.0000
       YYZ      -1.6921    XZZ       0.0000    YZZ       0.0000
       ZZZ      -3.9623
    Hexadecapole Moments (Debye-Ang^3)
      XXXX     -13.4770   XXXY      -0.0000   XXYY      -5.5940
      XYYY      -0.0000   YYYY     -17.4335   XXXZ      -0.0000
      XXYZ       0.0000   XYYZ      -0.0000   YYYZ      -0.0000
      XXZZ     -10.4578   XYZZ      -0.0000   YYZZ      -9.8365
      XZZZ      -0.0000   YZZZ      -0.0000   ZZZZ     -50.3402
 -----------------------------------------------------------------
Archival summary:
1\1\n0098.mhg0\SP\ROHF\BasisUnspecified\112(2)\yhljason\SatOct308:41:182020SatOct308:41:182020\0\\#,ROHF,BasisUnspecified,\\0,2\C\H,1,1.0926\H,1,1.0926,2,117.526\N,1,1.2132,2,121.237,3,-180,0\\HF=-93.4615683\\@

 Total job time:  700.84s(wall), 4836.29s(cpu) 
 Sat Oct  3 08:41:18 2020

        *************************************************************
        *                                                           *
        *  Thank you very much for using Q-Chem.  Have a nice day.  *
        *                                                           *
        *************************************************************


