Q-Chem Developer Version!
                  Welcome to Q-Chem
     A Quantum Leap Into The Future Of Chemistry


 Q-Chem 5.1, Q-Chem, Inc., Pleasanton, CA (2018)

 Yihan Shao,  Zhengting Gan,  E. Epifanovsky,  A. T. B. Gilbert,  M. Wormit,  
 J. Kussmann,  A. W. Lange,  A. Behn,  Jia Deng,  Xintian Feng,  D. Ghosh,  
 M. Goldey,  P. R. Horn,  L. D. Jacobson,  I. Kaliman,  T. Kus,  A. Landau,  
 Jie Liu,  E. I. Proynov,  R. M. Richard,  R. P. Steele,  E. J. Sundstrom,  
 H. L. Woodcock III,  P. M. Zimmerman,  D. Zuev,  B. Albrecht,  E. Alguire,  
 S. A. Baeppler,  D. Barton,  Z. Benda,  Y. A. Bernard,  E. J. Berquist,  
 K. B. Bravaya,  H. Burton,  D. Casanova,  Chun-Min Chang,  Yunqing Chen,  
 A. Chien,  K. D. Closser,  M. P. Coons,  S. Coriani,  S. Dasgupta,  
 A. L. Dempwolff,  M. Diedenhofen,  Hainam Do,  R. G. Edgar,  Po-Tung Fang,  
 S. Faraji,  S. Fatehi,  Qingguo Feng,  K. D. Fenk,  J. Fosso-Tande,  
 Qinghui Ge,  A. Ghysels,  G. Gidofalvi,  J. Gomes,  J. Gonthier,  A. Gunina,  
 D. Hait,  M. W. D. Hanson-Heine,  P. H. P. Harbach,  A. W. Hauser,  
 J. E. Herr,  E. G. Hohenstein,  Z. C. Holden,  Kerwin Hui,  B. C. Huynh,  
 T.-C. Jagau,  Hyunjun Ji,  B. Kaduk,  K. Khistyaev,  Jaehoon Kim,  
 P. Klunzinger,  K. Koh,  D. Kosenkov,  L. Koulias,  T. Kowalczyk,  
 C. M. Krauter,  A. Kunitsa,  Ka Un Lao,  A. Laurent,  K. V. Lawler,  
 Joonho Lee,  D. Lefrancois,  S. Lehtola,  D. S. Levine,  Yi-Pei Li,  
 You-Sheng Lin,  Fenglai Liu,  E. Livshits,  A. Luenser,  P. Manohar,  
 E. Mansoor,  S. F. Manzer,  Shan-Ping Mao,  Yuezhi Mao,  N. Mardirossian,  
 A. V. Marenich,  T. Markovich,  L. A. Martinez-Martinez,  S. A. Maurer,  
 N. J. Mayhall,  S. C. McKenzie,  J.-M. Mewes,  A. F. Morrison,  
 J. W. Mullinax,  K. Nanda,  T. S. Nguyen-Beck,  R. Olivares-Amaya,  
 J. A. Parkhill,  T. M. Perrine,  F. Plasser,  P. Pokhilko,  S. Prager,  
 A. Prociuk,  E. Ramos,  D. R. Rehn,  F. Rob,  M. Schneider,  N. Sergueev,  
 S. M. Sharada,  S. Sharma,  D. W. Small,  T. Stauch,  T. Stein,  
 Yu-Chuan Su,  A. J. W. Thom,  A. Tkatchenko,  T. Tsuchimochi,  N. M. Tubman,  
 L. Vogt,  M. L. Vidal,  O. Vydrov,  M. A. Watson,  J. Wenzel,  
 M. de Wergifosse,  T. A. Wesolowski,  A. White,  J. Witte,  A. Yamada,  
 Jun Yang,  K. Yao,  S. Yeganeh,  S. R. Yost,  Zhi-Qiang You,  A. Zech,  
 Igor Ying Zhang,  Xing Zhang,  Yan Zhao,  Ying Zhu,  B. R. Brooks,  
 G. K. L. Chan,  C. J. Cramer,  M. S. Gordon,  W. J. Hehre,  A. Klamt,  
 M. W. Schmidt,  C. D. Sherrill,  D. G. Truhlar,  A. Aspuru-Guzik,  R. Baer,  
 A. T. Bell,  N. A. Besley,  Jeng-Da Chai,  A. E. DePrince, III,  
 R. A. DiStasio Jr.,  A. Dreuw,  B. D. Dunietz,  T. R. Furlani,  
 Chao-Ping Hsu,  Yousung Jung,  Jing Kong,  D. S. Lambrecht,  WanZhen Liang,  
 C. Ochsenfeld,  V. A. Rassolov,  L. V. Slipchenko,  J. E. Subotnik,  
 T. Van Voorhis,  J. M. Herbert,  A. I. Krylov,  P. M. W. Gill,  M. Head-Gordon

 Contributors to earlier versions of Q-Chem not listed above: 
 R. D. Adamson,  B. Austin,  J. Baker,  G. J. O. Beran,  K. Brandhorst,  
 S. T. Brown,  E. F. C. Byrd,  A. K. Chakraborty,  C.-L. Cheng,  
 Siu Hung Chien,  D. M. Chipman,  D. L. Crittenden,  H. Dachsel,  
 R. J. Doerksen,  A. D. Dutoi,  L. Fusti-Molnar,  W. A. Goddard III,  
 A. Golubeva-Zadorozhnaya,  S. R. Gwaltney,  G. Hawkins,  A. Heyden,  
 S. Hirata,  G. Kedziora,  F. J. Keil,  C. Kelley,  Jihan Kim,  R. A. King,  
 R. Z. Khaliullin,  P. P. Korambath,  W. Kurlancheek,  A. M. Lee,  M. S. Lee,  
 S. V. Levchenko,  Ching Yeh Lin,  D. Liotard,  R. C. Lochan,  I. Lotan,  
 P. E. Maslen,  N. Nair,  D. P. O'Neill,  D. Neuhauser,  E. Neuscamman,  
 C. M. Oana,  R. Olson,  B. Peters,  R. Peverati,  P. A. Pieniazek,  
 Y. M. Rhee,  J. Ritchie,  M. A. Rohrdanz,  E. Rosta,  N. J. Russ,  
 H. F. Schaefer III,  N. E. Schultz,  N. Shenvi,  A. C. Simmonett,  A. Sodt,  
 D. Stuck,  K. S. Thanthiriwatte,  V. Vanovschi,  Tao Wang,  A. Warshel,  
 C. F. Williams,  Q. Wu,  X. Xu,  W. Zhang

 Please cite Q-Chem as follows:
 Y. Shao et al., Mol. Phys. 113, 184-215 (2015)
 DOI: 10.1080/00268976.2014.952696

 Q-Chem 5.1.1 for Intel X86 EM64T Linux

 Parts of Q-Chem use Armadillo 8.300.2 (Tropical Shenanigans).
 http://arma.sourceforge.net/

 Q-Chem begins on Fri Oct  2 22:34:20 2020  

Host: n0057.mhg0
0

     Scratch files written to /local/scratch/users/yhljason/HBO_DSD-PBEPBE-D3_aug-cc-pcV5Z.inp20201002223416//
Input Ideriv = 0
Curr. Ideriv = -1
Max.  Ideriv = 0
Analytic post-HF gradients are not available with non-HF exchange
Input Ideriv = 0
Curr. Ideriv = 0
Max.  Ideriv = 0

Checking the input file for inconsistencies... 	...done.

--------------------------------------------------------------
User input:
--------------------------------------------------------------
$molecule
0 1
B1      0.0000  0.0000  1.1660
H2      0.0000  0.0000  0.0000
O3      0.0000  0.0000  2.3660
$end

$rem
jobtype sp
method DSD-PBEPBE-D3
xc_grid 000099000590
basis aug-cc-pcV5Z
max_scf_cycles 200
thresh 14
scf_convergence 8
scf_algorithm gdm
symmetry false
sym_ignore true
unrestricted false
gen_scfman true
internal_stability_iter 15
internal_stability_davidson_iter 200
mem_total 128000
cc_memory 96000
cc_backend xm
mem_static 1500
n_frozen_core 10000
$end



--------------------------------------------------------------
 Adding empirical dispersion correction 
 ----------------------------------------------------------------
 Doing -D3(BJ) with
 s6 =   0.78000
 s8 =   0.00000
 a1 =   0.00000
 a2 =   6.10000
 -D3 energy without 3body term =     -0.0006354360 hartrees
 ----------------------------------------------------------------
             Standard Nuclear Orientation (Angstroms)
    I     Atom           X                Y                Z
 ----------------------------------------------------------------
    1      B       0.0000000000     0.0000000000     1.1660000000
    2      H       0.0000000000     0.0000000000     0.0000000000
    3      O       0.0000000000     0.0000000000     2.3660000000
 ----------------------------------------------------------------
 Nuclear Repulsion Energy =    21.6970759980 hartrees
 There are        7 alpha and        7 beta electrons
 Requested basis set is aug-cc-pCV5Z
 There are 102 shells and 442 basis functions

 Total QAlloc Memory Limit 128000 MB
 Mega-Array Size      8000 MB
 MEM_STATIC part      1500 MB

                       Distance Matrix (Angstroms)
             B (  1)   H (  2)
   H (  2)  1.166000
   O (  3)  1.200000  2.366000
 
 A cutoff of  1.0D-14 yielded   5028 shell pairs
 There are     95616 function pairs (    181755 Cartesian)
 
 -------------------------------------------------------
 OpenMP Integral Computing Module                       
 Release: version 1.0, May 2013, Q-Chem Inc. Pittsburgh 
 -------------------------------------------------------
 Integral Job Info:
 Integral job number is                      11
 Integral operator is                         1
 short-range coefficients                     0
 long-range coefficients              100000000
 Omega coefficients                           0
 if combine SR and LR in K                    0
 Integral screening is                        0
 Integral computing path is                   2
 max size of driver memory is           6400000
 size of driver memory is               5498286
 size of scratch memory is             29551430
 max col of scratch BK array             194481
 max len of scratch array in speh3         5572
 max len of scratch index in speh4           72
 max int batch size is                      520
 min int batch size is                       52
 fixed nKL is                                30
 max L of basis functions is                  5
 order of int derivative is                   0
 number of shells is                        102
 number of basis is                         607
 number of cartesian basis is               607
 number of contracted shell pairs          5028
 number of primitive shell pairs           9634
 maxK2 (contraction) of shell pair          100
 max number of K2 of shell pair               1
 max number of CS2 of shell pair            513
 max number of PS2 of shell pair            760
 mem total for path MDJ                 1114752
 -------------------------------------------------------
 Smallest overlap matrix eigenvalue = 5.70E-06

 Scale SEOQF with 1.000000e-01/1.000000e-01/1.000000e-01

 Standard Electronic Orientation quadrupole field applied
 Nucleus-field energy     =    -0.0000000055 hartrees
 Guess from superposition of atomic densities
 Warning:  Energy on first SCF cycle will be non-variational
 SAD guess density has 14.000000 electrons

 -----------------------------------------------------------------------
  General SCF calculation program by
  Eric Jon Sundstrom, Paul Horn, Yuezhi Mao, Dmitri Zuev, Alec White,
  David Stuck, Shaama M.S., Shane Yost, Joonho Lee, David Small,
  Daniel Levine, Susi Lehtola, Hugh Burton, Evgeny Epifanovsky
 -----------------------------------------------------------------------
 Exchange:     0.6800 Hartree-Fock + 0.3200 PBE
 Correlation:  0.4900 PBE
 Using Euler-Maclaurin-Lebedev (99,590) quadrature formula
 Dispersion:   Grimme D3
Running Object-Oriented RKS (RHF)
 LTot/LBra/LKet=          18           9           9
 LTot/LBra/LKet=          18           9           9

 Q-Chem warning:

 in GenH1, ket side, handled with new code


 Q-Chem warning:

 in GenH1, ket side, handled with new code

 LTot/LBra/LBra=          18           9           9

 Q-Chem warning:

 in GenH1, bra side, handled with new code

We will preform up to 15 macro iterations over saddle points until a stable solution is found
Energy prior to optimization (guess energy) = -100.321549179440
Begin Timing: Total SCF Calculation
Begin Timing: SCF Single Stationary Point Calculation
begin iterations for algorithm: GDM          
the SCF tolerance is set to 1.00e-08
    1    -100.3215491794      1.23e-01     00000  Descent step
    2    -100.3601353353      1.18e-01     00000  Normal BFGS step
    3    -100.4185875835      1.33e-02     00000  Normal BFGS step
    4    -100.4194593426      1.90e-03     00000  Normal BFGS step
    5    -100.4194967468      5.36e-04     00000  Normal BFGS step
    6    -100.4194989895      1.15e-04     00000  Normal BFGS step
    7    -100.4194991026      9.08e-06     00000  Normal BFGS step
    8    -100.4194991035      2.25e-06     00000  Normal BFGS step
    9    -100.4194991036      1.58e-07     00000  Normal BFGS step
   10    -100.4194991036      2.33e-08     00000  Normal BFGS step
   11    -100.4194991036      2.43e-09     00000 Convergence criterion met
Timing for Single Stationary Point: 4308.00s (wall), 33890.86s (cpu)
Begin Timing: Stability
===================================================
Beginning Test for Internal Stability
===================================================
generating davidson guess vectors based on koopmans excitations
    1      6.09e+00     00000 Davidson Iteration
    2      2.81e+00     00000 Davidson Iteration
    3      7.87e-01     00000 Davidson Iteration
    4      2.78e-01     00000 Davidson Iteration
    5      1.75e-01     00000 Davidson Iteration
    6      1.69e-01     00000 Davidson Iteration
    7      1.80e-01     00000 Davidson Iteration
    8      3.50e-01     00000 Davidson Iteration
    9      1.66e-01     00000 Davidson Iteration
   10      4.63e-02     00000 Davidson Iteration
   11      2.66e-02     00000 Davidson Iteration
   12      1.22e-02     00000 Davidson Iteration
   13      5.28e-03     00000 Davidson Iteration
   14      8.00e-04     00000 Davidson Iteration
   15      1.34e-04     00000 Davidson Iteration
   16      2.62e-05     00000 Davidson Converged
converged_eigenvalues
   1.1003
   1.1003
Threshold for negative eigenvalues: -1.0e-05
solution was a local minimum (stable)
===================================================
End Test for Internal Stability
===================================================
Our SCF solution is stable!
Timing for Total SCF: 12572.00s (wall), 99407.59s (cpu)
 Total energy in the final basis set =     -100.4194991036
    ==================================================
              The end of Object-Oriented SCFman       
    ==================================================

 Q-Chem fatal error occurred in module libmdc/qalloc.C, line 49:

 Illegal memory length in mega_alloc


 Please submit a crash report at q-chem.com/reporter 
 
 
 
User input: 2 of 2 
 
Q-Chem Developer Version!
                  Welcome to Q-Chem
     A Quantum Leap Into The Future Of Chemistry


 Q-Chem 5.1, Q-Chem, Inc., Pleasanton, CA (2018)

 Yihan Shao,  Zhengting Gan,  E. Epifanovsky,  A. T. B. Gilbert,  M. Wormit,  
 J. Kussmann,  A. W. Lange,  A. Behn,  Jia Deng,  Xintian Feng,  D. Ghosh,  
 M. Goldey,  P. R. Horn,  L. D. Jacobson,  I. Kaliman,  T. Kus,  A. Landau,  
 Jie Liu,  E. I. Proynov,  R. M. Richard,  R. P. Steele,  E. J. Sundstrom,  
 H. L. Woodcock III,  P. M. Zimmerman,  D. Zuev,  B. Albrecht,  E. Alguire,  
 S. A. Baeppler,  D. Barton,  Z. Benda,  Y. A. Bernard,  E. J. Berquist,  
 K. B. Bravaya,  H. Burton,  D. Casanova,  Chun-Min Chang,  Yunqing Chen,  
 A. Chien,  K. D. Closser,  M. P. Coons,  S. Coriani,  S. Dasgupta,  
 A. L. Dempwolff,  M. Diedenhofen,  Hainam Do,  R. G. Edgar,  Po-Tung Fang,  
 S. Faraji,  S. Fatehi,  Qingguo Feng,  K. D. Fenk,  J. Fosso-Tande,  
 Qinghui Ge,  A. Ghysels,  G. Gidofalvi,  J. Gomes,  J. Gonthier,  A. Gunina,  
 D. Hait,  M. W. D. Hanson-Heine,  P. H. P. Harbach,  A. W. Hauser,  
 J. E. Herr,  E. G. Hohenstein,  Z. C. Holden,  Kerwin Hui,  B. C. Huynh,  
 T.-C. Jagau,  Hyunjun Ji,  B. Kaduk,  K. Khistyaev,  Jaehoon Kim,  
 P. Klunzinger,  K. Koh,  D. Kosenkov,  L. Koulias,  T. Kowalczyk,  
 C. M. Krauter,  A. Kunitsa,  Ka Un Lao,  A. Laurent,  K. V. Lawler,  
 Joonho Lee,  D. Lefrancois,  S. Lehtola,  D. S. Levine,  Yi-Pei Li,  
 You-Sheng Lin,  Fenglai Liu,  E. Livshits,  A. Luenser,  P. Manohar,  
 E. Mansoor,  S. F. Manzer,  Shan-Ping Mao,  Yuezhi Mao,  N. Mardirossian,  
 A. V. Marenich,  T. Markovich,  L. A. Martinez-Martinez,  S. A. Maurer,  
 N. J. Mayhall,  S. C. McKenzie,  J.-M. Mewes,  A. F. Morrison,  
 J. W. Mullinax,  K. Nanda,  T. S. Nguyen-Beck,  R. Olivares-Amaya,  
 J. A. Parkhill,  T. M. Perrine,  F. Plasser,  P. Pokhilko,  S. Prager,  
 A. Prociuk,  E. Ramos,  D. R. Rehn,  F. Rob,  M. Schneider,  N. Sergueev,  
 S. M. Sharada,  S. Sharma,  D. W. Small,  T. Stauch,  T. Stein,  
 Yu-Chuan Su,  A. J. W. Thom,  A. Tkatchenko,  T. Tsuchimochi,  N. M. Tubman,  
 L. Vogt,  M. L. Vidal,  O. Vydrov,  M. A. Watson,  J. Wenzel,  
 M. de Wergifosse,  T. A. Wesolowski,  A. White,  J. Witte,  A. Yamada,  
 Jun Yang,  K. Yao,  S. Yeganeh,  S. R. Yost,  Zhi-Qiang You,  A. Zech,  
 Igor Ying Zhang,  Xing Zhang,  Yan Zhao,  Ying Zhu,  B. R. Brooks,  
 G. K. L. Chan,  C. J. Cramer,  M. S. Gordon,  W. J. Hehre,  A. Klamt,  
 M. W. Schmidt,  C. D. Sherrill,  D. G. Truhlar,  A. Aspuru-Guzik,  R. Baer,  
 A. T. Bell,  N. A. Besley,  Jeng-Da Chai,  A. E. DePrince, III,  
 R. A. DiStasio Jr.,  A. Dreuw,  B. D. Dunietz,  T. R. Furlani,  
 Chao-Ping Hsu,  Yousung Jung,  Jing Kong,  D. S. Lambrecht,  WanZhen Liang,  
 C. Ochsenfeld,  V. A. Rassolov,  L. V. Slipchenko,  J. E. Subotnik,  
 T. Van Voorhis,  J. M. Herbert,  A. I. Krylov,  P. M. W. Gill,  M. Head-Gordon

 Contributors to earlier versions of Q-Chem not listed above: 
 R. D. Adamson,  B. Austin,  J. Baker,  G. J. O. Beran,  K. Brandhorst,  
 S. T. Brown,  E. F. C. Byrd,  A. K. Chakraborty,  C.-L. Cheng,  
 Siu Hung Chien,  D. M. Chipman,  D. L. Crittenden,  H. Dachsel,  
 R. J. Doerksen,  A. D. Dutoi,  L. Fusti-Molnar,  W. A. Goddard III,  
 A. Golubeva-Zadorozhnaya,  S. R. Gwaltney,  G. Hawkins,  A. Heyden,  
 S. Hirata,  G. Kedziora,  F. J. Keil,  C. Kelley,  Jihan Kim,  R. A. King,  
 R. Z. Khaliullin,  P. P. Korambath,  W. Kurlancheek,  A. M. Lee,  M. S. Lee,  
 S. V. Levchenko,  Ching Yeh Lin,  D. Liotard,  R. C. Lochan,  I. Lotan,  
 P. E. Maslen,  N. Nair,  D. P. O'Neill,  D. Neuhauser,  E. Neuscamman,  
 C. M. Oana,  R. Olson,  B. Peters,  R. Peverati,  P. A. Pieniazek,  
 Y. M. Rhee,  J. Ritchie,  M. A. Rohrdanz,  E. Rosta,  N. J. Russ,  
 H. F. Schaefer III,  N. E. Schultz,  N. Shenvi,  A. C. Simmonett,  A. Sodt,  
 D. Stuck,  K. S. Thanthiriwatte,  V. Vanovschi,  Tao Wang,  A. Warshel,  
 C. F. Williams,  Q. Wu,  X. Xu,  W. Zhang

 Please cite Q-Chem as follows:
 Y. Shao et al., Mol. Phys. 113, 184-215 (2015)
 DOI: 10.1080/00268976.2014.952696

 Q-Chem 5.1.1 for Intel X86 EM64T Linux

 Parts of Q-Chem use Armadillo 8.300.2 (Tropical Shenanigans).
 http://arma.sourceforge.net/

 Q-Chem begins on Sat Oct  3 02:11:12 2020  

Host: n0057.mhg0
0

     Scratch files written to /local/scratch/users/yhljason/HBO_DSD-PBEPBE-D3_aug-cc-pcV5Z.inp20201002223416//
The previous job contains 0 fragments, simply inherited here
Input Ideriv = 2
Curr. Ideriv = -1
Max.  Ideriv = 2

Checking the input file for inconsistencies... 	...done.

--------------------------------------------------------------
User input:
--------------------------------------------------------------
$molecule
read
$end

$rem

jobtype sp
method HF
xc_grid 000099000590
basis aug-cc-pcV5Z
max_scf_cycles 0
scf_guess read
thresh 14
scf_convergence 8
mem_total 128000
cc_memory 96000
cc_backend xm
mem_static 1500
symmetry false
sym_ignore true
scf_guess read
unrestricted false
scf_algorithm gdm
n_frozen_core 0
$end


--------------------------------------------------------------
 ----------------------------------------------------------------
             Standard Nuclear Orientation (Angstroms)
    I     Atom           X                Y                Z
 ----------------------------------------------------------------
    1      B       0.0000000000     0.0000000000     1.1660000000
    2      H       0.0000000000     0.0000000000     0.0000000000
    3      O       0.0000000000     0.0000000000     2.3660000000
 ----------------------------------------------------------------
 Nuclear Repulsion Energy =    21.6977114340 hartrees
 There are        7 alpha and        7 beta electrons
 Requested basis set is aug-cc-pCV5Z
 There are 102 shells and 442 basis functions

 Total QAlloc Memory Limit 128000 MB
 Mega-Array Size      1467 MB
 MEM_STATIC part      1500 MB

                       Distance Matrix (Angstroms)
             B (  1)   H (  2)
   H (  2)  1.166000
   O (  3)  1.200000  2.366000
 
 A cutoff of  1.0D-14 yielded   5028 shell pairs
 There are     95616 function pairs (    181755 Cartesian)
 
 -------------------------------------------------------
 OpenMP Integral Computing Module                       
 Release: version 1.0, May 2013, Q-Chem Inc. Pittsburgh 
 -------------------------------------------------------
 Integral Job Info:
 Integral job number is                      11
 Integral operator is                         1
 short-range coefficients                     0
 long-range coefficients              100000000
 Omega coefficients                           0
 if combine SR and LR in K                    0
 Integral screening is                        0
 Integral computing path is                   2
 max size of driver memory is           6400000
 size of driver memory is               5498286
 size of scratch memory is             29551430
 max col of scratch BK array             194481
 max len of scratch array in speh3         5572
 max len of scratch index in speh4           72
 max int batch size is                      520
 min int batch size is                       52
 fixed nKL is                                30
 max L of basis functions is                  5
 order of int derivative is                   0
 number of shells is                        102
 number of basis is                         607
 number of cartesian basis is               607
 number of contracted shell pairs          5028
 number of primitive shell pairs           9634
 maxK2 (contraction) of shell pair          100
 max number of K2 of shell pair               1
 max number of CS2 of shell pair            513
 max number of PS2 of shell pair            760
 mem total for path MDJ                 1114752
 -------------------------------------------------------
 Smallest overlap matrix eigenvalue = 5.70E-06

 Scale SEOQF with 1.000000e-01/1.000000e-01/1.000000e-01

 Standard Electronic Orientation quadrupole field applied
 Nucleus-field energy     =    -0.0000000055 hartrees
 Guess MOs from SCF MO coefficient file
 Reading MOs from coefficient file
 Reading MOs from coefficient file
 The restricted Hartree-Fock energy will be evaluated
 The orbitals will not be altered
Using Q-Chem read-in guess as SCF_GUESS READ specified.

 using 8 threads for integral computing
 -------------------------------------------------------
 OpenMP Integral computing Module                
 Release: version 2.0, May 2017, Q-Chem Inc. Pleasanton 
 -------------------------------------------------------
 LTot/LBra/LKet=          20          10          10
 LTot/LBra/LKet=          20          10          10
 LTot/LBra/LKet=          20          10          10

 Q-Chem warning:

 in GenH1, ket side, handled with new code

 LTot/LBra/LKet=          19           9          10
 LTot/LBra/LKet=          20          10          10

 Q-Chem warning:

 in GenH1, ket side, handled with new code


 Q-Chem warning:

 in GenH1, ket side, handled with new code


 Q-Chem warning:

 in GenH1, ket side, handled with new code

 LTot/LBra/LBra=          20          10          10

 Q-Chem warning:

 in GenH1, bra side, handled with new code


 Q-Chem warning:

 in GenH1, ket side, handled with new code

TIMEINFO->: J/JK contribution 3090.12 sec.
Avoiding writing the new MOs to disk !!! 
 ---------------------------------------
  Cycle       Energy        RMS Gradient
 ---------------------------------------
    1    -100.2119029526      7.97E-03 Convergence criterion met
 ---------------------------------------
 SCF time:  CPU 3092.76 s  wall 389.34 s
 SCF   energy in the final basis set = -100.21190295
 Total energy in the final basis set = -100.21190295
 
 --------------------------------------------------------------
 
                    Orbital Energies (a.u.)
 --------------------------------------------------------------
 
 Alpha MOs
 -- Occupied --
-19.984  -7.296  -1.198  -0.606  -0.541  -0.462  -0.462
 -- Virtual --
  0.015   0.024   0.024   0.029   0.063   0.063   0.069   0.099
  0.117   0.120   0.120   0.123   0.123   0.144   0.144   0.164
  0.172   0.192   0.192   0.244   0.286   0.286   0.289   0.289
  0.297   0.323   0.323   0.323   0.373   0.384   0.384   0.388
  0.388   0.408   0.467   0.467   0.490   0.490   0.504   0.504
  0.568   0.605   0.609   0.609   0.629   0.629   0.637   0.678
  0.678   0.699   0.733   0.815   0.815   0.853   0.901   0.901
  0.952   0.952   0.962   0.962   0.974   0.974   1.010   1.010
  1.025   1.025   1.029   1.124   1.124   1.152   1.152   1.165
  1.165   1.200   1.280   1.302   1.328   1.328   1.330   1.330
  1.351   1.351   1.400   1.406   1.419   1.443   1.443   1.446
  1.446   1.505   1.505   1.619   1.619   1.619   1.619   1.701
  1.842   1.842   1.937   1.939   1.939   2.180   2.211   2.211
  2.228   2.228   2.237   2.247   2.247   2.272   2.272   2.394
  2.394   2.461   2.461   2.492   2.492   2.498   2.502   2.502
  2.587   2.587   2.593   2.593   2.681   2.697   2.697   2.731
  2.750   2.750   2.828   2.857   2.857   2.900   2.900   3.029
  3.035   3.035   3.101   3.101   3.120   3.120   3.170   3.170
  3.284   3.284   3.341   3.341   3.355   3.414   3.414   3.417
  3.417   3.575   3.577   3.577   3.698   3.748   3.748   3.856
  3.856   3.911   3.911   3.924   3.924   4.070   4.208   4.208
  4.208   4.290   4.290   4.729   4.729   4.744   4.781   4.781
  4.833   4.926   4.926   5.178   5.300   5.300   5.425   5.425
  5.445   5.560   5.560   5.584   5.707   5.707   5.800   5.800
  5.947   5.947   5.991   5.991   6.007   6.047   6.047   6.146
  6.146   6.190   6.190   6.326   6.326   6.419   6.419   6.553
  6.574   6.574   6.592   6.592   6.816   6.816   6.844   6.844
  6.894   6.898   6.898   7.185   7.185   7.249   7.249   7.266
  7.270   7.270   7.358   7.358   7.372   7.684   7.684   7.752
  7.752   7.773   7.773   7.901   7.901   7.905   7.960   7.960
  8.108   8.108   8.313   8.471   8.471   8.689   8.689   9.008
  9.008   9.093   9.175   9.175   9.535   9.535   9.650   9.688
 10.632  10.632  10.819  10.819  11.206  11.567  11.998  11.998
 12.837  13.054  13.054  13.195  13.195  13.482  13.482  13.493
 13.493  13.830  13.830  13.917  14.157  14.157  14.350  14.350
 14.540  14.601  14.601  15.158  15.158  15.205  15.275  15.275
 15.334  16.066  16.066  16.248  16.259  16.259  16.364  16.576
 16.576  16.588  16.588  16.753  16.753  17.203  17.203  17.437
 18.273  18.335  18.335  18.956  18.956  19.173  19.173  19.269
 19.269  19.582  19.582  19.652  19.852  19.852  19.980  19.980
 20.553  21.243  21.243  22.165  22.303  22.303  23.206  23.206
 23.663  24.345  24.345  25.607  25.607  27.889  31.068  36.232
 38.475  38.475  38.998  38.998  39.235  39.235  39.707  39.707
 40.031  40.902  40.902  40.992  42.611  61.121  61.121  61.711
 61.711  62.147  71.529  71.529  71.767  71.767  72.374  72.374
 72.751  75.146  75.146  75.981  75.981  77.417  83.267  91.816
107.385 107.385 108.964 112.797 112.797 114.226 122.995 122.995
123.001 123.001 123.012 123.012 123.029 123.029 123.039 152.485
152.485 152.586 152.586 152.840 152.840 153.236 180.814 180.814
181.246 181.246 181.549 220.508 230.604 230.604 231.190 231.190
232.178 236.762 245.071 245.071 245.076 245.076 245.086 245.086
245.091 245.091 245.091 290.673 290.673 290.772 290.772 291.003
291.003 291.165 298.118 298.118 299.476 318.269 318.269 319.481
555.563 555.563 555.864 555.864 556.069 583.512 822.913 836.253
836.253 837.3942074.626
 --------------------------------------------------------------
 
          Ground-State Mulliken Net Atomic Charges

     Atom                 Charge (a.u.)
  ----------------------------------------
      1 B                     0.836417
      2 H                    -0.018764
      3 O                    -0.817653
  ----------------------------------------
  Sum of atomic charges =    -0.000000

 -----------------------------------------------------------------
                    Cartesian Multipole Moments
 -----------------------------------------------------------------
    Charge (ESU x 10^10)
                -0.0000
    Dipole Moment (Debye)
         X       0.0000      Y      -0.0000      Z      -3.1186
       Tot       3.1186
    Quadrupole Moments (Debye-Ang)
        XX     -10.9272     XY       0.0000     YY     -10.9272
        XZ      -0.0000     YZ      -0.0000     ZZ     -21.6650
    Octopole Moments (Debye-Ang^2)
       XXX      -0.0000    XXY      -0.0000    XYY      -0.0000
       YYY      -0.0000    XXZ     -18.8264    XYZ      -0.0000
       YYZ     -18.8264    XZZ      -0.0000    YZZ      -0.0000
       ZZZ     -85.6071
    Hexadecapole Moments (Debye-Ang^3)
      XXXX     -10.8082   XXXY       0.0000   XXYY      -3.6027
      XYYY       0.0000   YYYY     -10.8082   XXXZ      -0.0000
      XXYZ      -0.0000   XYYZ      -0.0000   YYYZ      -0.0000
      XXZZ     -42.5155   XYZZ      -0.0000   YYZZ     -42.5155
      XZZZ      -0.0000   YZZZ      -0.0000   ZZZZ    -313.2611
 -----------------------------------------------------------------
Archival summary:
1\1\n0057.mhg0\SP\HF\BasisUnspecified\111\yhljason\SatOct302:17:552020SatOct302:17:552020\0\\#,HF,BasisUnspecified,\\0,1\B\H,1,1.166\O,1,1.2,2,180\\HF=-100.211903\\@

 Total job time:  403.04s(wall), 3110.74s(cpu) 
 Sat Oct  3 02:17:55 2020

        *************************************************************
        *                                                           *
        *  Thank you very much for using Q-Chem.  Have a nice day.  *
        *                                                           *
        *************************************************************


