Q-Chem Developer Version!
                  Welcome to Q-Chem
     A Quantum Leap Into The Future Of Chemistry


 Q-Chem 5.1, Q-Chem, Inc., Pleasanton, CA (2018)

 Yihan Shao,  Zhengting Gan,  E. Epifanovsky,  A. T. B. Gilbert,  M. Wormit,  
 J. Kussmann,  A. W. Lange,  A. Behn,  Jia Deng,  Xintian Feng,  D. Ghosh,  
 M. Goldey,  P. R. Horn,  L. D. Jacobson,  I. Kaliman,  T. Kus,  A. Landau,  
 Jie Liu,  E. I. Proynov,  R. M. Richard,  R. P. Steele,  E. J. Sundstrom,  
 H. L. Woodcock III,  P. M. Zimmerman,  D. Zuev,  B. Albrecht,  E. Alguire,  
 S. A. Baeppler,  D. Barton,  Z. Benda,  Y. A. Bernard,  E. J. Berquist,  
 K. B. Bravaya,  H. Burton,  D. Casanova,  Chun-Min Chang,  Yunqing Chen,  
 A. Chien,  K. D. Closser,  M. P. Coons,  S. Coriani,  S. Dasgupta,  
 A. L. Dempwolff,  M. Diedenhofen,  Hainam Do,  R. G. Edgar,  Po-Tung Fang,  
 S. Faraji,  S. Fatehi,  Qingguo Feng,  K. D. Fenk,  J. Fosso-Tande,  
 Qinghui Ge,  A. Ghysels,  G. Gidofalvi,  J. Gomes,  J. Gonthier,  A. Gunina,  
 D. Hait,  M. W. D. Hanson-Heine,  P. H. P. Harbach,  A. W. Hauser,  
 J. E. Herr,  E. G. Hohenstein,  Z. C. Holden,  Kerwin Hui,  B. C. Huynh,  
 T.-C. Jagau,  Hyunjun Ji,  B. Kaduk,  K. Khistyaev,  Jaehoon Kim,  
 P. Klunzinger,  K. Koh,  D. Kosenkov,  L. Koulias,  T. Kowalczyk,  
 C. M. Krauter,  A. Kunitsa,  Ka Un Lao,  A. Laurent,  K. V. Lawler,  
 Joonho Lee,  D. Lefrancois,  S. Lehtola,  D. S. Levine,  Yi-Pei Li,  
 You-Sheng Lin,  Fenglai Liu,  E. Livshits,  A. Luenser,  P. Manohar,  
 E. Mansoor,  S. F. Manzer,  Shan-Ping Mao,  Yuezhi Mao,  N. Mardirossian,  
 A. V. Marenich,  T. Markovich,  L. A. Martinez-Martinez,  S. A. Maurer,  
 N. J. Mayhall,  S. C. McKenzie,  J.-M. Mewes,  A. F. Morrison,  
 J. W. Mullinax,  K. Nanda,  T. S. Nguyen-Beck,  R. Olivares-Amaya,  
 J. A. Parkhill,  T. M. Perrine,  F. Plasser,  P. Pokhilko,  S. Prager,  
 A. Prociuk,  E. Ramos,  D. R. Rehn,  F. Rob,  M. Schneider,  N. Sergueev,  
 S. M. Sharada,  S. Sharma,  D. W. Small,  T. Stauch,  T. Stein,  
 Yu-Chuan Su,  A. J. W. Thom,  A. Tkatchenko,  T. Tsuchimochi,  N. M. Tubman,  
 L. Vogt,  M. L. Vidal,  O. Vydrov,  M. A. Watson,  J. Wenzel,  
 M. de Wergifosse,  T. A. Wesolowski,  A. White,  J. Witte,  A. Yamada,  
 Jun Yang,  K. Yao,  S. Yeganeh,  S. R. Yost,  Zhi-Qiang You,  A. Zech,  
 Igor Ying Zhang,  Xing Zhang,  Yan Zhao,  Ying Zhu,  B. R. Brooks,  
 G. K. L. Chan,  C. J. Cramer,  M. S. Gordon,  W. J. Hehre,  A. Klamt,  
 M. W. Schmidt,  C. D. Sherrill,  D. G. Truhlar,  A. Aspuru-Guzik,  R. Baer,  
 A. T. Bell,  N. A. Besley,  Jeng-Da Chai,  A. E. DePrince, III,  
 R. A. DiStasio Jr.,  A. Dreuw,  B. D. Dunietz,  T. R. Furlani,  
 Chao-Ping Hsu,  Yousung Jung,  Jing Kong,  D. S. Lambrecht,  WanZhen Liang,  
 C. Ochsenfeld,  V. A. Rassolov,  L. V. Slipchenko,  J. E. Subotnik,  
 T. Van Voorhis,  J. M. Herbert,  A. I. Krylov,  P. M. W. Gill,  M. Head-Gordon

 Contributors to earlier versions of Q-Chem not listed above: 
 R. D. Adamson,  B. Austin,  J. Baker,  G. J. O. Beran,  K. Brandhorst,  
 S. T. Brown,  E. F. C. Byrd,  A. K. Chakraborty,  C.-L. Cheng,  
 Siu Hung Chien,  D. M. Chipman,  D. L. Crittenden,  H. Dachsel,  
 R. J. Doerksen,  A. D. Dutoi,  L. Fusti-Molnar,  W. A. Goddard III,  
 A. Golubeva-Zadorozhnaya,  S. R. Gwaltney,  G. Hawkins,  A. Heyden,  
 S. Hirata,  G. Kedziora,  F. J. Keil,  C. Kelley,  Jihan Kim,  R. A. King,  
 R. Z. Khaliullin,  P. P. Korambath,  W. Kurlancheek,  A. M. Lee,  M. S. Lee,  
 S. V. Levchenko,  Ching Yeh Lin,  D. Liotard,  R. C. Lochan,  I. Lotan,  
 P. E. Maslen,  N. Nair,  D. P. O'Neill,  D. Neuhauser,  E. Neuscamman,  
 C. M. Oana,  R. Olson,  B. Peters,  R. Peverati,  P. A. Pieniazek,  
 Y. M. Rhee,  J. Ritchie,  M. A. Rohrdanz,  E. Rosta,  N. J. Russ,  
 H. F. Schaefer III,  N. E. Schultz,  N. Shenvi,  A. C. Simmonett,  A. Sodt,  
 D. Stuck,  K. S. Thanthiriwatte,  V. Vanovschi,  Tao Wang,  A. Warshel,  
 C. F. Williams,  Q. Wu,  X. Xu,  W. Zhang

 Please cite Q-Chem as follows:
 Y. Shao et al., Mol. Phys. 113, 184-215 (2015)
 DOI: 10.1080/00268976.2014.952696

 Q-Chem 5.1.1 for Intel X86 EM64T Linux

 Parts of Q-Chem use Armadillo 8.300.2 (Tropical Shenanigans).
 http://arma.sourceforge.net/

 Q-Chem begins on Sat Oct  3 02:55:33 2020  

Host: n0086.mhg0
0

     Scratch files written to /local/scratch/users/yhljason/SH2_B2GPPLYP_aug-cc-pcV5Z.inp20201003024853//
Input Ideriv = 0
Curr. Ideriv = -1
Max.  Ideriv = 0
Analytic post-HF gradients are not available with non-HF exchange
Input Ideriv = 0
Curr. Ideriv = 0
Max.  Ideriv = 0

Checking the input file for inconsistencies... 	...done.

--------------------------------------------------------------
User input:
--------------------------------------------------------------
$molecule
0 1
S1      0.0000  0.0000  0.1030
H2      0.0000  0.9616  -0.8239
H3      0.0000  -0.9616 -0.8239
$end

$rem
jobtype sp
method B2GPPLYP
xc_grid 000099000590
basis aug-cc-pcV5Z
max_scf_cycles 200
thresh 14
scf_convergence 8
scf_algorithm gdm
symmetry false
sym_ignore true
unrestricted false
gen_scfman true
internal_stability_iter 15
internal_stability_davidson_iter 200
mem_total 128000
cc_memory 96000
cc_backend xm
mem_static 1500
n_frozen_core 1000
$end



--------------------------------------------------------------
 ----------------------------------------------------------------
             Standard Nuclear Orientation (Angstroms)
    I     Atom           X                Y                Z
 ----------------------------------------------------------------
    1      S       0.0000000000     0.0000000000     0.1030000000
    2      H       0.0000000000     0.9616000000    -0.8239000000
    3      H       0.0000000000    -0.9616000000    -0.8239000000
 ----------------------------------------------------------------
 Nuclear Repulsion Energy =    12.9538864696 hartrees
 There are        9 alpha and        9 beta electrons
 Requested basis set is aug-cc-pCV5Z
 There are 87 shells and 377 basis functions

 Total QAlloc Memory Limit 128000 MB
 Mega-Array Size      1467 MB
 MEM_STATIC part      1500 MB

                       Distance Matrix (Angstroms)
             S (  1)   H (  2)
   H (  2)  1.335597
   H (  3)  1.335597  1.923200
 
 A cutoff of  1.0D-14 yielded   3828 shell pairs
 There are     72248 function pairs (    136381 Cartesian)
 
 -------------------------------------------------------
 OpenMP Integral Computing Module                       
 Release: version 1.0, May 2013, Q-Chem Inc. Pittsburgh 
 -------------------------------------------------------
 Integral Job Info:
 Integral job number is                      11
 Integral operator is                         1
 short-range coefficients                     0
 long-range coefficients              100000000
 Omega coefficients                           0
 if combine SR and LR in K                    0
 Integral screening is                        0
 Integral computing path is                   2
 max size of driver memory is           6400000
 size of driver memory is               5498286
 size of scratch memory is             29792225
 max col of scratch BK array             194481
 max len of scratch array in speh3         5572
 max len of scratch index in speh4           72
 max int batch size is                      520
 min int batch size is                       52
 fixed nKL is                                25
 max L of basis functions is                  5
 order of int derivative is                   0
 number of shells is                         87
 number of basis is                         517
 number of cartesian basis is               517
 number of contracted shell pairs          3828
 number of primitive shell pairs           6530
 maxK2 (contraction) of shell pair          121
 max number of K2 of shell pair               1
 max number of CS2 of shell pair            408
 max number of PS2 of shell pair            484
 mem total for path MDJ                 1009346
 -------------------------------------------------------
 Smallest overlap matrix eigenvalue = 1.17E-05

 Scale SEOQF with 1.000000e-01/1.000000e-01/1.000000e-01

 Standard Electronic Orientation quadrupole field applied
 Guess from superposition of atomic densities
 Warning:  Energy on first SCF cycle will be non-variational
 SAD guess density has 18.000000 electrons

 -----------------------------------------------------------------------
  General SCF calculation program by
  Eric Jon Sundstrom, Paul Horn, Yuezhi Mao, Dmitri Zuev, Alec White,
  David Stuck, Shaama M.S., Shane Yost, Joonho Lee, David Small,
  Daniel Levine, Susi Lehtola, Hugh Burton, Evgeny Epifanovsky
 -----------------------------------------------------------------------
 Exchange:     0.6500 Hartree-Fock + 0.3500 B88
 Correlation:  0.6400 LYP
 Using Euler-Maclaurin-Lebedev (99,590) quadrature formula
Running Object-Oriented RKS (RHF)
 LTot/LBra/LKet=          19           9          10
 LTot/LBra/LKet=          20          10          10

 Q-Chem warning:

 in GenH1, ket side, handled with new code

 LTot/LBra/LKet=          19           9          10
 LTot/LBra/LKet=          20          10          10

 Q-Chem warning:

 in GenH1, ket side, handled with new code


 Q-Chem warning:

 in GenH1, ket side, handled with new code

 LTot/LBra/LBra=          18           9           9

 Q-Chem warning:

 in GenH1, bra side, handled with new code


 Q-Chem warning:

 in GenH1, ket side, handled with new code

We will preform up to 15 macro iterations over saddle points until a stable solution is found
Energy prior to optimization (guess energy) = -399.152063064108
Begin Timing: Total SCF Calculation
Begin Timing: SCF Single Stationary Point Calculation
begin iterations for algorithm: GDM          
the SCF tolerance is set to 1.00e-08
    1    -399.1520630641      4.78e-02     00000  Normal BFGS step
    2    -399.1607978096      1.71e-02     00000  Normal BFGS step
    3    -399.1629196388      1.94e-03     00000  Normal BFGS step
    4    -399.1629662301      6.13e-04     00000  Normal BFGS step
    5    -399.1629684270      8.99e-05     00000  Normal BFGS step
    6    -399.1629685216      1.92e-05     00000  Normal BFGS step
    7    -399.1629685264      5.58e-06     00000  Normal BFGS step
    8    -399.1629685266      9.22e-07     00000  Normal BFGS step
    9    -399.1629685266      1.34e-07     00000  Normal BFGS step
   10    -399.1629685266      3.99e-08     00000  Normal BFGS step
   11    -399.1629685266      7.77e-09     00000 Convergence criterion met
Timing for Single Stationary Point: 2195.00s (wall), 17459.65s (cpu)
Begin Timing: Stability
===================================================
Beginning Test for Internal Stability
===================================================
generating davidson guess vectors based on koopmans excitations
    1      4.05e+00     00000 Davidson Iteration
    2      2.27e+00     00000 Davidson Iteration
    3      1.19e-01     00000 Davidson Iteration
    4      1.79e-01     00000 Davidson Iteration
    5      3.31e-02     00000 Davidson Iteration
    6      7.04e-03     00000 Davidson Iteration
    7      4.02e-03     00000 Davidson Iteration
    8      1.33e-03     00000 Davidson Iteration
    9      2.59e-04     00000 Davidson Iteration
   10      1.33e-04     00000 Davidson Iteration
   11      1.75e-05     00000 Davidson Converged
converged_eigenvalues
   0.9190
   0.9394
Threshold for negative eigenvalues: -1.0e-05
solution was a local minimum (stable)
===================================================
End Test for Internal Stability
===================================================
Our SCF solution is stable!
Timing for Total SCF: 5113.00s (wall), 40613.76s (cpu)
 Total energy in the final basis set =     -399.1629685266
    ==================================================
              The end of Object-Oriented SCFman       
    ==================================================

 Q-Chem fatal error occurred in module libmdc/qalloc.C, line 49:

 Illegal memory length in mega_alloc


 Please submit a crash report at q-chem.com/reporter 
 
 
 
User input: 2 of 2 
 
Q-Chem Developer Version!
                  Welcome to Q-Chem
     A Quantum Leap Into The Future Of Chemistry


 Q-Chem 5.1, Q-Chem, Inc., Pleasanton, CA (2018)

 Yihan Shao,  Zhengting Gan,  E. Epifanovsky,  A. T. B. Gilbert,  M. Wormit,  
 J. Kussmann,  A. W. Lange,  A. Behn,  Jia Deng,  Xintian Feng,  D. Ghosh,  
 M. Goldey,  P. R. Horn,  L. D. Jacobson,  I. Kaliman,  T. Kus,  A. Landau,  
 Jie Liu,  E. I. Proynov,  R. M. Richard,  R. P. Steele,  E. J. Sundstrom,  
 H. L. Woodcock III,  P. M. Zimmerman,  D. Zuev,  B. Albrecht,  E. Alguire,  
 S. A. Baeppler,  D. Barton,  Z. Benda,  Y. A. Bernard,  E. J. Berquist,  
 K. B. Bravaya,  H. Burton,  D. Casanova,  Chun-Min Chang,  Yunqing Chen,  
 A. Chien,  K. D. Closser,  M. P. Coons,  S. Coriani,  S. Dasgupta,  
 A. L. Dempwolff,  M. Diedenhofen,  Hainam Do,  R. G. Edgar,  Po-Tung Fang,  
 S. Faraji,  S. Fatehi,  Qingguo Feng,  K. D. Fenk,  J. Fosso-Tande,  
 Qinghui Ge,  A. Ghysels,  G. Gidofalvi,  J. Gomes,  J. Gonthier,  A. Gunina,  
 D. Hait,  M. W. D. Hanson-Heine,  P. H. P. Harbach,  A. W. Hauser,  
 J. E. Herr,  E. G. Hohenstein,  Z. C. Holden,  Kerwin Hui,  B. C. Huynh,  
 T.-C. Jagau,  Hyunjun Ji,  B. Kaduk,  K. Khistyaev,  Jaehoon Kim,  
 P. Klunzinger,  K. Koh,  D. Kosenkov,  L. Koulias,  T. Kowalczyk,  
 C. M. Krauter,  A. Kunitsa,  Ka Un Lao,  A. Laurent,  K. V. Lawler,  
 Joonho Lee,  D. Lefrancois,  S. Lehtola,  D. S. Levine,  Yi-Pei Li,  
 You-Sheng Lin,  Fenglai Liu,  E. Livshits,  A. Luenser,  P. Manohar,  
 E. Mansoor,  S. F. Manzer,  Shan-Ping Mao,  Yuezhi Mao,  N. Mardirossian,  
 A. V. Marenich,  T. Markovich,  L. A. Martinez-Martinez,  S. A. Maurer,  
 N. J. Mayhall,  S. C. McKenzie,  J.-M. Mewes,  A. F. Morrison,  
 J. W. Mullinax,  K. Nanda,  T. S. Nguyen-Beck,  R. Olivares-Amaya,  
 J. A. Parkhill,  T. M. Perrine,  F. Plasser,  P. Pokhilko,  S. Prager,  
 A. Prociuk,  E. Ramos,  D. R. Rehn,  F. Rob,  M. Schneider,  N. Sergueev,  
 S. M. Sharada,  S. Sharma,  D. W. Small,  T. Stauch,  T. Stein,  
 Yu-Chuan Su,  A. J. W. Thom,  A. Tkatchenko,  T. Tsuchimochi,  N. M. Tubman,  
 L. Vogt,  M. L. Vidal,  O. Vydrov,  M. A. Watson,  J. Wenzel,  
 M. de Wergifosse,  T. A. Wesolowski,  A. White,  J. Witte,  A. Yamada,  
 Jun Yang,  K. Yao,  S. Yeganeh,  S. R. Yost,  Zhi-Qiang You,  A. Zech,  
 Igor Ying Zhang,  Xing Zhang,  Yan Zhao,  Ying Zhu,  B. R. Brooks,  
 G. K. L. Chan,  C. J. Cramer,  M. S. Gordon,  W. J. Hehre,  A. Klamt,  
 M. W. Schmidt,  C. D. Sherrill,  D. G. Truhlar,  A. Aspuru-Guzik,  R. Baer,  
 A. T. Bell,  N. A. Besley,  Jeng-Da Chai,  A. E. DePrince, III,  
 R. A. DiStasio Jr.,  A. Dreuw,  B. D. Dunietz,  T. R. Furlani,  
 Chao-Ping Hsu,  Yousung Jung,  Jing Kong,  D. S. Lambrecht,  WanZhen Liang,  
 C. Ochsenfeld,  V. A. Rassolov,  L. V. Slipchenko,  J. E. Subotnik,  
 T. Van Voorhis,  J. M. Herbert,  A. I. Krylov,  P. M. W. Gill,  M. Head-Gordon

 Contributors to earlier versions of Q-Chem not listed above: 
 R. D. Adamson,  B. Austin,  J. Baker,  G. J. O. Beran,  K. Brandhorst,  
 S. T. Brown,  E. F. C. Byrd,  A. K. Chakraborty,  C.-L. Cheng,  
 Siu Hung Chien,  D. M. Chipman,  D. L. Crittenden,  H. Dachsel,  
 R. J. Doerksen,  A. D. Dutoi,  L. Fusti-Molnar,  W. A. Goddard III,  
 A. Golubeva-Zadorozhnaya,  S. R. Gwaltney,  G. Hawkins,  A. Heyden,  
 S. Hirata,  G. Kedziora,  F. J. Keil,  C. Kelley,  Jihan Kim,  R. A. King,  
 R. Z. Khaliullin,  P. P. Korambath,  W. Kurlancheek,  A. M. Lee,  M. S. Lee,  
 S. V. Levchenko,  Ching Yeh Lin,  D. Liotard,  R. C. Lochan,  I. Lotan,  
 P. E. Maslen,  N. Nair,  D. P. O'Neill,  D. Neuhauser,  E. Neuscamman,  
 C. M. Oana,  R. Olson,  B. Peters,  R. Peverati,  P. A. Pieniazek,  
 Y. M. Rhee,  J. Ritchie,  M. A. Rohrdanz,  E. Rosta,  N. J. Russ,  
 H. F. Schaefer III,  N. E. Schultz,  N. Shenvi,  A. C. Simmonett,  A. Sodt,  
 D. Stuck,  K. S. Thanthiriwatte,  V. Vanovschi,  Tao Wang,  A. Warshel,  
 C. F. Williams,  Q. Wu,  X. Xu,  W. Zhang

 Please cite Q-Chem as follows:
 Y. Shao et al., Mol. Phys. 113, 184-215 (2015)
 DOI: 10.1080/00268976.2014.952696

 Q-Chem 5.1.1 for Intel X86 EM64T Linux

 Parts of Q-Chem use Armadillo 8.300.2 (Tropical Shenanigans).
 http://arma.sourceforge.net/

 Q-Chem begins on Sat Oct  3 04:24:46 2020  

Host: n0086.mhg0
0

     Scratch files written to /local/scratch/users/yhljason/SH2_B2GPPLYP_aug-cc-pcV5Z.inp20201003024853//
The previous job contains 0 fragments, simply inherited here
Input Ideriv = 2
Curr. Ideriv = -1
Max.  Ideriv = 2

Checking the input file for inconsistencies... 	...done.

--------------------------------------------------------------
User input:
--------------------------------------------------------------
$molecule
read
$end

$rem

jobtype sp
method HF
xc_grid 000099000590
basis aug-cc-pcV5Z
max_scf_cycles 0
scf_guess read
thresh 14
scf_convergence 8
mem_total 128000
cc_memory 96000
cc_backend xm
mem_static 1500
symmetry false
sym_ignore true
scf_guess read
unrestricted false
scf_algorithm gdm
n_frozen_core 0
$end


--------------------------------------------------------------
 ----------------------------------------------------------------
             Standard Nuclear Orientation (Angstroms)
    I     Atom           X                Y                Z
 ----------------------------------------------------------------
    1      S       0.0000000000     0.0000000000     0.1030000000
    2      H       0.0000000000     0.9616000000    -0.8239000000
    3      H       0.0000000000    -0.9616000000    -0.8239000000
 ----------------------------------------------------------------
 Nuclear Repulsion Energy =    12.9538864696 hartrees
 There are        9 alpha and        9 beta electrons
 Requested basis set is aug-cc-pCV5Z
 There are 87 shells and 377 basis functions

 Total QAlloc Memory Limit 128000 MB
 Mega-Array Size      1467 MB
 MEM_STATIC part      1500 MB

                       Distance Matrix (Angstroms)
             S (  1)   H (  2)
   H (  2)  1.335597
   H (  3)  1.335597  1.923200
 
 A cutoff of  1.0D-14 yielded   3828 shell pairs
 There are     72248 function pairs (    136381 Cartesian)
 
 -------------------------------------------------------
 OpenMP Integral Computing Module                       
 Release: version 1.0, May 2013, Q-Chem Inc. Pittsburgh 
 -------------------------------------------------------
 Integral Job Info:
 Integral job number is                      11
 Integral operator is                         1
 short-range coefficients                     0
 long-range coefficients              100000000
 Omega coefficients                           0
 if combine SR and LR in K                    0
 Integral screening is                        0
 Integral computing path is                   2
 max size of driver memory is           6400000
 size of driver memory is               5498286
 size of scratch memory is             29792225
 max col of scratch BK array             194481
 max len of scratch array in speh3         5572
 max len of scratch index in speh4           72
 max int batch size is                      520
 min int batch size is                       52
 fixed nKL is                                25
 max L of basis functions is                  5
 order of int derivative is                   0
 number of shells is                         87
 number of basis is                         517
 number of cartesian basis is               517
 number of contracted shell pairs          3828
 number of primitive shell pairs           6530
 maxK2 (contraction) of shell pair          121
 max number of K2 of shell pair               1
 max number of CS2 of shell pair            408
 max number of PS2 of shell pair            484
 mem total for path MDJ                 1009346
 -------------------------------------------------------
 Smallest overlap matrix eigenvalue = 1.17E-05

 Scale SEOQF with 1.000000e-01/1.000000e-01/1.000000e-01

 Standard Electronic Orientation quadrupole field applied
 Guess MOs from SCF MO coefficient file
 Reading MOs from coefficient file
 Reading MOs from coefficient file
 The restricted Hartree-Fock energy will be evaluated
 The orbitals will not be altered
Using Q-Chem read-in guess as SCF_GUESS READ specified.

 using 8 threads for integral computing
 -------------------------------------------------------
 OpenMP Integral computing Module                
 Release: version 2.0, May 2017, Q-Chem Inc. Pleasanton 
 -------------------------------------------------------
 LTot/LBra/LKet=          19           9          10

 Q-Chem warning:

 in GenH1, ket side, handled with new code

 LTot/LBra/LBra=          20          10          10

 Q-Chem warning:

 in GenH1, bra side, handled with new code

TIMEINFO->: J/JK contribution 1573.34 sec.
Avoiding writing the new MOs to disk !!! 
 ---------------------------------------
  Cycle       Energy        RMS Gradient
 ---------------------------------------
    1    -398.7177681018      7.65E-03 Convergence criterion met
 ---------------------------------------
 SCF time:  CPU 1576.31 s  wall 198.15 s
 SCF   energy in the final basis set = -398.71776810
 Total energy in the final basis set = -398.71776810
 
 --------------------------------------------------------------
 
                    Orbital Energies (a.u.)
 --------------------------------------------------------------
 
 Alpha MOs
 -- Occupied --
-90.623  -8.523  -6.328  -6.327  -6.324  -0.884  -0.532  -0.449
 -0.337
 -- Virtual --
  0.007   0.030   0.054   0.060   0.062   0.080   0.100   0.122
  0.131   0.142   0.143   0.173   0.213   0.215   0.243   0.244
  0.248   0.256   0.262   0.296   0.308   0.326   0.347   0.394
  0.408   0.411   0.414   0.455   0.482   0.495   0.498   0.523
  0.539   0.543   0.545   0.549   0.560   0.563   0.581   0.610
  0.612   0.613   0.623   0.632   0.665   0.730   0.779   0.900
  0.927   0.963   1.003   1.012   1.018   1.064   1.080   1.084
  1.119   1.120   1.145   1.150   1.168   1.169   1.173   1.181
  1.189   1.203   1.220   1.231   1.239   1.247   1.279   1.312
  1.315   1.321   1.331   1.336   1.351   1.374   1.389   1.423
  1.429   1.436   1.467   1.489   1.527   1.582   1.700   1.718
  1.722   1.732   1.765   1.781   1.920   2.156   2.179   2.183
  2.210   2.216   2.253   2.262   2.367   2.371   2.390   2.458
  2.462   2.491   2.527   2.532   2.608   2.617   2.665   2.679
  2.683   2.703   2.715   2.722   2.730   2.744   2.799   2.804
  2.806   2.846   2.861   2.899   2.910   2.933   2.965   3.020
  3.035   3.083   3.088   3.131   3.163   3.174   3.248   3.249
  3.259   3.261   3.320   3.368   3.467   3.512   3.522   3.523
  3.538   3.538   3.604   3.620   3.649   3.675   3.721   3.754
  3.755   3.760   3.849   3.945   4.111   4.150   4.197   4.265
  4.345   4.388   4.445   4.449   4.560   4.608   4.660   4.905
  5.012   5.060   5.061   5.105   5.114   5.153   5.201   5.205
  5.278   5.375   5.430   5.463   5.483   5.511   5.589   5.589
  5.726   5.802   5.840   5.845   5.874   5.876   5.909   5.927
  5.931   5.965   6.053   6.053   6.187   6.190   6.237   6.247
  6.303   6.330   6.362   6.385   6.441   6.465   6.699   6.756
  6.847   7.035   7.038   7.053   7.077   7.191   7.198   7.679
  7.694   7.955   7.960   8.016   8.277   8.857   9.004   9.196
  9.456   9.461   9.739   9.980  10.661  11.515  11.624  12.853
 12.868  12.885  12.975  12.987  12.993  13.013  13.065  13.084
 13.096  13.099  13.122  13.204  13.204  13.270  13.294  13.319
 13.368  13.408  13.510  13.652  13.659  13.746  13.813  13.826
 13.833  14.080  14.097  14.102  14.132  14.191  14.211  14.263
 14.347  14.378  14.564  14.578  14.713  14.850  14.886  15.206
 15.274  15.323  15.628  15.826  15.930  16.207  16.309  16.464
 16.507  17.432  17.483  17.664  17.765  17.887  18.166  19.064
 19.243  22.266  22.356  22.501  22.939  23.826  27.776  28.896
 29.081  33.874  33.876  33.887  33.920  34.070  34.088  34.123
 34.238  34.291  38.760  45.389  45.469  45.499  45.576  45.577
 46.040  46.164  51.729  51.789  51.906  52.193  52.849  72.598
 73.447  73.584  86.051  86.052  86.052  86.053  86.055  86.056
 86.056  86.058  86.059  86.060  86.060  99.636 106.547 106.549
106.553 106.568 106.634 106.641 106.660 106.704 106.759 117.566
117.613 117.715 117.899 118.427 122.087 122.140 122.158 122.208
122.211 122.558 122.608 194.030 194.736 194.853 264.747 264.787
264.868 265.037 265.479 271.568 622.501 623.157 623.2681188.850
 --------------------------------------------------------------
 
          Ground-State Mulliken Net Atomic Charges

     Atom                 Charge (a.u.)
  ----------------------------------------
      1 S                    -0.325211
      2 H                     0.162605
      3 H                     0.162605
  ----------------------------------------
  Sum of atomic charges =     0.000000

 -----------------------------------------------------------------
                    Cartesian Multipole Moments
 -----------------------------------------------------------------
    Charge (ESU x 10^10)
                -0.0000
    Dipole Moment (Debye)
         X       0.0000      Y      -0.0000      Z      -1.0247
       Tot       1.0247
    Quadrupole Moments (Debye-Ang)
        XX     -16.7348     XY       0.0000     YY     -12.3488
        XZ      -0.0000     YZ       0.0000     ZZ     -13.6341
    Octopole Moments (Debye-Ang^2)
       XXX       0.0000    XXY      -0.0000    XYY       0.0000
       YYY      -0.0000    XXZ      -0.2213    XYZ       0.0000
       YYZ      -1.1339    XZZ       0.0000    YZZ      -0.0000
       ZZZ      -1.1986
    Hexadecapole Moments (Debye-Ang^3)
      XXXX     -25.2179   XXXY       0.0000   XXYY      -8.4394
      XYYY       0.0000   YYYY     -22.4049   XXXZ      -0.0000
      XXYZ       0.0000   XYYZ      -0.0000   YYYZ       0.0000
      XXZZ      -8.6222   XYZZ      -0.0000   YYZZ      -6.6233
      XZZZ      -0.0000   YZZZ       0.0000   ZZZZ     -24.6363
 -----------------------------------------------------------------
Archival summary:
1\1\n0086.mhg0\SP\HF\BasisUnspecified\12\yhljason\SatOct304:28:112020SatOct304:28:112020\0\\#,HF,BasisUnspecified,\\0,1\S\H,1,1.3356\H,1,1.3356,2,92.1053\\HF=-398.717768\\@

 Total job time:  204.62s(wall), 1590.46s(cpu) 
 Sat Oct  3 04:28:11 2020

        *************************************************************
        *                                                           *
        *  Thank you very much for using Q-Chem.  Have a nice day.  *
        *                                                           *
        *************************************************************


