Q-Chem Developer Version!
                  Welcome to Q-Chem
     A Quantum Leap Into The Future Of Chemistry


 Q-Chem 5.1, Q-Chem, Inc., Pleasanton, CA (2018)

 Yihan Shao,  Zhengting Gan,  E. Epifanovsky,  A. T. B. Gilbert,  M. Wormit,  
 J. Kussmann,  A. W. Lange,  A. Behn,  Jia Deng,  Xintian Feng,  D. Ghosh,  
 M. Goldey,  P. R. Horn,  L. D. Jacobson,  I. Kaliman,  T. Kus,  A. Landau,  
 Jie Liu,  E. I. Proynov,  R. M. Richard,  R. P. Steele,  E. J. Sundstrom,  
 H. L. Woodcock III,  P. M. Zimmerman,  D. Zuev,  B. Albrecht,  E. Alguire,  
 S. A. Baeppler,  D. Barton,  Z. Benda,  Y. A. Bernard,  E. J. Berquist,  
 K. B. Bravaya,  H. Burton,  D. Casanova,  Chun-Min Chang,  Yunqing Chen,  
 A. Chien,  K. D. Closser,  M. P. Coons,  S. Coriani,  S. Dasgupta,  
 A. L. Dempwolff,  M. Diedenhofen,  Hainam Do,  R. G. Edgar,  Po-Tung Fang,  
 S. Faraji,  S. Fatehi,  Qingguo Feng,  K. D. Fenk,  J. Fosso-Tande,  
 Qinghui Ge,  A. Ghysels,  G. Gidofalvi,  J. Gomes,  J. Gonthier,  A. Gunina,  
 D. Hait,  M. W. D. Hanson-Heine,  P. H. P. Harbach,  A. W. Hauser,  
 J. E. Herr,  E. G. Hohenstein,  Z. C. Holden,  Kerwin Hui,  B. C. Huynh,  
 T.-C. Jagau,  Hyunjun Ji,  B. Kaduk,  K. Khistyaev,  Jaehoon Kim,  
 P. Klunzinger,  K. Koh,  D. Kosenkov,  L. Koulias,  T. Kowalczyk,  
 C. M. Krauter,  A. Kunitsa,  Ka Un Lao,  A. Laurent,  K. V. Lawler,  
 Joonho Lee,  D. Lefrancois,  S. Lehtola,  D. S. Levine,  Yi-Pei Li,  
 You-Sheng Lin,  Fenglai Liu,  E. Livshits,  A. Luenser,  P. Manohar,  
 E. Mansoor,  S. F. Manzer,  Shan-Ping Mao,  Yuezhi Mao,  N. Mardirossian,  
 A. V. Marenich,  T. Markovich,  L. A. Martinez-Martinez,  S. A. Maurer,  
 N. J. Mayhall,  S. C. McKenzie,  J.-M. Mewes,  A. F. Morrison,  
 J. W. Mullinax,  K. Nanda,  T. S. Nguyen-Beck,  R. Olivares-Amaya,  
 J. A. Parkhill,  T. M. Perrine,  F. Plasser,  P. Pokhilko,  S. Prager,  
 A. Prociuk,  E. Ramos,  D. R. Rehn,  F. Rob,  M. Schneider,  N. Sergueev,  
 S. M. Sharada,  S. Sharma,  D. W. Small,  T. Stauch,  T. Stein,  
 Yu-Chuan Su,  A. J. W. Thom,  A. Tkatchenko,  T. Tsuchimochi,  N. M. Tubman,  
 L. Vogt,  M. L. Vidal,  O. Vydrov,  M. A. Watson,  J. Wenzel,  
 M. de Wergifosse,  T. A. Wesolowski,  A. White,  J. Witte,  A. Yamada,  
 Jun Yang,  K. Yao,  S. Yeganeh,  S. R. Yost,  Zhi-Qiang You,  A. Zech,  
 Igor Ying Zhang,  Xing Zhang,  Yan Zhao,  Ying Zhu,  B. R. Brooks,  
 G. K. L. Chan,  C. J. Cramer,  M. S. Gordon,  W. J. Hehre,  A. Klamt,  
 M. W. Schmidt,  C. D. Sherrill,  D. G. Truhlar,  A. Aspuru-Guzik,  R. Baer,  
 A. T. Bell,  N. A. Besley,  Jeng-Da Chai,  A. E. DePrince, III,  
 R. A. DiStasio Jr.,  A. Dreuw,  B. D. Dunietz,  T. R. Furlani,  
 Chao-Ping Hsu,  Yousung Jung,  Jing Kong,  D. S. Lambrecht,  WanZhen Liang,  
 C. Ochsenfeld,  V. A. Rassolov,  L. V. Slipchenko,  J. E. Subotnik,  
 T. Van Voorhis,  J. M. Herbert,  A. I. Krylov,  P. M. W. Gill,  M. Head-Gordon

 Contributors to earlier versions of Q-Chem not listed above: 
 R. D. Adamson,  B. Austin,  J. Baker,  G. J. O. Beran,  K. Brandhorst,  
 S. T. Brown,  E. F. C. Byrd,  A. K. Chakraborty,  C.-L. Cheng,  
 Siu Hung Chien,  D. M. Chipman,  D. L. Crittenden,  H. Dachsel,  
 R. J. Doerksen,  A. D. Dutoi,  L. Fusti-Molnar,  W. A. Goddard III,  
 A. Golubeva-Zadorozhnaya,  S. R. Gwaltney,  G. Hawkins,  A. Heyden,  
 S. Hirata,  G. Kedziora,  F. J. Keil,  C. Kelley,  Jihan Kim,  R. A. King,  
 R. Z. Khaliullin,  P. P. Korambath,  W. Kurlancheek,  A. M. Lee,  M. S. Lee,  
 S. V. Levchenko,  Ching Yeh Lin,  D. Liotard,  R. C. Lochan,  I. Lotan,  
 P. E. Maslen,  N. Nair,  D. P. O'Neill,  D. Neuhauser,  E. Neuscamman,  
 C. M. Oana,  R. Olson,  B. Peters,  R. Peverati,  P. A. Pieniazek,  
 Y. M. Rhee,  J. Ritchie,  M. A. Rohrdanz,  E. Rosta,  N. J. Russ,  
 H. F. Schaefer III,  N. E. Schultz,  N. Shenvi,  A. C. Simmonett,  A. Sodt,  
 D. Stuck,  K. S. Thanthiriwatte,  V. Vanovschi,  Tao Wang,  A. Warshel,  
 C. F. Williams,  Q. Wu,  X. Xu,  W. Zhang

 Please cite Q-Chem as follows:
 Y. Shao et al., Mol. Phys. 113, 184-215 (2015)
 DOI: 10.1080/00268976.2014.952696

 Q-Chem 5.1.1 for Intel X86 EM64T Linux

 Parts of Q-Chem use Armadillo 8.300.2 (Tropical Shenanigans).
 http://arma.sourceforge.net/

 Q-Chem begins on Mon Aug  3 23:57:35 2020  

Host: n0046.mhg0
0

     Scratch files written to /local/scratch/users/yhljason/BH2F_ccsdT_aug-cc-pcVQZ.inp20200803231131//
Input Ideriv = 0
Curr. Ideriv = -1
Max.  Ideriv = 0

Checking the input file for inconsistencies... 	...done.

--------------------------------------------------------------
User input:
--------------------------------------------------------------
$molecule
0 1
B        0.0000000000      0.0000000000      0.0000000000
F        0.0000000000      0.0000000000      1.3157000000
H        0.0000000000      1.0599000000     -0.5569000000
H        0.0000000000     -1.0599000000     -0.5569000000
$end

$rem
jobtype sp
method CCSD(T)
xc_grid 000099000590
basis aug-cc-pcVQZ
max_scf_cycles 200
thresh 14
scf_convergence 8
scf_algorithm gdm
symmetry false
sym_ignore true
unrestricted true
gen_scfman true
internal_stability_iter 15
internal_stability_davidson_iter 200
mem_total 128000
cc_memory 96000
cc_backend xm
mem_static 1500
n_frozen_core 0
$end


--------------------------------------------------------------
 ----------------------------------------------------------------
             Standard Nuclear Orientation (Angstroms)
    I     Atom           X                Y                Z
 ----------------------------------------------------------------
    1      B       0.0000000000     0.0000000000     0.0000000000
    2      F       0.0000000000     0.0000000000     1.3157000000
    3      H       0.0000000000     1.0599000000    -0.5569000000
    4      H       0.0000000000    -1.0599000000    -0.5569000000
 ----------------------------------------------------------------
 Nuclear Repulsion Energy =    27.1952060366 hartrees
 There are        8 alpha and        8 beta electrons
 Requested basis set is aug-cc-pCVQZ
 There are 86 shells and 310 basis functions
 Total memory of 128000MB is distributed as follows: 
   QALLOC including MEM_STATIC uses 32000MB
   MEM_STATIC is set to 1500MB
   CCMAN JOB total memory use is  96000MB
 Warning: actual memory use might exceed 128000MB

 Total QAlloc Memory Limit  32000 MB
 Mega-Array Size      1467 MB
 MEM_STATIC part      1500 MB

                       Distance Matrix (Angstroms)
             B (  1)   F (  2)   H (  3)
   F (  2)  1.315700
   H (  3)  1.197299  2.151748
   H (  4)  1.197299  2.151748  2.119800
 
 A cutoff of  1.0D-14 yielded   3667 shell pairs
 There are     48209 function pairs (     75878 Cartesian)
 
 -------------------------------------------------------
 OpenMP Integral Computing Module                       
 Release: version 1.0, May 2013, Q-Chem Inc. Pittsburgh 
 -------------------------------------------------------
 Integral Job Info:
 Integral job number is                      11
 Integral operator is                         1
 short-range coefficients                     0
 long-range coefficients              100000000
 Omega coefficients                           0
 if combine SR and LR in K                    0
 Integral screening is                        0
 Integral computing path is                   2
 max size of driver memory is           3200000
 size of driver memory is               1704330
 size of scratch memory is             18511652
 max col of scratch BK array              50625
 max len of scratch array in speh3         2114
 max len of scratch index in speh4           50
 max int batch size is                      520
 min int batch size is                       52
 fixed nKL is                                52
 max L of basis functions is                  4
 order of int derivative is                   0
 number of shells is                         86
 number of basis is                         388
 number of cartesian basis is               388
 number of contracted shell pairs          3667
 number of primitive shell pairs           7233
 maxK2 (contraction) of shell pair           81
 max number of K2 of shell pair               1
 max number of CS2 of shell pair            482
 max number of PS2 of shell pair            720
 mem total for path MDJ                  738190
 -------------------------------------------------------
 Smallest overlap matrix eigenvalue = 3.12E-05

 Scale SEOQF with 1.000000e-01/1.000000e-01/1.000000e-01

 Standard Electronic Orientation quadrupole field applied
 Nucleus-field energy     =    -0.0000000016 hartrees
 Guess from superposition of atomic densities
 Warning:  Energy on first SCF cycle will be non-variational
 SAD guess density has 16.000000 electrons

 -----------------------------------------------------------------------
  General SCF calculation program by
  Eric Jon Sundstrom, Paul Horn, Yuezhi Mao, Dmitri Zuev, Alec White,
  David Stuck, Shaama M.S., Shane Yost, Joonho Lee, David Small,
  Daniel Levine, Susi Lehtola, Hugh Burton, Evgeny Epifanovsky
 -----------------------------------------------------------------------
Running Object-Oriented UHF
performing a single roothaan step with Fock from read density so that orbitals are available to all algorithms
energy of the guess density (C=0) -125.372117974780
We will preform up to 15 macro iterations over saddle points until a stable solution is found
Energy prior to optimization (guess energy) = -125.348445750535
Begin Timing: Total SCF Calculation
Begin Timing: SCF Single Stationary Point Calculation
begin iterations for algorithm: GDM          
the SCF tolerance is set to 1.00e-08
    1    -125.3484457505      5.37e-02     00000  Normal BFGS step
    2    -125.3762416805      2.51e-02     00000  Normal BFGS step
    3    -125.3839926278      3.82e-03     00000  Normal BFGS step
    4    -125.3841411649      1.01e-03     00000  Normal BFGS step
    5    -125.3841489617      1.31e-04     00000  Normal BFGS step
    6    -125.3841492562      2.48e-05     00000  Normal BFGS step
    7    -125.3841492745      5.62e-06     00000  Normal BFGS step
    8    -125.3841492751      1.84e-06     00000  Normal BFGS step
    9    -125.3841492752      3.08e-07     00000  Normal BFGS step
   10    -125.3841492752      7.81e-08     00000  Normal BFGS step
   11    -125.3841492752      1.97e-08     00000  Normal BFGS step
   12    -125.3841492752      6.66e-09     00000 Convergence criterion met
Timing for Single Stationary Point: 305.00s (wall), 2424.91s (cpu)
Begin Timing: Stability
===================================================
Beginning Test for Internal Stability
===================================================
generating davidson guess vectors based on koopmans excitations
    1      1.86e+00     00000 Davidson Iteration
    2      1.65e+00     00000 Davidson Iteration
    3      1.95e-01     00000 Davidson Iteration
    4      3.99e-02     00000 Davidson Iteration
    5      1.30e-01     00000 Davidson Iteration
    6      8.23e-02     00000 Davidson Iteration
    7      2.40e-02     00000 Davidson Iteration
    8      1.75e-02     00000 Davidson Iteration
    9      4.78e-03     00000 Davidson Iteration
   10      1.95e-03     00000 Davidson Iteration
   11      1.63e-02     00000 Davidson Iteration
   12      1.67e-03     00000 Davidson Iteration
   13      3.49e-03     00000 Davidson Iteration
   14      3.96e-03     00000 Davidson Iteration
   15      1.13e-03     00000 Davidson Iteration
   16      5.12e-04     00000 Davidson Iteration
   17      8.50e-05     00000 Davidson Iteration
   18      3.38e-04     00000 Davidson Iteration
   19      4.63e-04     00000 Davidson Iteration
   20      6.77e-04     00000 Davidson Iteration
   21      3.05e-04     00000 Davidson Iteration
   22      2.50e-04     00000 Davidson Iteration
   23      3.15e-04     00000 Davidson Iteration
   24      2.96e-04     00000 Davidson Iteration
   25      2.21e-04     00000 Davidson Iteration
   26      1.59e-04     00000 Davidson Iteration
   27      9.02e-05     00000 Davidson Converged
converged_eigenvalues
   0.3773
   0.5436
Threshold for negative eigenvalues: -1.0e-05
solution was a local minimum (stable)
===================================================
End Test for Internal Stability
===================================================
Our SCF solution is stable!
Timing for Total SCF: 1611.00s (wall), 12802.42s (cpu)
 Total energy in the final basis set =     -125.3841492752
<S^2> =         -0.000000000
    ==================================================
              The end of Object-Oriented SCFman       
    ==================================================


 ------------------------------------------------------------------------------

   CCMAN2: suite of methods based on coupled cluster
           and equation of motion theories.

   Components:
   * libvmm-1.3-trunk
     by Evgeny Epifanovsky, Ilya Kaliman.
   * libtensor-2.5-trunk
     by Evgeny Epifanovsky, Michael Wormit, Dmitry Zuev, Sam Manzer, 
        Ilya Kaliman.
   * libcc-2.5-trunk
     by Evgeny Epifanovsky, Arik Landau, Tomasz Kus, Kirill Khistyaev, 
        Dmitry Zuev, Prashant Manohar, Xintian Feng, Anna Krylov, 
        Matthew Goldey, Alec White, Thomas Jagau, Kaushik Nanda, 
        Anastasia Gunina, Alexander Kunitsa, Joonho Lee.

   CCMAN original authors:
   Anna I. Krylov, C. David Sherrill, Steven R. Gwaltney,
   Edward F. C. Byrd (2000)
   Sergey V. Levchenko, Lyudmila V. Slipchenko, Tao Wang,
   Ana-Maria C. Cristian (2003)
   Piotr A. Pieniazek, C. Melania Oana, Evgeny Epifanovsky (2007)
   Prashant Manohar (2009)

 ------------------------------------------------------------------------------


 Calculation will run on 8 cores using libxm for tensor contractions

 ------------------------------------------------------------------------------
Libxm Tensor Library
Copyright (c) 2014-2018 Ilya Kaliman
https://github.com/ilyak/libxm
Reference: https://dx.doi.org/10.1002/jcc.24713
 ------------------------------------------------------------------------------

 
 Alpha MOs, Unrestricted
 -- Occupied --                  
-26.306  -7.665  -1.621  -0.795  -0.708  -0.676  -0.628  -0.488
  1 A     2 A     3 A     4 A     5 A     6 A     7 A     8 A                  
 -- Virtual --                   
  0.030   0.035   0.037   0.040   0.077   0.097   0.101   0.118
  9 A    10 A    11 A    12 A    13 A    14 A    15 A    16 A                  
  0.124   0.136   0.143   0.149   0.157   0.213   0.225   0.240
 17 A    18 A    19 A    20 A    21 A    22 A    23 A    24 A                  
  0.240   0.263   0.267   0.276   0.281   0.283   0.295   0.337
 25 A    26 A    27 A    28 A    29 A    30 A    31 A    32 A                  
  0.340   0.386   0.420   0.429   0.460   0.476   0.500   0.509
 33 A    34 A    35 A    36 A    37 A    38 A    39 A    40 A                  
  0.519   0.550   0.561   0.581   0.585   0.590   0.611   0.615
 41 A    42 A    43 A    44 A    45 A    46 A    47 A    48 A                  
  0.711   0.719   0.740   0.749   0.761   0.806   0.813   0.818
 49 A    50 A    51 A    52 A    53 A    54 A    55 A    56 A                  
  0.825   0.831   0.871   0.875   0.917   0.919   0.920   0.934
 57 A    58 A    59 A    60 A    61 A    62 A    63 A    64 A                  
  0.952   0.986   1.043   1.131   1.137   1.171   1.174   1.235
 65 A    66 A    67 A    68 A    69 A    70 A    71 A    72 A                  
  1.240   1.255   1.269   1.284   1.447   1.479   1.484   1.501
 73 A    74 A    75 A    76 A    77 A    78 A    79 A    80 A                  
  1.509   1.515   1.525   1.549   1.551   1.588   1.594   1.629
 81 A    82 A    83 A    84 A    85 A    86 A    87 A    88 A                  
  1.657   1.686   1.804   1.804   1.811   1.821   1.868   1.892
 89 A    90 A    91 A    92 A    93 A    94 A    95 A    96 A                  
  1.898   1.930   1.946   1.975   1.993   2.023   2.045   2.108
 97 A    98 A    99 A   100 A   101 A   102 A   103 A   104 A                  
  2.111   2.124   2.141   2.182   2.212   2.221   2.248   2.297
105 A   106 A   107 A   108 A   109 A   110 A   111 A   112 A                  
  2.305   2.340   2.374   2.374   2.435   2.454   2.470   2.491
113 A   114 A   115 A   116 A   117 A   118 A   119 A   120 A                  
  2.594   2.671   2.769   2.821   2.847   2.906   2.938   2.996
121 A   122 A   123 A   124 A   125 A   126 A   127 A   128 A                  
  3.034   3.143   3.172   3.246   3.262   3.323   3.329   3.349
129 A   130 A   131 A   132 A   133 A   134 A   135 A   136 A                  
  3.359   3.382   3.536   3.544   3.563   3.588   3.713   3.797
137 A   138 A   139 A   140 A   141 A   142 A   143 A   144 A                  
  3.974   3.980   4.047   4.111   4.123   4.146   4.150   4.167
145 A   146 A   147 A   148 A   149 A   150 A   151 A   152 A                  
  4.225   4.242   4.298   4.319   4.372   4.430   4.539   4.662
153 A   154 A   155 A   156 A   157 A   158 A   159 A   160 A                  
  4.733   4.793   4.863   4.867   4.943   5.159   5.187   5.239
161 A   162 A   163 A   164 A   165 A   166 A   167 A   168 A                  
  5.242   5.252   5.350   5.391   5.504   5.549   5.657   5.712
169 A   170 A   171 A   172 A   173 A   174 A   175 A   176 A                  
  5.747   5.752   5.781   5.865   5.920   5.927   6.039   6.102
177 A   178 A   179 A   180 A   181 A   182 A   183 A   184 A                  
  6.153   6.439   6.466   6.541   6.697   6.704   6.808   6.889
185 A   186 A   187 A   188 A   189 A   190 A   191 A   192 A                  
  6.898   6.902   7.160   7.185   7.290   7.430   7.451   7.579
193 A   194 A   195 A   196 A   197 A   198 A   199 A   200 A                  
  7.621   7.807   7.831   7.958   8.060   8.120   8.248   8.415
201 A   202 A   203 A   204 A   205 A   206 A   207 A   208 A                  
  8.476   8.728   8.791   8.965   8.988   9.171   9.178   9.220
209 A   210 A   211 A   212 A   213 A   214 A   215 A   216 A                  
  9.364   9.408   9.514   9.591   9.854   9.884   9.951  10.312
217 A   218 A   219 A   220 A   221 A   222 A   223 A   224 A                  
 10.450  11.400  11.790  12.393  12.895  13.196  13.601  13.716
225 A   226 A   227 A   228 A   229 A   230 A   231 A   232 A                  
 13.723  13.909  13.922  14.076  14.078  14.118  14.176  14.224
233 A   234 A   235 A   236 A   237 A   238 A   239 A   240 A                  
 14.587  14.814  15.963  15.973  16.161  16.301  16.361  16.721
241 A   242 A   243 A   244 A   245 A   246 A   247 A   248 A                  
 16.724  17.031  17.120  17.335  17.572  17.787  19.952  20.159
249 A   250 A   251 A   252 A   253 A   254 A   255 A   256 A                  
 20.726  21.037  21.138  22.832  26.144  42.045  42.403  43.119
257 A   258 A   259 A   260 A   261 A   262 A   263 A   264 A                  
 45.219  46.400  46.454  60.526  60.575  60.697  60.816  61.010
265 A   266 A   267 A   268 A   269 A   270 A   271 A   272 A                  
 75.955  75.956  75.957  75.962  75.962  75.995  76.008  80.644
273 A   274 A   275 A   276 A   277 A   278 A   279 A   280 A                  
 84.488  86.244  86.331  86.779  86.828  86.970  98.124  98.125
281 A   282 A   283 A   284 A   285 A   286 A   287 A   288 A                  
 98.157  98.171  98.200  98.249  98.263 145.889 146.167 146.742
289 A   290 A   291 A   292 A   293 A   294 A   295 A   296 A                  
152.482 153.445 153.481 251.362 251.390 251.457 251.520 251.624
297 A   298 A   299 A   300 A   301 A   302 A   303 A   304 A                  
271.196 350.063 494.028 494.248 494.7111115.957
305 A   306 A   307 A   308 A   309 A   310 A                                  
 
 Beta MOs, Unrestricted
 -- Occupied --                  
-26.306  -7.665  -1.621  -0.795  -0.708  -0.676  -0.628  -0.488
  1 A     2 A     3 A     4 A     5 A     6 A     7 A     8 A                  
 -- Virtual --                   
  0.030   0.035   0.037   0.040   0.077   0.097   0.101   0.118
  9 A    10 A    11 A    12 A    13 A    14 A    15 A    16 A                  
  0.124   0.136   0.143   0.149   0.157   0.213   0.225   0.240
 17 A    18 A    19 A    20 A    21 A    22 A    23 A    24 A                  
  0.240   0.263   0.267   0.276   0.281   0.283   0.295   0.337
 25 A    26 A    27 A    28 A    29 A    30 A    31 A    32 A                  
  0.340   0.386   0.420   0.429   0.460   0.476   0.500   0.509
 33 A    34 A    35 A    36 A    37 A    38 A    39 A    40 A                  
  0.519   0.550   0.561   0.581   0.585   0.590   0.611   0.615
 41 A    42 A    43 A    44 A    45 A    46 A    47 A    48 A                  
  0.711   0.719   0.740   0.749   0.761   0.806   0.813   0.818
 49 A    50 A    51 A    52 A    53 A    54 A    55 A    56 A                  
  0.825   0.831   0.871   0.875   0.917   0.919   0.920   0.934
 57 A    58 A    59 A    60 A    61 A    62 A    63 A    64 A                  
  0.952   0.986   1.043   1.131   1.137   1.171   1.174   1.235
 65 A    66 A    67 A    68 A    69 A    70 A    71 A    72 A                  
  1.240   1.255   1.269   1.284   1.447   1.479   1.484   1.501
 73 A    74 A    75 A    76 A    77 A    78 A    79 A    80 A                  
  1.509   1.515   1.525   1.549   1.551   1.588   1.594   1.629
 81 A    82 A    83 A    84 A    85 A    86 A    87 A    88 A                  
  1.657   1.686   1.804   1.804   1.811   1.821   1.868   1.892
 89 A    90 A    91 A    92 A    93 A    94 A    95 A    96 A                  
  1.898   1.930   1.946   1.975   1.993   2.023   2.045   2.108
 97 A    98 A    99 A   100 A   101 A   102 A   103 A   104 A                  
  2.111   2.124   2.141   2.182   2.212   2.221   2.248   2.297
105 A   106 A   107 A   108 A   109 A   110 A   111 A   112 A                  
  2.305   2.340   2.374   2.374   2.435   2.454   2.470   2.491
113 A   114 A   115 A   116 A   117 A   118 A   119 A   120 A                  
  2.594   2.671   2.769   2.821   2.847   2.906   2.938   2.996
121 A   122 A   123 A   124 A   125 A   126 A   127 A   128 A                  
  3.034   3.143   3.172   3.246   3.262   3.323   3.329   3.349
129 A   130 A   131 A   132 A   133 A   134 A   135 A   136 A                  
  3.359   3.382   3.536   3.544   3.563   3.588   3.713   3.797
137 A   138 A   139 A   140 A   141 A   142 A   143 A   144 A                  
  3.974   3.980   4.047   4.111   4.123   4.146   4.150   4.167
145 A   146 A   147 A   148 A   149 A   150 A   151 A   152 A                  
  4.225   4.242   4.298   4.319   4.372   4.430   4.539   4.662
153 A   154 A   155 A   156 A   157 A   158 A   159 A   160 A                  
  4.733   4.793   4.863   4.867   4.943   5.159   5.187   5.239
161 A   162 A   163 A   164 A   165 A   166 A   167 A   168 A                  
  5.242   5.252   5.350   5.391   5.504   5.549   5.657   5.712
169 A   170 A   171 A   172 A   173 A   174 A   175 A   176 A                  
  5.747   5.752   5.781   5.865   5.920   5.927   6.039   6.102
177 A   178 A   179 A   180 A   181 A   182 A   183 A   184 A                  
  6.153   6.439   6.466   6.541   6.697   6.704   6.808   6.889
185 A   186 A   187 A   188 A   189 A   190 A   191 A   192 A                  
  6.898   6.902   7.160   7.185   7.290   7.430   7.451   7.579
193 A   194 A   195 A   196 A   197 A   198 A   199 A   200 A                  
  7.621   7.807   7.831   7.958   8.060   8.120   8.248   8.415
201 A   202 A   203 A   204 A   205 A   206 A   207 A   208 A                  
  8.476   8.728   8.791   8.965   8.988   9.171   9.178   9.220
209 A   210 A   211 A   212 A   213 A   214 A   215 A   216 A                  
  9.364   9.408   9.514   9.591   9.854   9.884   9.951  10.312
217 A   218 A   219 A   220 A   221 A   222 A   223 A   224 A                  
 10.450  11.400  11.790  12.393  12.895  13.196  13.601  13.716
225 A   226 A   227 A   228 A   229 A   230 A   231 A   232 A                  
 13.723  13.909  13.922  14.076  14.078  14.118  14.176  14.224
233 A   234 A   235 A   236 A   237 A   238 A   239 A   240 A                  
 14.587  14.814  15.963  15.973  16.161  16.301  16.361  16.721
241 A   242 A   243 A   244 A   245 A   246 A   247 A   248 A                  
 16.724  17.031  17.120  17.335  17.572  17.787  19.952  20.159
249 A   250 A   251 A   252 A   253 A   254 A   255 A   256 A                  
 20.726  21.037  21.138  22.832  26.144  42.045  42.403  43.119
257 A   258 A   259 A   260 A   261 A   262 A   263 A   264 A                  
 45.219  46.400  46.454  60.526  60.575  60.697  60.816  61.010
265 A   266 A   267 A   268 A   269 A   270 A   271 A   272 A                  
 75.955  75.956  75.957  75.962  75.962  75.995  76.008  80.644
273 A   274 A   275 A   276 A   277 A   278 A   279 A   280 A                  
 84.488  86.244  86.331  86.779  86.828  86.970  98.124  98.125
281 A   282 A   283 A   284 A   285 A   286 A   287 A   288 A                  
 98.157  98.171  98.200  98.249  98.263 145.889 146.167 146.742
289 A   290 A   291 A   292 A   293 A   294 A   295 A   296 A                  
152.482 153.445 153.481 251.362 251.390 251.457 251.520 251.624
297 A   298 A   299 A   300 A   301 A   302 A   303 A   304 A                  
271.196 350.063 494.028 494.248 494.7111115.957
305 A   306 A   307 A   308 A   309 A   310 A                                  

 Occupation and symmetry of molecular orbitals

 Point group: C1 (1 irreducible representation).

                           A     All 
 -------------------------------------
 All molecular orbitals:
  - Alpha                  310   310 
  - Beta                   310   310 
 -------------------------------------
 Alpha orbitals:
  - Frozen occupied        0     0   
  - Active occupied        8     8   
  - Active virtual         302   302 
  - Frozen virtual         0     0   
 -------------------------------------
 Beta orbitals:
  - Frozen occupied        0     0   
  - Active occupied        8     8   
  - Active virtual         302   302 
  - Frozen virtual         0     0   
 -------------------------------------

 Import integrals:   CPU 0.00 s  wall 0.00 s

 Import integrals:   CPU 12567.38 s  wall 3395.87 s

 MP2 amplitudes:   CPU 11.79 s  wall 20.29 s

Running a double precision version
           CCSD T amplitudes will be solved using DIIS.

           Start     Size      MaxIter   EConv     TConv     
           3         7         100       1.00e-06  1.00e-04  
 ------------------------------------------------------------------------------
           Energy (a.u.)   Ediff      Tdiff       Comment
 ------------------------------------------------------------------------------
          -125.88784924                           
     1    -125.88963627   1.79e-03   4.80e-01     Step took 08.37.
     2    -125.89969945   1.01e-02   6.34e-02     
     3    -125.89961661   8.28e-05   2.34e-02     
     4    -125.90043473   8.18e-04   8.73e-03     Switched to DIIS steps.
     5    -125.90072256   2.88e-04   4.98e-03     
     6    -125.90072936   6.80e-06   8.92e-04     
     7    -125.90073302   3.66e-06   5.38e-04     
     8    -125.90073438   1.36e-06   1.24e-04     
     9    -125.90073466   2.82e-07   4.90e-05     
 ------------------------------------------------------------------------------
          -125.90073466                           CCSD T converged.

End of double precision

----------------------------------------
libpt (c) 2016-2018 Ilya Kaliman
Fast Coupled Cluster Triples Corrections
https://github.com/ilyak/libpt
----------------------------------------

 Starting (T) calculation...
 Using double precision libpt code
 (T) calculation completed in 877 sec
 (T) energy is -0.0129905536

 SCF energy                 = -125.38414928
 MP2 energy                 = -125.88784924
 CCSD correlation energy     =   -0.51658539
 CCSD total energy           = -125.90073466
 CCSD(T) correlation energy =   -0.01299055
 CCSD(T) total energy       = -125.91372522

 CCSD  T1^2 = 0.0039  T2^2 = 0.0972  Leading amplitudes:

 Amplitude    Orbitals with energies
 -0.0240       6 (A) B                   ->    14 (A) B                   
              -0.6764                          0.0968                     
  0.0240       6 (A) A                   ->    14 (A) A                   
              -0.6764                          0.0968                     
 -0.0145       6 (A) B                   ->    19 (A) B                   
              -0.6764                          0.1434                     
 -0.0145       6 (A) A                   ->    19 (A) A                   
              -0.6764                          0.1434                     

 Amplitude    Orbitals with energies
 -0.0194       8 (A) A       8 (A) B     ->    38 (A) A      38 (A) B     
              -0.4879       -0.4879            0.4755        0.4755       
  0.0194       8 (A) A       8 (A) B     ->    38 (A) B      38 (A) A     
              -0.4879       -0.4879            0.4755        0.4755       
  0.0194       8 (A) B       8 (A) A     ->    38 (A) A      38 (A) B     
              -0.4879       -0.4879            0.4755        0.4755       
 -0.0194       8 (A) B       8 (A) A     ->    38 (A) B      38 (A) A     
              -0.4879       -0.4879            0.4755        0.4755       

 CCSD calculation:   CPU 14313.19 s  wall 5932.70 s

 Total ccman2 time:   CPU 27029.60 s  wall 9628.34 s

 
 --------------------------------------------------------------
 
                    Orbital Energies (a.u.)
 --------------------------------------------------------------
 
 Alpha MOs
 -- Occupied --
-26.306  -7.665  -1.621  -0.795  -0.708  -0.676  -0.628  -0.488
 -- Virtual --
  0.030   0.035   0.037   0.040   0.077   0.097   0.101   0.118
  0.124   0.136   0.143   0.149   0.157   0.213   0.225   0.240
  0.240   0.263   0.267   0.276   0.281   0.283   0.295   0.337
  0.340   0.386   0.420   0.429   0.460   0.476   0.500   0.509
  0.519   0.550   0.561   0.581   0.585   0.590   0.611   0.615
  0.711   0.719   0.740   0.749   0.761   0.806   0.813   0.818
  0.825   0.831   0.871   0.875   0.917   0.919   0.920   0.934
  0.952   0.986   1.043   1.131   1.137   1.171   1.174   1.235
  1.240   1.255   1.269   1.284   1.447   1.479   1.484   1.501
  1.509   1.515   1.525   1.549   1.551   1.588   1.594   1.629
  1.657   1.686   1.804   1.804   1.811   1.821   1.868   1.892
  1.898   1.930   1.946   1.975   1.993   2.023   2.045   2.108
  2.111   2.124   2.141   2.182   2.212   2.221   2.248   2.297
  2.305   2.340   2.374   2.374   2.435   2.454   2.470   2.491
  2.594   2.671   2.769   2.821   2.847   2.906   2.938   2.996
  3.034   3.143   3.172   3.246   3.262   3.323   3.329   3.349
  3.359   3.382   3.536   3.544   3.563   3.588   3.713   3.797
  3.974   3.980   4.047   4.111   4.123   4.146   4.150   4.167
  4.225   4.242   4.298   4.319   4.372   4.430   4.539   4.662
  4.733   4.793   4.863   4.867   4.943   5.159   5.187   5.239
  5.242   5.252   5.350   5.391   5.504   5.549   5.657   5.712
  5.747   5.752   5.781   5.865   5.920   5.927   6.039   6.102
  6.153   6.439   6.466   6.541   6.697   6.704   6.808   6.889
  6.898   6.902   7.160   7.185   7.290   7.430   7.451   7.579
  7.621   7.807   7.831   7.958   8.060   8.120   8.248   8.415
  8.476   8.728   8.791   8.965   8.988   9.171   9.178   9.220
  9.364   9.408   9.514   9.591   9.854   9.884   9.951  10.312
 10.450  11.400  11.790  12.393  12.895  13.196  13.601  13.716
 13.723  13.909  13.922  14.076  14.078  14.118  14.176  14.224
 14.587  14.814  15.963  15.973  16.161  16.301  16.361  16.721
 16.724  17.031  17.120  17.335  17.572  17.787  19.952  20.159
 20.726  21.037  21.138  22.832  26.144  42.045  42.403  43.119
 45.219  46.400  46.454  60.526  60.575  60.697  60.816  61.010
 75.955  75.956  75.957  75.962  75.962  75.995  76.008  80.644
 84.488  86.244  86.331  86.779  86.828  86.970  98.124  98.125
 98.157  98.171  98.200  98.249  98.263 145.889 146.167 146.742
152.482 153.445 153.481 251.362 251.390 251.457 251.520 251.624
271.196 350.063 494.028 494.248 494.7111115.957
 
 Beta MOs
 -- Occupied --
-26.306  -7.665  -1.621  -0.795  -0.708  -0.676  -0.628  -0.488
 -- Virtual --
  0.030   0.035   0.037   0.040   0.077   0.097   0.101   0.118
  0.124   0.136   0.143   0.149   0.157   0.213   0.225   0.240
  0.240   0.263   0.267   0.276   0.281   0.283   0.295   0.337
  0.340   0.386   0.420   0.429   0.460   0.476   0.500   0.509
  0.519   0.550   0.561   0.581   0.585   0.590   0.611   0.615
  0.711   0.719   0.740   0.749   0.761   0.806   0.813   0.818
  0.825   0.831   0.871   0.875   0.917   0.919   0.920   0.934
  0.952   0.986   1.043   1.131   1.137   1.171   1.174   1.235
  1.240   1.255   1.269   1.284   1.447   1.479   1.484   1.501
  1.509   1.515   1.525   1.549   1.551   1.588   1.594   1.629
  1.657   1.686   1.804   1.804   1.811   1.821   1.868   1.892
  1.898   1.930   1.946   1.975   1.993   2.023   2.045   2.108
  2.111   2.124   2.141   2.182   2.212   2.221   2.248   2.297
  2.305   2.340   2.374   2.374   2.435   2.454   2.470   2.491
  2.594   2.671   2.769   2.821   2.847   2.906   2.938   2.996
  3.034   3.143   3.172   3.246   3.262   3.323   3.329   3.349
  3.359   3.382   3.536   3.544   3.563   3.588   3.713   3.797
  3.974   3.980   4.047   4.111   4.123   4.146   4.150   4.167
  4.225   4.242   4.298   4.319   4.372   4.430   4.539   4.662
  4.733   4.793   4.863   4.867   4.943   5.159   5.187   5.239
  5.242   5.252   5.350   5.391   5.504   5.549   5.657   5.712
  5.747   5.752   5.781   5.865   5.920   5.927   6.039   6.102
  6.153   6.439   6.466   6.541   6.697   6.704   6.808   6.889
  6.898   6.902   7.160   7.185   7.290   7.430   7.451   7.579
  7.621   7.807   7.831   7.958   8.060   8.120   8.248   8.415
  8.476   8.728   8.791   8.965   8.988   9.171   9.178   9.220
  9.364   9.408   9.514   9.591   9.854   9.884   9.951  10.312
 10.450  11.400  11.790  12.393  12.895  13.196  13.601  13.716
 13.723  13.909  13.922  14.076  14.078  14.118  14.176  14.224
 14.587  14.814  15.963  15.973  16.161  16.301  16.361  16.721
 16.724  17.031  17.120  17.335  17.572  17.787  19.952  20.159
 20.726  21.037  21.138  22.832  26.144  42.045  42.403  43.119
 45.219  46.400  46.454  60.526  60.575  60.697  60.816  61.010
 75.955  75.956  75.957  75.962  75.962  75.995  76.008  80.644
 84.488  86.244  86.331  86.779  86.828  86.970  98.124  98.125
 98.157  98.171  98.200  98.249  98.263 145.889 146.167 146.742
152.482 153.445 153.481 251.362 251.390 251.457 251.520 251.624
271.196 350.063 494.028 494.248 494.7111115.957
 --------------------------------------------------------------
 
          Ground-State Mulliken Net Atomic Charges

     Atom                 Charge (a.u.)    Spin (a.u.)
  --------------------------------------------------------
      1 B                     0.798101       0.000000
      2 F                    -0.597015      -0.000000
      3 H                    -0.100543      -0.000000
      4 H                    -0.100543      -0.000000
  --------------------------------------------------------
  Sum of atomic charges =     0.000000
  Sum of spin   charges =     0.000000

 -----------------------------------------------------------------
                    Cartesian Multipole Moments
 -----------------------------------------------------------------
    Charge (ESU x 10^10)
                -0.0000
    Dipole Moment (Debye)
         X       0.0000      Y       0.0000      Z      -1.0133
       Tot       1.0133
    Quadrupole Moments (Debye-Ang)
        XX     -10.6871     XY      -0.0000     YY     -12.6241
        XZ       0.0000     YZ       0.0000     ZZ     -14.5536
    Octopole Moments (Debye-Ang^2)
       XXX       0.0000    XXY      -0.0000    XYY      -0.0000
       YYY       0.0000    XXZ      -5.0687    XYZ      -0.0000
       YYZ      -4.8845    XZZ       0.0000    YZZ      -0.0000
       ZZZ     -18.4958
    Hexadecapole Moments (Debye-Ang^3)
      XXXX      -8.8878   XXXY      -0.0000   XXYY      -6.0817
      XYYY      -0.0000   YYYY     -25.5284   XXXZ      -0.0000
      XXYZ       0.0000   XYYZ       0.0000   YYYZ      -0.0000
      XXZZ     -12.6762   XYZZ      -0.0000   YYZZ     -15.2987
      XZZZ       0.0000   YZZZ      -0.0000   ZZZZ     -69.5328
 -----------------------------------------------------------------
Archival summary:
1\1\n0046.mhg0\SP\ProcedureUnspecified\BasisUnspecified\112\yhljason\TueAug403:06:372020TueAug403:06:372020\0\\#,ProcedureUnspecified,BasisUnspecified,\\0,1\F\B,1,1.3157\H,2,1.1973,1,117.719\H,2,1.1973,1,117.719,3,-180,0\\HF=-125.384149\\@

 Total job time:  11342.54s(wall), 40099.46s(cpu) 
 Tue Aug  4 03:06:37 2020

        *************************************************************
        *                                                           *
        *  Thank you very much for using Q-Chem.  Have a nice day.  *
        *                                                           *
        *************************************************************


 
User input: 2 of 7 
 
Q-Chem Developer Version!
                  Welcome to Q-Chem
     A Quantum Leap Into The Future Of Chemistry


 Q-Chem 5.1, Q-Chem, Inc., Pleasanton, CA (2018)

 Yihan Shao,  Zhengting Gan,  E. Epifanovsky,  A. T. B. Gilbert,  M. Wormit,  
 J. Kussmann,  A. W. Lange,  A. Behn,  Jia Deng,  Xintian Feng,  D. Ghosh,  
 M. Goldey,  P. R. Horn,  L. D. Jacobson,  I. Kaliman,  T. Kus,  A. Landau,  
 Jie Liu,  E. I. Proynov,  R. M. Richard,  R. P. Steele,  E. J. Sundstrom,  
 H. L. Woodcock III,  P. M. Zimmerman,  D. Zuev,  B. Albrecht,  E. Alguire,  
 S. A. Baeppler,  D. Barton,  Z. Benda,  Y. A. Bernard,  E. J. Berquist,  
 K. B. Bravaya,  H. Burton,  D. Casanova,  Chun-Min Chang,  Yunqing Chen,  
 A. Chien,  K. D. Closser,  M. P. Coons,  S. Coriani,  S. Dasgupta,  
 A. L. Dempwolff,  M. Diedenhofen,  Hainam Do,  R. G. Edgar,  Po-Tung Fang,  
 S. Faraji,  S. Fatehi,  Qingguo Feng,  K. D. Fenk,  J. Fosso-Tande,  
 Qinghui Ge,  A. Ghysels,  G. Gidofalvi,  J. Gomes,  J. Gonthier,  A. Gunina,  
 D. Hait,  M. W. D. Hanson-Heine,  P. H. P. Harbach,  A. W. Hauser,  
 J. E. Herr,  E. G. Hohenstein,  Z. C. Holden,  Kerwin Hui,  B. C. Huynh,  
 T.-C. Jagau,  Hyunjun Ji,  B. Kaduk,  K. Khistyaev,  Jaehoon Kim,  
 P. Klunzinger,  K. Koh,  D. Kosenkov,  L. Koulias,  T. Kowalczyk,  
 C. M. Krauter,  A. Kunitsa,  Ka Un Lao,  A. Laurent,  K. V. Lawler,  
 Joonho Lee,  D. Lefrancois,  S. Lehtola,  D. S. Levine,  Yi-Pei Li,  
 You-Sheng Lin,  Fenglai Liu,  E. Livshits,  A. Luenser,  P. Manohar,  
 E. Mansoor,  S. F. Manzer,  Shan-Ping Mao,  Yuezhi Mao,  N. Mardirossian,  
 A. V. Marenich,  T. Markovich,  L. A. Martinez-Martinez,  S. A. Maurer,  
 N. J. Mayhall,  S. C. McKenzie,  J.-M. Mewes,  A. F. Morrison,  
 J. W. Mullinax,  K. Nanda,  T. S. Nguyen-Beck,  R. Olivares-Amaya,  
 J. A. Parkhill,  T. M. Perrine,  F. Plasser,  P. Pokhilko,  S. Prager,  
 A. Prociuk,  E. Ramos,  D. R. Rehn,  F. Rob,  M. Schneider,  N. Sergueev,  
 S. M. Sharada,  S. Sharma,  D. W. Small,  T. Stauch,  T. Stein,  
 Yu-Chuan Su,  A. J. W. Thom,  A. Tkatchenko,  T. Tsuchimochi,  N. M. Tubman,  
 L. Vogt,  M. L. Vidal,  O. Vydrov,  M. A. Watson,  J. Wenzel,  
 M. de Wergifosse,  T. A. Wesolowski,  A. White,  J. Witte,  A. Yamada,  
 Jun Yang,  K. Yao,  S. Yeganeh,  S. R. Yost,  Zhi-Qiang You,  A. Zech,  
 Igor Ying Zhang,  Xing Zhang,  Yan Zhao,  Ying Zhu,  B. R. Brooks,  
 G. K. L. Chan,  C. J. Cramer,  M. S. Gordon,  W. J. Hehre,  A. Klamt,  
 M. W. Schmidt,  C. D. Sherrill,  D. G. Truhlar,  A. Aspuru-Guzik,  R. Baer,  
 A. T. Bell,  N. A. Besley,  Jeng-Da Chai,  A. E. DePrince, III,  
 R. A. DiStasio Jr.,  A. Dreuw,  B. D. Dunietz,  T. R. Furlani,  
 Chao-Ping Hsu,  Yousung Jung,  Jing Kong,  D. S. Lambrecht,  WanZhen Liang,  
 C. Ochsenfeld,  V. A. Rassolov,  L. V. Slipchenko,  J. E. Subotnik,  
 T. Van Voorhis,  J. M. Herbert,  A. I. Krylov,  P. M. W. Gill,  M. Head-Gordon

 Contributors to earlier versions of Q-Chem not listed above: 
 R. D. Adamson,  B. Austin,  J. Baker,  G. J. O. Beran,  K. Brandhorst,  
 S. T. Brown,  E. F. C. Byrd,  A. K. Chakraborty,  C.-L. Cheng,  
 Siu Hung Chien,  D. M. Chipman,  D. L. Crittenden,  H. Dachsel,  
 R. J. Doerksen,  A. D. Dutoi,  L. Fusti-Molnar,  W. A. Goddard III,  
 A. Golubeva-Zadorozhnaya,  S. R. Gwaltney,  G. Hawkins,  A. Heyden,  
 S. Hirata,  G. Kedziora,  F. J. Keil,  C. Kelley,  Jihan Kim,  R. A. King,  
 R. Z. Khaliullin,  P. P. Korambath,  W. Kurlancheek,  A. M. Lee,  M. S. Lee,  
 S. V. Levchenko,  Ching Yeh Lin,  D. Liotard,  R. C. Lochan,  I. Lotan,  
 P. E. Maslen,  N. Nair,  D. P. O'Neill,  D. Neuhauser,  E. Neuscamman,  
 C. M. Oana,  R. Olson,  B. Peters,  R. Peverati,  P. A. Pieniazek,  
 Y. M. Rhee,  J. Ritchie,  M. A. Rohrdanz,  E. Rosta,  N. J. Russ,  
 H. F. Schaefer III,  N. E. Schultz,  N. Shenvi,  A. C. Simmonett,  A. Sodt,  
 D. Stuck,  K. S. Thanthiriwatte,  V. Vanovschi,  Tao Wang,  A. Warshel,  
 C. F. Williams,  Q. Wu,  X. Xu,  W. Zhang

 Please cite Q-Chem as follows:
 Y. Shao et al., Mol. Phys. 113, 184-215 (2015)
 DOI: 10.1080/00268976.2014.952696

 Q-Chem 5.1.1 for Intel X86 EM64T Linux

 Parts of Q-Chem use Armadillo 8.300.2 (Tropical Shenanigans).
 http://arma.sourceforge.net/

 Q-Chem begins on Tue Aug  4 03:06:38 2020  

Host: n0046.mhg0
0

     Scratch files written to /local/scratch/users/yhljason/BH2F_ccsdT_aug-cc-pcVQZ.inp20200803231131//
The previous job contains 0 fragments, simply inherited here
Input Ideriv = 0
Curr. Ideriv = -1
Max.  Ideriv = 0

Checking the input file for inconsistencies... 	...done.

--------------------------------------------------------------
User input:
--------------------------------------------------------------
$molecule
read
$end

$rem

jobtype sp
method CCSD(T)
xc_grid 000099000590
basis aug-cc-pcVQZ
max_scf_cycles 200
thresh 14
scf_convergence 8
mem_total 128000
cc_memory 96000
cc_backend xm
mem_static 1500
symmetry false
sym_ignore true
scf_guess read
unrestricted true
scf_algorithm gdm
n_frozen_core 0
$end

$multipole_field
XX 0.0001
$end


--------------------------------------------------------------
 ----------------------------------------------------------------
             Standard Nuclear Orientation (Angstroms)
    I     Atom           X                Y                Z
 ----------------------------------------------------------------
    1      B       0.0000000000     0.0000000000     0.0000000000
    2      F       0.0000000000     0.0000000000     1.3157000000
    3      H       0.0000000000     1.0599000000    -0.5569000000
    4      H       0.0000000000    -1.0599000000    -0.5569000000
 ----------------------------------------------------------------
 Nuclear Repulsion Energy =    27.1952060366 hartrees
 There are        8 alpha and        8 beta electrons
 Requested basis set is aug-cc-pCVQZ
 There are 86 shells and 310 basis functions
 Total memory of 128000MB is distributed as follows: 
   QALLOC including MEM_STATIC uses 32000MB
   MEM_STATIC is set to 1500MB
   CCMAN JOB total memory use is  96000MB
 Warning: actual memory use might exceed 128000MB

 Total QAlloc Memory Limit  32000 MB
 Mega-Array Size      1467 MB
 MEM_STATIC part      1500 MB

                       Distance Matrix (Angstroms)
             B (  1)   F (  2)   H (  3)
   F (  2)  1.315700
   H (  3)  1.197299  2.151748
   H (  4)  1.197299  2.151748  2.119800
 
 Applying Cartesian multipole field
    Component          Value
    ---------          -----
     (2,0,0)        1.00000E-04
 A cutoff of  1.0D-14 yielded   3667 shell pairs
 There are     48209 function pairs (     75878 Cartesian)
 
 -------------------------------------------------------
 OpenMP Integral Computing Module                       
 Release: version 1.0, May 2013, Q-Chem Inc. Pittsburgh 
 -------------------------------------------------------
 Integral Job Info:
 Integral job number is                      11
 Integral operator is                         1
 short-range coefficients                     0
 long-range coefficients              100000000
 Omega coefficients                           0
 if combine SR and LR in K                    0
 Integral screening is                        0
 Integral computing path is                   2
 max size of driver memory is           3200000
 size of driver memory is               1704330
 size of scratch memory is             18511652
 max col of scratch BK array              50625
 max len of scratch array in speh3         2114
 max len of scratch index in speh4           50
 max int batch size is                      520
 min int batch size is                       52
 fixed nKL is                                52
 max L of basis functions is                  4
 order of int derivative is                   0
 number of shells is                         86
 number of basis is                         388
 number of cartesian basis is               388
 number of contracted shell pairs          3667
 number of primitive shell pairs           7233
 maxK2 (contraction) of shell pair           81
 max number of K2 of shell pair               1
 max number of CS2 of shell pair            482
 max number of PS2 of shell pair            720
 mem total for path MDJ                  738190
 -------------------------------------------------------
 Smallest overlap matrix eigenvalue = 3.12E-05
 Guess MOs from SCF MO coefficient file

 -----------------------------------------------------------------------
  General SCF calculation program by
  Eric Jon Sundstrom, Paul Horn, Yuezhi Mao, Dmitri Zuev, Alec White,
  David Stuck, Shaama M.S., Shane Yost, Joonho Lee, David Small,
  Daniel Levine, Susi Lehtola, Hugh Burton, Evgeny Epifanovsky
 -----------------------------------------------------------------------
 Hartree-Fock
 using 8 threads for integral computing
 -------------------------------------------------------
 OpenMP Integral computing Module                
 Release: version 2.0, May 2017, Q-Chem Inc. Pleasanton 
 -------------------------------------------------------
 A unrestricted SCF calculation will be
 performed using GDM
 SCF converges when RMS gradient is below 1.0e-08
 ---------------------------------------
  Cycle       Energy        RMS Gradient
 ---------------------------------------
    1    -125.3849438316      1.13e-04   Normal BFGS step
    2    -125.3849440148      3.60e-05   Normal BFGS step
    3    -125.3849440292      1.61e-05   Normal BFGS step
    4    -125.3849440315      2.03e-06   Normal BFGS step
    5    -125.3849440316      1.20e-06   Normal BFGS step
    6    -125.3849440316      1.55e-07   Normal BFGS step
    7    -125.3849440316      3.28e-08   Normal BFGS step
    8    -125.3849440316      4.49e-09  Convergence criterion met
 ---------------------------------------
 SCF time:   CPU 1643.51s  wall 206.00s 
<S^2> =         -0.000000000
 SCF   energy in the final basis set =     -125.3849440316
 Total energy in the final basis set =     -125.3849440316


 ------------------------------------------------------------------------------

   CCMAN2: suite of methods based on coupled cluster
           and equation of motion theories.

   Components:
   * libvmm-1.3-trunk
     by Evgeny Epifanovsky, Ilya Kaliman.
   * libtensor-2.5-trunk
     by Evgeny Epifanovsky, Michael Wormit, Dmitry Zuev, Sam Manzer, 
        Ilya Kaliman.
   * libcc-2.5-trunk
     by Evgeny Epifanovsky, Arik Landau, Tomasz Kus, Kirill Khistyaev, 
        Dmitry Zuev, Prashant Manohar, Xintian Feng, Anna Krylov, 
        Matthew Goldey, Alec White, Thomas Jagau, Kaushik Nanda, 
        Anastasia Gunina, Alexander Kunitsa, Joonho Lee.

   CCMAN original authors:
   Anna I. Krylov, C. David Sherrill, Steven R. Gwaltney,
   Edward F. C. Byrd (2000)
   Sergey V. Levchenko, Lyudmila V. Slipchenko, Tao Wang,
   Ana-Maria C. Cristian (2003)
   Piotr A. Pieniazek, C. Melania Oana, Evgeny Epifanovsky (2007)
   Prashant Manohar (2009)

 ------------------------------------------------------------------------------


 Calculation will run on 8 cores using libxm for tensor contractions

 ------------------------------------------------------------------------------
Libxm Tensor Library
Copyright (c) 2014-2018 Ilya Kaliman
https://github.com/ilyak/libxm
Reference: https://dx.doi.org/10.1002/jcc.24713
 ------------------------------------------------------------------------------

 
 Alpha MOs, Unrestricted
 -- Occupied --                  
-26.306  -7.665  -1.621  -0.795  -0.708  -0.677  -0.629  -0.488
  1 A     2 A     3 A     4 A     5 A     6 A     7 A     8 A                  
 -- Virtual --                   
  0.027   0.031   0.034   0.039   0.075   0.095   0.099   0.117
  9 A    10 A    11 A    12 A    13 A    14 A    15 A    16 A                  
  0.122   0.134   0.141   0.148   0.156   0.212   0.224   0.238
 17 A    18 A    19 A    20 A    21 A    22 A    23 A    24 A                  
  0.240   0.261   0.265   0.274   0.279   0.281   0.294   0.335
 25 A    26 A    27 A    28 A    29 A    30 A    31 A    32 A                  
  0.339   0.385   0.419   0.428   0.459   0.475   0.499   0.508
 33 A    34 A    35 A    36 A    37 A    38 A    39 A    40 A                  
  0.518   0.549   0.559   0.580   0.584   0.589   0.611   0.614
 41 A    42 A    43 A    44 A    45 A    46 A    47 A    48 A                  
  0.711   0.718   0.740   0.748   0.760   0.806   0.813   0.818
 49 A    50 A    51 A    52 A    53 A    54 A    55 A    56 A                  
  0.824   0.831   0.871   0.875   0.917   0.918   0.919   0.933
 57 A    58 A    59 A    60 A    61 A    62 A    63 A    64 A                  
  0.951   0.986   1.042   1.131   1.137   1.170   1.174   1.235
 65 A    66 A    67 A    68 A    69 A    70 A    71 A    72 A                  
  1.239   1.255   1.269   1.283   1.446   1.478   1.483   1.501
 73 A    74 A    75 A    76 A    77 A    78 A    79 A    80 A                  
  1.508   1.515   1.524   1.549   1.550   1.588   1.593   1.629
 81 A    82 A    83 A    84 A    85 A    86 A    87 A    88 A                  
  1.657   1.685   1.803   1.804   1.810   1.820   1.867   1.891
 89 A    90 A    91 A    92 A    93 A    94 A    95 A    96 A                  
  1.897   1.930   1.946   1.975   1.993   2.023   2.045   2.108
 97 A    98 A    99 A   100 A   101 A   102 A   103 A   104 A                  
  2.111   2.124   2.140   2.182   2.212   2.220   2.248   2.297
105 A   106 A   107 A   108 A   109 A   110 A   111 A   112 A                  
  2.305   2.340   2.373   2.374   2.435   2.454   2.470   2.491
113 A   114 A   115 A   116 A   117 A   118 A   119 A   120 A                  
  2.594   2.671   2.769   2.821   2.847   2.906   2.937   2.996
121 A   122 A   123 A   124 A   125 A   126 A   127 A   128 A                  
  3.034   3.143   3.172   3.245   3.262   3.323   3.328   3.348
129 A   130 A   131 A   132 A   133 A   134 A   135 A   136 A                  
  3.358   3.381   3.535   3.543   3.563   3.587   3.712   3.797
137 A   138 A   139 A   140 A   141 A   142 A   143 A   144 A                  
  3.974   3.980   4.047   4.111   4.122   4.146   4.150   4.167
145 A   146 A   147 A   148 A   149 A   150 A   151 A   152 A                  
  4.224   4.241   4.297   4.318   4.372   4.430   4.539   4.662
153 A   154 A   155 A   156 A   157 A   158 A   159 A   160 A                  
  4.733   4.793   4.863   4.867   4.943   5.159   5.187   5.239
161 A   162 A   163 A   164 A   165 A   166 A   167 A   168 A                  
  5.242   5.252   5.350   5.391   5.504   5.549   5.657   5.712
169 A   170 A   171 A   172 A   173 A   174 A   175 A   176 A                  
  5.747   5.752   5.781   5.865   5.919   5.927   6.038   6.101
177 A   178 A   179 A   180 A   181 A   182 A   183 A   184 A                  
  6.153   6.439   6.466   6.541   6.697   6.703   6.807   6.888
185 A   186 A   187 A   188 A   189 A   190 A   191 A   192 A                  
  6.898   6.902   7.160   7.184   7.290   7.430   7.451   7.579
193 A   194 A   195 A   196 A   197 A   198 A   199 A   200 A                  
  7.621   7.807   7.831   7.958   8.060   8.120   8.248   8.414
201 A   202 A   203 A   204 A   205 A   206 A   207 A   208 A                  
  8.476   8.728   8.791   8.965   8.988   9.171   9.178   9.220
209 A   210 A   211 A   212 A   213 A   214 A   215 A   216 A                  
  9.364   9.408   9.514   9.591   9.854   9.884   9.950  10.312
217 A   218 A   219 A   220 A   221 A   222 A   223 A   224 A                  
 10.450  11.400  11.790  12.392  12.895  13.196  13.600  13.715
225 A   226 A   227 A   228 A   229 A   230 A   231 A   232 A                  
 13.723  13.909  13.922  14.076  14.078  14.118  14.175  14.224
233 A   234 A   235 A   236 A   237 A   238 A   239 A   240 A                  
 14.587  14.813  15.963  15.973  16.161  16.301  16.361  16.721
241 A   242 A   243 A   244 A   245 A   246 A   247 A   248 A                  
 16.724  17.031  17.119  17.335  17.571  17.787  19.952  20.159
249 A   250 A   251 A   252 A   253 A   254 A   255 A   256 A                  
 20.726  21.037  21.138  22.832  26.144  42.045  42.402  43.119
257 A   258 A   259 A   260 A   261 A   262 A   263 A   264 A                  
 45.219  46.400  46.453  60.525  60.575  60.696  60.816  61.009
265 A   266 A   267 A   268 A   269 A   270 A   271 A   272 A                  
 75.955  75.956  75.956  75.962  75.962  75.995  76.008  80.644
273 A   274 A   275 A   276 A   277 A   278 A   279 A   280 A                  
 84.488  86.244  86.331  86.779  86.827  86.970  98.124  98.125
281 A   282 A   283 A   284 A   285 A   286 A   287 A   288 A                  
 98.157  98.171  98.200  98.249  98.262 145.889 146.167 146.741
289 A   290 A   291 A   292 A   293 A   294 A   295 A   296 A                  
152.481 153.445 153.481 251.362 251.389 251.457 251.520 251.623
297 A   298 A   299 A   300 A   301 A   302 A   303 A   304 A                  
271.196 350.063 494.027 494.248 494.7111115.957
305 A   306 A   307 A   308 A   309 A   310 A                                  
 
 Beta MOs, Unrestricted
 -- Occupied --                  
-26.306  -7.665  -1.621  -0.795  -0.708  -0.677  -0.629  -0.488
  1 A     2 A     3 A     4 A     5 A     6 A     7 A     8 A                  
 -- Virtual --                   
  0.027   0.031   0.034   0.039   0.075   0.095   0.099   0.117
  9 A    10 A    11 A    12 A    13 A    14 A    15 A    16 A                  
  0.122   0.134   0.141   0.148   0.156   0.212   0.224   0.238
 17 A    18 A    19 A    20 A    21 A    22 A    23 A    24 A                  
  0.240   0.261   0.265   0.274   0.279   0.281   0.294   0.335
 25 A    26 A    27 A    28 A    29 A    30 A    31 A    32 A                  
  0.339   0.385   0.419   0.428   0.459   0.475   0.499   0.508
 33 A    34 A    35 A    36 A    37 A    38 A    39 A    40 A                  
  0.518   0.549   0.559   0.580   0.584   0.589   0.611   0.614
 41 A    42 A    43 A    44 A    45 A    46 A    47 A    48 A                  
  0.711   0.718   0.740   0.748   0.760   0.806   0.813   0.818
 49 A    50 A    51 A    52 A    53 A    54 A    55 A    56 A                  
  0.824   0.831   0.871   0.875   0.917   0.918   0.919   0.933
 57 A    58 A    59 A    60 A    61 A    62 A    63 A    64 A                  
  0.951   0.986   1.042   1.131   1.137   1.170   1.174   1.235
 65 A    66 A    67 A    68 A    69 A    70 A    71 A    72 A                  
  1.239   1.255   1.269   1.283   1.446   1.478   1.483   1.501
 73 A    74 A    75 A    76 A    77 A    78 A    79 A    80 A                  
  1.508   1.515   1.524   1.549   1.550   1.588   1.593   1.629
 81 A    82 A    83 A    84 A    85 A    86 A    87 A    88 A                  
  1.657   1.685   1.803   1.804   1.810   1.820   1.867   1.891
 89 A    90 A    91 A    92 A    93 A    94 A    95 A    96 A                  
  1.897   1.930   1.946   1.975   1.993   2.023   2.045   2.108
 97 A    98 A    99 A   100 A   101 A   102 A   103 A   104 A                  
  2.111   2.124   2.140   2.182   2.212   2.220   2.248   2.297
105 A   106 A   107 A   108 A   109 A   110 A   111 A   112 A                  
  2.305   2.340   2.373   2.374   2.435   2.454   2.470   2.491
113 A   114 A   115 A   116 A   117 A   118 A   119 A   120 A                  
  2.594   2.671   2.769   2.821   2.847   2.906   2.937   2.996
121 A   122 A   123 A   124 A   125 A   126 A   127 A   128 A                  
  3.034   3.143   3.172   3.245   3.262   3.323   3.328   3.348
129 A   130 A   131 A   132 A   133 A   134 A   135 A   136 A                  
  3.358   3.381   3.535   3.543   3.563   3.587   3.712   3.797
137 A   138 A   139 A   140 A   141 A   142 A   143 A   144 A                  
  3.974   3.980   4.047   4.111   4.122   4.146   4.150   4.167
145 A   146 A   147 A   148 A   149 A   150 A   151 A   152 A                  
  4.224   4.241   4.297   4.318   4.372   4.430   4.539   4.662
153 A   154 A   155 A   156 A   157 A   158 A   159 A   160 A                  
  4.733   4.793   4.863   4.867   4.943   5.159   5.187   5.239
161 A   162 A   163 A   164 A   165 A   166 A   167 A   168 A                  
  5.242   5.252   5.350   5.391   5.504   5.549   5.657   5.712
169 A   170 A   171 A   172 A   173 A   174 A   175 A   176 A                  
  5.747   5.752   5.781   5.865   5.919   5.927   6.038   6.101
177 A   178 A   179 A   180 A   181 A   182 A   183 A   184 A                  
  6.153   6.439   6.466   6.541   6.697   6.703   6.807   6.888
185 A   186 A   187 A   188 A   189 A   190 A   191 A   192 A                  
  6.898   6.902   7.160   7.184   7.290   7.430   7.451   7.579
193 A   194 A   195 A   196 A   197 A   198 A   199 A   200 A                  
  7.621   7.807   7.831   7.958   8.060   8.120   8.248   8.414
201 A   202 A   203 A   204 A   205 A   206 A   207 A   208 A                  
  8.476   8.728   8.791   8.965   8.988   9.171   9.178   9.220
209 A   210 A   211 A   212 A   213 A   214 A   215 A   216 A                  
  9.364   9.408   9.514   9.591   9.854   9.884   9.950  10.312
217 A   218 A   219 A   220 A   221 A   222 A   223 A   224 A                  
 10.450  11.400  11.790  12.392  12.895  13.196  13.600  13.715
225 A   226 A   227 A   228 A   229 A   230 A   231 A   232 A                  
 13.723  13.909  13.922  14.076  14.078  14.118  14.175  14.224
233 A   234 A   235 A   236 A   237 A   238 A   239 A   240 A                  
 14.587  14.813  15.963  15.973  16.161  16.301  16.361  16.721
241 A   242 A   243 A   244 A   245 A   246 A   247 A   248 A                  
 16.724  17.031  17.119  17.335  17.571  17.787  19.952  20.159
249 A   250 A   251 A   252 A   253 A   254 A   255 A   256 A                  
 20.726  21.037  21.138  22.832  26.144  42.045  42.402  43.119
257 A   258 A   259 A   260 A   261 A   262 A   263 A   264 A                  
 45.219  46.400  46.453  60.525  60.575  60.696  60.816  61.009
265 A   266 A   267 A   268 A   269 A   270 A   271 A   272 A                  
 75.955  75.956  75.956  75.962  75.962  75.995  76.008  80.644
273 A   274 A   275 A   276 A   277 A   278 A   279 A   280 A                  
 84.488  86.244  86.331  86.779  86.827  86.970  98.124  98.125
281 A   282 A   283 A   284 A   285 A   286 A   287 A   288 A                  
 98.157  98.171  98.200  98.249  98.262 145.889 146.167 146.741
289 A   290 A   291 A   292 A   293 A   294 A   295 A   296 A                  
152.481 153.445 153.481 251.362 251.389 251.457 251.520 251.623
297 A   298 A   299 A   300 A   301 A   302 A   303 A   304 A                  
271.196 350.063 494.027 494.248 494.7111115.957
305 A   306 A   307 A   308 A   309 A   310 A                                  

 Occupation and symmetry of molecular orbitals

 Point group: C1 (1 irreducible representation).

                           A     All 
 -------------------------------------
 All molecular orbitals:
  - Alpha                  310   310 
  - Beta                   310   310 
 -------------------------------------
 Alpha orbitals:
  - Frozen occupied        0     0   
  - Active occupied        8     8   
  - Active virtual         302   302 
  - Frozen virtual         0     0   
 -------------------------------------
 Beta orbitals:
  - Frozen occupied        0     0   
  - Active occupied        8     8   
  - Active virtual         302   302 
  - Frozen virtual         0     0   
 -------------------------------------

 Import integrals:   CPU 0.00 s  wall 0.00 s

 Import integrals:   CPU 9664.45 s  wall 2392.77 s

 MP2 amplitudes:   CPU 10.30 s  wall 14.29 s

Running a double precision version
           CCSD T amplitudes will be solved using DIIS.

           Start     Size      MaxIter   EConv     TConv     
           3         7         100       1.00e-06  1.00e-04  
 ------------------------------------------------------------------------------
           Energy (a.u.)   Ediff      Tdiff       Comment
 ------------------------------------------------------------------------------
          -125.88866100                           
     1    -125.89043946   1.78e-03   4.80e-01     Step took 07.38.
     2    -125.90050597   1.01e-02   6.34e-02     
     3    -125.90042191   8.41e-05   2.34e-02     
     4    -125.90124041   8.18e-04   8.74e-03     Switched to DIIS steps.
     5    -125.90152844   2.88e-04   4.99e-03     
     6    -125.90153525   6.81e-06   8.92e-04     
     7    -125.90153891   3.66e-06   5.39e-04     
     8    -125.90154027   1.36e-06   1.24e-04     
     9    -125.90154056   2.83e-07   4.90e-05     
 ------------------------------------------------------------------------------
          -125.90154056                           CCSD T converged.

End of double precision

----------------------------------------
libpt (c) 2016-2018 Ilya Kaliman
Fast Coupled Cluster Triples Corrections
https://github.com/ilyak/libpt
----------------------------------------

 Starting (T) calculation...
 Using double precision libpt code
 (T) calculation completed in 867 sec
 (T) energy is -0.0129940052

 SCF energy                 = -125.38494403
 MP2 energy                 = -125.88866100
 CCSD correlation energy     =   -0.51659653
 CCSD total energy           = -125.90154056
 CCSD(T) correlation energy =   -0.01299401
 CCSD(T) total energy       = -125.91453456

 CCSD  T1^2 = 0.0039  T2^2 = 0.0972  Leading amplitudes:

 Amplitude    Orbitals with energies
 -0.0242       6 (A) B                   ->    14 (A) B                   
              -0.6766                          0.0946                     
 -0.0242       6 (A) A                   ->    14 (A) A                   
              -0.6766                          0.0946                     
 -0.0148       6 (A) B                   ->    19 (A) B                   
              -0.6766                          0.1413                     
 -0.0148       6 (A) A                   ->    19 (A) A                   
              -0.6766                          0.1413                     

 Amplitude    Orbitals with energies
  0.0195       7 (A) A       7 (A) B     ->    14 (A) A      14 (A) B     
              -0.6285       -0.6285            0.0946        0.0946       
 -0.0195       7 (A) A       7 (A) B     ->    14 (A) B      14 (A) A     
              -0.6285       -0.6285            0.0946        0.0946       
 -0.0195       7 (A) B       7 (A) A     ->    14 (A) A      14 (A) B     
              -0.6285       -0.6285            0.0946        0.0946       
  0.0195       7 (A) B       7 (A) A     ->    14 (A) B      14 (A) A     
              -0.6285       -0.6285            0.0946        0.0946       

 CCSD calculation:   CPU 13396.82 s  wall 5327.60 s

 Total ccman2 time:   CPU 23208.61 s  wall 8006.95 s

 
 --------------------------------------------------------------
 
                    Orbital Energies (a.u.)
 --------------------------------------------------------------
 
 Alpha MOs
 -- Occupied --
-26.306  -7.665  -1.621  -0.795  -0.708  -0.677  -0.629  -0.488
 -- Virtual --
  0.027   0.031   0.034   0.039   0.075   0.095   0.099   0.117
  0.122   0.134   0.141   0.148   0.156   0.212   0.224   0.238
  0.240   0.261   0.265   0.274   0.279   0.281   0.294   0.335
  0.339   0.385   0.419   0.428   0.459   0.475   0.499   0.508
  0.518   0.549   0.559   0.580   0.584   0.589   0.611   0.614
  0.711   0.718   0.740   0.748   0.760   0.806   0.813   0.818
  0.824   0.831   0.871   0.875   0.917   0.918   0.919   0.933
  0.951   0.986   1.042   1.131   1.137   1.170   1.174   1.235
  1.239   1.255   1.269   1.283   1.446   1.478   1.483   1.501
  1.508   1.515   1.524   1.549   1.550   1.588   1.593   1.629
  1.657   1.685   1.803   1.804   1.810   1.820   1.867   1.891
  1.897   1.930   1.946   1.975   1.993   2.023   2.045   2.108
  2.111   2.124   2.140   2.182   2.212   2.220   2.248   2.297
  2.305   2.340   2.373   2.374   2.435   2.454   2.470   2.491
  2.594   2.671   2.769   2.821   2.847   2.906   2.937   2.996
  3.034   3.143   3.172   3.245   3.262   3.323   3.328   3.348
  3.358   3.381   3.535   3.543   3.563   3.587   3.712   3.797
  3.974   3.980   4.047   4.111   4.122   4.146   4.150   4.167
  4.224   4.241   4.297   4.318   4.372   4.430   4.539   4.662
  4.733   4.793   4.863   4.867   4.943   5.159   5.187   5.239
  5.242   5.252   5.350   5.391   5.504   5.549   5.657   5.712
  5.747   5.752   5.781   5.865   5.919   5.927   6.038   6.101
  6.153   6.439   6.466   6.541   6.697   6.703   6.807   6.888
  6.898   6.902   7.160   7.184   7.290   7.430   7.451   7.579
  7.621   7.807   7.831   7.958   8.060   8.120   8.248   8.414
  8.476   8.728   8.791   8.965   8.988   9.171   9.178   9.220
  9.364   9.408   9.514   9.591   9.854   9.884   9.950  10.312
 10.450  11.400  11.790  12.392  12.895  13.196  13.600  13.715
 13.723  13.909  13.922  14.076  14.078  14.118  14.175  14.224
 14.587  14.813  15.963  15.973  16.161  16.301  16.361  16.721
 16.724  17.031  17.119  17.335  17.571  17.787  19.952  20.159
 20.726  21.037  21.138  22.832  26.144  42.045  42.402  43.119
 45.219  46.400  46.453  60.525  60.575  60.696  60.816  61.009
 75.955  75.956  75.956  75.962  75.962  75.995  76.008  80.644
 84.488  86.244  86.331  86.779  86.827  86.970  98.124  98.125
 98.157  98.171  98.200  98.249  98.262 145.889 146.167 146.741
152.481 153.445 153.481 251.362 251.389 251.457 251.520 251.623
271.196 350.063 494.027 494.248 494.7111115.957
 
 Beta MOs
 -- Occupied --
-26.306  -7.665  -1.621  -0.795  -0.708  -0.677  -0.629  -0.488
 -- Virtual --
  0.027   0.031   0.034   0.039   0.075   0.095   0.099   0.117
  0.122   0.134   0.141   0.148   0.156   0.212   0.224   0.238
  0.240   0.261   0.265   0.274   0.279   0.281   0.294   0.335
  0.339   0.385   0.419   0.428   0.459   0.475   0.499   0.508
  0.518   0.549   0.559   0.580   0.584   0.589   0.611   0.614
  0.711   0.718   0.740   0.748   0.760   0.806   0.813   0.818
  0.824   0.831   0.871   0.875   0.917   0.918   0.919   0.933
  0.951   0.986   1.042   1.131   1.137   1.170   1.174   1.235
  1.239   1.255   1.269   1.283   1.446   1.478   1.483   1.501
  1.508   1.515   1.524   1.549   1.550   1.588   1.593   1.629
  1.657   1.685   1.803   1.804   1.810   1.820   1.867   1.891
  1.897   1.930   1.946   1.975   1.993   2.023   2.045   2.108
  2.111   2.124   2.140   2.182   2.212   2.220   2.248   2.297
  2.305   2.340   2.373   2.374   2.435   2.454   2.470   2.491
  2.594   2.671   2.769   2.821   2.847   2.906   2.937   2.996
  3.034   3.143   3.172   3.245   3.262   3.323   3.328   3.348
  3.358   3.381   3.535   3.543   3.563   3.587   3.712   3.797
  3.974   3.980   4.047   4.111   4.122   4.146   4.150   4.167
  4.224   4.241   4.297   4.318   4.372   4.430   4.539   4.662
  4.733   4.793   4.863   4.867   4.943   5.159   5.187   5.239
  5.242   5.252   5.350   5.391   5.504   5.549   5.657   5.712
  5.747   5.752   5.781   5.865   5.919   5.927   6.038   6.101
  6.153   6.439   6.466   6.541   6.697   6.703   6.807   6.888
  6.898   6.902   7.160   7.184   7.290   7.430   7.451   7.579
  7.621   7.807   7.831   7.958   8.060   8.120   8.248   8.414
  8.476   8.728   8.791   8.965   8.988   9.171   9.178   9.220
  9.364   9.408   9.514   9.591   9.854   9.884   9.950  10.312
 10.450  11.400  11.790  12.392  12.895  13.196  13.600  13.715
 13.723  13.909  13.922  14.076  14.078  14.118  14.175  14.224
 14.587  14.813  15.963  15.973  16.161  16.301  16.361  16.721
 16.724  17.031  17.119  17.335  17.571  17.787  19.952  20.159
 20.726  21.037  21.138  22.832  26.144  42.045  42.402  43.119
 45.219  46.400  46.453  60.525  60.575  60.696  60.816  61.009
 75.955  75.956  75.956  75.962  75.962  75.995  76.008  80.644
 84.488  86.244  86.331  86.779  86.827  86.970  98.124  98.125
 98.157  98.171  98.200  98.249  98.262 145.889 146.167 146.741
152.481 153.445 153.481 251.362 251.389 251.457 251.520 251.623
271.196 350.063 494.027 494.248 494.7111115.957
 --------------------------------------------------------------
 
          Ground-State Mulliken Net Atomic Charges

     Atom                 Charge (a.u.)    Spin (a.u.)
  --------------------------------------------------------
      1 B                     0.794600      -0.000000
      2 F                    -0.596481       0.000000
      3 H                    -0.099059       0.000000
      4 H                    -0.099059       0.000000
  --------------------------------------------------------
  Sum of atomic charges =    -0.000000
  Sum of spin   charges =    -0.000000

 -----------------------------------------------------------------
                    Cartesian Multipole Moments
 -----------------------------------------------------------------
    Charge (ESU x 10^10)
                -0.0000
    Dipole Moment (Debye)
         X      -0.0000      Y       0.0000      Z      -1.0131
       Tot       1.0131
    Quadrupole Moments (Debye-Ang)
        XX     -10.6924     XY      -0.0000     YY     -12.6251
        XZ      -0.0000     YZ      -0.0000     ZZ     -14.5538
    Octopole Moments (Debye-Ang^2)
       XXX       0.0000    XXY      -0.0000    XYY      -0.0000
       YYY      -0.0000    XXZ      -5.0689    XYZ       0.0000
       YYZ      -4.8845    XZZ      -0.0000    YZZ       0.0000
       ZZZ     -18.4948
    Hexadecapole Moments (Debye-Ang^3)
      XXXX      -8.9040   XXXY      -0.0000   XXYY      -6.0877
      XYYY      -0.0000   YYYY     -25.5351   XXXZ      -0.0000
      XXYZ      -0.0000   XYYZ      -0.0000   YYYZ      -0.0000
      XXZZ     -12.6820   XYZZ      -0.0000   YYZZ     -15.3007
      XZZZ      -0.0000   YZZZ      -0.0000   ZZZZ     -69.5366
 -----------------------------------------------------------------
Archival summary:
1\1\n0046.mhg0\SP\ProcedureUnspecified\BasisUnspecified\112\yhljason\TueAug405:24:532020TueAug405:24:532020\0\\#,ProcedureUnspecified,BasisUnspecified,\\0,1\F\B,1,1.3157\H,2,1.1973,1,117.719\H,2,1.1973,1,117.719,3,-180,0\\HF=-125.384944\\@

 Total job time:  8294.96s(wall), 24868.71s(cpu) 
 Tue Aug  4 05:24:53 2020

        *************************************************************
        *                                                           *
        *  Thank you very much for using Q-Chem.  Have a nice day.  *
        *                                                           *
        *************************************************************


 
User input: 3 of 7 
 
Q-Chem Developer Version!
                  Welcome to Q-Chem
     A Quantum Leap Into The Future Of Chemistry


 Q-Chem 5.1, Q-Chem, Inc., Pleasanton, CA (2018)

 Yihan Shao,  Zhengting Gan,  E. Epifanovsky,  A. T. B. Gilbert,  M. Wormit,  
 J. Kussmann,  A. W. Lange,  A. Behn,  Jia Deng,  Xintian Feng,  D. Ghosh,  
 M. Goldey,  P. R. Horn,  L. D. Jacobson,  I. Kaliman,  T. Kus,  A. Landau,  
 Jie Liu,  E. I. Proynov,  R. M. Richard,  R. P. Steele,  E. J. Sundstrom,  
 H. L. Woodcock III,  P. M. Zimmerman,  D. Zuev,  B. Albrecht,  E. Alguire,  
 S. A. Baeppler,  D. Barton,  Z. Benda,  Y. A. Bernard,  E. J. Berquist,  
 K. B. Bravaya,  H. Burton,  D. Casanova,  Chun-Min Chang,  Yunqing Chen,  
 A. Chien,  K. D. Closser,  M. P. Coons,  S. Coriani,  S. Dasgupta,  
 A. L. Dempwolff,  M. Diedenhofen,  Hainam Do,  R. G. Edgar,  Po-Tung Fang,  
 S. Faraji,  S. Fatehi,  Qingguo Feng,  K. D. Fenk,  J. Fosso-Tande,  
 Qinghui Ge,  A. Ghysels,  G. Gidofalvi,  J. Gomes,  J. Gonthier,  A. Gunina,  
 D. Hait,  M. W. D. Hanson-Heine,  P. H. P. Harbach,  A. W. Hauser,  
 J. E. Herr,  E. G. Hohenstein,  Z. C. Holden,  Kerwin Hui,  B. C. Huynh,  
 T.-C. Jagau,  Hyunjun Ji,  B. Kaduk,  K. Khistyaev,  Jaehoon Kim,  
 P. Klunzinger,  K. Koh,  D. Kosenkov,  L. Koulias,  T. Kowalczyk,  
 C. M. Krauter,  A. Kunitsa,  Ka Un Lao,  A. Laurent,  K. V. Lawler,  
 Joonho Lee,  D. Lefrancois,  S. Lehtola,  D. S. Levine,  Yi-Pei Li,  
 You-Sheng Lin,  Fenglai Liu,  E. Livshits,  A. Luenser,  P. Manohar,  
 E. Mansoor,  S. F. Manzer,  Shan-Ping Mao,  Yuezhi Mao,  N. Mardirossian,  
 A. V. Marenich,  T. Markovich,  L. A. Martinez-Martinez,  S. A. Maurer,  
 N. J. Mayhall,  S. C. McKenzie,  J.-M. Mewes,  A. F. Morrison,  
 J. W. Mullinax,  K. Nanda,  T. S. Nguyen-Beck,  R. Olivares-Amaya,  
 J. A. Parkhill,  T. M. Perrine,  F. Plasser,  P. Pokhilko,  S. Prager,  
 A. Prociuk,  E. Ramos,  D. R. Rehn,  F. Rob,  M. Schneider,  N. Sergueev,  
 S. M. Sharada,  S. Sharma,  D. W. Small,  T. Stauch,  T. Stein,  
 Yu-Chuan Su,  A. J. W. Thom,  A. Tkatchenko,  T. Tsuchimochi,  N. M. Tubman,  
 L. Vogt,  M. L. Vidal,  O. Vydrov,  M. A. Watson,  J. Wenzel,  
 M. de Wergifosse,  T. A. Wesolowski,  A. White,  J. Witte,  A. Yamada,  
 Jun Yang,  K. Yao,  S. Yeganeh,  S. R. Yost,  Zhi-Qiang You,  A. Zech,  
 Igor Ying Zhang,  Xing Zhang,  Yan Zhao,  Ying Zhu,  B. R. Brooks,  
 G. K. L. Chan,  C. J. Cramer,  M. S. Gordon,  W. J. Hehre,  A. Klamt,  
 M. W. Schmidt,  C. D. Sherrill,  D. G. Truhlar,  A. Aspuru-Guzik,  R. Baer,  
 A. T. Bell,  N. A. Besley,  Jeng-Da Chai,  A. E. DePrince, III,  
 R. A. DiStasio Jr.,  A. Dreuw,  B. D. Dunietz,  T. R. Furlani,  
 Chao-Ping Hsu,  Yousung Jung,  Jing Kong,  D. S. Lambrecht,  WanZhen Liang,  
 C. Ochsenfeld,  V. A. Rassolov,  L. V. Slipchenko,  J. E. Subotnik,  
 T. Van Voorhis,  J. M. Herbert,  A. I. Krylov,  P. M. W. Gill,  M. Head-Gordon

 Contributors to earlier versions of Q-Chem not listed above: 
 R. D. Adamson,  B. Austin,  J. Baker,  G. J. O. Beran,  K. Brandhorst,  
 S. T. Brown,  E. F. C. Byrd,  A. K. Chakraborty,  C.-L. Cheng,  
 Siu Hung Chien,  D. M. Chipman,  D. L. Crittenden,  H. Dachsel,  
 R. J. Doerksen,  A. D. Dutoi,  L. Fusti-Molnar,  W. A. Goddard III,  
 A. Golubeva-Zadorozhnaya,  S. R. Gwaltney,  G. Hawkins,  A. Heyden,  
 S. Hirata,  G. Kedziora,  F. J. Keil,  C. Kelley,  Jihan Kim,  R. A. King,  
 R. Z. Khaliullin,  P. P. Korambath,  W. Kurlancheek,  A. M. Lee,  M. S. Lee,  
 S. V. Levchenko,  Ching Yeh Lin,  D. Liotard,  R. C. Lochan,  I. Lotan,  
 P. E. Maslen,  N. Nair,  D. P. O'Neill,  D. Neuhauser,  E. Neuscamman,  
 C. M. Oana,  R. Olson,  B. Peters,  R. Peverati,  P. A. Pieniazek,  
 Y. M. Rhee,  J. Ritchie,  M. A. Rohrdanz,  E. Rosta,  N. J. Russ,  
 H. F. Schaefer III,  N. E. Schultz,  N. Shenvi,  A. C. Simmonett,  A. Sodt,  
 D. Stuck,  K. S. Thanthiriwatte,  V. Vanovschi,  Tao Wang,  A. Warshel,  
 C. F. Williams,  Q. Wu,  X. Xu,  W. Zhang

 Please cite Q-Chem as follows:
 Y. Shao et al., Mol. Phys. 113, 184-215 (2015)
 DOI: 10.1080/00268976.2014.952696

 Q-Chem 5.1.1 for Intel X86 EM64T Linux

 Parts of Q-Chem use Armadillo 8.300.2 (Tropical Shenanigans).
 http://arma.sourceforge.net/

 Q-Chem begins on Tue Aug  4 05:24:53 2020  

Host: n0046.mhg0
0

     Scratch files written to /local/scratch/users/yhljason/BH2F_ccsdT_aug-cc-pcVQZ.inp20200803231131//
The previous job contains 0 fragments, simply inherited here
Input Ideriv = 0
Curr. Ideriv = -1
Max.  Ideriv = 0

Checking the input file for inconsistencies... 	...done.

--------------------------------------------------------------
User input:
--------------------------------------------------------------
$molecule
read
$end

$rem

jobtype sp
method CCSD(T)
xc_grid 000099000590
basis aug-cc-pcVQZ
max_scf_cycles 200
thresh 14
scf_convergence 8
mem_total 128000
cc_memory 96000
cc_backend xm
mem_static 1500
symmetry false
sym_ignore true
scf_guess read
unrestricted true
scf_algorithm gdm
n_frozen_core 0
$end

$multipole_field
XX -0.0001
$end


--------------------------------------------------------------
 ----------------------------------------------------------------
             Standard Nuclear Orientation (Angstroms)
    I     Atom           X                Y                Z
 ----------------------------------------------------------------
    1      B       0.0000000000     0.0000000000     0.0000000000
    2      F       0.0000000000     0.0000000000     1.3157000000
    3      H       0.0000000000     1.0599000000    -0.5569000000
    4      H       0.0000000000    -1.0599000000    -0.5569000000
 ----------------------------------------------------------------
 Nuclear Repulsion Energy =    27.1952060366 hartrees
 There are        8 alpha and        8 beta electrons
 Requested basis set is aug-cc-pCVQZ
 There are 86 shells and 310 basis functions
 Total memory of 128000MB is distributed as follows: 
   QALLOC including MEM_STATIC uses 32000MB
   MEM_STATIC is set to 1500MB
   CCMAN JOB total memory use is  96000MB
 Warning: actual memory use might exceed 128000MB

 Total QAlloc Memory Limit  32000 MB
 Mega-Array Size      1467 MB
 MEM_STATIC part      1500 MB

                       Distance Matrix (Angstroms)
             B (  1)   F (  2)   H (  3)
   F (  2)  1.315700
   H (  3)  1.197299  2.151748
   H (  4)  1.197299  2.151748  2.119800
 
 Applying Cartesian multipole field
    Component          Value
    ---------          -----
     (2,0,0)       -1.00000E-04
 A cutoff of  1.0D-14 yielded   3667 shell pairs
 There are     48209 function pairs (     75878 Cartesian)
 
 -------------------------------------------------------
 OpenMP Integral Computing Module                       
 Release: version 1.0, May 2013, Q-Chem Inc. Pittsburgh 
 -------------------------------------------------------
 Integral Job Info:
 Integral job number is                      11
 Integral operator is                         1
 short-range coefficients                     0
 long-range coefficients              100000000
 Omega coefficients                           0
 if combine SR and LR in K                    0
 Integral screening is                        0
 Integral computing path is                   2
 max size of driver memory is           3200000
 size of driver memory is               1704330
 size of scratch memory is             18511652
 max col of scratch BK array              50625
 max len of scratch array in speh3         2114
 max len of scratch index in speh4           50
 max int batch size is                      520
 min int batch size is                       52
 fixed nKL is                                52
 max L of basis functions is                  4
 order of int derivative is                   0
 number of shells is                         86
 number of basis is                         388
 number of cartesian basis is               388
 number of contracted shell pairs          3667
 number of primitive shell pairs           7233
 maxK2 (contraction) of shell pair           81
 max number of K2 of shell pair               1
 max number of CS2 of shell pair            482
 max number of PS2 of shell pair            720
 mem total for path MDJ                  738190
[...]
169 A   170 A   171 A   172 A   173 A   174 A   175 A   176 A                  
  5.748   5.753   5.782   5.866   5.920   5.928   6.039   6.102
177 A   178 A   179 A   180 A   181 A   182 A   183 A   184 A                  
  6.154   6.439   6.467   6.542   6.698   6.704   6.808   6.889
185 A   186 A   187 A   188 A   189 A   190 A   191 A   192 A                  
  6.898   6.903   7.160   7.185   7.291   7.431   7.451   7.580
193 A   194 A   195 A   196 A   197 A   198 A   199 A   200 A                  
  7.622   7.807   7.831   7.959   8.061   8.121   8.248   8.415
201 A   202 A   203 A   204 A   205 A   206 A   207 A   208 A                  
  8.477   8.729   8.791   8.966   8.989   9.172   9.178   9.220
209 A   210 A   211 A   212 A   213 A   214 A   215 A   216 A                  
  9.364   9.409   9.515   9.591   9.854   9.885   9.951  10.312
217 A   218 A   219 A   220 A   221 A   222 A   223 A   224 A                  
 10.450  11.401  11.790  12.393  12.896  13.196  13.601  13.716
225 A   226 A   227 A   228 A   229 A   230 A   231 A   232 A                  
 13.724  13.910  13.923  14.077  14.079  14.119  14.176  14.225
233 A   234 A   235 A   236 A   237 A   238 A   239 A   240 A                  
 14.587  14.814  15.964  15.974  16.162  16.302  16.362  16.722
241 A   242 A   243 A   244 A   245 A   246 A   247 A   248 A                  
 16.725  17.032  17.120  17.335  17.572  17.787  19.953  20.160
249 A   250 A   251 A   252 A   253 A   254 A   255 A   256 A                  
 20.727  21.038  21.138  22.833  26.144  42.046  42.403  43.120
257 A   258 A   259 A   260 A   261 A   262 A   263 A   264 A                  
 45.220  46.400  46.454  60.526  60.576  60.697  60.817  61.010
265 A   266 A   267 A   268 A   269 A   270 A   271 A   272 A                  
 75.956  75.957  75.957  75.963  75.963  75.995  76.009  80.645
273 A   274 A   275 A   276 A   277 A   278 A   279 A   280 A                  
 84.489  86.244  86.332  86.780  86.828  86.971  98.124  98.126
281 A   282 A   283 A   284 A   285 A   286 A   287 A   288 A                  
 98.158  98.172  98.201  98.250  98.263 145.890 146.168 146.742
289 A   290 A   291 A   292 A   293 A   294 A   295 A   296 A                  
152.482 153.446 153.481 251.363 251.390 251.458 251.521 251.624
297 A   298 A   299 A   300 A   301 A   302 A   303 A   304 A                  
271.197 350.063 494.028 494.249 494.7121115.958
305 A   306 A   307 A   308 A   309 A   310 A                                  
 
 Beta MOs, Unrestricted
 -- Occupied --                  
-26.305  -7.665  -1.620  -0.794  -0.707  -0.676  -0.628  -0.488
  1 A     2 A     3 A     4 A     5 A     6 A     7 A     8 A                  
 -- Virtual --                   
  0.032   0.036   0.039   0.046   0.080   0.098   0.102   0.121
  9 A    10 A    11 A    12 A    13 A    14 A    15 A    16 A                  
  0.125   0.138   0.145   0.151   0.160   0.215   0.227   0.242
 17 A    18 A    19 A    20 A    21 A    22 A    23 A    24 A                  
  0.243   0.264   0.268   0.277   0.282   0.283   0.297   0.338
 25 A    26 A    27 A    28 A    29 A    30 A    31 A    32 A                  
  0.342   0.388   0.421   0.430   0.461   0.477   0.500   0.510
 33 A    34 A    35 A    36 A    37 A    38 A    39 A    40 A                  
  0.520   0.552   0.561   0.582   0.586   0.590   0.612   0.616
 41 A    42 A    43 A    44 A    45 A    46 A    47 A    48 A                  
  0.712   0.720   0.741   0.750   0.761   0.807   0.814   0.820
 49 A    50 A    51 A    52 A    53 A    54 A    55 A    56 A                  
  0.826   0.832   0.872   0.876   0.918   0.919   0.921   0.934
 57 A    58 A    59 A    60 A    61 A    62 A    63 A    64 A                  
  0.953   0.987   1.043   1.133   1.138   1.171   1.175   1.236
 65 A    66 A    67 A    68 A    69 A    70 A    71 A    72 A                  
  1.241   1.256   1.270   1.284   1.448   1.480   1.484   1.502
 73 A    74 A    75 A    76 A    77 A    78 A    79 A    80 A                  
  1.510   1.516   1.525   1.550   1.551   1.589   1.594   1.630
 81 A    82 A    83 A    84 A    85 A    86 A    87 A    88 A                  
  1.658   1.686   1.804   1.805   1.811   1.821   1.868   1.892
 89 A    90 A    91 A    92 A    93 A    94 A    95 A    96 A                  
  1.898   1.931   1.947   1.976   1.994   2.024   2.046   2.109
 97 A    98 A    99 A   100 A   101 A   102 A   103 A   104 A                  
  2.112   2.125   2.141   2.183   2.213   2.221   2.249   2.298
105 A   106 A   107 A   108 A   109 A   110 A   111 A   112 A                  
  2.306   2.340   2.374   2.375   2.436   2.455   2.471   2.492
113 A   114 A   115 A   116 A   117 A   118 A   119 A   120 A                  
  2.595   2.672   2.770   2.822   2.848   2.907   2.938   2.997
121 A   122 A   123 A   124 A   125 A   126 A   127 A   128 A                  
  3.034   3.143   3.172   3.246   3.263   3.323   3.329   3.349
129 A   130 A   131 A   132 A   133 A   134 A   135 A   136 A                  
  3.359   3.382   3.536   3.544   3.563   3.588   3.713   3.798
137 A   138 A   139 A   140 A   141 A   142 A   143 A   144 A                  
  3.975   3.980   4.048   4.111   4.123   4.146   4.151   4.168
145 A   146 A   147 A   148 A   149 A   150 A   151 A   152 A                  
  4.225   4.242   4.298   4.319   4.372   4.430   4.539   4.662
153 A   154 A   155 A   156 A   157 A   158 A   159 A   160 A                  
  4.734   4.794   4.863   4.868   4.944   5.159   5.187   5.239
161 A   162 A   163 A   164 A   165 A   166 A   167 A   168 A                  
  5.243   5.252   5.350   5.392   5.505   5.550   5.657   5.713
169 A   170 A   171 A   172 A   173 A   174 A   175 A   176 A                  
  5.748   5.753   5.782   5.866   5.920   5.928   6.039   6.102
177 A   178 A   179 A   180 A   181 A   182 A   183 A   184 A                  
  6.154   6.439   6.467   6.542   6.698   6.704   6.808   6.889
185 A   186 A   187 A   188 A   189 A   190 A   191 A   192 A                  
  6.898   6.903   7.160   7.185   7.291   7.431   7.451   7.580
193 A   194 A   195 A   196 A   197 A   198 A   199 A   200 A                  
  7.622   7.807   7.831   7.959   8.061   8.121   8.248   8.415
201 A   202 A   203 A   204 A   205 A   206 A   207 A   208 A                  
  8.477   8.729   8.791   8.966   8.989   9.172   9.178   9.220
209 A   210 A   211 A   212 A   213 A   214 A   215 A   216 A                  
  9.364   9.409   9.515   9.591   9.854   9.885   9.951  10.312
217 A   218 A   219 A   220 A   221 A   222 A   223 A   224 A                  
 10.450  11.401  11.790  12.393  12.896  13.196  13.601  13.716
225 A   226 A   227 A   228 A   229 A   230 A   231 A   232 A                  
 13.724  13.910  13.923  14.077  14.079  14.119  14.176  14.225
233 A   234 A   235 A   236 A   237 A   238 A   239 A   240 A                  
 14.587  14.814  15.964  15.974  16.162  16.302  16.362  16.722
241 A   242 A   243 A   244 A   245 A   246 A   247 A   248 A                  
 16.725  17.032  17.120  17.335  17.572  17.787  19.953  20.160
249 A   250 A   251 A   252 A   253 A   254 A   255 A   256 A                  
 20.727  21.038  21.138  22.833  26.144  42.046  42.403  43.120
257 A   258 A   259 A   260 A   261 A   262 A   263 A   264 A                  
 45.220  46.400  46.454  60.526  60.576  60.697  60.817  61.010
265 A   266 A   267 A   268 A   269 A   270 A   271 A   272 A                  
 75.956  75.957  75.957  75.963  75.963  75.995  76.009  80.645
273 A   274 A   275 A   276 A   277 A   278 A   279 A   280 A                  
 84.489  86.244  86.332  86.780  86.828  86.971  98.124  98.126
281 A   282 A   283 A   284 A   285 A   286 A   287 A   288 A                  
 98.158  98.172  98.201  98.250  98.263 145.890 146.168 146.742
289 A   290 A   291 A   292 A   293 A   294 A   295 A   296 A                  
152.482 153.446 153.481 251.363 251.390 251.458 251.521 251.624
297 A   298 A   299 A   300 A   301 A   302 A   303 A   304 A                  
271.197 350.063 494.028 494.249 494.7121115.958
305 A   306 A   307 A   308 A   309 A   310 A                                  

 Occupation and symmetry of molecular orbitals

 Point group: C1 (1 irreducible representation).

                           A     All 
 -------------------------------------
 All molecular orbitals:
  - Alpha                  310   310 
  - Beta                   310   310 
 -------------------------------------
 Alpha orbitals:
  - Frozen occupied        0     0   
  - Active occupied        8     8   
  - Active virtual         302   302 
  - Frozen virtual         0     0   
 -------------------------------------
 Beta orbitals:
  - Frozen occupied        0     0   
  - Active occupied        8     8   
  - Active virtual         302   302 
  - Frozen virtual         0     0   
 -------------------------------------

 Import integrals:   CPU 0.00 s  wall 0.00 s

 Import integrals:   CPU 10597.39 s  wall 2634.74 s

 MP2 amplitudes:   CPU 11.13 s  wall 20.69 s

Running a double precision version
           CCSD T amplitudes will be solved using DIIS.

           Start     Size      MaxIter   EConv     TConv     
           3         7         100       1.00e-06  1.00e-04  
 ------------------------------------------------------------------------------
           Energy (a.u.)   Ediff      Tdiff       Comment
 ------------------------------------------------------------------------------
          -125.88679290                           
     1    -125.88857426   1.78e-03   4.80e-01     Step took 08.08.
     2    -125.89864278   1.01e-02   6.34e-02     
     3    -125.89855811   8.47e-05   2.34e-02     
     4    -125.89937715   8.19e-04   8.74e-03     Switched to DIIS steps.
     5    -125.89966542   2.88e-04   4.99e-03     
     6    -125.89967227   6.84e-06   8.94e-04     
     7    -125.89967595   3.69e-06   5.40e-04     
     8    -125.89967731   1.36e-06   1.24e-04     
     9    -125.89967760   2.83e-07   4.90e-05     
 ------------------------------------------------------------------------------
          -125.89967760                           CCSD T converged.

End of double precision

----------------------------------------
libpt (c) 2016-2018 Ilya Kaliman
Fast Coupled Cluster Triples Corrections
https://github.com/ilyak/libpt
----------------------------------------

 Starting (T) calculation...
 Using double precision libpt code
 (T) calculation completed in 956 sec
 (T) energy is -0.0129950134

 SCF energy                 = -125.38306802
 MP2 energy                 = -125.88679290
 CCSD correlation energy     =   -0.51660958
 CCSD total energy           = -125.89967760
 CCSD(T) correlation energy =   -0.01299501
 CCSD(T) total energy       = -125.91267261

 CCSD  T1^2 = 0.0039  T2^2 = 0.0972  Leading amplitudes:

 Amplitude    Orbitals with energies
  0.0241       6 (A) A                   ->    14 (A) A                   
              -0.6757                          0.0977                     
  0.0241       6 (A) B                   ->    14 (A) B                   
              -0.6757                          0.0977                     
  0.0143       6 (A) A                   ->    19 (A) A                   
              -0.6757                          0.1452                     
  0.0143       6 (A) B                   ->    19 (A) B                   
              -0.6757                          0.1452                     

 Amplitude    Orbitals with energies
 -0.0193       8 (A) A       8 (A) B     ->    38 (A) A      38 (A) B     
              -0.4876       -0.4876            0.4766        0.4766       
  0.0193       8 (A) A       8 (A) B     ->    38 (A) B      38 (A) A     
              -0.4876       -0.4876            0.4766        0.4766       
  0.0193       8 (A) B       8 (A) A     ->    38 (A) A      38 (A) B     
              -0.4876       -0.4876            0.4766        0.4766       
 -0.0193       8 (A) B       8 (A) A     ->    38 (A) B      38 (A) A     
              -0.4876       -0.4876            0.4766        0.4766       

 CCSD calculation:   CPU 14998.02 s  wall 5912.67 s

 Total ccman2 time:   CPU 25758.50 s  wall 9067.15 s

 
 --------------------------------------------------------------
 
                    Orbital Energies (a.u.)
 --------------------------------------------------------------
 
 Alpha MOs
 -- Occupied --
-26.305  -7.665  -1.620  -0.794  -0.707  -0.676  -0.628  -0.488
 -- Virtual --
  0.032   0.036   0.039   0.046   0.080   0.098   0.102   0.121
  0.125   0.138   0.145   0.151   0.160   0.215   0.227   0.242
  0.243   0.264   0.268   0.277   0.282   0.283   0.297   0.338
  0.342   0.388   0.421   0.430   0.461   0.477   0.500   0.510
  0.520   0.552   0.561   0.582   0.586   0.590   0.612   0.616
  0.712   0.720   0.741   0.750   0.761   0.807   0.814   0.820
  0.826   0.832   0.872   0.876   0.918   0.919   0.921   0.934
  0.953   0.987   1.043   1.133   1.138   1.171   1.175   1.236
  1.241   1.256   1.270   1.284   1.448   1.480   1.484   1.502
  1.510   1.516   1.525   1.550   1.551   1.589   1.594   1.630
  1.658   1.686   1.804   1.805   1.811   1.821   1.868   1.892
  1.898   1.931   1.947   1.976   1.994   2.024   2.046   2.109
  2.112   2.125   2.141   2.183   2.213   2.221   2.249   2.298
  2.306   2.340   2.374   2.375   2.436   2.455   2.471   2.492
  2.595   2.672   2.770   2.822   2.848   2.907   2.938   2.997
  3.034   3.143   3.172   3.246   3.263   3.323   3.329   3.349
  3.359   3.382   3.536   3.544   3.563   3.588   3.713   3.798
  3.975   3.980   4.048   4.111   4.123   4.146   4.151   4.168
  4.225   4.242   4.298   4.319   4.372   4.430   4.539   4.662
  4.734   4.794   4.863   4.868   4.944   5.159   5.187   5.239
  5.243   5.252   5.350   5.392   5.505   5.550   5.657   5.713
  5.748   5.753   5.782   5.866   5.920   5.928   6.039   6.102
  6.154   6.439   6.467   6.542   6.698   6.704   6.808   6.889
  6.898   6.903   7.160   7.185   7.291   7.431   7.451   7.580
  7.622   7.807   7.831   7.959   8.061   8.121   8.248   8.415
  8.477   8.729   8.791   8.966   8.989   9.172   9.178   9.220
  9.364   9.409   9.515   9.591   9.854   9.885   9.951  10.312
 10.450  11.401  11.790  12.393  12.896  13.196  13.601  13.716
 13.724  13.910  13.923  14.077  14.079  14.119  14.176  14.225
 14.587  14.814  15.964  15.974  16.162  16.302  16.362  16.722
 16.725  17.032  17.120  17.335  17.572  17.787  19.953  20.160
 20.727  21.038  21.138  22.833  26.144  42.046  42.403  43.120
 45.220  46.400  46.454  60.526  60.576  60.697  60.817  61.010
 75.956  75.957  75.957  75.963  75.963  75.995  76.009  80.645
 84.489  86.244  86.332  86.780  86.828  86.971  98.124  98.126
 98.158  98.172  98.201  98.250  98.263 145.890 146.168 146.742
152.482 153.446 153.481 251.363 251.390 251.458 251.521 251.624
271.197 350.063 494.028 494.249 494.7121115.958
 
 Beta MOs
 -- Occupied --
-26.305  -7.665  -1.620  -0.794  -0.707  -0.676  -0.628  -0.488
 -- Virtual --
  0.032   0.036   0.039   0.046   0.080   0.098   0.102   0.121
  0.125   0.138   0.145   0.151   0.160   0.215   0.227   0.242
  0.243   0.264   0.268   0.277   0.282   0.283   0.297   0.338
  0.342   0.388   0.421   0.430   0.461   0.477   0.500   0.510
  0.520   0.552   0.561   0.582   0.586   0.590   0.612   0.616
  0.712   0.720   0.741   0.750   0.761   0.807   0.814   0.820
  0.826   0.832   0.872   0.876   0.918   0.919   0.921   0.934
  0.953   0.987   1.043   1.133   1.138   1.171   1.175   1.236
  1.241   1.256   1.270   1.284   1.448   1.480   1.484   1.502
  1.510   1.516   1.525   1.550   1.551   1.589   1.594   1.630
  1.658   1.686   1.804   1.805   1.811   1.821   1.868   1.892
  1.898   1.931   1.947   1.976   1.994   2.024   2.046   2.109
  2.112   2.125   2.141   2.183   2.213   2.221   2.249   2.298
  2.306   2.340   2.374   2.375   2.436   2.455   2.471   2.492
  2.595   2.672   2.770   2.822   2.848   2.907   2.938   2.997
  3.034   3.143   3.172   3.246   3.263   3.323   3.329   3.349
  3.359   3.382   3.536   3.544   3.563   3.588   3.713   3.798
  3.975   3.980   4.048   4.111   4.123   4.146   4.151   4.168
  4.225   4.242   4.298   4.319   4.372   4.430   4.539   4.662
  4.734   4.794   4.863   4.868   4.944   5.159   5.187   5.239
  5.243   5.252   5.350   5.392   5.505   5.550   5.657   5.713
  5.748   5.753   5.782   5.866   5.920   5.928   6.039   6.102
  6.154   6.439   6.467   6.542   6.698   6.704   6.808   6.889
  6.898   6.903   7.160   7.185   7.291   7.431   7.451   7.580
  7.622   7.807   7.831   7.959   8.061   8.121   8.248   8.415
  8.477   8.729   8.791   8.966   8.989   9.172   9.178   9.220
  9.364   9.409   9.515   9.591   9.854   9.885   9.951  10.312
 10.450  11.401  11.790  12.393  12.896  13.196  13.601  13.716
 13.724  13.910  13.923  14.077  14.079  14.119  14.176  14.225
 14.587  14.814  15.964  15.974  16.162  16.302  16.362  16.722
 16.725  17.032  17.120  17.335  17.572  17.787  19.953  20.160
 20.727  21.038  21.138  22.833  26.144  42.046  42.403  43.120
 45.220  46.400  46.454  60.526  60.576  60.697  60.817  61.010
 75.956  75.957  75.957  75.963  75.963  75.995  76.009  80.645
 84.489  86.244  86.332  86.780  86.828  86.971  98.124  98.126
 98.158  98.172  98.201  98.250  98.263 145.890 146.168 146.742
152.482 153.446 153.481 251.363 251.390 251.458 251.521 251.624
271.197 350.063 494.028 494.249 494.7121115.958
 --------------------------------------------------------------
 
          Ground-State Mulliken Net Atomic Charges

     Atom                 Charge (a.u.)    Spin (a.u.)
  --------------------------------------------------------
      1 B                     0.796971      -0.000000
      2 F                    -0.595761       0.000000
      3 H                    -0.100605       0.000000
      4 H                    -0.100605       0.000000
  --------------------------------------------------------
  Sum of atomic charges =    -0.000000
  Sum of spin   charges =     0.000000

 -----------------------------------------------------------------
                    Cartesian Multipole Moments
 -----------------------------------------------------------------
    Charge (ESU x 10^10)
                -0.0000
    Dipole Moment (Debye)
         X      -0.0000      Y       0.0000      Z      -1.0108
       Tot       1.0108
    Quadrupole Moments (Debye-Ang)
        XX     -10.6868     XY       0.0000     YY     -12.6240
        XZ       0.0000     YZ      -0.0000     ZZ     -14.5330
    Octopole Moments (Debye-Ang^2)
       XXX      -0.0000    XXY       0.0000    XYY      -0.0000
       YYY       0.0000    XXZ      -5.0680    XYZ      -0.0000
       YYZ      -4.8864    XZZ      -0.0000    YZZ       0.0000
       ZZZ     -18.4708
    Hexadecapole Moments (Debye-Ang^3)
      XXXX      -8.8869   XXXY       0.0000   XXYY      -6.0809
      XYYY       0.0000   YYYY     -25.5268   XXXZ       0.0000
      XXYZ      -0.0000   XYYZ       0.0000   YYYZ      -0.0000
      XXZZ     -12.6665   XYZZ       0.0000   YYZZ     -15.2841
      XZZZ       0.0000   YZZZ      -0.0000   ZZZZ     -69.4246
 -----------------------------------------------------------------
Archival summary:
1\1\n0046.mhg0\SP\ProcedureUnspecified\BasisUnspecified\112\yhljason\TueAug417:37:102020TueAug417:37:102020\0\\#,ProcedureUnspecified,BasisUnspecified,\\0,1\F\B,1,1.3157\H,2,1.1973,1,117.719\H,2,1.1973,1,117.719,3,-180,0\\HF=-125.383068\\@

 Total job time:  9383.24s(wall), 27834.56s(cpu) 
 Tue Aug  4 17:37:10 2020

        *************************************************************
        *                                                           *
        *  Thank you very much for using Q-Chem.  Have a nice day.  *
        *                                                           *
        *************************************************************


