Q-Chem Developer Version!
                  Welcome to Q-Chem
     A Quantum Leap Into The Future Of Chemistry


 Q-Chem 5.1, Q-Chem, Inc., Pleasanton, CA (2018)

 Yihan Shao,  Zhengting Gan,  E. Epifanovsky,  A. T. B. Gilbert,  M. Wormit,  
 J. Kussmann,  A. W. Lange,  A. Behn,  Jia Deng,  Xintian Feng,  D. Ghosh,  
 M. Goldey,  P. R. Horn,  L. D. Jacobson,  I. Kaliman,  T. Kus,  A. Landau,  
 Jie Liu,  E. I. Proynov,  R. M. Richard,  R. P. Steele,  E. J. Sundstrom,  
 H. L. Woodcock III,  P. M. Zimmerman,  D. Zuev,  B. Albrecht,  E. Alguire,  
 S. A. Baeppler,  D. Barton,  Z. Benda,  Y. A. Bernard,  E. J. Berquist,  
 K. B. Bravaya,  H. Burton,  D. Casanova,  Chun-Min Chang,  Yunqing Chen,  
 A. Chien,  K. D. Closser,  M. P. Coons,  S. Coriani,  S. Dasgupta,  
 A. L. Dempwolff,  M. Diedenhofen,  Hainam Do,  R. G. Edgar,  Po-Tung Fang,  
 S. Faraji,  S. Fatehi,  Qingguo Feng,  K. D. Fenk,  J. Fosso-Tande,  
 Qinghui Ge,  A. Ghysels,  G. Gidofalvi,  J. Gomes,  J. Gonthier,  A. Gunina,  
 D. Hait,  M. W. D. Hanson-Heine,  P. H. P. Harbach,  A. W. Hauser,  
 J. E. Herr,  E. G. Hohenstein,  Z. C. Holden,  Kerwin Hui,  B. C. Huynh,  
 T.-C. Jagau,  Hyunjun Ji,  B. Kaduk,  K. Khistyaev,  Jaehoon Kim,  
 P. Klunzinger,  K. Koh,  D. Kosenkov,  L. Koulias,  T. Kowalczyk,  
 C. M. Krauter,  A. Kunitsa,  Ka Un Lao,  A. Laurent,  K. V. Lawler,  
 Joonho Lee,  D. Lefrancois,  S. Lehtola,  D. S. Levine,  Yi-Pei Li,  
 You-Sheng Lin,  Fenglai Liu,  E. Livshits,  A. Luenser,  P. Manohar,  
 E. Mansoor,  S. F. Manzer,  Shan-Ping Mao,  Yuezhi Mao,  N. Mardirossian,  
 A. V. Marenich,  T. Markovich,  L. A. Martinez-Martinez,  S. A. Maurer,  
 N. J. Mayhall,  S. C. McKenzie,  J.-M. Mewes,  A. F. Morrison,  
 J. W. Mullinax,  K. Nanda,  T. S. Nguyen-Beck,  R. Olivares-Amaya,  
 J. A. Parkhill,  T. M. Perrine,  F. Plasser,  P. Pokhilko,  S. Prager,  
 A. Prociuk,  E. Ramos,  D. R. Rehn,  F. Rob,  M. Schneider,  N. Sergueev,  
 S. M. Sharada,  S. Sharma,  D. W. Small,  T. Stauch,  T. Stein,  
 Yu-Chuan Su,  A. J. W. Thom,  A. Tkatchenko,  T. Tsuchimochi,  N. M. Tubman,  
 L. Vogt,  M. L. Vidal,  O. Vydrov,  M. A. Watson,  J. Wenzel,  
 M. de Wergifosse,  T. A. Wesolowski,  A. White,  J. Witte,  A. Yamada,  
 Jun Yang,  K. Yao,  S. Yeganeh,  S. R. Yost,  Zhi-Qiang You,  A. Zech,  
 Igor Ying Zhang,  Xing Zhang,  Yan Zhao,  Ying Zhu,  B. R. Brooks,  
 G. K. L. Chan,  C. J. Cramer,  M. S. Gordon,  W. J. Hehre,  A. Klamt,  
 M. W. Schmidt,  C. D. Sherrill,  D. G. Truhlar,  A. Aspuru-Guzik,  R. Baer,  
 A. T. Bell,  N. A. Besley,  Jeng-Da Chai,  A. E. DePrince, III,  
 R. A. DiStasio Jr.,  A. Dreuw,  B. D. Dunietz,  T. R. Furlani,  
 Chao-Ping Hsu,  Yousung Jung,  Jing Kong,  D. S. Lambrecht,  WanZhen Liang,  
 C. Ochsenfeld,  V. A. Rassolov,  L. V. Slipchenko,  J. E. Subotnik,  
 T. Van Voorhis,  J. M. Herbert,  A. I. Krylov,  P. M. W. Gill,  M. Head-Gordon

 Contributors to earlier versions of Q-Chem not listed above: 
 R. D. Adamson,  B. Austin,  J. Baker,  G. J. O. Beran,  K. Brandhorst,  
 S. T. Brown,  E. F. C. Byrd,  A. K. Chakraborty,  C.-L. Cheng,  
 Siu Hung Chien,  D. M. Chipman,  D. L. Crittenden,  H. Dachsel,  
 R. J. Doerksen,  A. D. Dutoi,  L. Fusti-Molnar,  W. A. Goddard III,  
 A. Golubeva-Zadorozhnaya,  S. R. Gwaltney,  G. Hawkins,  A. Heyden,  
 S. Hirata,  G. Kedziora,  F. J. Keil,  C. Kelley,  Jihan Kim,  R. A. King,  
 R. Z. Khaliullin,  P. P. Korambath,  W. Kurlancheek,  A. M. Lee,  M. S. Lee,  
 S. V. Levchenko,  Ching Yeh Lin,  D. Liotard,  R. C. Lochan,  I. Lotan,  
 P. E. Maslen,  N. Nair,  D. P. O'Neill,  D. Neuhauser,  E. Neuscamman,  
 C. M. Oana,  R. Olson,  B. Peters,  R. Peverati,  P. A. Pieniazek,  
 Y. M. Rhee,  J. Ritchie,  M. A. Rohrdanz,  E. Rosta,  N. J. Russ,  
 H. F. Schaefer III,  N. E. Schultz,  N. Shenvi,  A. C. Simmonett,  A. Sodt,  
 D. Stuck,  K. S. Thanthiriwatte,  V. Vanovschi,  Tao Wang,  A. Warshel,  
 C. F. Williams,  Q. Wu,  X. Xu,  W. Zhang

 Please cite Q-Chem as follows:
 Y. Shao et al., Mol. Phys. 113, 184-215 (2015)
 DOI: 10.1080/00268976.2014.952696

 Q-Chem 5.1.1 for Intel X86 EM64T Linux

 Parts of Q-Chem use Armadillo 8.300.2 (Tropical Shenanigans).
 http://arma.sourceforge.net/

 Q-Chem begins on Mon Aug  3 23:57:36 2020  

Host: n0080.mhg0
0

     Scratch files written to /local/scratch/users/yhljason/CO2_ccsdT_aug-cc-pcVQZ.inp20200803231133//
Input Ideriv = 0
Curr. Ideriv = -1
Max.  Ideriv = 0

Checking the input file for inconsistencies... 	...done.

--------------------------------------------------------------
User input:
--------------------------------------------------------------
$molecule
0 1
C1	0.0000	0.0000	0.0000
O2	0.0000	0.0000	1.1621
O3	0.0000	0.0000	-1.1621
$end

$rem
jobtype sp
method CCSD(T)
xc_grid 000099000590
basis aug-cc-pcVQZ
max_scf_cycles 200
thresh 14
scf_convergence 8
scf_algorithm gdm
symmetry false
sym_ignore true
unrestricted true
gen_scfman true
internal_stability_iter 15
internal_stability_davidson_iter 200
mem_total 128000
cc_memory 96000
cc_backend xm
mem_static 1500
n_frozen_core 0
$end


--------------------------------------------------------------
 ----------------------------------------------------------------
             Standard Nuclear Orientation (Angstroms)
    I     Atom           X                Y                Z
 ----------------------------------------------------------------
    1      C       0.0000000000     0.0000000000     0.0000000000
    2      O       0.0000000000     0.0000000000     1.1621000000
    3      O       0.0000000000     0.0000000000    -1.1621000000
 ----------------------------------------------------------------
 Nuclear Repulsion Energy =    58.2864495159 hartrees
 There are       11 alpha and       11 beta electrons
 Requested basis set is aug-cc-pCVQZ
 There are 87 shells and 327 basis functions
 Total memory of 128000MB is distributed as follows: 
   QALLOC including MEM_STATIC uses 32000MB
   MEM_STATIC is set to 1500MB
   CCMAN JOB total memory use is  96000MB
 Warning: actual memory use might exceed 128000MB

 Total QAlloc Memory Limit  32000 MB
 Mega-Array Size      1467 MB
 MEM_STATIC part      1500 MB

                       Distance Matrix (Angstroms)
             C (  1)   O (  2)
   O (  2)  1.162100
   O (  3)  1.162100  2.324200
 
 A cutoff of  1.0D-14 yielded   3538 shell pairs
 There are     51370 function pairs (     84504 Cartesian)
 
 -------------------------------------------------------
 OpenMP Integral Computing Module                       
 Release: version 1.0, May 2013, Q-Chem Inc. Pittsburgh 
 -------------------------------------------------------
 Integral Job Info:
 Integral job number is                      11
 Integral operator is                         1
 short-range coefficients                     0
 long-range coefficients              100000000
 Omega coefficients                           0
 if combine SR and LR in K                    0
 Integral screening is                        0
 Integral computing path is                   2
 max size of driver memory is           3200000
 size of driver memory is               1704330
 size of scratch memory is             18511652
 max col of scratch BK array              50625
 max len of scratch array in speh3         2114
 max len of scratch index in speh4           50
 max int batch size is                      520
 min int batch size is                       52
 fixed nKL is                                52
 max L of basis functions is                  4
 order of int derivative is                   0
 number of shells is                         87
 number of basis is                         417
 number of cartesian basis is               417
 number of contracted shell pairs          3538
 number of primitive shell pairs           8022
 maxK2 (contraction) of shell pair           81
 max number of K2 of shell pair               1
 max number of CS2 of shell pair            407
 max number of PS2 of shell pair            810
 mem total for path MDJ                  811216
 -------------------------------------------------------
 Smallest overlap matrix eigenvalue = 4.61E-05

 Scale SEOQF with 1.000000e-01/1.000000e-01/1.000000e-01

 Standard Electronic Orientation quadrupole field applied
 Nucleus-field energy     =    -0.0000000023 hartrees
 Guess from superposition of atomic densities
 Warning:  Energy on first SCF cycle will be non-variational
 SAD guess density has 22.000000 electrons

 -----------------------------------------------------------------------
  General SCF calculation program by
  Eric Jon Sundstrom, Paul Horn, Yuezhi Mao, Dmitri Zuev, Alec White,
  David Stuck, Shaama M.S., Shane Yost, Joonho Lee, David Small,
  Daniel Levine, Susi Lehtola, Hugh Burton, Evgeny Epifanovsky
 -----------------------------------------------------------------------
Running Object-Oriented UHF
performing a single roothaan step with Fock from read density so that orbitals are available to all algorithms
energy of the guess density (C=0) -188.238948148603
We will preform up to 15 macro iterations over saddle points until a stable solution is found
Energy prior to optimization (guess energy) = -187.636595124306
Begin Timing: Total SCF Calculation
Begin Timing: SCF Single Stationary Point Calculation
begin iterations for algorithm: GDM          
the SCF tolerance is set to 1.00e-08
    1    -187.6365951243      1.47e-01     00000  Descent step
    2    -187.7171621795      2.40e-02     00000  Normal BFGS step
    3    -187.7217418704      6.81e-03     00000  Normal BFGS step
    4    -187.7221157097      8.63e-04     00000  Normal BFGS step
    5    -187.7221297931      5.02e-04     00000  Normal BFGS step
    6    -187.7221312057      8.53e-05     00000  Normal BFGS step
    7    -187.7221312461      1.19e-05     00000  Normal BFGS step
    8    -187.7221312492      2.06e-06     00000  Normal BFGS step
    9    -187.7221312493      4.68e-07     00000  Normal BFGS step
   10    -187.7221312493      2.95e-08     00000  Normal BFGS step
   11    -187.7221312493      5.69e-09     00000 Convergence criterion met
Timing for Single Stationary Point: 406.00s (wall), 3252.11s (cpu)
Begin Timing: Stability
===================================================
Beginning Test for Internal Stability
===================================================
generating davidson guess vectors based on koopmans excitations
    1      2.17e+00     00000 Davidson Iteration
    2      2.09e+00     00000 Davidson Iteration
    3      4.63e-01     00000 Davidson Iteration
    4      8.61e-02     00000 Davidson Iteration
    5      8.75e-02     00000 Davidson Iteration
    6      2.63e-02     00000 Davidson Iteration
    7      1.19e-02     00000 Davidson Iteration
    8      2.27e-02     00000 Davidson Iteration
    9      1.05e-02     00000 Davidson Iteration
   10      4.04e-03     00000 Davidson Iteration
   11      4.36e-03     00000 Davidson Iteration
   12      2.32e-03     00000 Davidson Iteration
   13      2.41e-03     00000 Davidson Iteration
   14      1.24e-03     00000 Davidson Iteration
   15      1.47e-03     00000 Davidson Iteration
   16      3.79e-03     00000 Davidson Iteration
   17      8.05e-04     00000 Davidson Iteration
   18      6.57e-04     00000 Davidson Iteration
   19      3.10e-04     00000 Davidson Iteration
   20      2.63e-04     00000 Davidson Iteration
   21      1.27e-04     00000 Davidson Iteration
   22      6.21e-05     00000 Davidson Iteration
   23      4.41e-05     00000 Davidson Converged
converged_eigenvalues
   0.4049
   0.2968
Threshold for negative eigenvalues: -1.0e-05
solution was a local minimum (stable)
===================================================
End Test for Internal Stability
===================================================
Our SCF solution is stable!
Timing for Total SCF: 1925.00s (wall), 15396.38s (cpu)
 Total energy in the final basis set =     -187.7221312493
<S^2> =          0.000000000
    ==================================================
              The end of Object-Oriented SCFman       
    ==================================================


 ------------------------------------------------------------------------------

   CCMAN2: suite of methods based on coupled cluster
           and equation of motion theories.

   Components:
   * libvmm-1.3-trunk
     by Evgeny Epifanovsky, Ilya Kaliman.
   * libtensor-2.5-trunk
     by Evgeny Epifanovsky, Michael Wormit, Dmitry Zuev, Sam Manzer, 
        Ilya Kaliman.
   * libcc-2.5-trunk
     by Evgeny Epifanovsky, Arik Landau, Tomasz Kus, Kirill Khistyaev, 
        Dmitry Zuev, Prashant Manohar, Xintian Feng, Anna Krylov, 
        Matthew Goldey, Alec White, Thomas Jagau, Kaushik Nanda, 
        Anastasia Gunina, Alexander Kunitsa, Joonho Lee.

   CCMAN original authors:
   Anna I. Krylov, C. David Sherrill, Steven R. Gwaltney,
   Edward F. C. Byrd (2000)
   Sergey V. Levchenko, Lyudmila V. Slipchenko, Tao Wang,
   Ana-Maria C. Cristian (2003)
   Piotr A. Pieniazek, C. Melania Oana, Evgeny Epifanovsky (2007)
   Prashant Manohar (2009)

 ------------------------------------------------------------------------------


 Calculation will run on 8 cores using libxm for tensor contractions

 ------------------------------------------------------------------------------
Libxm Tensor Library
Copyright (c) 2014-2018 Ilya Kaliman
https://github.com/ilyak/libxm
Reference: https://dx.doi.org/10.1002/jcc.24713
 ------------------------------------------------------------------------------

 
 Alpha MOs, Unrestricted
 -- Occupied --                  
-20.651 -20.651 -11.460  -1.530  -1.477  -0.801  -0.744  -0.715
  1 A     2 A     3 A     4 A     5 A     6 A     7 A     8 A                  
 -0.715  -0.545  -0.545
  9 A    10 A    11 A                                                          
 -- Virtual --                   
  0.041   0.063   0.063   0.069   0.129   0.134   0.134   0.177
 12 A    13 A    14 A    15 A    16 A    17 A    18 A    19 A                  
  0.190   0.190   0.193   0.212   0.212   0.215   0.215   0.253
 20 A    21 A    22 A    23 A    24 A    25 A    26 A    27 A                  
  0.355   0.355   0.360   0.379   0.379   0.413   0.466   0.466
 28 A    29 A    30 A    31 A    32 A    33 A    34 A    35 A                  
  0.503   0.566   0.582   0.582   0.597   0.597   0.637   0.637
 36 A    37 A    38 A    39 A    40 A    41 A    42 A    43 A                  
  0.643   0.709   0.729   0.729   0.790   0.790   0.814   0.850
 44 A    45 A    46 A    47 A    48 A    49 A    50 A    51 A                  
  0.850   0.886   0.921   0.921   0.963   0.963   1.034   1.130
 52 A    53 A    54 A    55 A    56 A    57 A    58 A    59 A                  
  1.130   1.196   1.196   1.230   1.333   1.341   1.341   1.504
 60 A    61 A    62 A    63 A    64 A    65 A    66 A    67 A                  
  1.508   1.508   1.565   1.565   1.571   1.571   1.584   1.584
 68 A    69 A    70 A    71 A    72 A    73 A    74 A    75 A                  
  1.650   1.651   1.651   1.655   1.655   1.690   1.717   1.892
 76 A    77 A    78 A    79 A    80 A    81 A    82 A    83 A                  
  1.922   1.922   1.932   1.932   1.946   1.955   1.955   2.068
 84 A    85 A    86 A    87 A    88 A    89 A    90 A    91 A                  
  2.068   2.218   2.218   2.230   2.230   2.257   2.257   2.511
 92 A    93 A    94 A    95 A    96 A    97 A    98 A    99 A                  
  2.511   2.588   2.588   2.684   2.714   2.714   2.803   2.923
100 A   101 A   102 A   103 A   104 A   105 A   106 A   107 A                  
  2.923   3.048   3.149   3.149   3.190   3.190   3.440   3.508
108 A   109 A   110 A   111 A   112 A   113 A   114 A   115 A                  
  3.624   3.624   3.719   3.719   3.831   3.831   3.970   4.021
116 A   117 A   118 A   119 A   120 A   121 A   122 A   123 A                  
  4.024   4.024   4.041   4.041   4.115   4.115   4.131   4.131
124 A   125 A   126 A   127 A   128 A   129 A   130 A   131 A                  
  4.216   4.216   4.249   4.249   4.296   4.296   4.309   4.309
132 A   133 A   134 A   135 A   136 A   137 A   138 A   139 A                  
  4.319   4.555   4.566   4.566   4.604   4.604   4.694   4.694
140 A   141 A   142 A   143 A   144 A   145 A   146 A   147 A                  
  4.703   4.743   4.743   4.863   4.909   4.909   4.953   4.953
148 A   149 A   150 A   151 A   152 A   153 A   154 A   155 A                  
  5.483   5.483   5.596   5.596   5.624   5.799   5.831   5.831
156 A   157 A   158 A   159 A   160 A   161 A   162 A   163 A                  
  6.003   6.003   6.073   6.073   6.103   6.209   6.209   6.313
164 A   165 A   166 A   167 A   168 A   169 A   170 A   171 A                  
  6.363   6.363   6.644   6.644   6.941   6.977   6.977   7.202
172 A   173 A   174 A   175 A   176 A   177 A   178 A   179 A                  
  7.202   7.648   7.934   7.934   8.403   8.403   9.031   9.211
180 A   181 A   182 A   183 A   184 A   185 A   186 A   187 A                  
  9.211   9.634  10.158  10.158  10.466  10.466  10.586  10.586
188 A   189 A   190 A   191 A   192 A   193 A   194 A   195 A                  
 10.668  10.668  10.788  10.788  11.093  11.094  11.094  11.106
196 A   197 A   198 A   199 A   200 A   201 A   202 A   203 A                  
 11.106  11.189  11.311  11.311  11.378  11.378  11.456  11.520
204 A   205 A   206 A   207 A   208 A   209 A   210 A   211 A                  
 11.520  11.632  11.909  11.909  11.914  11.914  12.154  12.402
212 A   213 A   214 A   215 A   216 A   217 A   218 A   219 A                  
 12.402  12.438  12.438  12.492  12.492  13.014  13.014  13.037
220 A   221 A   222 A   223 A   224 A   225 A   226 A   227 A                  
 13.037  13.052  13.052  13.406  13.965  14.098  14.098  15.293
228 A   229 A   230 A   231 A   232 A   233 A   234 A   235 A                  
 15.923  15.923  16.568  18.119  19.095  19.611  19.611  21.847
236 A   237 A   238 A   239 A   240 A   241 A   242 A   243 A                  
 26.714  26.714  27.324  27.324  28.996  33.844  33.844  34.157
244 A   245 A   246 A   247 A   248 A   249 A   250 A   251 A                  
 34.157  35.075  35.496  38.529  47.171  47.171  47.214  47.214
252 A   253 A   254 A   255 A   256 A   257 A   258 A   259 A                  
 47.571  47.571  48.438  48.582  48.582  48.924  64.436  64.880
260 A   261 A   262 A   263 A   264 A   265 A   266 A   267 A                  
 66.987  66.987  68.587  98.582  98.582  98.604  98.604  98.685
268 A   269 A   270 A   271 A   272 A   273 A   274 A   275 A                  
 98.685  98.807 103.310 103.310 103.311 103.311 103.354 103.354
276 A   277 A   278 A   279 A   280 A   281 A   282 A   283 A                  
103.357 103.357 103.368 103.368 103.405 103.405 103.445 103.493
284 A   285 A   286 A   287 A   288 A   289 A   290 A   291 A                  
115.229 115.229 115.556 115.556 116.382 117.064 117.064 117.321
292 A   293 A   294 A   295 A   296 A   297 A   298 A   299 A                  
117.321 118.003 118.603 124.393 198.609 198.609 198.634 198.634
300 A   301 A   302 A   303 A   304 A   305 A   306 A   307 A                  
198.818 198.818 199.247 199.361 199.361 199.548 216.904 217.244
308 A   309 A   310 A   311 A   312 A   313 A   314 A   315 A                  
225.345 225.345 226.703 395.527 395.527 395.747 395.747 396.282
316 A   317 A   318 A   319 A   320 A   321 A   322 A   323 A                  
396.828 510.406 895.728 896.076
324 A   325 A   326 A   327 A                                                  
 
 Beta MOs, Unrestricted
 -- Occupied --                  
-20.651 -20.651 -11.460  -1.530  -1.477  -0.801  -0.744  -0.715
  1 A     2 A     3 A     4 A     5 A     6 A     7 A     8 A                  
 -0.715  -0.545  -0.545
  9 A    10 A    11 A                                                          
 -- Virtual --                   
  0.041   0.063   0.063   0.069   0.129   0.134   0.134   0.177
 12 A    13 A    14 A    15 A    16 A    17 A    18 A    19 A                  
  0.190   0.190   0.193   0.212   0.212   0.215   0.215   0.253
 20 A    21 A    22 A    23 A    24 A    25 A    26 A    27 A                  
  0.355   0.355   0.360   0.379   0.379   0.413   0.466   0.466
 28 A    29 A    30 A    31 A    32 A    33 A    34 A    35 A                  
  0.503   0.566   0.582   0.582   0.597   0.597   0.637   0.637
 36 A    37 A    38 A    39 A    40 A    41 A    42 A    43 A                  
  0.643   0.709   0.729   0.729   0.790   0.790   0.814   0.850
 44 A    45 A    46 A    47 A    48 A    49 A    50 A    51 A                  
  0.850   0.886   0.921   0.921   0.963   0.963   1.034   1.130
 52 A    53 A    54 A    55 A    56 A    57 A    58 A    59 A                  
  1.130   1.196   1.196   1.230   1.333   1.341   1.341   1.504
 60 A    61 A    62 A    63 A    64 A    65 A    66 A    67 A                  
  1.508   1.508   1.565   1.565   1.571   1.571   1.584   1.584
 68 A    69 A    70 A    71 A    72 A    73 A    74 A    75 A                  
  1.650   1.651   1.651   1.655   1.655   1.690   1.717   1.892
 76 A    77 A    78 A    79 A    80 A    81 A    82 A    83 A                  
  1.922   1.922   1.932   1.932   1.946   1.955   1.955   2.068
 84 A    85 A    86 A    87 A    88 A    89 A    90 A    91 A                  
  2.068   2.218   2.218   2.230   2.230   2.257   2.257   2.511
 92 A    93 A    94 A    95 A    96 A    97 A    98 A    99 A                  
  2.511   2.588   2.588   2.684   2.714   2.714   2.803   2.923
100 A   101 A   102 A   103 A   104 A   105 A   106 A   107 A                  
  2.923   3.048   3.149   3.149   3.190   3.190   3.440   3.508
108 A   109 A   110 A   111 A   112 A   113 A   114 A   115 A                  
  3.624   3.624   3.719   3.719   3.831   3.831   3.970   4.021
116 A   117 A   118 A   119 A   120 A   121 A   122 A   123 A                  
  4.024   4.024   4.041   4.041   4.115   4.115   4.131   4.131
124 A   125 A   126 A   127 A   128 A   129 A   130 A   131 A                  
  4.216   4.216   4.249   4.249   4.296   4.296   4.309   4.309
132 A   133 A   134 A   135 A   136 A   137 A   138 A   139 A                  
  4.319   4.555   4.566   4.566   4.604   4.604   4.694   4.694
140 A   141 A   142 A   143 A   144 A   145 A   146 A   147 A                  
  4.703   4.743   4.743   4.863   4.909   4.909   4.953   4.953
148 A   149 A   150 A   151 A   152 A   153 A   154 A   155 A                  
  5.483   5.483   5.596   5.596   5.624   5.799   5.831   5.831
156 A   157 A   158 A   159 A   160 A   161 A   162 A   163 A                  
  6.003   6.003   6.073   6.073   6.103   6.209   6.209   6.313
164 A   165 A   166 A   167 A   168 A   169 A   170 A   171 A                  
  6.363   6.363   6.644   6.644   6.941   6.977   6.977   7.202
172 A   173 A   174 A   175 A   176 A   177 A   178 A   179 A                  
  7.202   7.648   7.934   7.934   8.403   8.403   9.031   9.211
180 A   181 A   182 A   183 A   184 A   185 A   186 A   187 A                  
  9.211   9.634  10.158  10.158  10.466  10.466  10.586  10.586
188 A   189 A   190 A   191 A   192 A   193 A   194 A   195 A                  
 10.668  10.668  10.788  10.788  11.093  11.094  11.094  11.106
196 A   197 A   198 A   199 A   200 A   201 A   202 A   203 A                  
 11.106  11.189  11.311  11.311  11.378  11.378  11.456  11.520
204 A   205 A   206 A   207 A   208 A   209 A   210 A   211 A                  
 11.520  11.632  11.909  11.909  11.914  11.914  12.154  12.402
212 A   213 A   214 A   215 A   216 A   217 A   218 A   219 A                  
 12.402  12.438  12.438  12.492  12.492  13.014  13.014  13.037
220 A   221 A   222 A   223 A   224 A   225 A   226 A   227 A                  
 13.037  13.052  13.052  13.406  13.965  14.098  14.098  15.293
228 A   229 A   230 A   231 A   232 A   233 A   234 A   235 A                  
 15.923  15.923  16.568  18.119  19.095  19.611  19.611  21.847
236 A   237 A   238 A   239 A   240 A   241 A   242 A   243 A                  
 26.714  26.714  27.324  27.324  28.996  33.844  33.844  34.157
244 A   245 A   246 A   247 A   248 A   249 A   250 A   251 A                  
 34.157  35.075  35.496  38.529  47.171  47.171  47.214  47.214
252 A   253 A   254 A   255 A   256 A   257 A   258 A   259 A                  
 47.571  47.571  48.438  48.582  48.582  48.924  64.436  64.880
260 A   261 A   262 A   263 A   264 A   265 A   266 A   267 A                  
 66.987  66.987  68.587  98.582  98.582  98.604  98.604  98.685
268 A   269 A   270 A   271 A   272 A   273 A   274 A   275 A                  
 98.685  98.807 103.310 103.310 103.311 103.311 103.354 103.354
276 A   277 A   278 A   279 A   280 A   281 A   282 A   283 A                  
103.357 103.357 103.368 103.368 103.405 103.405 103.445 103.493
284 A   285 A   286 A   287 A   288 A   289 A   290 A   291 A                  
115.229 115.229 115.556 115.556 116.382 117.064 117.064 117.321
292 A   293 A   294 A   295 A   296 A   297 A   298 A   299 A                  
117.321 118.003 118.603 124.393 198.609 198.609 198.634 198.634
300 A   301 A   302 A   303 A   304 A   305 A   306 A   307 A                  
198.818 198.818 199.247 199.361 199.361 199.548 216.904 217.244
308 A   309 A   310 A   311 A   312 A   313 A   314 A   315 A                  
225.345 225.345 226.703 395.527 395.527 395.747 395.747 396.282
316 A   317 A   318 A   319 A   320 A   321 A   322 A   323 A                  
396.828 510.406 895.728 896.076
324 A   325 A   326 A   327 A                                                  

 Occupation and symmetry of molecular orbitals

 Point group: C1 (1 irreducible representation).

                           A     All 
 -------------------------------------
 All molecular orbitals:
  - Alpha                  327   327 
  - Beta                   327   327 
 -------------------------------------
 Alpha orbitals:
  - Frozen occupied        0     0   
  - Active occupied        11    11  
  - Active virtual         316   316 
  - Frozen virtual         0     0   
 -------------------------------------
 Beta orbitals:
  - Frozen occupied        0     0   
  - Active occupied        11    11  
  - Active virtual         316   316 
  - Frozen virtual         0     0   
 -------------------------------------

 Import integrals:   CPU 0.00 s  wall 0.00 s

 Import integrals:   CPU 13646.75 s  wall 2748.30 s

 MP2 amplitudes:   CPU 23.44 s  wall 12.91 s

Running a double precision version
           CCSD T amplitudes will be solved using DIIS.

           Start     Size      MaxIter   EConv     TConv     
           3         7         100       1.00e-06  1.00e-04  
 ------------------------------------------------------------------------------
           Energy (a.u.)   Ediff      Tdiff       Comment
 ------------------------------------------------------------------------------
          -188.54593317                           
     1    -188.50858541   3.73e-02   6.42e-01     Step took 10.04.
     2    -188.53593121   2.73e-02   9.67e-02     
     3    -188.52948396   6.45e-03   4.55e-02     
     4    -188.53252601   3.04e-03   2.52e-02     Switched to DIIS steps.
     5    -188.53301740   4.91e-04   7.41e-03     
     6    -188.53303699   1.96e-05   1.28e-03     
     7    -188.53303259   4.39e-06   4.04e-04     
     8    -188.53303407   1.48e-06   8.55e-05     
     9    -188.53303424   1.66e-07   3.45e-05     
 ------------------------------------------------------------------------------
          -188.53303424                           CCSD T converged.

End of double precision

----------------------------------------
libpt (c) 2016-2018 Ilya Kaliman
Fast Coupled Cluster Triples Corrections
https://github.com/ilyak/libpt
----------------------------------------

 Starting (T) calculation...
 Using double precision libpt code
 (T) calculation completed in 3250 sec
 (T) energy is -0.0335844404

 SCF energy                 = -187.72213125
 MP2 energy                 = -188.54593317
 CCSD correlation energy     =   -0.81090299
 CCSD total energy           = -188.53303424
 CCSD(T) correlation energy =   -0.03358444
 CCSD(T) total energy       = -188.56661868

 CCSD  T1^2 = 0.0102  T2^2 = 0.1573  Leading amplitudes:

 Amplitude    Orbitals with energies
  0.0306       9 (A) A                   ->    21 (A) A                   
              -0.7152                          0.1901                     
 -0.0306       8 (A) A                   ->    20 (A) A                   
              -0.7152                          0.1901                     
 -0.0306       9 (A) B                   ->    21 (A) B                   
              -0.7152                          0.1901                     
 -0.0306       8 (A) B                   ->    20 (A) B                   
              -0.7152                          0.1901                     

 Amplitude    Orbitals with energies
 -0.0371       10 (A) A      10 (A) B    ->    23 (A) A      23 (A) B     
              -0.5449       -0.5449            0.2120        0.2120       
  0.0371       10 (A) A      10 (A) B    ->    23 (A) B      23 (A) A     
              -0.5449       -0.5449            0.2120        0.2120       
  0.0371       10 (A) B      10 (A) A    ->    23 (A) A      23 (A) B     
              -0.5449       -0.5449            0.2120        0.2120       
 -0.0371       10 (A) B      10 (A) A    ->    23 (A) B      23 (A) A     
              -0.5449       -0.5449            0.2120        0.2120       
 -0.0371       11 (A) A      11 (A) B    ->    24 (A) A      24 (A) B     
              -0.5449       -0.5449            0.2120        0.2120       
  0.0371       11 (A) A      11 (A) B    ->    24 (A) B      24 (A) A     
              -0.5449       -0.5449            0.2120        0.2120       
  0.0371       11 (A) B      11 (A) A    ->    24 (A) A      24 (A) B     
              -0.5449       -0.5449            0.2120        0.2120       
 -0.0371       11 (A) B      11 (A) A    ->    24 (A) B      24 (A) A     
              -0.5449       -0.5449            0.2120        0.2120       

 CCSD calculation:   CPU 44234.34 s  wall 9197.50 s

 Total ccman2 time:   CPU 58123.26 s  wall 12250.22 s

 
 --------------------------------------------------------------
 
                    Orbital Energies (a.u.)
 --------------------------------------------------------------
 
 Alpha MOs
 -- Occupied --
-20.651 -20.651 -11.460  -1.530  -1.477  -0.801  -0.744  -0.715
 -0.715  -0.545  -0.545
 -- Virtual --
  0.041   0.063   0.063   0.069   0.129   0.134   0.134   0.177
  0.190   0.190   0.193   0.212   0.212   0.215   0.215   0.253
  0.355   0.355   0.360   0.379   0.379   0.413   0.466   0.466
  0.503   0.566   0.582   0.582   0.597   0.597   0.637   0.637
  0.643   0.709   0.729   0.729   0.790   0.790   0.814   0.850
  0.850   0.886   0.921   0.921   0.963   0.963   1.034   1.130
  1.130   1.196   1.196   1.230   1.333   1.341   1.341   1.504
  1.508   1.508   1.565   1.565   1.571   1.571   1.584   1.584
  1.650   1.651   1.651   1.655   1.655   1.690   1.717   1.892
  1.922   1.922   1.932   1.932   1.946   1.955   1.955   2.068
  2.068   2.218   2.218   2.230   2.230   2.257   2.257   2.511
  2.511   2.588   2.588   2.684   2.714   2.714   2.803   2.923
  2.923   3.048   3.149   3.149   3.190   3.190   3.440   3.508
  3.624   3.624   3.719   3.719   3.831   3.831   3.970   4.021
  4.024   4.024   4.041   4.041   4.115   4.115   4.131   4.131
  4.216   4.216   4.249   4.249   4.296   4.296   4.309   4.309
  4.319   4.555   4.566   4.566   4.604   4.604   4.694   4.694
  4.703   4.743   4.743   4.863   4.909   4.909   4.953   4.953
  5.483   5.483   5.596   5.596   5.624   5.799   5.831   5.831
  6.003   6.003   6.073   6.073   6.103   6.209   6.209   6.313
  6.363   6.363   6.644   6.644   6.941   6.977   6.977   7.202
  7.202   7.648   7.934   7.934   8.403   8.403   9.031   9.211
  9.211   9.634  10.158  10.158  10.466  10.466  10.586  10.586
 10.668  10.668  10.788  10.788  11.093  11.094  11.094  11.106
 11.106  11.189  11.311  11.311  11.378  11.378  11.456  11.520
 11.520  11.632  11.909  11.909  11.914  11.914  12.154  12.402
 12.402  12.438  12.438  12.492  12.492  13.014  13.014  13.037
 13.037  13.052  13.052  13.406  13.965  14.098  14.098  15.293
 15.923  15.923  16.568  18.119  19.095  19.611  19.611  21.847
 26.714  26.714  27.324  27.324  28.996  33.844  33.844  34.157
 34.157  35.075  35.496  38.529  47.171  47.171  47.214  47.214
 47.571  47.571  48.438  48.582  48.582  48.924  64.436  64.880
 66.987  66.987  68.587  98.582  98.582  98.604  98.604  98.685
 98.685  98.807 103.310 103.310 103.311 103.311 103.354 103.354
103.357 103.357 103.368 103.368 103.405 103.405 103.445 103.493
115.229 115.229 115.556 115.556 116.382 117.064 117.064 117.321
117.321 118.003 118.603 124.393 198.609 198.609 198.634 198.634
198.818 198.818 199.247 199.361 199.361 199.548 216.904 217.244
225.345 225.345 226.703 395.527 395.527 395.747 395.747 396.282
396.828 510.406 895.728 896.076
 
 Beta MOs
 -- Occupied --
-20.651 -20.651 -11.460  -1.530  -1.477  -0.801  -0.744  -0.715
 -0.715  -0.545  -0.545
 -- Virtual --
  0.041   0.063   0.063   0.069   0.129   0.134   0.134   0.177
  0.190   0.190   0.193   0.212   0.212   0.215   0.215   0.253
  0.355   0.355   0.360   0.379   0.379   0.413   0.466   0.466
  0.503   0.566   0.582   0.582   0.597   0.597   0.637   0.637
  0.643   0.709   0.729   0.729   0.790   0.790   0.814   0.850
  0.850   0.886   0.921   0.921   0.963   0.963   1.034   1.130
  1.130   1.196   1.196   1.230   1.333   1.341   1.341   1.504
  1.508   1.508   1.565   1.565   1.571   1.571   1.584   1.584
  1.650   1.651   1.651   1.655   1.655   1.690   1.717   1.892
  1.922   1.922   1.932   1.932   1.946   1.955   1.955   2.068
  2.068   2.218   2.218   2.230   2.230   2.257   2.257   2.511
  2.511   2.588   2.588   2.684   2.714   2.714   2.803   2.923
  2.923   3.048   3.149   3.149   3.190   3.190   3.440   3.508
  3.624   3.624   3.719   3.719   3.831   3.831   3.970   4.021
  4.024   4.024   4.041   4.041   4.115   4.115   4.131   4.131
  4.216   4.216   4.249   4.249   4.296   4.296   4.309   4.309
  4.319   4.555   4.566   4.566   4.604   4.604   4.694   4.694
  4.703   4.743   4.743   4.863   4.909   4.909   4.953   4.953
  5.483   5.483   5.596   5.596   5.624   5.799   5.831   5.831
  6.003   6.003   6.073   6.073   6.103   6.209   6.209   6.313
  6.363   6.363   6.644   6.644   6.941   6.977   6.977   7.202
  7.202   7.648   7.934   7.934   8.403   8.403   9.031   9.211
  9.211   9.634  10.158  10.158  10.466  10.466  10.586  10.586
 10.668  10.668  10.788  10.788  11.093  11.094  11.094  11.106
 11.106  11.189  11.311  11.311  11.378  11.378  11.456  11.520
 11.520  11.632  11.909  11.909  11.914  11.914  12.154  12.402
 12.402  12.438  12.438  12.492  12.492  13.014  13.014  13.037
 13.037  13.052  13.052  13.406  13.965  14.098  14.098  15.293
 15.923  15.923  16.568  18.119  19.095  19.611  19.611  21.847
 26.714  26.714  27.324  27.324  28.996  33.844  33.844  34.157
 34.157  35.075  35.496  38.529  47.171  47.171  47.214  47.214
 47.571  47.571  48.438  48.582  48.582  48.924  64.436  64.880
 66.987  66.987  68.587  98.582  98.582  98.604  98.604  98.685
 98.685  98.807 103.310 103.310 103.311 103.311 103.354 103.354
103.357 103.357 103.368 103.368 103.405 103.405 103.445 103.493
115.229 115.229 115.556 115.556 116.382 117.064 117.064 117.321
117.321 118.003 118.603 124.393 198.609 198.609 198.634 198.634
198.818 198.818 199.247 199.361 199.361 199.548 216.904 217.244
225.345 225.345 226.703 395.527 395.527 395.747 395.747 396.282
396.828 510.406 895.728 896.076
 --------------------------------------------------------------
 
          Ground-State Mulliken Net Atomic Charges

     Atom                 Charge (a.u.)    Spin (a.u.)
  --------------------------------------------------------
      1 C                     0.907353      -0.000000
      2 O                    -0.453676       0.000000
      3 O                    -0.453676      -0.000000
  --------------------------------------------------------
  Sum of atomic charges =     0.000000
  Sum of spin   charges =    -0.000000

 -----------------------------------------------------------------
                    Cartesian Multipole Moments
 -----------------------------------------------------------------
    Charge (ESU x 10^10)
                 0.0000
    Dipole Moment (Debye)
         X       0.0000      Y      -0.0000      Z      -0.0000
       Tot       0.0000
    Quadrupole Moments (Debye-Ang)
        XX     -14.8097     XY       0.0000     YY     -14.8097
        XZ      -0.0000     YZ       0.0000     ZZ     -19.9154
    Octopole Moments (Debye-Ang^2)
       XXX       0.0000    XXY      -0.0000    XYY       0.0000
       YYY      -0.0000    XXZ       0.0000    XYZ       0.0000
       YYZ       0.0000    XZZ       0.0000    YZZ      -0.0000
       ZZZ      -0.0000
    Hexadecapole Moments (Debye-Ang^3)
      XXXX     -11.6513   XXXY       0.0000   XXYY      -3.8838
      XYYY       0.0000   YYYY     -11.6513   XXXZ       0.0000
      XXYZ      -0.0000   XYYZ       0.0000   YYYZ       0.0000
      XXZZ     -19.0456   XYZZ      -0.0000   YYZZ     -19.0456
      XZZZ      -0.0000   YZZZ      -0.0000   ZZZZ    -103.0783
 -----------------------------------------------------------------
Archival summary:
1\1\n0080.mhg0\SP\ProcedureUnspecified\BasisUnspecified\21\yhljason\TueAug403:55:102020TueAug403:55:102020\0\\#,ProcedureUnspecified,BasisUnspecified,\\0,1\C\O,1,1.1621\O,1,1.1621,2,180\\HF=-187.722131\\@

 Total job time:  14254.78s(wall), 73922.09s(cpu) 
 Tue Aug  4 03:55:10 2020

        *************************************************************
        *                                                           *
        *  Thank you very much for using Q-Chem.  Have a nice day.  *
        *                                                           *
        *************************************************************


 
User input: 2 of 7 
 
Q-Chem Developer Version!
                  Welcome to Q-Chem
     A Quantum Leap Into The Future Of Chemistry


 Q-Chem 5.1, Q-Chem, Inc., Pleasanton, CA (2018)

 Yihan Shao,  Zhengting Gan,  E. Epifanovsky,  A. T. B. Gilbert,  M. Wormit,  
 J. Kussmann,  A. W. Lange,  A. Behn,  Jia Deng,  Xintian Feng,  D. Ghosh,  
 M. Goldey,  P. R. Horn,  L. D. Jacobson,  I. Kaliman,  T. Kus,  A. Landau,  
 Jie Liu,  E. I. Proynov,  R. M. Richard,  R. P. Steele,  E. J. Sundstrom,  
 H. L. Woodcock III,  P. M. Zimmerman,  D. Zuev,  B. Albrecht,  E. Alguire,  
 S. A. Baeppler,  D. Barton,  Z. Benda,  Y. A. Bernard,  E. J. Berquist,  
 K. B. Bravaya,  H. Burton,  D. Casanova,  Chun-Min Chang,  Yunqing Chen,  
 A. Chien,  K. D. Closser,  M. P. Coons,  S. Coriani,  S. Dasgupta,  
 A. L. Dempwolff,  M. Diedenhofen,  Hainam Do,  R. G. Edgar,  Po-Tung Fang,  
 S. Faraji,  S. Fatehi,  Qingguo Feng,  K. D. Fenk,  J. Fosso-Tande,  
 Qinghui Ge,  A. Ghysels,  G. Gidofalvi,  J. Gomes,  J. Gonthier,  A. Gunina,  
 D. Hait,  M. W. D. Hanson-Heine,  P. H. P. Harbach,  A. W. Hauser,  
 J. E. Herr,  E. G. Hohenstein,  Z. C. Holden,  Kerwin Hui,  B. C. Huynh,  
 T.-C. Jagau,  Hyunjun Ji,  B. Kaduk,  K. Khistyaev,  Jaehoon Kim,  
 P. Klunzinger,  K. Koh,  D. Kosenkov,  L. Koulias,  T. Kowalczyk,  
 C. M. Krauter,  A. Kunitsa,  Ka Un Lao,  A. Laurent,  K. V. Lawler,  
 Joonho Lee,  D. Lefrancois,  S. Lehtola,  D. S. Levine,  Yi-Pei Li,  
 You-Sheng Lin,  Fenglai Liu,  E. Livshits,  A. Luenser,  P. Manohar,  
 E. Mansoor,  S. F. Manzer,  Shan-Ping Mao,  Yuezhi Mao,  N. Mardirossian,  
 A. V. Marenich,  T. Markovich,  L. A. Martinez-Martinez,  S. A. Maurer,  
 N. J. Mayhall,  S. C. McKenzie,  J.-M. Mewes,  A. F. Morrison,  
 J. W. Mullinax,  K. Nanda,  T. S. Nguyen-Beck,  R. Olivares-Amaya,  
 J. A. Parkhill,  T. M. Perrine,  F. Plasser,  P. Pokhilko,  S. Prager,  
 A. Prociuk,  E. Ramos,  D. R. Rehn,  F. Rob,  M. Schneider,  N. Sergueev,  
 S. M. Sharada,  S. Sharma,  D. W. Small,  T. Stauch,  T. Stein,  
 Yu-Chuan Su,  A. J. W. Thom,  A. Tkatchenko,  T. Tsuchimochi,  N. M. Tubman,  
 L. Vogt,  M. L. Vidal,  O. Vydrov,  M. A. Watson,  J. Wenzel,  
 M. de Wergifosse,  T. A. Wesolowski,  A. White,  J. Witte,  A. Yamada,  
 Jun Yang,  K. Yao,  S. Yeganeh,  S. R. Yost,  Zhi-Qiang You,  A. Zech,  
 Igor Ying Zhang,  Xing Zhang,  Yan Zhao,  Ying Zhu,  B. R. Brooks,  
 G. K. L. Chan,  C. J. Cramer,  M. S. Gordon,  W. J. Hehre,  A. Klamt,  
 M. W. Schmidt,  C. D. Sherrill,  D. G. Truhlar,  A. Aspuru-Guzik,  R. Baer,  
 A. T. Bell,  N. A. Besley,  Jeng-Da Chai,  A. E. DePrince, III,  
 R. A. DiStasio Jr.,  A. Dreuw,  B. D. Dunietz,  T. R. Furlani,  
 Chao-Ping Hsu,  Yousung Jung,  Jing Kong,  D. S. Lambrecht,  WanZhen Liang,  
 C. Ochsenfeld,  V. A. Rassolov,  L. V. Slipchenko,  J. E. Subotnik,  
 T. Van Voorhis,  J. M. Herbert,  A. I. Krylov,  P. M. W. Gill,  M. Head-Gordon

 Contributors to earlier versions of Q-Chem not listed above: 
 R. D. Adamson,  B. Austin,  J. Baker,  G. J. O. Beran,  K. Brandhorst,  
 S. T. Brown,  E. F. C. Byrd,  A. K. Chakraborty,  C.-L. Cheng,  
 Siu Hung Chien,  D. M. Chipman,  D. L. Crittenden,  H. Dachsel,  
 R. J. Doerksen,  A. D. Dutoi,  L. Fusti-Molnar,  W. A. Goddard III,  
 A. Golubeva-Zadorozhnaya,  S. R. Gwaltney,  G. Hawkins,  A. Heyden,  
 S. Hirata,  G. Kedziora,  F. J. Keil,  C. Kelley,  Jihan Kim,  R. A. King,  
 R. Z. Khaliullin,  P. P. Korambath,  W. Kurlancheek,  A. M. Lee,  M. S. Lee,  
 S. V. Levchenko,  Ching Yeh Lin,  D. Liotard,  R. C. Lochan,  I. Lotan,  
 P. E. Maslen,  N. Nair,  D. P. O'Neill,  D. Neuhauser,  E. Neuscamman,  
 C. M. Oana,  R. Olson,  B. Peters,  R. Peverati,  P. A. Pieniazek,  
 Y. M. Rhee,  J. Ritchie,  M. A. Rohrdanz,  E. Rosta,  N. J. Russ,  
 H. F. Schaefer III,  N. E. Schultz,  N. Shenvi,  A. C. Simmonett,  A. Sodt,  
 D. Stuck,  K. S. Thanthiriwatte,  V. Vanovschi,  Tao Wang,  A. Warshel,  
 C. F. Williams,  Q. Wu,  X. Xu,  W. Zhang

 Please cite Q-Chem as follows:
 Y. Shao et al., Mol. Phys. 113, 184-215 (2015)
 DOI: 10.1080/00268976.2014.952696

 Q-Chem 5.1.1 for Intel X86 EM64T Linux

 Parts of Q-Chem use Armadillo 8.300.2 (Tropical Shenanigans).
 http://arma.sourceforge.net/

 Q-Chem begins on Tue Aug  4 03:55:11 2020  

Host: n0080.mhg0
0

     Scratch files written to /local/scratch/users/yhljason/CO2_ccsdT_aug-cc-pcVQZ.inp20200803231133//
The previous job contains 0 fragments, simply inherited here
Input Ideriv = 0
Curr. Ideriv = -1
Max.  Ideriv = 0

Checking the input file for inconsistencies... 	...done.

--------------------------------------------------------------
User input:
--------------------------------------------------------------
$molecule
read
$end

$rem

jobtype sp
method CCSD(T)
xc_grid 000099000590
basis aug-cc-pcVQZ
max_scf_cycles 200
thresh 14
scf_convergence 8
mem_total 128000
cc_memory 96000
cc_backend xm
mem_static 1500
symmetry false
sym_ignore true
scf_guess read
unrestricted true
scf_algorithm gdm
n_frozen_core 0
$end

$multipole_field
XX 0.0001
$end


--------------------------------------------------------------
 ----------------------------------------------------------------
             Standard Nuclear Orientation (Angstroms)
    I     Atom           X                Y                Z
 ----------------------------------------------------------------
    1      C       0.0000000000     0.0000000000     0.0000000000
    2      O       0.0000000000     0.0000000000     1.1621000000
    3      O       0.0000000000     0.0000000000    -1.1621000000
 ----------------------------------------------------------------
 Nuclear Repulsion Energy =    58.2864495159 hartrees
 There are       11 alpha and       11 beta electrons
 Requested basis set is aug-cc-pCVQZ
 There are 87 shells and 327 basis functions
 Total memory of 128000MB is distributed as follows: 
   QALLOC including MEM_STATIC uses 32000MB
   MEM_STATIC is set to 1500MB
   CCMAN JOB total memory use is  96000MB
 Warning: actual memory use might exceed 128000MB

 Total QAlloc Memory Limit  32000 MB
 Mega-Array Size      1467 MB
 MEM_STATIC part      1500 MB

                       Distance Matrix (Angstroms)
             C (  1)   O (  2)
   O (  2)  1.162100
   O (  3)  1.162100  2.324200
 
 Applying Cartesian multipole field
    Component          Value
    ---------          -----
     (2,0,0)        1.00000E-04
 A cutoff of  1.0D-14 yielded   3538 shell pairs
 There are     51370 function pairs (     84504 Cartesian)
 
 -------------------------------------------------------
 OpenMP Integral Computing Module                       
 Release: version 1.0, May 2013, Q-Chem Inc. Pittsburgh 
 -------------------------------------------------------
 Integral Job Info:
 Integral job number is                      11
 Integral operator is                         1
 short-range coefficients                     0
 long-range coefficients              100000000
 Omega coefficients                           0
 if combine SR and LR in K                    0
 Integral screening is                        0
 Integral computing path is                   2
 max size of driver memory is           3200000
 size of driver memory is               1704330
 size of scratch memory is             18511652
 max col of scratch BK array              50625
 max len of scratch array in speh3         2114
 max len of scratch index in speh4           50
 max int batch size is                      520
 min int batch size is                       52
 fixed nKL is                                52
 max L of basis functions is                  4
 order of int derivative is                   0
 number of shells is                         87
 number of basis is                         417
 number of cartesian basis is               417
 number of contracted shell pairs          3538
 number of primitive shell pairs           8022
 maxK2 (contraction) of shell pair           81
 max number of K2 of shell pair               1
 max number of CS2 of shell pair            407
 max number of PS2 of shell pair            810
 mem total for path MDJ                  811216
 -------------------------------------------------------
 Smallest overlap matrix eigenvalue = 4.61E-05
 Guess MOs from SCF MO coefficient file

 -----------------------------------------------------------------------
  General SCF calculation program by
  Eric Jon Sundstrom, Paul Horn, Yuezhi Mao, Dmitri Zuev, Alec White,
  David Stuck, Shaama M.S., Shane Yost, Joonho Lee, David Small,
  Daniel Levine, Susi Lehtola, Hugh Burton, Evgeny Epifanovsky
 -----------------------------------------------------------------------
 Hartree-Fock
 using 8 threads for integral computing
 -------------------------------------------------------
 OpenMP Integral computing Module                
 Release: version 2.0, May 2017, Q-Chem Inc. Pleasanton 
 -------------------------------------------------------
 A unrestricted SCF calculation will be
 performed using GDM
 SCF converges when RMS gradient is below 1.0e-08
 ---------------------------------------
  Cycle       Energy        RMS Gradient
 ---------------------------------------
    1    -187.7232323172      1.56e-04   Normal BFGS step
    2    -187.7232324907      3.49e-05   Normal BFGS step
    3    -187.7232325061      1.81e-05   Normal BFGS step
    4    -187.7232325081      5.09e-06   Normal BFGS step
    5    -187.7232325083      1.72e-06   Normal BFGS step
    6    -187.7232325083      6.14e-07   Normal BFGS step
    7    -187.7232325083      1.32e-07   Normal BFGS step
    8    -187.7232325083      2.08e-08   Normal BFGS step
    9    -187.7232325083      2.58e-09  Convergence criterion met
 ---------------------------------------
 SCF time:   CPU 3015.14s  wall 377.00s 
<S^2> =          0.000000000
 SCF   energy in the final basis set =     -187.7232325083
 Total energy in the final basis set =     -187.7232325083


 ------------------------------------------------------------------------------

   CCMAN2: suite of methods based on coupled cluster
           and equation of motion theories.

   Components:
   * libvmm-1.3-trunk
     by Evgeny Epifanovsky, Ilya Kaliman.
   * libtensor-2.5-trunk
     by Evgeny Epifanovsky, Michael Wormit, Dmitry Zuev, Sam Manzer, 
        Ilya Kaliman.
   * libcc-2.5-trunk
     by Evgeny Epifanovsky, Arik Landau, Tomasz Kus, Kirill Khistyaev, 
        Dmitry Zuev, Prashant Manohar, Xintian Feng, Anna Krylov, 
        Matthew Goldey, Alec White, Thomas Jagau, Kaushik Nanda, 
        Anastasia Gunina, Alexander Kunitsa, Joonho Lee.

   CCMAN original authors:
   Anna I. Krylov, C. David Sherrill, Steven R. Gwaltney,
   Edward F. C. Byrd (2000)
   Sergey V. Levchenko, Lyudmila V. Slipchenko, Tao Wang,
   Ana-Maria C. Cristian (2003)
   Piotr A. Pieniazek, C. Melania Oana, Evgeny Epifanovsky (2007)
   Prashant Manohar (2009)

 ------------------------------------------------------------------------------


 Calculation will run on 8 cores using libxm for tensor contractions

 ------------------------------------------------------------------------------
Libxm Tensor Library
Copyright (c) 2014-2018 Ilya Kaliman
https://github.com/ilyak/libxm
Reference: https://dx.doi.org/10.1002/jcc.24713
 ------------------------------------------------------------------------------

 
 Alpha MOs, Unrestricted
 -- Occupied --                  
-20.651 -20.651 -11.461  -1.530  -1.477  -0.801  -0.744  -0.715
  1 A     2 A     3 A     4 A     5 A     6 A     7 A     8 A                  
 -0.715  -0.545  -0.545
  9 A    10 A    11 A                                                          
 -- Virtual --                   
  0.040   0.060   0.062   0.068   0.128   0.132   0.133   0.176
 12 A    13 A    14 A    15 A    16 A    17 A    18 A    19 A                  
  0.189   0.190   0.191   0.210   0.211   0.214   0.214   0.252
 20 A    21 A    22 A    23 A    24 A    25 A    26 A    27 A                  
  0.354   0.354   0.360   0.378   0.379   0.412   0.466   0.466
 28 A    29 A    30 A    31 A    32 A    33 A    34 A    35 A                  
  0.503   0.566   0.581   0.581   0.596   0.597   0.636   0.637
 36 A    37 A    38 A    39 A    40 A    41 A    42 A    43 A                  
  0.642   0.708   0.728   0.728   0.789   0.789   0.814   0.849
 44 A    45 A    46 A    47 A    48 A    49 A    50 A    51 A                  
  0.850   0.885   0.920   0.920   0.963   0.963   1.034   1.130
 52 A    53 A    54 A    55 A    56 A    57 A    58 A    59 A                  
  1.130   1.195   1.195   1.230   1.332   1.340   1.340   1.504
 60 A    61 A    62 A    63 A    64 A    65 A    66 A    67 A                  
  1.508   1.508   1.564   1.564   1.571   1.571   1.584   1.584
 68 A    69 A    70 A    71 A    72 A    73 A    74 A    75 A                  
  1.650   1.650   1.651   1.655   1.655   1.689   1.717   1.892
 76 A    77 A    78 A    79 A    80 A    81 A    82 A    83 A                  
  1.921   1.921   1.932   1.932   1.945   1.954   1.954   2.068
 84 A    85 A    86 A    87 A    88 A    89 A    90 A    91 A                  
  2.068   2.218   2.218   2.229   2.229   2.257   2.257   2.511
 92 A    93 A    94 A    95 A    96 A    97 A    98 A    99 A                  
  2.511   2.588   2.588   2.684   2.714   2.714   2.802   2.923
100 A   101 A   102 A   103 A   104 A   105 A   106 A   107 A                  
  2.923   3.048   3.148   3.148   3.190   3.190   3.440   3.508
108 A   109 A   110 A   111 A   112 A   113 A   114 A   115 A                  
  3.624   3.624   3.719   3.719   3.830   3.830   3.970   4.021
116 A   117 A   118 A   119 A   120 A   121 A   122 A   123 A                  
  4.024   4.024   4.041   4.041   4.115   4.115   4.131   4.131
124 A   125 A   126 A   127 A   128 A   129 A   130 A   131 A                  
  4.215   4.215   4.249   4.249   4.296   4.296   4.309   4.309
132 A   133 A   134 A   135 A   136 A   137 A   138 A   139 A                  
  4.319   4.555   4.566   4.566   4.604   4.604   4.694   4.694
140 A   141 A   142 A   143 A   144 A   145 A   146 A   147 A                  
  4.703   4.742   4.742   4.863   4.909   4.909   4.953   4.953
148 A   149 A   150 A   151 A   152 A   153 A   154 A   155 A                  
  5.483   5.483   5.596   5.596   5.624   5.799   5.831   5.831
156 A   157 A   158 A   159 A   160 A   161 A   162 A   163 A                  
  6.002   6.002   6.073   6.073   6.103   6.208   6.208   6.313
164 A   165 A   166 A   167 A   168 A   169 A   170 A   171 A                  
  6.363   6.363   6.643   6.643   6.941   6.977   6.977   7.202
172 A   173 A   174 A   175 A   176 A   177 A   178 A   179 A                  
  7.202   7.647   7.934   7.934   8.403   8.403   9.031   9.211
180 A   181 A   182 A   183 A   184 A   185 A   186 A   187 A                  
  9.211   9.634  10.158  10.158  10.466  10.466  10.585  10.585
188 A   189 A   190 A   191 A   192 A   193 A   194 A   195 A                  
 10.668  10.668  10.787  10.787  11.093  11.094  11.094  11.105
196 A   197 A   198 A   199 A   200 A   201 A   202 A   203 A                  
 11.105  11.189  11.310  11.310  11.378  11.378  11.456  11.520
204 A   205 A   206 A   207 A   208 A   209 A   210 A   211 A                  
 11.520  11.632  11.909  11.909  11.913  11.913  12.154  12.401
212 A   213 A   214 A   215 A   216 A   217 A   218 A   219 A                  
 12.401  12.438  12.438  12.492  12.492  13.013  13.013  13.036
220 A   221 A   222 A   223 A   224 A   225 A   226 A   227 A                  
 13.036  13.052  13.052  13.406  13.965  14.098  14.098  15.293
228 A   229 A   230 A   231 A   232 A   233 A   234 A   235 A                  
 15.923  15.923  16.567  18.119  19.094  19.611  19.611  21.847
236 A   237 A   238 A   239 A   240 A   241 A   242 A   243 A                  
 26.714  26.714  27.324  27.324  28.996  33.844  33.844  34.156
244 A   245 A   246 A   247 A   248 A   249 A   250 A   251 A                  
 34.156  35.074  35.496  38.529  47.170  47.170  47.214  47.214
252 A   253 A   254 A   255 A   256 A   257 A   258 A   259 A                  
 47.571  47.571  48.437  48.582  48.582  48.923  64.435  64.880
260 A   261 A   262 A   263 A   264 A   265 A   266 A   267 A                  
 66.987  66.987  68.587  98.582  98.582  98.604  98.604  98.685
268 A   269 A   270 A   271 A   272 A   273 A   274 A   275 A                  
 98.685  98.807 103.309 103.309 103.311 103.311 103.354 103.354
276 A   277 A   278 A   279 A   280 A   281 A   282 A   283 A                  
103.357 103.357 103.368 103.368 103.404 103.404 103.445 103.493
284 A   285 A   286 A   287 A   288 A   289 A   290 A   291 A                  
115.229 115.229 115.556 115.556 116.382 117.064 117.064 117.321
292 A   293 A   294 A   295 A   296 A   297 A   298 A   299 A                  
117.321 118.003 118.602 124.393 198.609 198.609 198.634 198.634
300 A   301 A   302 A   303 A   304 A   305 A   306 A   307 A                  
198.818 198.818 199.247 199.361 199.361 199.547 216.904 217.244
308 A   309 A   310 A   311 A   312 A   313 A   314 A   315 A                  
225.345 225.345 226.702 395.527 395.527 395.747 395.747 396.282
316 A   317 A   318 A   319 A   320 A   321 A   322 A   323 A                  
396.828 510.405 895.728 896.076
324 A   325 A   326 A   327 A                                                  
 
 Beta MOs, Unrestricted
 -- Occupied --                  
-20.651 -20.651 -11.461  -1.530  -1.477  -0.801  -0.744  -0.715
  1 A     2 A     3 A     4 A     5 A     6 A     7 A     8 A                  
 -0.715  -0.545  -0.545
  9 A    10 A    11 A                                                          
 -- Virtual --                   
  0.040   0.060   0.062   0.068   0.128   0.132   0.133   0.176
 12 A    13 A    14 A    15 A    16 A    17 A    18 A    19 A                  
  0.189   0.190   0.191   0.210   0.211   0.214   0.214   0.252
 20 A    21 A    22 A    23 A    24 A    25 A    26 A    27 A                  
  0.354   0.354   0.360   0.378   0.379   0.412   0.466   0.466
 28 A    29 A    30 A    31 A    32 A    33 A    34 A    35 A                  
  0.503   0.566   0.581   0.581   0.596   0.597   0.636   0.637
 36 A    37 A    38 A    39 A    40 A    41 A    42 A    43 A                  
  0.642   0.708   0.728   0.728   0.789   0.789   0.814   0.849
 44 A    45 A    46 A    47 A    48 A    49 A    50 A    51 A                  
  0.850   0.885   0.920   0.920   0.963   0.963   1.034   1.130
 52 A    53 A    54 A    55 A    56 A    57 A    58 A    59 A                  
  1.130   1.195   1.195   1.230   1.332   1.340   1.340   1.504
 60 A    61 A    62 A    63 A    64 A    65 A    66 A    67 A                  
  1.508   1.508   1.564   1.564   1.571   1.571   1.584   1.584
 68 A    69 A    70 A    71 A    72 A    73 A    74 A    75 A                  
  1.650   1.650   1.651   1.655   1.655   1.689   1.717   1.892
 76 A    77 A    78 A    79 A    80 A    81 A    82 A    83 A                  
  1.921   1.921   1.932   1.932   1.945   1.954   1.954   2.068
 84 A    85 A    86 A    87 A    88 A    89 A    90 A    91 A                  
  2.068   2.218   2.218   2.229   2.229   2.257   2.257   2.511
 92 A    93 A    94 A    95 A    96 A    97 A    98 A    99 A                  
  2.511   2.588   2.588   2.684   2.714   2.714   2.802   2.923
100 A   101 A   102 A   103 A   104 A   105 A   106 A   107 A                  
  2.923   3.048   3.148   3.148   3.190   3.190   3.440   3.508
108 A   109 A   110 A   111 A   112 A   113 A   114 A   115 A                  
  3.624   3.624   3.719   3.719   3.830   3.830   3.970   4.021
116 A   117 A   118 A   119 A   120 A   121 A   122 A   123 A                  
  4.024   4.024   4.041   4.041   4.115   4.115   4.131   4.131
124 A   125 A   126 A   127 A   128 A   129 A   130 A   131 A                  
  4.215   4.215   4.249   4.249   4.296   4.296   4.309   4.309
132 A   133 A   134 A   135 A   136 A   137 A   138 A   139 A                  
  4.319   4.555   4.566   4.566   4.604   4.604   4.694   4.694
140 A   141 A   142 A   143 A   144 A   145 A   146 A   147 A                  
  4.703   4.742   4.742   4.863   4.909   4.909   4.953   4.953
148 A   149 A   150 A   151 A   152 A   153 A   154 A   155 A                  
  5.483   5.483   5.596   5.596   5.624   5.799   5.831   5.831
156 A   157 A   158 A   159 A   160 A   161 A   162 A   163 A                  
  6.002   6.002   6.073   6.073   6.103   6.208   6.208   6.313
164 A   165 A   166 A   167 A   168 A   169 A   170 A   171 A                  
  6.363   6.363   6.643   6.643   6.941   6.977   6.977   7.202
172 A   173 A   174 A   175 A   176 A   177 A   178 A   179 A                  
  7.202   7.647   7.934   7.934   8.403   8.403   9.031   9.211
180 A   181 A   182 A   183 A   184 A   185 A   186 A   187 A                  
  9.211   9.634  10.158  10.158  10.466  10.466  10.585  10.585
188 A   189 A   190 A   191 A   192 A   193 A   194 A   195 A                  
 10.668  10.668  10.787  10.787  11.093  11.094  11.094  11.105
196 A   197 A   198 A   199 A   200 A   201 A   202 A   203 A                  
 11.105  11.189  11.310  11.310  11.378  11.378  11.456  11.520
204 A   205 A   206 A   207 A   208 A   209 A   210 A   211 A                  
 11.520  11.632  11.909  11.909  11.913  11.913  12.154  12.401
212 A   213 A   214 A   215 A   216 A   217 A   218 A   219 A                  
 12.401  12.438  12.438  12.492  12.492  13.013  13.013  13.036
220 A   221 A   222 A   223 A   224 A   225 A   226 A   227 A                  
 13.036  13.052  13.052  13.406  13.965  14.098  14.098  15.293
228 A   229 A   230 A   231 A   232 A   233 A   234 A   235 A                  
 15.923  15.923  16.567  18.119  19.094  19.611  19.611  21.847
236 A   237 A   238 A   239 A   240 A   241 A   242 A   243 A                  
 26.714  26.714  27.324  27.324  28.996  33.844  33.844  34.156
244 A   245 A   246 A   247 A   248 A   249 A   250 A   251 A                  
 34.156  35.074  35.496  38.529  47.170  47.170  47.214  47.214
252 A   253 A   254 A   255 A   256 A   257 A   258 A   259 A                  
 47.571  47.571  48.437  48.582  48.582  48.923  64.435  64.880
260 A   261 A   262 A   263 A   264 A   265 A   266 A   267 A                  
 66.987  66.987  68.587  98.582  98.582  98.604  98.604  98.685
268 A   269 A   270 A   271 A   272 A   273 A   274 A   275 A                  
 98.685  98.807 103.309 103.309 103.311 103.311 103.354 103.354
276 A   277 A   278 A   279 A   280 A   281 A   282 A   283 A                  
103.357 103.357 103.368 103.368 103.404 103.404 103.445 103.493
284 A   285 A   286 A   287 A   288 A   289 A   290 A   291 A                  
115.229 115.229 115.556 115.556 116.382 117.064 117.064 117.321
292 A   293 A   294 A   295 A   296 A   297 A   298 A   299 A                  
117.321 118.003 118.602 124.393 198.609 198.609 198.634 198.634
300 A   301 A   302 A   303 A   304 A   305 A   306 A   307 A                  
198.818 198.818 199.247 199.361 199.361 199.547 216.904 217.244
308 A   309 A   310 A   311 A   312 A   313 A   314 A   315 A                  
225.345 225.345 226.702 395.527 395.527 395.747 395.747 396.282
316 A   317 A   318 A   319 A   320 A   321 A   322 A   323 A                  
396.828 510.405 895.728 896.076
324 A   325 A   326 A   327 A                                                  

 Occupation and symmetry of molecular orbitals

 Point group: C1 (1 irreducible representation).

                           A     All 
 -------------------------------------
 All molecular orbitals:
  - Alpha                  327   327 
  - Beta                   327   327 
 -------------------------------------
 Alpha orbitals:
  - Frozen occupied        0     0   
  - Active occupied        11    11  
  - Active virtual         316   316 
  - Frozen virtual         0     0   
 -------------------------------------
 Beta orbitals:
  - Frozen occupied        0     0   
  - Active occupied        11    11  
  - Active virtual         316   316 
  - Frozen virtual         0     0   
 -------------------------------------

 Import integrals:   CPU 0.00 s  wall 0.00 s

 Import integrals:   CPU 15044.79 s  wall 3329.01 s

 MP2 amplitudes:   CPU 24.04 s  wall 21.14 s

Running a double precision version
           CCSD T amplitudes will be solved using DIIS.

           Start     Size      MaxIter   EConv     TConv     
           3         7         100       1.00e-06  1.00e-04  
 ------------------------------------------------------------------------------
           Energy (a.u.)   Ediff      Tdiff       Comment
 ------------------------------------------------------------------------------
          -188.54704357                           
     1    -188.50968800   3.74e-02   6.42e-01     Step took 11.12.
     2    -188.53703557   2.73e-02   9.67e-02     
     3    -188.53058800   6.45e-03   4.55e-02     
     4    -188.53363007   3.04e-03   2.52e-02     Switched to DIIS steps.
     5    -188.53412145   4.91e-04   7.41e-03     
     6    -188.53414105   1.96e-05   1.28e-03     
     7    -188.53413666   4.39e-06   4.04e-04     
     8    -188.53413813   1.48e-06   8.55e-05     
     9    -188.53413830   1.67e-07   3.45e-05     
 ------------------------------------------------------------------------------
          -188.53413830                           CCSD T converged.

End of double precision

----------------------------------------
libpt (c) 2016-2018 Ilya Kaliman
Fast Coupled Cluster Triples Corrections
https://github.com/ilyak/libpt
----------------------------------------

 Starting (T) calculation...
 Using double precision libpt code
 (T) calculation completed in 3279 sec
 (T) energy is -0.0335863575

 SCF energy                 = -187.72323251
 MP2 energy                 = -188.54704357
 CCSD correlation energy     =   -0.81090579
 CCSD total energy           = -188.53413830
 CCSD(T) correlation energy =   -0.03358636
 CCSD(T) total energy       = -188.56772466

 CCSD  T1^2 = 0.0102  T2^2 = 0.1573  Leading amplitudes:

 Amplitude    Orbitals with energies
  0.0301       9 (A) B                   ->    21 (A) B                   
              -0.7153                          0.1896                     
 -0.0301       9 (A) A                   ->    21 (A) A                   
              -0.7153                          0.1896                     
 -0.0292       8 (A) A                   ->    23 (A) A                   
              -0.7154                          0.2102                     
 -0.0292       8 (A) B                   ->    23 (A) B                   
              -0.7154                          0.2102                     

 Amplitude    Orbitals with energies
 -0.0402       10 (A) A      10 (A) B    ->    23 (A) A      23 (A) B     
              -0.5451       -0.5451            0.2102        0.2102       
  0.0402       10 (A) A      10 (A) B    ->    23 (A) B      23 (A) A     
              -0.5451       -0.5451            0.2102        0.2102       
  0.0402       10 (A) B      10 (A) A    ->    23 (A) A      23 (A) B     
              -0.5451       -0.5451            0.2102        0.2102       
 -0.0402       10 (A) B      10 (A) A    ->    23 (A) B      23 (A) A     
              -0.5451       -0.5451            0.2102        0.2102       

 CCSD calculation:   CPU 43719.35 s  wall 13475.52 s

 Total ccman2 time:   CPU 58993.38 s  wall 17129.50 s

 
 --------------------------------------------------------------
 
                    Orbital Energies (a.u.)
 --------------------------------------------------------------
 
 Alpha MOs
 -- Occupied --
-20.651 -20.651 -11.461  -1.530  -1.477  -0.801  -0.744  -0.715
 -0.715  -0.545  -0.545
 -- Virtual --
  0.040   0.060   0.062   0.068   0.128   0.132   0.133   0.176
  0.189   0.190   0.191   0.210   0.211   0.214   0.214   0.252
  0.354   0.354   0.360   0.378   0.379   0.412   0.466   0.466
  0.503   0.566   0.581   0.581   0.596   0.597   0.636   0.637
  0.642   0.708   0.728   0.728   0.789   0.789   0.814   0.849
  0.850   0.885   0.920   0.920   0.963   0.963   1.034   1.130
  1.130   1.195   1.195   1.230   1.332   1.340   1.340   1.504
  1.508   1.508   1.564   1.564   1.571   1.571   1.584   1.584
  1.650   1.650   1.651   1.655   1.655   1.689   1.717   1.892
  1.921   1.921   1.932   1.932   1.945   1.954   1.954   2.068
  2.068   2.218   2.218   2.229   2.229   2.257   2.257   2.511
  2.511   2.588   2.588   2.684   2.714   2.714   2.802   2.923
  2.923   3.048   3.148   3.148   3.190   3.190   3.440   3.508
  3.624   3.624   3.719   3.719   3.830   3.830   3.970   4.021
  4.024   4.024   4.041   4.041   4.115   4.115   4.131   4.131
  4.215   4.215   4.249   4.249   4.296   4.296   4.309   4.309
  4.319   4.555   4.566   4.566   4.604   4.604   4.694   4.694
  4.703   4.742   4.742   4.863   4.909   4.909   4.953   4.953
  5.483   5.483   5.596   5.596   5.624   5.799   5.831   5.831
  6.002   6.002   6.073   6.073   6.103   6.208   6.208   6.313
  6.363   6.363   6.643   6.643   6.941   6.977   6.977   7.202
  7.202   7.647   7.934   7.934   8.403   8.403   9.031   9.211
  9.211   9.634  10.158  10.158  10.466  10.466  10.585  10.585
 10.668  10.668  10.787  10.787  11.093  11.094  11.094  11.105
 11.105  11.189  11.310  11.310  11.378  11.378  11.456  11.520
 11.520  11.632  11.909  11.909  11.913  11.913  12.154  12.401
 12.401  12.438  12.438  12.492  12.492  13.013  13.013  13.036
 13.036  13.052  13.052  13.406  13.965  14.098  14.098  15.293
 15.923  15.923  16.567  18.119  19.094  19.611  19.611  21.847
 26.714  26.714  27.324  27.324  28.996  33.844  33.844  34.156
 34.156  35.074  35.496  38.529  47.170  47.170  47.214  47.214
 47.571  47.571  48.437  48.582  48.582  48.923  64.435  64.880
 66.987  66.987  68.587  98.582  98.582  98.604  98.604  98.685
 98.685  98.807 103.309 103.309 103.311 103.311 103.354 103.354
103.357 103.357 103.368 103.368 103.404 103.404 103.445 103.493
115.229 115.229 115.556 115.556 116.382 117.064 117.064 117.321
117.321 118.003 118.602 124.393 198.609 198.609 198.634 198.634
198.818 198.818 199.247 199.361 199.361 199.547 216.904 217.244
225.345 225.345 226.702 395.527 395.527 395.747 395.747 396.282
396.828 510.405 895.728 896.076
 
 Beta MOs
 -- Occupied --
-20.651 -20.651 -11.461  -1.530  -1.477  -0.801  -0.744  -0.715
 -0.715  -0.545  -0.545
 -- Virtual --
  0.040   0.060   0.062   0.068   0.128   0.132   0.133   0.176
  0.189   0.190   0.191   0.210   0.211   0.214   0.214   0.252
  0.354   0.354   0.360   0.378   0.379   0.412   0.466   0.466
  0.503   0.566   0.581   0.581   0.596   0.597   0.636   0.637
  0.642   0.708   0.728   0.728   0.789   0.789   0.814   0.849
  0.850   0.885   0.920   0.920   0.963   0.963   1.034   1.130
  1.130   1.195   1.195   1.230   1.332   1.340   1.340   1.504
  1.508   1.508   1.564   1.564   1.571   1.571   1.584   1.584
  1.650   1.650   1.651   1.655   1.655   1.689   1.717   1.892
  1.921   1.921   1.932   1.932   1.945   1.954   1.954   2.068
  2.068   2.218   2.218   2.229   2.229   2.257   2.257   2.511
  2.511   2.588   2.588   2.684   2.714   2.714   2.802   2.923
  2.923   3.048   3.148   3.148   3.190   3.190   3.440   3.508
  3.624   3.624   3.719   3.719   3.830   3.830   3.970   4.021
  4.024   4.024   4.041   4.041   4.115   4.115   4.131   4.131
  4.215   4.215   4.249   4.249   4.296   4.296   4.309   4.309
  4.319   4.555   4.566   4.566   4.604   4.604   4.694   4.694
  4.703   4.742   4.742   4.863   4.909   4.909   4.953   4.953
  5.483   5.483   5.596   5.596   5.624   5.799   5.831   5.831
  6.002   6.002   6.073   6.073   6.103   6.208   6.208   6.313
  6.363   6.363   6.643   6.643   6.941   6.977   6.977   7.202
  7.202   7.647   7.934   7.934   8.403   8.403   9.031   9.211
  9.211   9.634  10.158  10.158  10.466  10.466  10.585  10.585
 10.668  10.668  10.787  10.787  11.093  11.094  11.094  11.105
 11.105  11.189  11.310  11.310  11.378  11.378  11.456  11.520
 11.520  11.632  11.909  11.909  11.913  11.913  12.154  12.401
 12.401  12.438  12.438  12.492  12.492  13.013  13.013  13.036
 13.036  13.052  13.052  13.406  13.965  14.098  14.098  15.293
 15.923  15.923  16.567  18.119  19.094  19.611  19.611  21.847
 26.714  26.714  27.324  27.324  28.996  33.844  33.844  34.156
 34.156  35.074  35.496  38.529  47.170  47.170  47.214  47.214
 47.571  47.571  48.437  48.582  48.582  48.923  64.435  64.880
 66.987  66.987  68.587  98.582  98.582  98.604  98.604  98.685
 98.685  98.807 103.309 103.309 103.311 103.311 103.354 103.354
103.357 103.357 103.368 103.368 103.404 103.404 103.445 103.493
115.229 115.229 115.556 115.556 116.382 117.064 117.064 117.321
117.321 118.003 118.602 124.393 198.609 198.609 198.634 198.634
198.818 198.818 199.247 199.361 199.361 199.547 216.904 217.244
225.345 225.345 226.702 395.527 395.527 395.747 395.747 396.282
396.828 510.405 895.728 896.076
 --------------------------------------------------------------
 
          Ground-State Mulliken Net Atomic Charges

     Atom                 Charge (a.u.)    Spin (a.u.)
  --------------------------------------------------------
      1 C                     0.907590       0.000000
      2 O                    -0.453795      -0.000000
      3 O                    -0.453795      -0.000000
  --------------------------------------------------------
  Sum of atomic charges =     0.000000
  Sum of spin   charges =    -0.000000

 -----------------------------------------------------------------
                    Cartesian Multipole Moments
 -----------------------------------------------------------------
    Charge (ESU x 10^10)
                 0.0000
    Dipole Moment (Debye)
         X       0.0000      Y      -0.0000      Z      -0.0000
       Tot       0.0000
    Quadrupole Moments (Debye-Ang)
        XX     -14.8149     XY      -0.0000     YY     -14.8107
        XZ      -0.0000     YZ       0.0000     ZZ     -19.9158
    Octopole Moments (Debye-Ang^2)
       XXX      -0.0000    XXY      -0.0000    XYY       0.0000
       YYY      -0.0000    XXZ      -0.0000    XYZ       0.0000
       YYZ      -0.0000    XZZ       0.0000    YZZ      -0.0000
       ZZZ      -0.0000
    Hexadecapole Moments (Debye-Ang^3)
      XXXX     -11.6660   XXXY      -0.0000   XXYY      -3.8867
      XYYY      -0.0000   YYYY     -11.6543   XXXZ       0.0000
      XXYZ       0.0000   XYYZ      -0.0000   YYYZ       0.0000
      XXZZ     -19.0538   XYZZ      -0.0000   YYZZ     -19.0477
      XZZZ      -0.0000   YZZZ       0.0000   ZZZZ    -103.0838
 -----------------------------------------------------------------
Archival summary:
1\1\n0080.mhg0\SP\ProcedureUnspecified\BasisUnspecified\21\yhljason\TueAug408:47:232020TueAug408:47:232020\0\\#,ProcedureUnspecified,BasisUnspecified,\\0,1\C\O,1,1.1621\O,1,1.1621,2,180\\HF=-187.723233\\@

 Total job time:  17532.58s(wall), 62027.70s(cpu) 
 Tue Aug  4 08:47:23 2020

        *************************************************************
        *                                                           *
        *  Thank you very much for using Q-Chem.  Have a nice day.  *
        *                                                           *
        *************************************************************


 
User input: 3 of 7 
 
Q-Chem Developer Version!
                  Welcome to Q-Chem
     A Quantum Leap Into The Future Of Chemistry


 Q-Chem 5.1, Q-Chem, Inc., Pleasanton, CA (2018)

 Yihan Shao,  Zhengting Gan,  E. Epifanovsky,  A. T. B. Gilbert,  M. Wormit,  
 J. Kussmann,  A. W. Lange,  A. Behn,  Jia Deng,  Xintian Feng,  D. Ghosh,  
 M. Goldey,  P. R. Horn,  L. D. Jacobson,  I. Kaliman,  T. Kus,  A. Landau,  
 Jie Liu,  E. I. Proynov,  R. M. Richard,  R. P. Steele,  E. J. Sundstrom,  
 H. L. Woodcock III,  P. M. Zimmerman,  D. Zuev,  B. Albrecht,  E. Alguire,  
 S. A. Baeppler,  D. Barton,  Z. Benda,  Y. A. Bernard,  E. J. Berquist,  
 K. B. Bravaya,  H. Burton,  D. Casanova,  Chun-Min Chang,  Yunqing Chen,  
 A. Chien,  K. D. Closser,  M. P. Coons,  S. Coriani,  S. Dasgupta,  
 A. L. Dempwolff,  M. Diedenhofen,  Hainam Do,  R. G. Edgar,  Po-Tung Fang,  
 S. Faraji,  S. Fatehi,  Qingguo Feng,  K. D. Fenk,  J. Fosso-Tande,  
 Qinghui Ge,  A. Ghysels,  G. Gidofalvi,  J. Gomes,  J. Gonthier,  A. Gunina,  
 D. Hait,  M. W. D. Hanson-Heine,  P. H. P. Harbach,  A. W. Hauser,  
 J. E. Herr,  E. G. Hohenstein,  Z. C. Holden,  Kerwin Hui,  B. C. Huynh,  
 T.-C. Jagau,  Hyunjun Ji,  B. Kaduk,  K. Khistyaev,  Jaehoon Kim,  
 P. Klunzinger,  K. Koh,  D. Kosenkov,  L. Koulias,  T. Kowalczyk,  
 C. M. Krauter,  A. Kunitsa,  Ka Un Lao,  A. Laurent,  K. V. Lawler,  
 Joonho Lee,  D. Lefrancois,  S. Lehtola,  D. S. Levine,  Yi-Pei Li,  
 You-Sheng Lin,  Fenglai Liu,  E. Livshits,  A. Luenser,  P. Manohar,  
 E. Mansoor,  S. F. Manzer,  Shan-Ping Mao,  Yuezhi Mao,  N. Mardirossian,  
 A. V. Marenich,  T. Markovich,  L. A. Martinez-Martinez,  S. A. Maurer,  
 N. J. Mayhall,  S. C. McKenzie,  J.-M. Mewes,  A. F. Morrison,  
 J. W. Mullinax,  K. Nanda,  T. S. Nguyen-Beck,  R. Olivares-Amaya,  
 J. A. Parkhill,  T. M. Perrine,  F. Plasser,  P. Pokhilko,  S. Prager,  
 A. Prociuk,  E. Ramos,  D. R. Rehn,  F. Rob,  M. Schneider,  N. Sergueev,  
 S. M. Sharada,  S. Sharma,  D. W. Small,  T. Stauch,  T. Stein,  
 Yu-Chuan Su,  A. J. W. Thom,  A. Tkatchenko,  T. Tsuchimochi,  N. M. Tubman,  
 L. Vogt,  M. L. Vidal,  O. Vydrov,  M. A. Watson,  J. Wenzel,  
 M. de Wergifosse,  T. A. Wesolowski,  A. White,  J. Witte,  A. Yamada,  
 Jun Yang,  K. Yao,  S. Yeganeh,  S. R. Yost,  Zhi-Qiang You,  A. Zech,  
 Igor Ying Zhang,  Xing Zhang,  Yan Zhao,  Ying Zhu,  B. R. Brooks,  
 G. K. L. Chan,  C. J. Cramer,  M. S. Gordon,  W. J. Hehre,  A. Klamt,  
 M. W. Schmidt,  C. D. Sherrill,  D. G. Truhlar,  A. Aspuru-Guzik,  R. Baer,  
 A. T. Bell,  N. A. Besley,  Jeng-Da Chai,  A. E. DePrince, III,  
 R. A. DiStasio Jr.,  A. Dreuw,  B. D. Dunietz,  T. R. Furlani,  
 Chao-Ping Hsu,  Yousung Jung,  Jing Kong,  D. S. Lambrecht,  WanZhen Liang,  
 C. Ochsenfeld,  V. A. Rassolov,  L. V. Slipchenko,  J. E. Subotnik,  
 T. Van Voorhis,  J. M. Herbert,  A. I. Krylov,  P. M. W. Gill,  M. Head-Gordon

 Contributors to earlier versions of Q-Chem not listed above: 
 R. D. Adamson,  B. Austin,  J. Baker,  G. J. O. Beran,  K. Brandhorst,  
 S. T. Brown,  E. F. C. Byrd,  A. K. Chakraborty,  C.-L. Cheng,  
 Siu Hung Chien,  D. M. Chipman,  D. L. Crittenden,  H. Dachsel,  
 R. J. Doerksen,  A. D. Dutoi,  L. Fusti-Molnar,  W. A. Goddard III,  
 A. Golubeva-Zadorozhnaya,  S. R. Gwaltney,  G. Hawkins,  A. Heyden,  
 S. Hirata,  G. Kedziora,  F. J. Keil,  C. Kelley,  Jihan Kim,  R. A. King,  
 R. Z. Khaliullin,  P. P. Korambath,  W. Kurlancheek,  A. M. Lee,  M. S. Lee,  
 S. V. Levchenko,  Ching Yeh Lin,  D. Liotard,  R. C. Lochan,  I. Lotan,  
 P. E. Maslen,  N. Nair,  D. P. O'Neill,  D. Neuhauser,  E. Neuscamman,  
 C. M. Oana,  R. Olson,  B. Peters,  R. Peverati,  P. A. Pieniazek,  
 Y. M. Rhee,  J. Ritchie,  M. A. Rohrdanz,  E. Rosta,  N. J. Russ,  
 H. F. Schaefer III,  N. E. Schultz,  N. Shenvi,  A. C. Simmonett,  A. Sodt,  
 D. Stuck,  K. S. Thanthiriwatte,  V. Vanovschi,  Tao Wang,  A. Warshel,  
 C. F. Williams,  Q. Wu,  X. Xu,  W. Zhang

 Please cite Q-Chem as follows:
 Y. Shao et al., Mol. Phys. 113, 184-215 (2015)
 DOI: 10.1080/00268976.2014.952696

 Q-Chem 5.1.1 for Intel X86 EM64T Linux

 Parts of Q-Chem use Armadillo 8.300.2 (Tropical Shenanigans).
 http://arma.sourceforge.net/

 Q-Chem begins on Tue Aug  4 08:47:23 2020  

Host: n0080.mhg0
0

     Scratch files written to /local/scratch/users/yhljason/CO2_ccsdT_aug-cc-pcVQZ.inp20200803231133//
The previous job contains 0 fragments, simply inherited here
Input Ideriv = 0
Curr. Ideriv = -1
Max.  Ideriv = 0

Checking the input file for inconsistencies... 	...done.

--------------------------------------------------------------
User input:
--------------------------------------------------------------
$molecule
read
$end

$rem

jobtype sp
method CCSD(T)
xc_grid 000099000590
basis aug-cc-pcVQZ
max_scf_cycles 200
thresh 14
scf_convergence 8
mem_total 128000
cc_memory 96000
cc_backend xm
mem_static 1500
symmetry false
sym_ignore true
scf_guess read
unrestricted true
scf_algorithm gdm
n_frozen_core 0
$end

$multipole_field
XX -0.0001
$end


--------------------------------------------------------------
 ----------------------------------------------------------------
             Standard Nuclear Orientation (Angstroms)
    I     Atom           X                Y                Z
 ----------------------------------------------------------------
    1      C       0.0000000000     0.0000000000     0.0000000000
    2      O       0.0000000000     0.0000000000     1.1621000000
    3      O       0.0000000000     0.0000000000    -1.1621000000
 ----------------------------------------------------------------
 Nuclear Repulsion Energy =    58.2864495159 hartrees
 There are       11 alpha and       11 beta electrons
 Requested basis set is aug-cc-pCVQZ
 There are 87 shells and 327 basis functions
 Total memory of 128000MB is distributed as follows: 
   QALLOC including MEM_STATIC uses 32000MB
   MEM_STATIC is set to 1500MB
   CCMAN JOB total memory use is  96000MB
 Warning: actual memory use might exceed 128000MB

 Total QAlloc Memory Limit  32000 MB
 Mega-Array Size      1467 MB
 MEM_STATIC part      1500 MB

                       Distance Matrix (Angstroms)
             C (  1)   O (  2)
   O (  2)  1.162100
   O (  3)  1.162100  2.324200
 
 Applying Cartesian multipole field
    Component          Value
    ---------          -----
     (2,0,0)       -1.00000E-04
[...]
252 A   253 A   254 A   255 A   256 A   257 A   258 A   259 A                  
 47.572  47.572  48.438  48.583  48.583  48.924  64.436  64.881
260 A   261 A   262 A   263 A   264 A   265 A   266 A   267 A                  
 66.988  66.988  68.588  98.583  98.583  98.604  98.604  98.685
268 A   269 A   270 A   271 A   272 A   273 A   274 A   275 A                  
 98.685  98.808 103.310 103.310 103.312 103.312 103.355 103.355
276 A   277 A   278 A   279 A   280 A   281 A   282 A   283 A                  
103.358 103.358 103.369 103.369 103.405 103.405 103.446 103.494
284 A   285 A   286 A   287 A   288 A   289 A   290 A   291 A                  
115.230 115.230 115.557 115.557 116.383 117.065 117.065 117.322
292 A   293 A   294 A   295 A   296 A   297 A   298 A   299 A                  
117.322 118.004 118.603 124.394 198.610 198.610 198.635 198.635
300 A   301 A   302 A   303 A   304 A   305 A   306 A   307 A                  
198.818 198.818 199.248 199.361 199.361 199.548 216.905 217.245
308 A   309 A   310 A   311 A   312 A   313 A   314 A   315 A                  
225.346 225.346 226.703 395.527 395.527 395.748 395.748 396.283
316 A   317 A   318 A   319 A   320 A   321 A   322 A   323 A                  
396.828 510.406 895.729 896.077
324 A   325 A   326 A   327 A                                                  
 
 Beta MOs, Unrestricted
 -- Occupied --                  
-20.650 -20.650 -11.460  -1.530  -1.476  -0.800  -0.743  -0.715
  1 A     2 A     3 A     4 A     5 A     6 A     7 A     8 A                  
 -0.715  -0.544  -0.544
  9 A    10 A    11 A                                                          
 -- Virtual --                   
  0.043   0.064   0.064   0.073   0.133   0.137   0.137   0.178
 12 A    13 A    14 A    15 A    16 A    17 A    18 A    19 A                  
  0.191   0.191   0.196   0.213   0.213   0.216   0.216   0.256
 20 A    21 A    22 A    23 A    24 A    25 A    26 A    27 A                  
  0.356   0.356   0.363   0.381   0.381   0.414   0.468   0.468
 28 A    29 A    30 A    31 A    32 A    33 A    34 A    35 A                  
  0.505   0.568   0.583   0.583   0.599   0.599   0.639   0.639
 36 A    37 A    38 A    39 A    40 A    41 A    42 A    43 A                  
  0.645   0.710   0.729   0.729   0.791   0.791   0.816   0.851
 44 A    45 A    46 A    47 A    48 A    49 A    50 A    51 A                  
  0.851   0.888   0.922   0.922   0.964   0.964   1.035   1.131
 52 A    53 A    54 A    55 A    56 A    57 A    58 A    59 A                  
  1.131   1.196   1.196   1.231   1.334   1.341   1.341   1.505
 60 A    61 A    62 A    63 A    64 A    65 A    66 A    67 A                  
  1.509   1.509   1.566   1.566   1.572   1.572   1.585   1.585
 68 A    69 A    70 A    71 A    72 A    73 A    74 A    75 A                  
  1.652   1.652   1.652   1.656   1.656   1.691   1.719   1.894
 76 A    77 A    78 A    79 A    80 A    81 A    82 A    83 A                  
  1.923   1.923   1.933   1.933   1.947   1.955   1.955   2.069
 84 A    85 A    86 A    87 A    88 A    89 A    90 A    91 A                  
  2.069   2.218   2.218   2.230   2.230   2.258   2.258   2.512
 92 A    93 A    94 A    95 A    96 A    97 A    98 A    99 A                  
  2.512   2.589   2.589   2.686   2.715   2.715   2.803   2.924
100 A   101 A   102 A   103 A   104 A   105 A   106 A   107 A                  
  2.924   3.049   3.149   3.149   3.191   3.191   3.441   3.509
108 A   109 A   110 A   111 A   112 A   113 A   114 A   115 A                  
  3.625   3.625   3.720   3.720   3.831   3.831   3.971   4.022
116 A   117 A   118 A   119 A   120 A   121 A   122 A   123 A                  
  4.025   4.025   4.042   4.042   4.116   4.116   4.132   4.132
124 A   125 A   126 A   127 A   128 A   129 A   130 A   131 A                  
  4.216   4.216   4.250   4.250   4.296   4.296   4.310   4.310
132 A   133 A   134 A   135 A   136 A   137 A   138 A   139 A                  
  4.320   4.556   4.567   4.567   4.605   4.605   4.695   4.695
140 A   141 A   142 A   143 A   144 A   145 A   146 A   147 A                  
  4.704   4.743   4.743   4.864   4.910   4.910   4.953   4.953
148 A   149 A   150 A   151 A   152 A   153 A   154 A   155 A                  
  5.484   5.484   5.597   5.597   5.625   5.800   5.831   5.831
156 A   157 A   158 A   159 A   160 A   161 A   162 A   163 A                  
  6.003   6.003   6.074   6.074   6.104   6.209   6.209   6.314
164 A   165 A   166 A   167 A   168 A   169 A   170 A   171 A                  
  6.363   6.363   6.644   6.644   6.942   6.978   6.978   7.203
172 A   173 A   174 A   175 A   176 A   177 A   178 A   179 A                  
  7.203   7.648   7.935   7.935   8.404   8.404   9.032   9.212
180 A   181 A   182 A   183 A   184 A   185 A   186 A   187 A                  
  9.212   9.635  10.159  10.159  10.467  10.467  10.586  10.586
188 A   189 A   190 A   191 A   192 A   193 A   194 A   195 A                  
 10.669  10.669  10.788  10.788  11.094  11.095  11.095  11.106
196 A   197 A   198 A   199 A   200 A   201 A   202 A   203 A                  
 11.106  11.190  11.311  11.311  11.378  11.378  11.457  11.521
204 A   205 A   206 A   207 A   208 A   209 A   210 A   211 A                  
 11.521  11.633  11.909  11.909  11.914  11.914  12.155  12.402
212 A   213 A   214 A   215 A   216 A   217 A   218 A   219 A                  
 12.402  12.439  12.439  12.493  12.493  13.014  13.014  13.037
220 A   221 A   222 A   223 A   224 A   225 A   226 A   227 A                  
 13.037  13.052  13.052  13.407  13.965  14.099  14.099  15.293
228 A   229 A   230 A   231 A   232 A   233 A   234 A   235 A                  
 15.924  15.924  16.568  18.120  19.095  19.612  19.612  21.848
236 A   237 A   238 A   239 A   240 A   241 A   242 A   243 A                  
 26.715  26.715  27.325  27.325  28.996  33.845  33.845  34.157
244 A   245 A   246 A   247 A   248 A   249 A   250 A   251 A                  
 34.157  35.075  35.497  38.530  47.171  47.171  47.215  47.215
252 A   253 A   254 A   255 A   256 A   257 A   258 A   259 A                  
 47.572  47.572  48.438  48.583  48.583  48.924  64.436  64.881
260 A   261 A   262 A   263 A   264 A   265 A   266 A   267 A                  
 66.988  66.988  68.588  98.583  98.583  98.604  98.604  98.685
268 A   269 A   270 A   271 A   272 A   273 A   274 A   275 A                  
 98.685  98.808 103.310 103.310 103.312 103.312 103.355 103.355
276 A   277 A   278 A   279 A   280 A   281 A   282 A   283 A                  
103.358 103.358 103.369 103.369 103.405 103.405 103.446 103.494
284 A   285 A   286 A   287 A   288 A   289 A   290 A   291 A                  
115.230 115.230 115.557 115.557 116.383 117.065 117.065 117.322
292 A   293 A   294 A   295 A   296 A   297 A   298 A   299 A                  
117.322 118.004 118.603 124.394 198.610 198.610 198.635 198.635
300 A   301 A   302 A   303 A   304 A   305 A   306 A   307 A                  
198.818 198.818 199.248 199.361 199.361 199.548 216.905 217.245
308 A   309 A   310 A   311 A   312 A   313 A   314 A   315 A                  
225.346 225.346 226.703 395.527 395.527 395.748 395.748 396.283
316 A   317 A   318 A   319 A   320 A   321 A   322 A   323 A                  
396.828 510.406 895.729 896.077
324 A   325 A   326 A   327 A                                                  

 Occupation and symmetry of molecular orbitals

 Point group: C1 (1 irreducible representation).

                           A     All 
 -------------------------------------
 All molecular orbitals:
  - Alpha                  327   327 
  - Beta                   327   327 
 -------------------------------------
 Alpha orbitals:
  - Frozen occupied        0     0   
  - Active occupied        11    11  
  - Active virtual         316   316 
  - Frozen virtual         0     0   
 -------------------------------------
 Beta orbitals:
  - Frozen occupied        0     0   
  - Active occupied        11    11  
  - Active virtual         316   316 
  - Frozen virtual         0     0   
 -------------------------------------

 Import integrals:   CPU 0.00 s  wall 0.00 s

 Import integrals:   CPU 41870.03 s  wall 12444.21 s

 MP2 amplitudes:   CPU 23.19 s  wall 51.16 s

Running a double precision version
           CCSD T amplitudes will be solved using DIIS.

           Start     Size      MaxIter   EConv     TConv     
           3         7         100       1.00e-06  1.00e-04  
 ------------------------------------------------------------------------------
           Energy (a.u.)   Ediff      Tdiff       Comment
 ------------------------------------------------------------------------------
          -188.54451862                           
     1    -188.50714219   3.74e-02   6.42e-01     Step took 43.00.
     2    -188.53450572   2.74e-02   9.67e-02     
     3    -188.52804980   6.46e-03   4.55e-02     
     4    -188.53109505   3.05e-03   2.52e-02     Switched to DIIS steps.
     5    -188.53158651   4.91e-04   7.41e-03     
     6    -188.53160610   1.96e-05   1.28e-03     
     7    -188.53160170   4.40e-06   4.05e-04     
     8    -188.53160318   1.48e-06   8.55e-05     
     9    -188.53160335   1.65e-07   3.45e-05     
 ------------------------------------------------------------------------------
          -188.53160335                           CCSD T converged.

End of double precision

----------------------------------------
libpt (c) 2016-2018 Ilya Kaliman
Fast Coupled Cluster Triples Corrections
https://github.com/ilyak/libpt
----------------------------------------

 Starting (T) calculation...
 Using double precision libpt code
 (T) calculation completed in 3143 sec
 (T) energy is -0.0335941486

 SCF energy                 = -187.72065164
 MP2 energy                 = -188.54451862
 CCSD correlation energy     =   -0.81095170
 CCSD total energy           = -188.53160335
 CCSD(T) correlation energy =   -0.03359415
 CCSD(T) total energy       = -188.56519750

 CCSD  T1^2 = 0.0102  T2^2 = 0.1573  Leading amplitudes:

 Amplitude    Orbitals with energies
 -0.0312       9 (A) B                   ->    21 (A) B                   
              -0.7146                          0.1915                     
 -0.0312       9 (A) A                   ->    21 (A) A                   
              -0.7146                          0.1915                     
 -0.0312       8 (A) B                   ->    20 (A) B                   
              -0.7146                          0.1915                     
 -0.0312       8 (A) A                   ->    20 (A) A                   
              -0.7146                          0.1915                     

 Amplitude    Orbitals with energies
  0.0358       10 (A) A      10 (A) B    ->    23 (A) A      23 (A) B     
              -0.5443       -0.5443            0.2128        0.2128       
 -0.0358       10 (A) A      10 (A) B    ->    23 (A) B      23 (A) A     
              -0.5443       -0.5443            0.2128        0.2128       
 -0.0358       10 (A) B      10 (A) A    ->    23 (A) A      23 (A) B     
              -0.5443       -0.5443            0.2128        0.2128       
  0.0358       10 (A) B      10 (A) A    ->    23 (A) B      23 (A) A     
              -0.5443       -0.5443            0.2128        0.2128       
 -0.0358       11 (A) A      11 (A) B    ->    24 (A) A      24 (A) B     
              -0.5443       -0.5443            0.2128        0.2128       
  0.0358       11 (A) A      11 (A) B    ->    24 (A) B      24 (A) A     
              -0.5443       -0.5443            0.2128        0.2128       
  0.0358       11 (A) B      11 (A) A    ->    24 (A) A      24 (A) B     
              -0.5443       -0.5443            0.2128        0.2128       
 -0.0358       11 (A) B      11 (A) A    ->    24 (A) B      24 (A) A     
              -0.5443       -0.5443            0.2128        0.2128       

 CCSD calculation:   CPU 40696.54 s  wall 16589.93 s

 Total ccman2 time:   CPU 82814.65 s  wall 29487.08 s

 
 --------------------------------------------------------------
 
                    Orbital Energies (a.u.)
 --------------------------------------------------------------
 
 Alpha MOs
 -- Occupied --
-20.650 -20.650 -11.460  -1.530  -1.476  -0.800  -0.743  -0.715
 -0.715  -0.544  -0.544
 -- Virtual --
  0.043   0.064   0.064   0.073   0.133   0.137   0.137   0.178
  0.191   0.191   0.196   0.213   0.213   0.216   0.216   0.256
  0.356   0.356   0.363   0.381   0.381   0.414   0.468   0.468
  0.505   0.568   0.583   0.583   0.599   0.599   0.639   0.639
  0.645   0.710   0.729   0.729   0.791   0.791   0.816   0.851
  0.851   0.888   0.922   0.922   0.964   0.964   1.035   1.131
  1.131   1.196   1.196   1.231   1.334   1.341   1.341   1.505
  1.509   1.509   1.566   1.566   1.572   1.572   1.585   1.585
  1.652   1.652   1.652   1.656   1.656   1.691   1.719   1.894
  1.923   1.923   1.933   1.933   1.947   1.955   1.955   2.069
  2.069   2.218   2.218   2.230   2.230   2.258   2.258   2.512
  2.512   2.589   2.589   2.686   2.715   2.715   2.803   2.924
  2.924   3.049   3.149   3.149   3.191   3.191   3.441   3.509
  3.625   3.625   3.720   3.720   3.831   3.831   3.971   4.022
  4.025   4.025   4.042   4.042   4.116   4.116   4.132   4.132
  4.216   4.216   4.250   4.250   4.296   4.296   4.310   4.310
  4.320   4.556   4.567   4.567   4.605   4.605   4.695   4.695
  4.704   4.743   4.743   4.864   4.910   4.910   4.953   4.953
  5.484   5.484   5.597   5.597   5.625   5.800   5.831   5.831
  6.003   6.003   6.074   6.074   6.104   6.209   6.209   6.314
  6.363   6.363   6.644   6.644   6.942   6.978   6.978   7.203
  7.203   7.648   7.935   7.935   8.404   8.404   9.032   9.212
  9.212   9.635  10.159  10.159  10.467  10.467  10.586  10.586
 10.669  10.669  10.788  10.788  11.094  11.095  11.095  11.106
 11.106  11.190  11.311  11.311  11.378  11.378  11.457  11.521
 11.521  11.633  11.909  11.909  11.914  11.914  12.155  12.402
 12.402  12.439  12.439  12.493  12.493  13.014  13.014  13.037
 13.037  13.052  13.052  13.407  13.965  14.099  14.099  15.293
 15.924  15.924  16.568  18.120  19.095  19.612  19.612  21.848
 26.715  26.715  27.325  27.325  28.996  33.845  33.845  34.157
 34.157  35.075  35.497  38.530  47.171  47.171  47.215  47.215
 47.572  47.572  48.438  48.583  48.583  48.924  64.436  64.881
 66.988  66.988  68.588  98.583  98.583  98.604  98.604  98.685
 98.685  98.808 103.310 103.310 103.312 103.312 103.355 103.355
103.358 103.358 103.369 103.369 103.405 103.405 103.446 103.494
115.230 115.230 115.557 115.557 116.383 117.065 117.065 117.322
117.322 118.004 118.603 124.394 198.610 198.610 198.635 198.635
198.818 198.818 199.248 199.361 199.361 199.548 216.905 217.245
225.346 225.346 226.703 395.527 395.527 395.748 395.748 396.283
396.828 510.406 895.729 896.077
 
 Beta MOs
 -- Occupied --
-20.650 -20.650 -11.460  -1.530  -1.476  -0.800  -0.743  -0.715
 -0.715  -0.544  -0.544
 -- Virtual --
  0.043   0.064   0.064   0.073   0.133   0.137   0.137   0.178
  0.191   0.191   0.196   0.213   0.213   0.216   0.216   0.256
  0.356   0.356   0.363   0.381   0.381   0.414   0.468   0.468
  0.505   0.568   0.583   0.583   0.599   0.599   0.639   0.639
  0.645   0.710   0.729   0.729   0.791   0.791   0.816   0.851
  0.851   0.888   0.922   0.922   0.964   0.964   1.035   1.131
  1.131   1.196   1.196   1.231   1.334   1.341   1.341   1.505
  1.509   1.509   1.566   1.566   1.572   1.572   1.585   1.585
  1.652   1.652   1.652   1.656   1.656   1.691   1.719   1.894
  1.923   1.923   1.933   1.933   1.947   1.955   1.955   2.069
  2.069   2.218   2.218   2.230   2.230   2.258   2.258   2.512
  2.512   2.589   2.589   2.686   2.715   2.715   2.803   2.924
  2.924   3.049   3.149   3.149   3.191   3.191   3.441   3.509
  3.625   3.625   3.720   3.720   3.831   3.831   3.971   4.022
  4.025   4.025   4.042   4.042   4.116   4.116   4.132   4.132
  4.216   4.216   4.250   4.250   4.296   4.296   4.310   4.310
  4.320   4.556   4.567   4.567   4.605   4.605   4.695   4.695
  4.704   4.743   4.743   4.864   4.910   4.910   4.953   4.953
  5.484   5.484   5.597   5.597   5.625   5.800   5.831   5.831
  6.003   6.003   6.074   6.074   6.104   6.209   6.209   6.314
  6.363   6.363   6.644   6.644   6.942   6.978   6.978   7.203
  7.203   7.648   7.935   7.935   8.404   8.404   9.032   9.212
  9.212   9.635  10.159  10.159  10.467  10.467  10.586  10.586
 10.669  10.669  10.788  10.788  11.094  11.095  11.095  11.106
 11.106  11.190  11.311  11.311  11.378  11.378  11.457  11.521
 11.521  11.633  11.909  11.909  11.914  11.914  12.155  12.402
 12.402  12.439  12.439  12.493  12.493  13.014  13.014  13.037
 13.037  13.052  13.052  13.407  13.965  14.099  14.099  15.293
 15.924  15.924  16.568  18.120  19.095  19.612  19.612  21.848
 26.715  26.715  27.325  27.325  28.996  33.845  33.845  34.157
 34.157  35.075  35.497  38.530  47.171  47.171  47.215  47.215
 47.572  47.572  48.438  48.583  48.583  48.924  64.436  64.881
 66.988  66.988  68.588  98.583  98.583  98.604  98.604  98.685
 98.685  98.808 103.310 103.310 103.312 103.312 103.355 103.355
103.358 103.358 103.369 103.369 103.405 103.405 103.446 103.494
115.230 115.230 115.557 115.557 116.383 117.065 117.065 117.322
117.322 118.004 118.603 124.394 198.610 198.610 198.635 198.635
198.818 198.818 199.248 199.361 199.361 199.548 216.905 217.245
225.346 225.346 226.703 395.527 395.527 395.748 395.748 396.283
396.828 510.406 895.729 896.077
 --------------------------------------------------------------
 
          Ground-State Mulliken Net Atomic Charges

     Atom                 Charge (a.u.)    Spin (a.u.)
  --------------------------------------------------------
      1 C                     0.905957      -0.000000
      2 O                    -0.452978       0.000000
      3 O                    -0.452978       0.000000
  --------------------------------------------------------
  Sum of atomic charges =     0.000000
  Sum of spin   charges =     0.000000

 -----------------------------------------------------------------
                    Cartesian Multipole Moments
 -----------------------------------------------------------------
    Charge (ESU x 10^10)
                 0.0000
    Dipole Moment (Debye)
         X       0.0000      Y       0.0000      Z      -0.0000
       Tot       0.0000
    Quadrupole Moments (Debye-Ang)
        XX     -14.8093     XY      -0.0000     YY     -14.8093
        XZ      -0.0000     YZ      -0.0000     ZZ     -19.8871
    Octopole Moments (Debye-Ang^2)
       XXX       0.0000    XXY      -0.0000    XYY       0.0000
       YYY      -0.0000    XXZ      -0.0000    XYZ       0.0000
       YYZ      -0.0000    XZZ       0.0000    YZZ       0.0000
       ZZZ      -0.0000
    Hexadecapole Moments (Debye-Ang^3)
      XXXX     -11.6494   XXXY       0.0000   XXYY      -3.8831
      XYYY      -0.0000   YYYY     -11.6494   XXXZ      -0.0000
      XXYZ      -0.0000   XYYZ      -0.0000   YYYZ      -0.0000
      XXZZ     -19.0315   XYZZ      -0.0000   YYZZ     -19.0315
      XZZZ      -0.0000   YZZZ      -0.0000   ZZZZ    -102.9276
 -----------------------------------------------------------------
Archival summary:
1\1\n0080.mhg0\SP\ProcedureUnspecified\BasisUnspecified\21\yhljason\WedAug514:23:512020WedAug514:23:512020\0\\#,ProcedureUnspecified,BasisUnspecified,\\0,1\C\O,1,1.1621\O,1,1.1621,2,180\\HF=-187.720652\\@

 Total job time:  29880.91s(wall), 85677.96s(cpu) 
 Wed Aug  5 14:23:51 2020

        *************************************************************
        *                                                           *
        *  Thank you very much for using Q-Chem.  Have a nice day.  *
        *                                                           *
        *************************************************************


