Q-Chem Developer Version!
                  Welcome to Q-Chem
     A Quantum Leap Into The Future Of Chemistry


 Q-Chem 5.1, Q-Chem, Inc., Pleasanton, CA (2018)

 Yihan Shao,  Zhengting Gan,  E. Epifanovsky,  A. T. B. Gilbert,  M. Wormit,  
 J. Kussmann,  A. W. Lange,  A. Behn,  Jia Deng,  Xintian Feng,  D. Ghosh,  
 M. Goldey,  P. R. Horn,  L. D. Jacobson,  I. Kaliman,  T. Kus,  A. Landau,  
 Jie Liu,  E. I. Proynov,  R. M. Richard,  R. P. Steele,  E. J. Sundstrom,  
 H. L. Woodcock III,  P. M. Zimmerman,  D. Zuev,  B. Albrecht,  E. Alguire,  
 S. A. Baeppler,  D. Barton,  Z. Benda,  Y. A. Bernard,  E. J. Berquist,  
 K. B. Bravaya,  H. Burton,  D. Casanova,  Chun-Min Chang,  Yunqing Chen,  
 A. Chien,  K. D. Closser,  M. P. Coons,  S. Coriani,  S. Dasgupta,  
 A. L. Dempwolff,  M. Diedenhofen,  Hainam Do,  R. G. Edgar,  Po-Tung Fang,  
 S. Faraji,  S. Fatehi,  Qingguo Feng,  K. D. Fenk,  J. Fosso-Tande,  
 Qinghui Ge,  A. Ghysels,  G. Gidofalvi,  J. Gomes,  J. Gonthier,  A. Gunina,  
 D. Hait,  M. W. D. Hanson-Heine,  P. H. P. Harbach,  A. W. Hauser,  
 J. E. Herr,  E. G. Hohenstein,  Z. C. Holden,  Kerwin Hui,  B. C. Huynh,  
 T.-C. Jagau,  Hyunjun Ji,  B. Kaduk,  K. Khistyaev,  Jaehoon Kim,  
 P. Klunzinger,  K. Koh,  D. Kosenkov,  L. Koulias,  T. Kowalczyk,  
 C. M. Krauter,  A. Kunitsa,  Ka Un Lao,  A. Laurent,  K. V. Lawler,  
 Joonho Lee,  D. Lefrancois,  S. Lehtola,  D. S. Levine,  Yi-Pei Li,  
 You-Sheng Lin,  Fenglai Liu,  E. Livshits,  A. Luenser,  P. Manohar,  
 E. Mansoor,  S. F. Manzer,  Shan-Ping Mao,  Yuezhi Mao,  N. Mardirossian,  
 A. V. Marenich,  T. Markovich,  L. A. Martinez-Martinez,  S. A. Maurer,  
 N. J. Mayhall,  S. C. McKenzie,  J.-M. Mewes,  A. F. Morrison,  
 J. W. Mullinax,  K. Nanda,  T. S. Nguyen-Beck,  R. Olivares-Amaya,  
 J. A. Parkhill,  T. M. Perrine,  F. Plasser,  P. Pokhilko,  S. Prager,  
 A. Prociuk,  E. Ramos,  D. R. Rehn,  F. Rob,  M. Schneider,  N. Sergueev,  
 S. M. Sharada,  S. Sharma,  D. W. Small,  T. Stauch,  T. Stein,  
 Yu-Chuan Su,  A. J. W. Thom,  A. Tkatchenko,  T. Tsuchimochi,  N. M. Tubman,  
 L. Vogt,  M. L. Vidal,  O. Vydrov,  M. A. Watson,  J. Wenzel,  
 M. de Wergifosse,  T. A. Wesolowski,  A. White,  J. Witte,  A. Yamada,  
 Jun Yang,  K. Yao,  S. Yeganeh,  S. R. Yost,  Zhi-Qiang You,  A. Zech,  
 Igor Ying Zhang,  Xing Zhang,  Yan Zhao,  Ying Zhu,  B. R. Brooks,  
 G. K. L. Chan,  C. J. Cramer,  M. S. Gordon,  W. J. Hehre,  A. Klamt,  
 M. W. Schmidt,  C. D. Sherrill,  D. G. Truhlar,  A. Aspuru-Guzik,  R. Baer,  
 A. T. Bell,  N. A. Besley,  Jeng-Da Chai,  A. E. DePrince, III,  
 R. A. DiStasio Jr.,  A. Dreuw,  B. D. Dunietz,  T. R. Furlani,  
 Chao-Ping Hsu,  Yousung Jung,  Jing Kong,  D. S. Lambrecht,  WanZhen Liang,  
 C. Ochsenfeld,  V. A. Rassolov,  L. V. Slipchenko,  J. E. Subotnik,  
 T. Van Voorhis,  J. M. Herbert,  A. I. Krylov,  P. M. W. Gill,  M. Head-Gordon

 Contributors to earlier versions of Q-Chem not listed above: 
 R. D. Adamson,  B. Austin,  J. Baker,  G. J. O. Beran,  K. Brandhorst,  
 S. T. Brown,  E. F. C. Byrd,  A. K. Chakraborty,  C.-L. Cheng,  
 Siu Hung Chien,  D. M. Chipman,  D. L. Crittenden,  H. Dachsel,  
 R. J. Doerksen,  A. D. Dutoi,  L. Fusti-Molnar,  W. A. Goddard III,  
 A. Golubeva-Zadorozhnaya,  S. R. Gwaltney,  G. Hawkins,  A. Heyden,  
 S. Hirata,  G. Kedziora,  F. J. Keil,  C. Kelley,  Jihan Kim,  R. A. King,  
 R. Z. Khaliullin,  P. P. Korambath,  W. Kurlancheek,  A. M. Lee,  M. S. Lee,  
 S. V. Levchenko,  Ching Yeh Lin,  D. Liotard,  R. C. Lochan,  I. Lotan,  
 P. E. Maslen,  N. Nair,  D. P. O'Neill,  D. Neuhauser,  E. Neuscamman,  
 C. M. Oana,  R. Olson,  B. Peters,  R. Peverati,  P. A. Pieniazek,  
 Y. M. Rhee,  J. Ritchie,  M. A. Rohrdanz,  E. Rosta,  N. J. Russ,  
 H. F. Schaefer III,  N. E. Schultz,  N. Shenvi,  A. C. Simmonett,  A. Sodt,  
 D. Stuck,  K. S. Thanthiriwatte,  V. Vanovschi,  Tao Wang,  A. Warshel,  
 C. F. Williams,  Q. Wu,  X. Xu,  W. Zhang

 Please cite Q-Chem as follows:
 Y. Shao et al., Mol. Phys. 113, 184-215 (2015)
 DOI: 10.1080/00268976.2014.952696

 Q-Chem 5.1.1 for Intel X86 EM64T Linux

 Parts of Q-Chem use Armadillo 8.300.2 (Tropical Shenanigans).
 http://arma.sourceforge.net/

 Q-Chem begins on Mon Aug  3 23:57:36 2020  

Host: n0088.mhg0
0

     Scratch files written to /local/scratch/users/yhljason/H2CN_ccsdT_aug-cc-pcVTZ.inp20200803231135//
Input Ideriv = 0
Curr. Ideriv = -1
Max.  Ideriv = 0

Checking the input file for inconsistencies... 	...done.

--------------------------------------------------------------
User input:
--------------------------------------------------------------
$molecule
0 2
        C         0.0000000000    0.0000000000   -0.4906000000
        N         0.0000000000    0.0000000000    0.7226000000
        H         0.0000000000    0.9342000000   -1.0572000000
        H         0.0000000000   -0.9342000000   -1.0572000000
$end

$rem
jobtype sp
method CCSD(T)
xc_grid 000099000590
basis aug-cc-pcVTZ
max_scf_cycles 200
thresh 14
scf_convergence 8
scf_algorithm gdm
symmetry false
sym_ignore true
unrestricted true
gen_scfman true
internal_stability_iter 15
internal_stability_davidson_iter 200
mem_total 128000
cc_memory 96000
cc_backend xm
mem_static 1500
n_frozen_core 0
$end


--------------------------------------------------------------
 ----------------------------------------------------------------
             Standard Nuclear Orientation (Angstroms)
    I     Atom           X                Y                Z
 ----------------------------------------------------------------
    1      C       0.0000000000     0.0000000000    -0.4906000000
    2      N       0.0000000000     0.0000000000     0.7226000000
    3      H       0.0000000000     0.9342000000    -1.0572000000
    4      H       0.0000000000    -0.9342000000    -1.0572000000
 ----------------------------------------------------------------
 Nuclear Repulsion Energy =    28.1005412294 hartrees
 There are        8 alpha and        7 beta electrons
 Requested basis set is aug-cc-pCVTZ
 There are 56 shells and 164 basis functions
 Total memory of 128000MB is distributed as follows: 
   QALLOC including MEM_STATIC uses 32000MB
   MEM_STATIC is set to 1500MB
   CCMAN JOB total memory use is  96000MB
 Warning: actual memory use might exceed 128000MB

 Total QAlloc Memory Limit  32000 MB
 Mega-Array Size      1467 MB
 MEM_STATIC part      1500 MB

                       Distance Matrix (Angstroms)
             C (  1)   N (  2)   H (  3)
   N (  2)  1.213200
   H (  3)  1.092596  2.010079
   H (  4)  1.092596  2.010079  1.868400
 
 A cutoff of  1.0D-14 yielded   1588 shell pairs
 There are     13728 function pairs (     18113 Cartesian)
 
 -------------------------------------------------------
 OpenMP Integral Computing Module                       
 Release: version 1.0, May 2013, Q-Chem Inc. Pittsburgh 
 -------------------------------------------------------
 Integral Job Info:
 Integral job number is                      11
 Integral operator is                         1
 short-range coefficients                     0
 long-range coefficients              100000000
 Omega coefficients                           0
 if combine SR and LR in K                    0
 Integral screening is                        0
 Integral computing path is                   2
 max size of driver memory is            800000
 size of driver memory is                776718
 size of scratch memory is              6691272
 max col of scratch BK array              10000
 max len of scratch array in speh3          662
 max len of scratch index in speh4           32
 max int batch size is                      520
 min int batch size is                       52
 fixed nKL is                                52
 max L of basis functions is                  3
 order of int derivative is                   0
 number of shells is                         56
 number of basis is                         188
 number of cartesian basis is               188
 number of contracted shell pairs          1588
 number of primitive shell pairs           4021
 maxK2 (contraction) of shell pair           64
 max number of K2 of shell pair               1
 max number of CS2 of shell pair            258
 max number of PS2 of shell pair            472
 mem total for path MDJ                  562704
 -------------------------------------------------------
 Smallest overlap matrix eigenvalue = 8.03E-05

 Scale SEOQF with 1.000000e-01/1.000000e-01/1.000000e-01

 Standard Electronic Orientation quadrupole field applied
 Nucleus-field energy     =    -0.0000000007 hartrees
 Guess from superposition of atomic densities
 Warning:  Energy on first SCF cycle will be non-variational
 SAD guess density has 15.000000 electrons

 -----------------------------------------------------------------------
  General SCF calculation program by
  Eric Jon Sundstrom, Paul Horn, Yuezhi Mao, Dmitri Zuev, Alec White,
  David Stuck, Shaama M.S., Shane Yost, Joonho Lee, David Small,
  Daniel Levine, Susi Lehtola, Hugh Burton, Evgeny Epifanovsky
 -----------------------------------------------------------------------
Running Object-Oriented UHF
performing a single roothaan step with Fock from read density so that orbitals are available to all algorithms
energy of the guess density (C=0) -93.671103609743
We will preform up to 15 macro iterations over saddle points until a stable solution is found
Energy prior to optimization (guess energy) = -93.404889372233
Begin Timing: Total SCF Calculation
Begin Timing: SCF Single Stationary Point Calculation
begin iterations for algorithm: GDM          
the SCF tolerance is set to 1.00e-08
    1     -93.4048893722      1.56e-01     00000  Normal BFGS step
    2     -93.4466644105      4.70e-02     00000  Normal BFGS step
    3     -93.4623350858      1.35e-02     00000  Normal BFGS step
    4     -93.4639373317      8.17e-03     00000  Normal BFGS step
    5     -93.4645839654      8.44e-03     00000  Normal BFGS step
    6     -93.4651870971      7.56e-03     00000  Normal BFGS step
    7     -93.4659306128      7.28e-03     00000  Normal BFGS step
    8     -93.4663494992      5.23e-03     00000  Normal BFGS step
    9     -93.4665456337      1.28e-03     00000  Normal BFGS step
   10     -93.4665712304      6.16e-04     00000  Normal BFGS step
   11     -93.4665758952      2.23e-04     00000  Normal BFGS step
   12     -93.4665768798      7.82e-05     00000  Normal BFGS step
   13     -93.4665770042      2.57e-05     00000  Normal BFGS step
   14     -93.4665770207      8.07e-06     00000  Normal BFGS step
   15     -93.4665770219      3.53e-06     00000  Normal BFGS step
   16     -93.4665770221      1.18e-06     00000  Normal BFGS step
   17     -93.4665770221      3.13e-07     00000  Normal BFGS step
   18     -93.4665770221      7.49e-08     00000  Normal BFGS step
   19     -93.4665770221      2.40e-08     00000  Normal BFGS step
   20     -93.4665770221      1.46e-08     00000  Normal BFGS step
   21     -93.4665770221      2.43e-09     00000 Convergence criterion met
Timing for Single Stationary Point: 48.00s (wall), 358.14s (cpu)
Begin Timing: Stability
===================================================
Beginning Test for Internal Stability
===================================================
generating davidson guess vectors based on koopmans excitations
    1      5.59e-01     00000 Davidson Iteration
    2      8.02e-01     00000 Davidson Iteration
    3      1.43e-01     00000 Davidson Iteration
    4      3.48e-01     00000 Davidson Iteration
    5      2.96e-01     00000 Davidson Iteration
    6      1.36e-01     00000 Davidson Iteration
    7      5.81e-02     00000 Davidson Iteration
    8      4.90e-02     00000 Davidson Iteration
    9      1.59e-02     00000 Davidson Iteration
   10      5.71e-03     00000 Davidson Iteration
   11      1.11e-03     00000 Davidson Iteration
   12      6.44e-04     00000 Davidson Iteration
   13      5.32e-04     00000 Davidson Iteration
   14      1.55e-04     00000 Davidson Iteration
   15      7.31e-05     00000 Davidson Iteration
   16      4.66e-04     00000 Davidson Iteration
   17      3.33e-04     00000 Davidson Iteration
   18      1.42e-04     00000 Davidson Iteration
   19      9.07e-05     00000 Davidson Converged
converged_eigenvalues
   0.1588
   0.3111
Threshold for negative eigenvalues: -1.0e-05
solution was a local minimum (stable)
===================================================
End Test for Internal Stability
===================================================
Our SCF solution is stable!
Timing for Total SCF: 117.00s (wall), 908.06s (cpu)
 Total energy in the final basis set =      -93.4665770221
<S^2> =          0.881922371
    ==================================================
              The end of Object-Oriented SCFman       
    ==================================================


 ------------------------------------------------------------------------------

   CCMAN2: suite of methods based on coupled cluster
           and equation of motion theories.

   Components:
   * libvmm-1.3-trunk
     by Evgeny Epifanovsky, Ilya Kaliman.
   * libtensor-2.5-trunk
     by Evgeny Epifanovsky, Michael Wormit, Dmitry Zuev, Sam Manzer, 
        Ilya Kaliman.
   * libcc-2.5-trunk
     by Evgeny Epifanovsky, Arik Landau, Tomasz Kus, Kirill Khistyaev, 
        Dmitry Zuev, Prashant Manohar, Xintian Feng, Anna Krylov, 
        Matthew Goldey, Alec White, Thomas Jagau, Kaushik Nanda, 
        Anastasia Gunina, Alexander Kunitsa, Joonho Lee.

   CCMAN original authors:
   Anna I. Krylov, C. David Sherrill, Steven R. Gwaltney,
   Edward F. C. Byrd (2000)
   Sergey V. Levchenko, Lyudmila V. Slipchenko, Tao Wang,
   Ana-Maria C. Cristian (2003)
   Piotr A. Pieniazek, C. Melania Oana, Evgeny Epifanovsky (2007)
   Prashant Manohar (2009)

 ------------------------------------------------------------------------------


 Calculation will run on 8 cores using libxm for tensor contractions

 ------------------------------------------------------------------------------
Libxm Tensor Library
Copyright (c) 2014-2018 Ilya Kaliman
https://github.com/ilyak/libxm
Reference: https://dx.doi.org/10.1002/jcc.24713
 ------------------------------------------------------------------------------

 
 Alpha MOs, Unrestricted
 -- Occupied --                  
-15.605 -11.268  -1.270  -0.821  -0.697  -0.590  -0.512  -0.447
  1 A     2 A     3 A     4 A     5 A     6 A     7 A     8 A                  
 -- Virtual --                   
  0.028   0.041   0.070   0.071   0.133   0.134   0.143   0.146
  9 A    10 A    11 A    12 A    13 A    14 A    15 A    16 A                  
  0.165   0.184   0.213   0.243   0.255   0.275   0.314   0.332
 17 A    18 A    19 A    20 A    21 A    22 A    23 A    24 A                  
  0.339   0.357   0.386   0.389   0.394   0.403   0.455   0.470
 25 A    26 A    27 A    28 A    29 A    30 A    31 A    32 A                  
  0.535   0.548   0.572   0.583   0.598   0.650   0.671   0.741
 33 A    34 A    35 A    36 A    37 A    38 A    39 A    40 A                  
  0.750   0.811   0.837   0.853   0.892   0.923   0.931   0.934
 41 A    42 A    43 A    44 A    45 A    46 A    47 A    48 A                  
  0.939   0.996   0.999   1.008   1.009   1.033   1.053   1.086
 49 A    50 A    51 A    52 A    53 A    54 A    55 A    56 A                  
  1.095   1.149   1.216   1.287   1.331   1.355   1.403   1.403
 57 A    58 A    59 A    60 A    61 A    62 A    63 A    64 A                  
  1.479   1.582   1.602   1.607   1.650   1.656   1.762   1.772
 65 A    66 A    67 A    68 A    69 A    70 A    71 A    72 A                  
  1.780   1.782   1.839   1.901   1.928   1.994   2.007   2.016
 73 A    74 A    75 A    76 A    77 A    78 A    79 A    80 A                  
  2.081   2.132   2.153   2.270   2.277   2.301   2.453   2.494
 81 A    82 A    83 A    84 A    85 A    86 A    87 A    88 A                  
  2.916   2.990   3.019   3.235   3.304   3.374   3.496   3.537
 89 A    90 A    91 A    92 A    93 A    94 A    95 A    96 A                  
  3.564   3.589   3.594   3.656   3.692   3.783   3.859   3.962
 97 A    98 A    99 A   100 A   101 A   102 A   103 A   104 A                  
  3.974   4.098   4.100   4.176   4.306   4.390   4.496   4.501
105 A   106 A   107 A   108 A   109 A   110 A   111 A   112 A                  
  4.653   4.665   4.671   4.730   4.895   4.926   5.002   5.013
113 A   114 A   115 A   116 A   117 A   118 A   119 A   120 A                  
  5.101   5.121   5.245   5.280   5.298   5.466   5.474   5.539
121 A   122 A   123 A   124 A   125 A   126 A   127 A   128 A                  
  5.578   5.602   5.875   5.918   5.941   6.215   6.446   6.658
129 A   130 A   131 A   132 A   133 A   134 A   135 A   136 A                  
  6.942   7.304  15.783  16.719  16.968  17.528  21.209  21.502
137 A   138 A   139 A   140 A   141 A   142 A   143 A   144 A                  
 21.802  23.366  39.205  39.225  39.288  39.367  39.527  41.534
145 A   146 A   147 A   148 A   149 A   150 A   151 A   152 A                  
 41.588  41.751  41.802  41.931  81.344  82.035  82.199  87.405
153 A   154 A   155 A   156 A   157 A   158 A   159 A   160 A                  
109.271 109.490 109.944 117.078
161 A   162 A   163 A   164 A                                                  
 
 Beta MOs, Unrestricted
 -- Occupied --                  
-15.564 -11.281  -1.179  -0.785  -0.626  -0.531  -0.466
  1 A     2 A     3 A     4 A     5 A     6 A     7 A                          
 -- Virtual --                   
  0.028   0.041   0.072   0.078   0.094   0.134   0.134   0.138
  8 A     9 A    10 A    11 A    12 A    13 A    14 A    15 A                  
  0.146   0.195   0.207   0.213   0.247   0.254   0.284   0.316
 16 A    17 A    18 A    19 A    20 A    21 A    22 A    23 A                  
  0.322   0.341   0.358   0.388   0.389   0.396   0.415   0.458
 24 A    25 A    26 A    27 A    28 A    29 A    30 A    31 A                  
  0.524   0.538   0.542   0.587   0.594   0.606   0.662   0.663
 32 A    33 A    34 A    35 A    36 A    37 A    38 A    39 A                  
  0.748   0.764   0.817   0.835   0.857   0.895   0.926   0.934
 40 A    41 A    42 A    43 A    44 A    45 A    46 A    47 A                  
  0.936   0.944   0.997   1.009   1.014   1.032   1.045   1.081
 48 A    49 A    50 A    51 A    52 A    53 A    54 A    55 A                  
  1.085   1.100   1.189   1.213   1.308   1.343   1.355   1.412
 56 A    57 A    58 A    59 A    60 A    61 A    62 A    63 A                  
  1.427   1.495   1.585   1.605   1.635   1.646   1.664   1.772
 64 A    65 A    66 A    67 A    68 A    69 A    70 A    71 A                  
  1.792   1.804   1.813   1.844   1.908   1.933   2.001   2.008
 72 A    73 A    74 A    75 A    76 A    77 A    78 A    79 A                  
  2.016   2.092   2.150   2.180   2.290   2.306   2.320   2.494
 80 A    81 A    82 A    83 A    84 A    85 A    86 A    87 A                  
  2.523   2.898   3.001   3.026   3.219   3.298   3.362   3.504
 88 A    89 A    90 A    91 A    92 A    93 A    94 A    95 A                  
  3.527   3.560   3.593   3.597   3.681   3.681   3.804   3.862
 96 A    97 A    98 A    99 A   100 A   101 A   102 A   103 A                  
  3.971   3.987   4.104   4.119   4.190   4.305   4.402   4.506
104 A   105 A   106 A   107 A   108 A   109 A   110 A   111 A                  
  4.538   4.664   4.681   4.694   4.741   4.936   4.984   5.024
112 A   113 A   114 A   115 A   116 A   117 A   118 A   119 A                  
  5.028   5.114   5.140   5.265   5.342   5.355   5.488   5.497
120 A   121 A   122 A   123 A   124 A   125 A   126 A   127 A                  
  5.601   5.610   5.639   5.896   5.954   5.954   6.222   6.449
128 A   129 A   130 A   131 A   132 A   133 A   134 A   135 A                  
  6.663   6.964   7.325  15.769  16.713  16.963  17.520  21.236
136 A   137 A   138 A   139 A   140 A   141 A   142 A   143 A                  
 21.553  21.819  23.388  39.240  39.260  39.303  39.394  39.542
144 A   145 A   146 A   147 A   148 A   149 A   150 A   151 A                  
 41.527  41.582  41.745  41.799  41.928  81.340  82.033  82.197
152 A   153 A   154 A   155 A   156 A   157 A   158 A   159 A                  
 87.402 109.279 109.502 109.949 117.086
160 A   161 A   162 A   163 A   164 A                                          

 Occupation and symmetry of molecular orbitals

 Point group: C1 (1 irreducible representation).

                           A     All 
 -------------------------------------
 All molecular orbitals:
  - Alpha                  164   164 
  - Beta                   164   164 
 -------------------------------------
 Alpha orbitals:
  - Frozen occupied        0     0   
  - Active occupied        8     8   
  - Active virtual         156   156 
  - Frozen virtual         0     0   
 -------------------------------------
 Beta orbitals:
  - Frozen occupied        0     0   
  - Active occupied        7     7   
  - Active virtual         157   157 
  - Frozen virtual         0     0   
 -------------------------------------

 Import integrals:   CPU 0.00 s  wall 0.00 s

 Import integrals:   CPU 376.30 s  wall 77.85 s

 MP2 amplitudes:   CPU 2.66 s  wall 0.89 s

Running a double precision version
           CCSD T amplitudes will be solved using DIIS.

           Start     Size      MaxIter   EConv     TConv     
           3         7         100       1.00e-06  1.00e-04  
 ------------------------------------------------------------------------------
           Energy (a.u.)   Ediff      Tdiff       Comment
 ------------------------------------------------------------------------------
           -93.88414412                           
     1     -93.89885298   1.47e-02   5.15e-01     
     2     -93.90928901   1.04e-02   5.62e-02     
     3     -93.91128364   1.99e-03   2.19e-02     
     4     -93.91393484   2.65e-03   1.35e-02     Switched to DIIS steps.
     5     -93.91559166   1.66e-03   1.15e-02     
     6     -93.91610182   5.10e-04   5.59e-03     
     7     -93.91620728   1.05e-04   1.34e-03     
     8     -93.91622631   1.90e-05   5.84e-04     
     9     -93.91621852   7.79e-06   2.20e-04     
    10     -93.91621973   1.21e-06   1.18e-04     
    11     -93.91621843   1.30e-06   6.21e-05     
    12     -93.91621839   3.80e-08   1.93e-05     
 ------------------------------------------------------------------------------
           -93.91621839                           CCSD T converged.

End of double precision

----------------------------------------
libpt (c) 2016-2018 Ilya Kaliman
Fast Coupled Cluster Triples Corrections
https://github.com/ilyak/libpt
----------------------------------------

 Starting (T) calculation...
 Using double precision libpt code
 (T) calculation completed in 68 sec
 (T) energy is -0.0160115602

 SCF energy                 = -93.46657702
 MP2 energy                 = -93.88414412
 CCSD correlation energy     =  -0.44964137
 CCSD total energy           = -93.91621839
 CCSD(T) correlation energy =  -0.01601156
 CCSD(T) total energy       = -93.93222995

 CCSD  T1^2 = 0.0299  T2^2 = 0.1288  Leading amplitudes:

 Amplitude    Orbitals with energies
  0.0716       7 (A) A                   ->    15 (A) A                   
              -0.5124                          0.1429                     
  0.0657       7 (A) A                   ->    18 (A) A                   
              -0.5124                          0.1836                     
 -0.0637       7 (A) B                   ->    18 (A) B                   
              -0.4663                          0.2066                     
  0.0467       7 (A) B                   ->    14 (A) B                   
              -0.4663                          0.1339                     

 Amplitude    Orbitals with energies
 -0.0523       7 (A) A       7 (A) B     ->    18 (A) A      18 (A) B     
              -0.5124       -0.4663            0.1836        0.2066       
  0.0523       7 (A) A       7 (A) B     ->    18 (A) B      18 (A) A     
              -0.5124       -0.4663            0.2066        0.1836       
  0.0523       7 (A) B       7 (A) A     ->    18 (A) A      18 (A) B     
              -0.4663       -0.5124            0.1836        0.2066       
 -0.0523       7 (A) B       7 (A) A     ->    18 (A) B      18 (A) A     
              -0.4663       -0.5124            0.2066        0.1836       

 CCSD calculation:   CPU 1810.74 s  wall 284.59 s

 Total ccman2 time:   CPU 2211.54 s  wall 376.64 s

 
 --------------------------------------------------------------
 
                    Orbital Energies (a.u.)
 --------------------------------------------------------------
 
 Alpha MOs
 -- Occupied --
-15.605 -11.268  -1.270  -0.821  -0.697  -0.590  -0.512  -0.447
 -- Virtual --
  0.028   0.041   0.070   0.071   0.133   0.134   0.143   0.146
  0.165   0.184   0.213   0.243   0.255   0.275   0.314   0.332
  0.339   0.357   0.386   0.389   0.394   0.403   0.455   0.470
  0.535   0.548   0.572   0.583   0.598   0.650   0.671   0.741
  0.750   0.811   0.837   0.853   0.892   0.923   0.931   0.934
  0.939   0.996   0.999   1.008   1.009   1.033   1.053   1.086
  1.095   1.149   1.216   1.287   1.331   1.355   1.403   1.403
  1.479   1.582   1.602   1.607   1.650   1.656   1.762   1.772
  1.780   1.782   1.839   1.901   1.928   1.994   2.007   2.016
  2.081   2.132   2.153   2.270   2.277   2.301   2.453   2.494
  2.916   2.990   3.019   3.235   3.304   3.374   3.496   3.537
  3.564   3.589   3.594   3.656   3.692   3.783   3.859   3.962
  3.974   4.098   4.100   4.176   4.306   4.390   4.496   4.501
  4.653   4.665   4.671   4.730   4.895   4.926   5.002   5.013
  5.101   5.121   5.245   5.280   5.298   5.466   5.474   5.539
  5.578   5.602   5.875   5.918   5.941   6.215   6.446   6.658
  6.942   7.304  15.783  16.719  16.968  17.528  21.209  21.502
 21.802  23.366  39.205  39.225  39.288  39.367  39.527  41.534
 41.588  41.751  41.802  41.931  81.344  82.035  82.199  87.405
109.271 109.490 109.944 117.078
 
 Beta MOs
 -- Occupied --
-15.564 -11.281  -1.179  -0.785  -0.626  -0.531  -0.466
 -- Virtual --
  0.028   0.041   0.072   0.078   0.094   0.134   0.134   0.138
  0.146   0.195   0.207   0.213   0.247   0.254   0.284   0.316
  0.322   0.341   0.358   0.388   0.389   0.396   0.415   0.458
  0.524   0.538   0.542   0.587   0.594   0.606   0.662   0.663
  0.748   0.764   0.817   0.835   0.857   0.895   0.926   0.934
  0.936   0.944   0.997   1.009   1.014   1.032   1.045   1.081
  1.085   1.100   1.189   1.213   1.308   1.343   1.355   1.412
  1.427   1.495   1.585   1.605   1.635   1.646   1.664   1.772
  1.792   1.804   1.813   1.844   1.908   1.933   2.001   2.008
  2.016   2.092   2.150   2.180   2.290   2.306   2.320   2.494
  2.523   2.898   3.001   3.026   3.219   3.298   3.362   3.504
  3.527   3.560   3.593   3.597   3.681   3.681   3.804   3.862
  3.971   3.987   4.104   4.119   4.190   4.305   4.402   4.506
  4.538   4.664   4.681   4.694   4.741   4.936   4.984   5.024
  5.028   5.114   5.140   5.265   5.342   5.355   5.488   5.497
  5.601   5.610   5.639   5.896   5.954   5.954   6.222   6.449
  6.663   6.964   7.325  15.769  16.713  16.963  17.520  21.236
 21.553  21.819  23.388  39.240  39.260  39.303  39.394  39.542
 41.527  41.582  41.745  41.799  41.928  81.340  82.033  82.197
 87.402 109.279 109.502 109.949 117.086
 --------------------------------------------------------------
 
          Ground-State Mulliken Net Atomic Charges

     Atom                 Charge (a.u.)    Spin (a.u.)
  --------------------------------------------------------
      1 C                    -0.465839      -0.610267
      2 N                    -0.454934       1.360242
      3 H                     0.460386       0.125013
      4 H                     0.460386       0.125013
  --------------------------------------------------------
  Sum of atomic charges =     0.000000
  Sum of spin   charges =     1.000000

 -----------------------------------------------------------------
                    Cartesian Multipole Moments
 -----------------------------------------------------------------
    Charge (ESU x 10^10)
                 0.0000
    Dipole Moment (Debye)
         X      -0.0000      Y       0.0000      Z      -2.4777
       Tot       2.4777
    Quadrupole Moments (Debye-Ang)
        XX     -12.8780     XY      -0.0000     YY     -11.0136
        XZ       0.0000     YZ      -0.0000     ZZ     -13.0334
    Octopole Moments (Debye-Ang^2)
       XXX      -0.0000    XXY       0.0000    XYY      -0.0000
       YYY      -0.0000    XXZ      -0.1936    XYZ      -0.0000
       YYZ      -1.5798    XZZ      -0.0000    YZZ       0.0000
       ZZZ      -3.9784
    Hexadecapole Moments (Debye-Ang^3)
      XXXX     -13.5157   XXXY       0.0000   XXYY      -5.5601
      XYYY       0.0000   YYYY     -17.2842   XXXZ       0.0000
      XXYZ      -0.0000   XYYZ       0.0000   YYYZ       0.0000
      XXZZ     -10.4943   XYZZ       0.0000   YYZZ      -9.8120
      XZZZ      -0.0000   YZZZ      -0.0000   ZZZZ     -50.5338
 -----------------------------------------------------------------
Archival summary:
1\1\n0088.mhg0\SP\ProcedureUnspecified\BasisUnspecified\112(2)\yhljason\TueAug400:05:572020TueAug400:05:572020\0\\#,ProcedureUnspecified,BasisUnspecified,\\0,2\C\H,1,1.0926\H,1,1.0926,2,117.526\N,1,1.2132,2,121.237,3,-180,0\\HF=-93.466577\\@

 Total job time:  501.49s(wall), 3146.53s(cpu) 
 Tue Aug  4 00:05:57 2020

        *************************************************************
        *                                                           *
        *  Thank you very much for using Q-Chem.  Have a nice day.  *
        *                                                           *
        *************************************************************


 
User input: 2 of 7 
 
Q-Chem Developer Version!
                  Welcome to Q-Chem
     A Quantum Leap Into The Future Of Chemistry


 Q-Chem 5.1, Q-Chem, Inc., Pleasanton, CA (2018)

 Yihan Shao,  Zhengting Gan,  E. Epifanovsky,  A. T. B. Gilbert,  M. Wormit,  
 J. Kussmann,  A. W. Lange,  A. Behn,  Jia Deng,  Xintian Feng,  D. Ghosh,  
 M. Goldey,  P. R. Horn,  L. D. Jacobson,  I. Kaliman,  T. Kus,  A. Landau,  
 Jie Liu,  E. I. Proynov,  R. M. Richard,  R. P. Steele,  E. J. Sundstrom,  
 H. L. Woodcock III,  P. M. Zimmerman,  D. Zuev,  B. Albrecht,  E. Alguire,  
 S. A. Baeppler,  D. Barton,  Z. Benda,  Y. A. Bernard,  E. J. Berquist,  
 K. B. Bravaya,  H. Burton,  D. Casanova,  Chun-Min Chang,  Yunqing Chen,  
 A. Chien,  K. D. Closser,  M. P. Coons,  S. Coriani,  S. Dasgupta,  
 A. L. Dempwolff,  M. Diedenhofen,  Hainam Do,  R. G. Edgar,  Po-Tung Fang,  
 S. Faraji,  S. Fatehi,  Qingguo Feng,  K. D. Fenk,  J. Fosso-Tande,  
 Qinghui Ge,  A. Ghysels,  G. Gidofalvi,  J. Gomes,  J. Gonthier,  A. Gunina,  
 D. Hait,  M. W. D. Hanson-Heine,  P. H. P. Harbach,  A. W. Hauser,  
 J. E. Herr,  E. G. Hohenstein,  Z. C. Holden,  Kerwin Hui,  B. C. Huynh,  
 T.-C. Jagau,  Hyunjun Ji,  B. Kaduk,  K. Khistyaev,  Jaehoon Kim,  
 P. Klunzinger,  K. Koh,  D. Kosenkov,  L. Koulias,  T. Kowalczyk,  
 C. M. Krauter,  A. Kunitsa,  Ka Un Lao,  A. Laurent,  K. V. Lawler,  
 Joonho Lee,  D. Lefrancois,  S. Lehtola,  D. S. Levine,  Yi-Pei Li,  
 You-Sheng Lin,  Fenglai Liu,  E. Livshits,  A. Luenser,  P. Manohar,  
 E. Mansoor,  S. F. Manzer,  Shan-Ping Mao,  Yuezhi Mao,  N. Mardirossian,  
 A. V. Marenich,  T. Markovich,  L. A. Martinez-Martinez,  S. A. Maurer,  
 N. J. Mayhall,  S. C. McKenzie,  J.-M. Mewes,  A. F. Morrison,  
 J. W. Mullinax,  K. Nanda,  T. S. Nguyen-Beck,  R. Olivares-Amaya,  
 J. A. Parkhill,  T. M. Perrine,  F. Plasser,  P. Pokhilko,  S. Prager,  
 A. Prociuk,  E. Ramos,  D. R. Rehn,  F. Rob,  M. Schneider,  N. Sergueev,  
 S. M. Sharada,  S. Sharma,  D. W. Small,  T. Stauch,  T. Stein,  
 Yu-Chuan Su,  A. J. W. Thom,  A. Tkatchenko,  T. Tsuchimochi,  N. M. Tubman,  
 L. Vogt,  M. L. Vidal,  O. Vydrov,  M. A. Watson,  J. Wenzel,  
 M. de Wergifosse,  T. A. Wesolowski,  A. White,  J. Witte,  A. Yamada,  
 Jun Yang,  K. Yao,  S. Yeganeh,  S. R. Yost,  Zhi-Qiang You,  A. Zech,  
 Igor Ying Zhang,  Xing Zhang,  Yan Zhao,  Ying Zhu,  B. R. Brooks,  
 G. K. L. Chan,  C. J. Cramer,  M. S. Gordon,  W. J. Hehre,  A. Klamt,  
 M. W. Schmidt,  C. D. Sherrill,  D. G. Truhlar,  A. Aspuru-Guzik,  R. Baer,  
 A. T. Bell,  N. A. Besley,  Jeng-Da Chai,  A. E. DePrince, III,  
 R. A. DiStasio Jr.,  A. Dreuw,  B. D. Dunietz,  T. R. Furlani,  
 Chao-Ping Hsu,  Yousung Jung,  Jing Kong,  D. S. Lambrecht,  WanZhen Liang,  
 C. Ochsenfeld,  V. A. Rassolov,  L. V. Slipchenko,  J. E. Subotnik,  
 T. Van Voorhis,  J. M. Herbert,  A. I. Krylov,  P. M. W. Gill,  M. Head-Gordon

 Contributors to earlier versions of Q-Chem not listed above: 
 R. D. Adamson,  B. Austin,  J. Baker,  G. J. O. Beran,  K. Brandhorst,  
 S. T. Brown,  E. F. C. Byrd,  A. K. Chakraborty,  C.-L. Cheng,  
 Siu Hung Chien,  D. M. Chipman,  D. L. Crittenden,  H. Dachsel,  
 R. J. Doerksen,  A. D. Dutoi,  L. Fusti-Molnar,  W. A. Goddard III,  
 A. Golubeva-Zadorozhnaya,  S. R. Gwaltney,  G. Hawkins,  A. Heyden,  
 S. Hirata,  G. Kedziora,  F. J. Keil,  C. Kelley,  Jihan Kim,  R. A. King,  
 R. Z. Khaliullin,  P. P. Korambath,  W. Kurlancheek,  A. M. Lee,  M. S. Lee,  
 S. V. Levchenko,  Ching Yeh Lin,  D. Liotard,  R. C. Lochan,  I. Lotan,  
 P. E. Maslen,  N. Nair,  D. P. O'Neill,  D. Neuhauser,  E. Neuscamman,  
 C. M. Oana,  R. Olson,  B. Peters,  R. Peverati,  P. A. Pieniazek,  
 Y. M. Rhee,  J. Ritchie,  M. A. Rohrdanz,  E. Rosta,  N. J. Russ,  
 H. F. Schaefer III,  N. E. Schultz,  N. Shenvi,  A. C. Simmonett,  A. Sodt,  
 D. Stuck,  K. S. Thanthiriwatte,  V. Vanovschi,  Tao Wang,  A. Warshel,  
 C. F. Williams,  Q. Wu,  X. Xu,  W. Zhang

 Please cite Q-Chem as follows:
 Y. Shao et al., Mol. Phys. 113, 184-215 (2015)
 DOI: 10.1080/00268976.2014.952696

 Q-Chem 5.1.1 for Intel X86 EM64T Linux

 Parts of Q-Chem use Armadillo 8.300.2 (Tropical Shenanigans).
 http://arma.sourceforge.net/

 Q-Chem begins on Tue Aug  4 00:05:57 2020  

Host: n0088.mhg0
0

     Scratch files written to /local/scratch/users/yhljason/H2CN_ccsdT_aug-cc-pcVTZ.inp20200803231135//
The previous job contains 0 fragments, simply inherited here
Input Ideriv = 0
Curr. Ideriv = -1
Max.  Ideriv = 0

Checking the input file for inconsistencies... 	...done.

--------------------------------------------------------------
User input:
--------------------------------------------------------------
$molecule
read
$end

$rem

jobtype sp
method CCSD(T)
xc_grid 000099000590
basis aug-cc-pcVTZ
max_scf_cycles 200
thresh 14
scf_convergence 8
mem_total 128000
cc_memory 96000
cc_backend xm
mem_static 1500
symmetry false
sym_ignore true
scf_guess read
unrestricted true
scf_algorithm gdm
n_frozen_core 0
$end

$multipole_field
XX 0.0001
$end


--------------------------------------------------------------
 ----------------------------------------------------------------
             Standard Nuclear Orientation (Angstroms)
    I     Atom           X                Y                Z
 ----------------------------------------------------------------
    1      C       0.0000000000     0.0000000000    -0.4906000000
    2      N       0.0000000000     0.0000000000     0.7226000000
    3      H       0.0000000000     0.9342000000    -1.0572000000
    4      H       0.0000000000    -0.9342000000    -1.0572000000
 ----------------------------------------------------------------
 Nuclear Repulsion Energy =    28.1005412294 hartrees
 There are        8 alpha and        7 beta electrons
 Requested basis set is aug-cc-pCVTZ
 There are 56 shells and 164 basis functions
 Total memory of 128000MB is distributed as follows: 
   QALLOC including MEM_STATIC uses 32000MB
   MEM_STATIC is set to 1500MB
   CCMAN JOB total memory use is  96000MB
 Warning: actual memory use might exceed 128000MB

 Total QAlloc Memory Limit  32000 MB
 Mega-Array Size      1467 MB
 MEM_STATIC part      1500 MB

                       Distance Matrix (Angstroms)
             C (  1)   N (  2)   H (  3)
   N (  2)  1.213200
   H (  3)  1.092596  2.010079
   H (  4)  1.092596  2.010079  1.868400
 
 Applying Cartesian multipole field
    Component          Value
    ---------          -----
     (2,0,0)        1.00000E-04
 A cutoff of  1.0D-14 yielded   1588 shell pairs
 There are     13728 function pairs (     18113 Cartesian)
 
 -------------------------------------------------------
 OpenMP Integral Computing Module                       
 Release: version 1.0, May 2013, Q-Chem Inc. Pittsburgh 
 -------------------------------------------------------
 Integral Job Info:
 Integral job number is                      11
 Integral operator is                         1
 short-range coefficients                     0
 long-range coefficients              100000000
 Omega coefficients                           0
 if combine SR and LR in K                    0
 Integral screening is                        0
 Integral computing path is                   2
 max size of driver memory is            800000
 size of driver memory is                776718
 size of scratch memory is              6691272
 max col of scratch BK array              10000
 max len of scratch array in speh3          662
 max len of scratch index in speh4           32
 max int batch size is                      520
 min int batch size is                       52
 fixed nKL is                                52
 max L of basis functions is                  3
 order of int derivative is                   0
 number of shells is                         56
 number of basis is                         188
 number of cartesian basis is               188
 number of contracted shell pairs          1588
 number of primitive shell pairs           4021
 maxK2 (contraction) of shell pair           64
 max number of K2 of shell pair               1
 max number of CS2 of shell pair            258
 max number of PS2 of shell pair            472
 mem total for path MDJ                  562704
 -------------------------------------------------------
 Smallest overlap matrix eigenvalue = 8.03E-05
 Guess MOs from SCF MO coefficient file

 -----------------------------------------------------------------------
  General SCF calculation program by
  Eric Jon Sundstrom, Paul Horn, Yuezhi Mao, Dmitri Zuev, Alec White,
  David Stuck, Shaama M.S., Shane Yost, Joonho Lee, David Small,
  Daniel Levine, Susi Lehtola, Hugh Burton, Evgeny Epifanovsky
 -----------------------------------------------------------------------
 Hartree-Fock
 using 8 threads for integral computing
 -------------------------------------------------------
 OpenMP Integral computing Module                
 Release: version 2.0, May 2017, Q-Chem Inc. Pleasanton 
 -------------------------------------------------------
 A unrestricted SCF calculation will be
 performed using GDM
 SCF converges when RMS gradient is below 1.0e-08
 ---------------------------------------
  Cycle       Energy        RMS Gradient
 ---------------------------------------
    1     -93.4675344725      2.83e-04   Normal BFGS step
    2     -93.4675347539      6.65e-05   Normal BFGS step
    3     -93.4675347834      2.45e-05   Normal BFGS step
    4     -93.4675347857      1.09e-05   Normal BFGS step
    5     -93.4675347868      1.10e-05   Normal BFGS step
    6     -93.4675347875      1.05e-05   Normal BFGS step
    7     -93.4675347883      5.74e-06   Normal BFGS step
    8     -93.4675347885      2.07e-06   Normal BFGS step
    9     -93.4675347886      8.20e-07   Normal BFGS step
   10     -93.4675347886      2.65e-07   Normal BFGS step
   11     -93.4675347886      9.63e-08   Normal BFGS step
   12     -93.4675347886      1.83e-08   Normal BFGS step
   13     -93.4675347886      5.51e-09  Convergence criterion met
 ---------------------------------------
 SCF time:   CPU 254.64s  wall 35.00s 
<S^2> =          0.881706323
 SCF   energy in the final basis set =      -93.4675347886
 Total energy in the final basis set =      -93.4675347886


 ------------------------------------------------------------------------------

   CCMAN2: suite of methods based on coupled cluster
           and equation of motion theories.

   Components:
   * libvmm-1.3-trunk
     by Evgeny Epifanovsky, Ilya Kaliman.
   * libtensor-2.5-trunk
     by Evgeny Epifanovsky, Michael Wormit, Dmitry Zuev, Sam Manzer, 
        Ilya Kaliman.
   * libcc-2.5-trunk
     by Evgeny Epifanovsky, Arik Landau, Tomasz Kus, Kirill Khistyaev, 
        Dmitry Zuev, Prashant Manohar, Xintian Feng, Anna Krylov, 
        Matthew Goldey, Alec White, Thomas Jagau, Kaushik Nanda, 
        Anastasia Gunina, Alexander Kunitsa, Joonho Lee.

   CCMAN original authors:
   Anna I. Krylov, C. David Sherrill, Steven R. Gwaltney,
   Edward F. C. Byrd (2000)
   Sergey V. Levchenko, Lyudmila V. Slipchenko, Tao Wang,
   Ana-Maria C. Cristian (2003)
   Piotr A. Pieniazek, C. Melania Oana, Evgeny Epifanovsky (2007)
   Prashant Manohar (2009)

 ------------------------------------------------------------------------------


 Calculation will run on 8 cores using libxm for tensor contractions

 ------------------------------------------------------------------------------
Libxm Tensor Library
Copyright (c) 2014-2018 Ilya Kaliman
https://github.com/ilyak/libxm
Reference: https://dx.doi.org/10.1002/jcc.24713
 ------------------------------------------------------------------------------

 
 Alpha MOs, Unrestricted
 -- Occupied --                  
-15.605 -11.268  -1.270  -0.821  -0.697  -0.591  -0.513  -0.448
  1 A     2 A     3 A     4 A     5 A     6 A     7 A     8 A                  
 -- Virtual --                   
  0.026   0.040   0.068   0.070   0.132   0.132   0.141   0.145
  9 A    10 A    11 A    12 A    13 A    14 A    15 A    16 A                  
  0.164   0.182   0.212   0.242   0.254   0.274   0.314   0.330
 17 A    18 A    19 A    20 A    21 A    22 A    23 A    24 A                  
  0.338   0.356   0.386   0.389   0.394   0.402   0.455   0.469
 25 A    26 A    27 A    28 A    29 A    30 A    31 A    32 A                  
  0.535   0.547   0.571   0.583   0.598   0.649   0.670   0.740
 33 A    34 A    35 A    36 A    37 A    38 A    39 A    40 A                  
  0.749   0.811   0.836   0.853   0.891   0.923   0.930   0.933
 41 A    42 A    43 A    44 A    45 A    46 A    47 A    48 A                  
  0.938   0.996   0.999   1.007   1.008   1.033   1.052   1.086
 49 A    50 A    51 A    52 A    53 A    54 A    55 A    56 A                  
  1.095   1.149   1.216   1.286   1.330   1.354   1.402   1.402
 57 A    58 A    59 A    60 A    61 A    62 A    63 A    64 A                  
  1.478   1.582   1.602   1.606   1.650   1.656   1.762   1.772
 65 A    66 A    67 A    68 A    69 A    70 A    71 A    72 A                  
  1.780   1.781   1.839   1.901   1.928   1.994   2.007   2.016
 73 A    74 A    75 A    76 A    77 A    78 A    79 A    80 A                  
  2.081   2.132   2.153   2.270   2.277   2.301   2.452   2.494
 81 A    82 A    83 A    84 A    85 A    86 A    87 A    88 A                  
  2.915   2.989   3.019   3.235   3.303   3.374   3.496   3.537
 89 A    90 A    91 A    92 A    93 A    94 A    95 A    96 A                  
  3.564   3.589   3.594   3.656   3.692   3.783   3.859   3.962
 97 A    98 A    99 A   100 A   101 A   102 A   103 A   104 A                  
  3.974   4.098   4.100   4.176   4.306   4.390   4.496   4.500
105 A   106 A   107 A   108 A   109 A   110 A   111 A   112 A                  
  4.653   4.665   4.671   4.730   4.894   4.925   5.001   5.013
113 A   114 A   115 A   116 A   117 A   118 A   119 A   120 A                  
  5.101   5.121   5.245   5.279   5.298   5.466   5.474   5.539
121 A   122 A   123 A   124 A   125 A   126 A   127 A   128 A                  
  5.578   5.602   5.874   5.918   5.941   6.215   6.446   6.658
129 A   130 A   131 A   132 A   133 A   134 A   135 A   136 A                  
  6.942   7.303  15.782  16.718  16.968  17.528  21.208  21.502
137 A   138 A   139 A   140 A   141 A   142 A   143 A   144 A                  
 21.802  23.365  39.205  39.225  39.288  39.367  39.527  41.533
145 A   146 A   147 A   148 A   149 A   150 A   151 A   152 A                  
 41.587  41.750  41.802  41.931  81.343  82.035  82.199  87.405
153 A   154 A   155 A   156 A   157 A   158 A   159 A   160 A                  
109.271 109.490 109.944 117.078
161 A   162 A   163 A   164 A                                                  
 
 Beta MOs, Unrestricted
 -- Occupied --                  
-15.565 -11.281  -1.179  -0.785  -0.626  -0.532  -0.467
  1 A     2 A     3 A     4 A     5 A     6 A     7 A                          
 -- Virtual --                   
  0.026   0.040   0.071   0.075   0.094   0.132   0.132   0.137
  8 A     9 A    10 A    11 A    12 A    13 A    14 A    15 A                  
  0.145   0.195   0.205   0.213   0.246   0.253   0.284   0.315
 16 A    17 A    18 A    19 A    20 A    21 A    22 A    23 A                  
  0.320   0.340   0.357   0.387   0.388   0.396   0.414   0.457
 24 A    25 A    26 A    27 A    28 A    29 A    30 A    31 A                  
  0.523   0.537   0.541   0.587   0.593   0.605   0.661   0.663
 32 A    33 A    34 A    35 A    36 A    37 A    38 A    39 A                  
  0.747   0.764   0.816   0.835   0.857   0.895   0.925   0.933
 40 A    41 A    42 A    43 A    44 A    45 A    46 A    47 A                  
  0.936   0.944   0.997   1.008   1.013   1.031   1.044   1.081
 48 A    49 A    50 A    51 A    52 A    53 A    54 A    55 A                  
  1.085   1.099   1.189   1.213   1.307   1.343   1.354   1.411
 56 A    57 A    58 A    59 A    60 A    61 A    62 A    63 A                  
  1.426   1.494   1.584   1.605   1.635   1.645   1.663   1.772
 64 A    65 A    66 A    67 A    68 A    69 A    70 A    71 A                  
  1.791   1.804   1.812   1.843   1.908   1.933   2.001   2.008
 72 A    73 A    74 A    75 A    76 A    77 A    78 A    79 A                  
  2.015   2.092   2.150   2.180   2.289   2.305   2.320   2.494
 80 A    81 A    82 A    83 A    84 A    85 A    86 A    87 A                  
  2.523   2.898   3.001   3.026   3.219   3.298   3.361   3.504
 88 A    89 A    90 A    91 A    92 A    93 A    94 A    95 A                  
  3.527   3.560   3.593   3.597   3.681   3.681   3.803   3.862
 96 A    97 A    98 A    99 A   100 A   101 A   102 A   103 A                  
  3.971   3.987   4.103   4.119   4.189   4.305   4.402   4.505
104 A   105 A   106 A   107 A   108 A   109 A   110 A   111 A                  
  4.538   4.664   4.681   4.694   4.741   4.936   4.984   5.024
112 A   113 A   114 A   115 A   116 A   117 A   118 A   119 A                  
  5.028   5.114   5.140   5.265   5.341   5.355   5.488   5.496
120 A   121 A   122 A   123 A   124 A   125 A   126 A   127 A                  
  5.601   5.609   5.639   5.896   5.953   5.954   6.222   6.448
128 A   129 A   130 A   131 A   132 A   133 A   134 A   135 A                  
  6.663   6.964   7.325  15.769  16.712  16.963  17.520  21.235
136 A   137 A   138 A   139 A   140 A   141 A   142 A   143 A                  
 21.552  21.819  23.388  39.240  39.260  39.303  39.394  39.542
144 A   145 A   146 A   147 A   148 A   149 A   150 A   151 A                  
 41.527  41.582  41.745  41.799  41.927  81.339  82.033  82.197
152 A   153 A   154 A   155 A   156 A   157 A   158 A   159 A                  
 87.402 109.278 109.502 109.948 117.086
160 A   161 A   162 A   163 A   164 A                                          

 Occupation and symmetry of molecular orbitals

 Point group: C1 (1 irreducible representation).

                           A     All 
 -------------------------------------
 All molecular orbitals:
  - Alpha                  164   164 
  - Beta                   164   164 
 -------------------------------------
 Alpha orbitals:
  - Frozen occupied        0     0   
  - Active occupied        8     8   
  - Active virtual         156   156 
  - Frozen virtual         0     0   
 -------------------------------------
 Beta orbitals:
  - Frozen occupied        0     0   
  - Active occupied        7     7   
  - Active virtual         157   157 
  - Frozen virtual         0     0   
 -------------------------------------

 Import integrals:   CPU 0.00 s  wall 0.00 s

 Import integrals:   CPU 382.97 s  wall 80.00 s

 MP2 amplitudes:   CPU 2.68 s  wall 0.88 s

Running a double precision version
           CCSD T amplitudes will be solved using DIIS.

           Start     Size      MaxIter   EConv     TConv     
           3         7         100       1.00e-06  1.00e-04  
 ------------------------------------------------------------------------------
           Energy (a.u.)   Ediff      Tdiff       Comment
 ------------------------------------------------------------------------------
           -93.88511623                           
     1     -93.89981602   1.47e-02   5.15e-01     
     2     -93.91025076   1.04e-02   5.62e-02     
     3     -93.91224297   1.99e-03   2.19e-02     
     4     -93.91489078   2.65e-03   1.35e-02     Switched to DIIS steps.
     5     -93.91654501   1.65e-03   1.15e-02     
     6     -93.91705429   5.09e-04   5.59e-03     
     7     -93.91715950   1.05e-04   1.34e-03     
     8     -93.91717856   1.91e-05   5.84e-04     
     9     -93.91717080   7.76e-06   2.20e-04     
    10     -93.91717200   1.20e-06   1.18e-04     
    11     -93.91717070   1.30e-06   6.21e-05     
    12     -93.91717066   3.96e-08   1.93e-05     
 ------------------------------------------------------------------------------
           -93.91717066                           CCSD T converged.

End of double precision

----------------------------------------
libpt (c) 2016-2018 Ilya Kaliman
Fast Coupled Cluster Triples Corrections
https://github.com/ilyak/libpt
----------------------------------------

 Starting (T) calculation...
 Using double precision libpt code
 (T) calculation completed in 68 sec
 (T) energy is -0.0160131957

 SCF energy                 = -93.46753479
 MP2 energy                 = -93.88511623
 CCSD correlation energy     =  -0.44963587
 CCSD total energy           = -93.91717066
 CCSD(T) correlation energy =  -0.01601320
 CCSD(T) total energy       = -93.93318386

 CCSD  T1^2 = 0.0299  T2^2 = 0.1288  Leading amplitudes:

 Amplitude    Orbitals with energies
 -0.0712       7 (A) A                   ->    15 (A) A                   
              -0.5127                          0.1414                     
  0.0666       7 (A) A                   ->    18 (A) A                   
              -0.5127                          0.1819                     
 -0.0641       7 (A) B                   ->    18 (A) B                   
              -0.4666                          0.2051                     
 -0.0463       7 (A) B                   ->    14 (A) B                   
              -0.4666                          0.1325                     

 Amplitude    Orbitals with energies
 -0.0532       7 (A) A       7 (A) B     ->    18 (A) A      18 (A) B     
              -0.5127       -0.4666            0.1819        0.2051       
  0.0532       7 (A) A       7 (A) B     ->    18 (A) B      18 (A) A     
              -0.5127       -0.4666            0.2051        0.1819       
  0.0532       7 (A) B       7 (A) A     ->    18 (A) A      18 (A) B     
              -0.4666       -0.5127            0.1819        0.2051       
 -0.0532       7 (A) B       7 (A) A     ->    18 (A) B      18 (A) A     
              -0.4666       -0.5127            0.2051        0.1819       

 CCSD calculation:   CPU 1727.71 s  wall 270.94 s

 Total ccman2 time:   CPU 2135.22 s  wall 364.83 s

 
 --------------------------------------------------------------
 
                    Orbital Energies (a.u.)
 --------------------------------------------------------------
 
 Alpha MOs
 -- Occupied --
-15.605 -11.268  -1.270  -0.821  -0.697  -0.591  -0.513  -0.448
 -- Virtual --
  0.026   0.040   0.068   0.070   0.132   0.132   0.141   0.145
  0.164   0.182   0.212   0.242   0.254   0.274   0.314   0.330
  0.338   0.356   0.386   0.389   0.394   0.402   0.455   0.469
  0.535   0.547   0.571   0.583   0.598   0.649   0.670   0.740
  0.749   0.811   0.836   0.853   0.891   0.923   0.930   0.933
  0.938   0.996   0.999   1.007   1.008   1.033   1.052   1.086
  1.095   1.149   1.216   1.286   1.330   1.354   1.402   1.402
  1.478   1.582   1.602   1.606   1.650   1.656   1.762   1.772
  1.780   1.781   1.839   1.901   1.928   1.994   2.007   2.016
  2.081   2.132   2.153   2.270   2.277   2.301   2.452   2.494
  2.915   2.989   3.019   3.235   3.303   3.374   3.496   3.537
  3.564   3.589   3.594   3.656   3.692   3.783   3.859   3.962
  3.974   4.098   4.100   4.176   4.306   4.390   4.496   4.500
  4.653   4.665   4.671   4.730   4.894   4.925   5.001   5.013
  5.101   5.121   5.245   5.279   5.298   5.466   5.474   5.539
  5.578   5.602   5.874   5.918   5.941   6.215   6.446   6.658
  6.942   7.303  15.782  16.718  16.968  17.528  21.208  21.502
 21.802  23.365  39.205  39.225  39.288  39.367  39.527  41.533
 41.587  41.750  41.802  41.931  81.343  82.035  82.199  87.405
109.271 109.490 109.944 117.078
 
 Beta MOs
 -- Occupied --
-15.565 -11.281  -1.179  -0.785  -0.626  -0.532  -0.467
 -- Virtual --
  0.026   0.040   0.071   0.075   0.094   0.132   0.132   0.137
  0.145   0.195   0.205   0.213   0.246   0.253   0.284   0.315
  0.320   0.340   0.357   0.387   0.388   0.396   0.414   0.457
  0.523   0.537   0.541   0.587   0.593   0.605   0.661   0.663
  0.747   0.764   0.816   0.835   0.857   0.895   0.925   0.933
  0.936   0.944   0.997   1.008   1.013   1.031   1.044   1.081
  1.085   1.099   1.189   1.213   1.307   1.343   1.354   1.411
  1.426   1.494   1.584   1.605   1.635   1.645   1.663   1.772
  1.791   1.804   1.812   1.843   1.908   1.933   2.001   2.008
  2.015   2.092   2.150   2.180   2.289   2.305   2.320   2.494
  2.523   2.898   3.001   3.026   3.219   3.298   3.361   3.504
  3.527   3.560   3.593   3.597   3.681   3.681   3.803   3.862
  3.971   3.987   4.103   4.119   4.189   4.305   4.402   4.505
  4.538   4.664   4.681   4.694   4.741   4.936   4.984   5.024
  5.028   5.114   5.140   5.265   5.341   5.355   5.488   5.496
  5.601   5.609   5.639   5.896   5.953   5.954   6.222   6.448
  6.663   6.964   7.325  15.769  16.712  16.963  17.520  21.235
 21.552  21.819  23.388  39.240  39.260  39.303  39.394  39.542
 41.527  41.582  41.745  41.799  41.927  81.339  82.033  82.197
 87.402 109.278 109.502 109.948 117.086
 --------------------------------------------------------------
 
          Ground-State Mulliken Net Atomic Charges

     Atom                 Charge (a.u.)    Spin (a.u.)
  --------------------------------------------------------
      1 C                    -0.466949      -0.610185
      2 N                    -0.454244       1.359938
      3 H                     0.460596       0.125124
      4 H                     0.460596       0.125124
  --------------------------------------------------------
  Sum of atomic charges =    -0.000000
  Sum of spin   charges =     1.000000

 -----------------------------------------------------------------
                    Cartesian Multipole Moments
 -----------------------------------------------------------------
    Charge (ESU x 10^10)
                -0.0000
    Dipole Moment (Debye)
         X      -0.0000      Y       0.0000      Z      -2.4778
       Tot       2.4778
    Quadrupole Moments (Debye-Ang)
        XX     -12.8865     XY       0.0000     YY     -11.0149
        XZ      -0.0000     YZ      -0.0000     ZZ     -13.0337
    Octopole Moments (Debye-Ang^2)
       XXX       0.0000    XXY       0.0000    XYY       0.0000
       YYY       0.0000    XXZ      -0.1936    XYZ      -0.0000
       YYZ      -1.5807    XZZ      -0.0000    YZZ       0.0000
       ZZZ      -3.9790
    Hexadecapole Moments (Debye-Ang^3)
      XXXX     -13.5498   XXXY       0.0000   XXYY      -5.5672
      XYYY       0.0000   YYYY     -17.2899   XXXZ       0.0000
      XXYZ      -0.0000   XYYZ      -0.0000   YYYZ      -0.0000
      XXZZ     -10.5035   XYZZ      -0.0000   YYZZ      -9.8135
      XZZZ      -0.0000   YZZZ      -0.0000   ZZZZ     -50.5394
 -----------------------------------------------------------------
Archival summary:
1\1\n0088.mhg0\SP\ProcedureUnspecified\BasisUnspecified\112(2)\yhljason\TueAug400:12:422020TueAug400:12:422020\0\\#,ProcedureUnspecified,BasisUnspecified,\\0,2\C\H,1,1.0926\H,1,1.0926,2,117.526\N,1,1.2132,2,121.237,3,-180,0\\HF=-93.4675348\\@

 Total job time:  404.25s(wall), 2398.94s(cpu) 
 Tue Aug  4 00:12:42 2020

        *************************************************************
        *                                                           *
        *  Thank you very much for using Q-Chem.  Have a nice day.  *
        *                                                           *
        *************************************************************


 
User input: 3 of 7 
 
Q-Chem Developer Version!
                  Welcome to Q-Chem
     A Quantum Leap Into The Future Of Chemistry


 Q-Chem 5.1, Q-Chem, Inc., Pleasanton, CA (2018)

 Yihan Shao,  Zhengting Gan,  E. Epifanovsky,  A. T. B. Gilbert,  M. Wormit,  
 J. Kussmann,  A. W. Lange,  A. Behn,  Jia Deng,  Xintian Feng,  D. Ghosh,  
 M. Goldey,  P. R. Horn,  L. D. Jacobson,  I. Kaliman,  T. Kus,  A. Landau,  
 Jie Liu,  E. I. Proynov,  R. M. Richard,  R. P. Steele,  E. J. Sundstrom,  
 H. L. Woodcock III,  P. M. Zimmerman,  D. Zuev,  B. Albrecht,  E. Alguire,  
 S. A. Baeppler,  D. Barton,  Z. Benda,  Y. A. Bernard,  E. J. Berquist,  
 K. B. Bravaya,  H. Burton,  D. Casanova,  Chun-Min Chang,  Yunqing Chen,  
 A. Chien,  K. D. Closser,  M. P. Coons,  S. Coriani,  S. Dasgupta,  
 A. L. Dempwolff,  M. Diedenhofen,  Hainam Do,  R. G. Edgar,  Po-Tung Fang,  
 S. Faraji,  S. Fatehi,  Qingguo Feng,  K. D. Fenk,  J. Fosso-Tande,  
 Qinghui Ge,  A. Ghysels,  G. Gidofalvi,  J. Gomes,  J. Gonthier,  A. Gunina,  
 D. Hait,  M. W. D. Hanson-Heine,  P. H. P. Harbach,  A. W. Hauser,  
 J. E. Herr,  E. G. Hohenstein,  Z. C. Holden,  Kerwin Hui,  B. C. Huynh,  
 T.-C. Jagau,  Hyunjun Ji,  B. Kaduk,  K. Khistyaev,  Jaehoon Kim,  
 P. Klunzinger,  K. Koh,  D. Kosenkov,  L. Koulias,  T. Kowalczyk,  
 C. M. Krauter,  A. Kunitsa,  Ka Un Lao,  A. Laurent,  K. V. Lawler,  
 Joonho Lee,  D. Lefrancois,  S. Lehtola,  D. S. Levine,  Yi-Pei Li,  
 You-Sheng Lin,  Fenglai Liu,  E. Livshits,  A. Luenser,  P. Manohar,  
 E. Mansoor,  S. F. Manzer,  Shan-Ping Mao,  Yuezhi Mao,  N. Mardirossian,  
 A. V. Marenich,  T. Markovich,  L. A. Martinez-Martinez,  S. A. Maurer,  
 N. J. Mayhall,  S. C. McKenzie,  J.-M. Mewes,  A. F. Morrison,  
 J. W. Mullinax,  K. Nanda,  T. S. Nguyen-Beck,  R. Olivares-Amaya,  
 J. A. Parkhill,  T. M. Perrine,  F. Plasser,  P. Pokhilko,  S. Prager,  
 A. Prociuk,  E. Ramos,  D. R. Rehn,  F. Rob,  M. Schneider,  N. Sergueev,  
 S. M. Sharada,  S. Sharma,  D. W. Small,  T. Stauch,  T. Stein,  
 Yu-Chuan Su,  A. J. W. Thom,  A. Tkatchenko,  T. Tsuchimochi,  N. M. Tubman,  
 L. Vogt,  M. L. Vidal,  O. Vydrov,  M. A. Watson,  J. Wenzel,  
 M. de Wergifosse,  T. A. Wesolowski,  A. White,  J. Witte,  A. Yamada,  
 Jun Yang,  K. Yao,  S. Yeganeh,  S. R. Yost,  Zhi-Qiang You,  A. Zech,  
 Igor Ying Zhang,  Xing Zhang,  Yan Zhao,  Ying Zhu,  B. R. Brooks,  
 G. K. L. Chan,  C. J. Cramer,  M. S. Gordon,  W. J. Hehre,  A. Klamt,  
 M. W. Schmidt,  C. D. Sherrill,  D. G. Truhlar,  A. Aspuru-Guzik,  R. Baer,  
 A. T. Bell,  N. A. Besley,  Jeng-Da Chai,  A. E. DePrince, III,  
 R. A. DiStasio Jr.,  A. Dreuw,  B. D. Dunietz,  T. R. Furlani,  
 Chao-Ping Hsu,  Yousung Jung,  Jing Kong,  D. S. Lambrecht,  WanZhen Liang,  
 C. Ochsenfeld,  V. A. Rassolov,  L. V. Slipchenko,  J. E. Subotnik,  
 T. Van Voorhis,  J. M. Herbert,  A. I. Krylov,  P. M. W. Gill,  M. Head-Gordon

 Contributors to earlier versions of Q-Chem not listed above: 
 R. D. Adamson,  B. Austin,  J. Baker,  G. J. O. Beran,  K. Brandhorst,  
 S. T. Brown,  E. F. C. Byrd,  A. K. Chakraborty,  C.-L. Cheng,  
 Siu Hung Chien,  D. M. Chipman,  D. L. Crittenden,  H. Dachsel,  
 R. J. Doerksen,  A. D. Dutoi,  L. Fusti-Molnar,  W. A. Goddard III,  
 A. Golubeva-Zadorozhnaya,  S. R. Gwaltney,  G. Hawkins,  A. Heyden,  
 S. Hirata,  G. Kedziora,  F. J. Keil,  C. Kelley,  Jihan Kim,  R. A. King,  
 R. Z. Khaliullin,  P. P. Korambath,  W. Kurlancheek,  A. M. Lee,  M. S. Lee,  
 S. V. Levchenko,  Ching Yeh Lin,  D. Liotard,  R. C. Lochan,  I. Lotan,  
 P. E. Maslen,  N. Nair,  D. P. O'Neill,  D. Neuhauser,  E. Neuscamman,  
 C. M. Oana,  R. Olson,  B. Peters,  R. Peverati,  P. A. Pieniazek,  
 Y. M. Rhee,  J. Ritchie,  M. A. Rohrdanz,  E. Rosta,  N. J. Russ,  
 H. F. Schaefer III,  N. E. Schultz,  N. Shenvi,  A. C. Simmonett,  A. Sodt,  
 D. Stuck,  K. S. Thanthiriwatte,  V. Vanovschi,  Tao Wang,  A. Warshel,  
 C. F. Williams,  Q. Wu,  X. Xu,  W. Zhang

 Please cite Q-Chem as follows:
 Y. Shao et al., Mol. Phys. 113, 184-215 (2015)
 DOI: 10.1080/00268976.2014.952696

 Q-Chem 5.1.1 for Intel X86 EM64T Linux

 Parts of Q-Chem use Armadillo 8.300.2 (Tropical Shenanigans).
 http://arma.sourceforge.net/

 Q-Chem begins on Tue Aug  4 00:12:42 2020  

Host: n0088.mhg0
0

     Scratch files written to /local/scratch/users/yhljason/H2CN_ccsdT_aug-cc-pcVTZ.inp20200803231135//
The previous job contains 0 fragments, simply inherited here
Input Ideriv = 0
Curr. Ideriv = -1
Max.  Ideriv = 0

Checking the input file for inconsistencies... 	...done.

--------------------------------------------------------------
User input:
--------------------------------------------------------------
$molecule
read
$end

$rem

jobtype sp
method CCSD(T)
xc_grid 000099000590
basis aug-cc-pcVTZ
max_scf_cycles 200
thresh 14
scf_convergence 8
mem_total 128000
cc_memory 96000
cc_backend xm
mem_static 1500
symmetry false
sym_ignore true
scf_guess read
unrestricted true
scf_algorithm gdm
n_frozen_core 0
$end

$multipole_field
XX -0.0001
$end


--------------------------------------------------------------
 ----------------------------------------------------------------
             Standard Nuclear Orientation (Angstroms)
    I     Atom           X                Y                Z
 ----------------------------------------------------------------
    1      C       0.0000000000     0.0000000000    -0.4906000000
    2      N       0.0000000000     0.0000000000     0.7226000000
    3      H       0.0000000000     0.9342000000    -1.0572000000
    4      H       0.0000000000    -0.9342000000    -1.0572000000
 ----------------------------------------------------------------
 Nuclear Repulsion Energy =    28.1005412294 hartrees
 There are        8 alpha and        7 beta electrons
 Requested basis set is aug-cc-pCVTZ
 There are 56 shells and 164 basis functions
 Total memory of 128000MB is distributed as follows: 
   QALLOC including MEM_STATIC uses 32000MB
   MEM_STATIC is set to 1500MB
   CCMAN JOB total memory use is  96000MB
 Warning: actual memory use might exceed 128000MB

 Total QAlloc Memory Limit  32000 MB
 Mega-Array Size      1467 MB
 MEM_STATIC part      1500 MB

                       Distance Matrix (Angstroms)
             C (  1)   N (  2)   H (  3)
   N (  2)  1.213200
   H (  3)  1.092596  2.010079
   H (  4)  1.092596  2.010079  1.868400
 
 Applying Cartesian multipole field
    Component          Value
    ---------          -----
     (2,0,0)       -1.00000E-04
 A cutoff of  1.0D-14 yielded   1588 shell pairs
 There are     13728 function pairs (     18113 Cartesian)
 
 -------------------------------------------------------
 OpenMP Integral Computing Module                       
 Release: version 1.0, May 2013, Q-Chem Inc. Pittsburgh 
 -------------------------------------------------------
 Integral Job Info:
 Integral job number is                      11
 Integral operator is                         1
 short-range coefficients                     0
 long-range coefficients              100000000
 Omega coefficients                           0
 if combine SR and LR in K                    0
 Integral screening is                        0
 Integral computing path is                   2
 max size of driver memory is            800000
 size of driver memory is                776718
 size of scratch memory is              6691272
 max col of scratch BK array              10000
 max len of scratch array in speh3          662
 max len of scratch index in speh4           32
 max int batch size is                      520
 min int batch size is                       52
 fixed nKL is                                52
 max L of basis functions is                  3
 order of int derivative is                   0
 number of shells is                         56
 number of basis is                         188
 number of cartesian basis is               188
 number of contracted shell pairs          1588
 number of primitive shell pairs           4021
 maxK2 (contraction) of shell pair           64
 max number of K2 of shell pair               1
 max number of CS2 of shell pair            258
 max number of PS2 of shell pair            472
 mem total for path MDJ                  562704
 -------------------------------------------------------
 Smallest overlap matrix eigenvalue = 8.03E-05
 Guess MOs from SCF MO coefficient file

 -----------------------------------------------------------------------
  General SCF calculation program by
  Eric Jon Sundstrom, Paul Horn, Yuezhi Mao, Dmitri Zuev, Alec White,
  David Stuck, Shaama M.S., Shane Yost, Joonho Lee, David Small,
  Daniel Levine, Susi Lehtola, Hugh Burton, Evgeny Epifanovsky
 -----------------------------------------------------------------------
 Hartree-Fock
 using 8 threads for integral computing
 -------------------------------------------------------
 OpenMP Integral computing Module                
 Release: version 2.0, May 2017, Q-Chem Inc. Pleasanton 
 -------------------------------------------------------
 A unrestricted SCF calculation will be
 performed using GDM
 SCF converges when RMS gradient is below 1.0e-08
 ---------------------------------------
  Cycle       Energy        RMS Gradient
 ---------------------------------------
    1     -93.4656186222      5.67e-04   Normal BFGS step
    2     -93.4656197485      1.31e-04   Normal BFGS step
    3     -93.4656198658      4.81e-05   Normal BFGS step
    4     -93.4656198751      2.17e-05   Normal BFGS step
    5     -93.4656198793      2.18e-05   Normal BFGS step
    6     -93.4656198823      2.07e-05   Normal BFGS step
    7     -93.4656198853      1.13e-05   Normal BFGS step
    8     -93.4656198861      4.04e-06   Normal BFGS step
    9     -93.4656198863      1.65e-06   Normal BFGS step
   10     -93.4656198863      5.33e-07   Normal BFGS step
   11     -93.4656198863      1.93e-07   Normal BFGS step
   12     -93.4656198863      3.64e-08   Normal BFGS step
   13     -93.4656198863      1.10e-08   Normal BFGS step
   14     -93.4656198863      3.58e-09  Convergence criterion met
 ---------------------------------------
 SCF time:   CPU 268.72s  wall 34.00s 
<S^2> =          0.882138136
 SCF   energy in the final basis set =      -93.4656198863
 Total energy in the final basis set =      -93.4656198863


 ------------------------------------------------------------------------------

   CCMAN2: suite of methods based on coupled cluster
           and equation of motion theories.

   Components:
   * libvmm-1.3-trunk
     by Evgeny Epifanovsky, Ilya Kaliman.
   * libtensor-2.5-trunk
     by Evgeny Epifanovsky, Michael Wormit, Dmitry Zuev, Sam Manzer, 
        Ilya Kaliman.
   * libcc-2.5-trunk
     by Evgeny Epifanovsky, Arik Landau, Tomasz Kus, Kirill Khistyaev, 
        Dmitry Zuev, Prashant Manohar, Xintian Feng, Anna Krylov, 
        Matthew Goldey, Alec White, Thomas Jagau, Kaushik Nanda, 
        Anastasia Gunina, Alexander Kunitsa, Joonho Lee.

   CCMAN original authors:
   Anna I. Krylov, C. David Sherrill, Steven R. Gwaltney,
   Edward F. C. Byrd (2000)
   Sergey V. Levchenko, Lyudmila V. Slipchenko, Tao Wang,
   Ana-Maria C. Cristian (2003)
   Piotr A. Pieniazek, C. Melania Oana, Evgeny Epifanovsky (2007)
   Prashant Manohar (2009)

 ------------------------------------------------------------------------------


 Calculation will run on 8 cores using libxm for tensor contractions

 ------------------------------------------------------------------------------
Libxm Tensor Library
Copyright (c) 2014-2018 Ilya Kaliman
https://github.com/ilyak/libxm
Reference: https://dx.doi.org/10.1002/jcc.24713
 ------------------------------------------------------------------------------

 
 Alpha MOs, Unrestricted
 -- Occupied --                  
-15.605 -11.267  -1.269  -0.821  -0.696  -0.590  -0.512  -0.447
  1 A     2 A     3 A     4 A     5 A     6 A     7 A     8 A                  
 -- Virtual --                   
  0.030   0.043   0.073   0.073   0.134   0.135   0.144   0.147
  9 A    10 A    11 A    12 A    13 A    14 A    15 A    16 A                  
  0.165   0.185   0.214   0.244   0.256   0.276   0.315   0.333
 17 A    18 A    19 A    20 A    21 A    22 A    23 A    24 A                  
  0.340   0.358   0.387   0.390   0.395   0.404   0.456   0.470
 25 A    26 A    27 A    28 A    29 A    30 A    31 A    32 A                  
  0.536   0.549   0.572   0.584   0.599   0.650   0.672   0.741
 33 A    34 A    35 A    36 A    37 A    38 A    39 A    40 A                  
  0.750   0.812   0.837   0.854   0.892   0.924   0.931   0.934
 41 A    42 A    43 A    44 A    45 A    46 A    47 A    48 A                  
  0.939   0.997   0.999   1.009   1.009   1.034   1.053   1.086
 49 A    50 A    51 A    52 A    53 A    54 A    55 A    56 A                  
  1.095   1.149   1.217   1.287   1.331   1.355   1.403   1.403
 57 A    58 A    59 A    60 A    61 A    62 A    63 A    64 A                  
  1.479   1.582   1.603   1.607   1.650   1.656   1.762   1.773
 65 A    66 A    67 A    68 A    69 A    70 A    71 A    72 A                  
  1.780   1.782   1.840   1.901   1.928   1.995   2.008   2.016
 73 A    74 A    75 A    76 A    77 A    78 A    79 A    80 A                  
  2.081   2.133   2.154   2.271   2.277   2.301   2.453   2.494
 81 A    82 A    83 A    84 A    85 A    86 A    87 A    88 A                  
  2.916   2.990   3.019   3.235   3.304   3.374   3.496   3.537
 89 A    90 A    91 A    92 A    93 A    94 A    95 A    96 A                  
  3.564   3.590   3.595   3.657   3.693   3.784   3.859   3.962
 97 A    98 A    99 A   100 A   101 A   102 A   103 A   104 A                  
  3.974   4.099   4.100   4.177   4.306   4.391   4.497   4.501
105 A   106 A   107 A   108 A   109 A   110 A   111 A   112 A                  
  4.653   4.665   4.671   4.730   4.895   4.926   5.002   5.013
113 A   114 A   115 A   116 A   117 A   118 A   119 A   120 A                  
  5.101   5.122   5.246   5.280   5.298   5.467   5.474   5.539
121 A   122 A   123 A   124 A   125 A   126 A   127 A   128 A                  
  5.579   5.603   5.875   5.918   5.941   6.215   6.446   6.659
129 A   130 A   131 A   132 A   133 A   134 A   135 A   136 A                  
  6.942   7.304  15.783  16.719  16.968  17.529  21.209  21.503
137 A   138 A   139 A   140 A   141 A   142 A   143 A   144 A                  
 21.802  23.366  39.206  39.225  39.288  39.367  39.527  41.534
145 A   146 A   147 A   148 A   149 A   150 A   151 A   152 A                  
 41.588  41.751  41.802  41.932  81.344  82.036  82.199  87.405
153 A   154 A   155 A   156 A   157 A   158 A   159 A   160 A                  
109.272 109.491 109.944 117.078
161 A   162 A   163 A   164 A                                                  
 
 Beta MOs, Unrestricted
 -- Occupied --                  
-15.564 -11.281  -1.179  -0.785  -0.626  -0.531  -0.466
  1 A     2 A     3 A     4 A     5 A     6 A     7 A                          
 -- Virtual --                   
  0.030   0.043   0.074   0.081   0.094   0.135   0.135   0.140
  8 A     9 A    10 A    11 A    12 A    13 A    14 A    15 A                  
  0.147   0.196   0.208   0.214   0.248   0.255   0.285   0.317
 16 A    17 A    18 A    19 A    20 A    21 A    22 A    23 A                  
  0.323   0.342   0.359   0.389   0.390   0.397   0.416   0.458
 24 A    25 A    26 A    27 A    28 A    29 A    30 A    31 A                  
  0.524   0.539   0.542   0.588   0.594   0.606   0.663   0.664
 32 A    33 A    34 A    35 A    36 A    37 A    38 A    39 A                  
  0.748   0.764   0.817   0.836   0.858   0.896   0.926   0.934
 40 A    41 A    42 A    43 A    44 A    45 A    46 A    47 A                  
  0.937   0.945   0.998   1.009   1.014   1.033   1.045   1.081
 48 A    49 A    50 A    51 A    52 A    53 A    54 A    55 A                  
  1.086   1.100   1.189   1.214   1.308   1.343   1.355   1.412
 56 A    57 A    58 A    59 A    60 A    61 A    62 A    63 A                  
  1.427   1.495   1.585   1.605   1.635   1.646   1.664   1.773
 64 A    65 A    66 A    67 A    68 A    69 A    70 A    71 A                  
  1.792   1.804   1.813   1.844   1.909   1.933   2.002   2.008
 72 A    73 A    74 A    75 A    76 A    77 A    78 A    79 A                  
  2.016   2.092   2.150   2.181   2.290   2.306   2.320   2.494
 80 A    81 A    82 A    83 A    84 A    85 A    86 A    87 A                  
  2.524   2.899   3.001   3.026   3.219   3.298   3.362   3.504
 88 A    89 A    90 A    91 A    92 A    93 A    94 A    95 A                  
  3.527   3.560   3.593   3.597   3.682   3.682   3.804   3.862
 96 A    97 A    98 A    99 A   100 A   101 A   102 A   103 A                  
  3.971   3.987   4.104   4.120   4.190   4.305   4.403   4.506
104 A   105 A   106 A   107 A   108 A   109 A   110 A   111 A                  
  4.538   4.664   4.681   4.695   4.741   4.936   4.985   5.024
112 A   113 A   114 A   115 A   116 A   117 A   118 A   119 A                  
  5.028   5.114   5.140   5.266   5.342   5.356   5.489   5.497
120 A   121 A   122 A   123 A   124 A   125 A   126 A   127 A                  
  5.601   5.610   5.639   5.896   5.954   5.955   6.222   6.449
128 A   129 A   130 A   131 A   132 A   133 A   134 A   135 A                  
  6.663   6.964   7.325  15.769  16.713  16.963  17.521  21.236
136 A   137 A   138 A   139 A   140 A   141 A   142 A   143 A                  
 21.553  21.819  23.388  39.240  39.261  39.303  39.395  39.543
144 A   145 A   146 A   147 A   148 A   149 A   150 A   151 A                  
 41.528  41.582  41.745  41.799  41.928  81.340  82.033  82.197
152 A   153 A   154 A   155 A   156 A   157 A   158 A   159 A                  
 87.402 109.279 109.503 109.949 117.086
160 A   161 A   162 A   163 A   164 A                                          

 Occupation and symmetry of molecular orbitals

 Point group: C1 (1 irreducible representation).

                           A     All 
 -------------------------------------
 All molecular orbitals:
  - Alpha                  164   164 
  - Beta                   164   164 
 -------------------------------------
 Alpha orbitals:
  - Frozen occupied        0     0   
  - Active occupied        8     8   
  - Active virtual         156   156 
  - Frozen virtual         0     0   
 -------------------------------------
 Beta orbitals:
  - Frozen occupied        0     0   
  - Active occupied        7     7   
  - Active virtual         157   157 
  - Frozen virtual         0     0   
 -------------------------------------

 Import integrals:   CPU 0.00 s  wall 0.00 s

 Import integrals:   CPU 391.22 s  wall 80.81 s

 MP2 amplitudes:   CPU 2.59 s  wall 0.83 s

Running a double precision version
           CCSD T amplitudes will be solved using DIIS.

           Start     Size      MaxIter   EConv     TConv     
           3         7         100       1.00e-06  1.00e-04  
 ------------------------------------------------------------------------------
           Energy (a.u.)   Ediff      Tdiff       Comment
 ------------------------------------------------------------------------------
           -93.88317266                           
     1     -93.89789056   1.47e-02   5.15e-01     
     2     -93.90832788   1.04e-02   5.62e-02     
     3     -93.91032494   2.00e-03   2.19e-02     
     4     -93.91297953   2.65e-03   1.35e-02     Switched to DIIS steps.
     5     -93.91463894   1.66e-03   1.15e-02     
     6     -93.91514995   5.11e-04   5.59e-03     
     7     -93.91525568   1.06e-04   1.34e-03     
     8     -93.91527468   1.90e-05   5.84e-04     
     9     -93.91526685   7.82e-06   2.21e-04     
    10     -93.91526808   1.22e-06   1.18e-04     
    11     -93.91526677   1.31e-06   6.20e-05     
    12     -93.91526674   3.63e-08   1.93e-05     
 ------------------------------------------------------------------------------
           -93.91526674                           CCSD T converged.

End of double precision

----------------------------------------
libpt (c) 2016-2018 Ilya Kaliman
Fast Coupled Cluster Triples Corrections
https://github.com/ilyak/libpt
----------------------------------------

 Starting (T) calculation...
 Using double precision libpt code
 (T) calculation completed in 68 sec
 (T) energy is -0.0160099349

 SCF energy                 = -93.46561989
 MP2 energy                 = -93.88317266
 CCSD correlation energy     =  -0.44964685
 CCSD total energy           = -93.91526674
 CCSD(T) correlation energy =  -0.01600993
 CCSD(T) total energy       = -93.93127667

 CCSD  T1^2 = 0.0299  T2^2 = 0.1288  Leading amplitudes:

 Amplitude    Orbitals with energies
 -0.0720       7 (A) A                   ->    15 (A) A                   
              -0.5122                          0.1444                     
  0.0648       7 (A) A                   ->    18 (A) A                   
              -0.5122                          0.1854                     
  0.0633       7 (A) B                   ->    18 (A) B                   
              -0.4660                          0.2081                     
 -0.0471       7 (A) B                   ->    14 (A) B                   
              -0.4660                          0.1353                     

 Amplitude    Orbitals with energies
  0.0513       7 (A) A       7 (A) B     ->    18 (A) A      18 (A) B     
              -0.5122       -0.4660            0.1854        0.2081       
 -0.0513       7 (A) A       7 (A) B     ->    18 (A) B      18 (A) A     
              -0.5122       -0.4660            0.2081        0.1854       
 -0.0513       7 (A) B       7 (A) A     ->    18 (A) A      18 (A) B     
              -0.4660       -0.5122            0.1854        0.2081       
  0.0513       7 (A) B       7 (A) A     ->    18 (A) B      18 (A) A     
              -0.4660       -0.5122            0.2081        0.1854       

 CCSD calculation:   CPU 1764.32 s  wall 274.72 s

 Total ccman2 time:   CPU 2181.45 s  wall 369.69 s

 
 --------------------------------------------------------------
 
                    Orbital Energies (a.u.)
 --------------------------------------------------------------
 
 Alpha MOs
 -- Occupied --
-15.605 -11.267  -1.269  -0.821  -0.696  -0.590  -0.512  -0.447
 -- Virtual --
  0.030   0.043   0.073   0.073   0.134   0.135   0.144   0.147
  0.165   0.185   0.214   0.244   0.256   0.276   0.315   0.333
  0.340   0.358   0.387   0.390   0.395   0.404   0.456   0.470
[...]
 max int batch size is                      520
 min int batch size is                       52
 fixed nKL is                                52
 max L of basis functions is                  3
 order of int derivative is                   0
 number of shells is                         56
 number of basis is                         188
 number of cartesian basis is               188
 number of contracted shell pairs          1588
 number of primitive shell pairs           4021
 maxK2 (contraction) of shell pair           64
 max number of K2 of shell pair               1
 max number of CS2 of shell pair            258
 max number of PS2 of shell pair            472
 mem total for path MDJ                  562704
 -------------------------------------------------------
 Smallest overlap matrix eigenvalue = 8.03E-05
 Guess MOs from SCF MO coefficient file

 -----------------------------------------------------------------------
  General SCF calculation program by
  Eric Jon Sundstrom, Paul Horn, Yuezhi Mao, Dmitri Zuev, Alec White,
  David Stuck, Shaama M.S., Shane Yost, Joonho Lee, David Small,
  Daniel Levine, Susi Lehtola, Hugh Burton, Evgeny Epifanovsky
 -----------------------------------------------------------------------
 Hartree-Fock
 using 8 threads for integral computing
 -------------------------------------------------------
 OpenMP Integral computing Module                
 Release: version 2.0, May 2017, Q-Chem Inc. Pleasanton 
 -------------------------------------------------------
 A unrestricted SCF calculation will be
 performed using GDM
 SCF converges when RMS gradient is below 1.0e-08
 ---------------------------------------
  Cycle       Energy        RMS Gradient
 ---------------------------------------
    1     -93.4656055893      5.40e-04   Normal BFGS step
    2     -93.4656085514      1.29e-04   Normal BFGS step
    3     -93.4656088006      4.78e-05   Normal BFGS step
    4     -93.4656088143      3.26e-05   Normal BFGS step
    5     -93.4656088210      2.17e-05   Normal BFGS step
    6     -93.4656088243      2.18e-05   Normal BFGS step
    7     -93.4656088277      1.62e-05   Normal BFGS step
    8     -93.4656088290      5.68e-06   Normal BFGS step
    9     -93.4656088294      2.35e-06   Normal BFGS step
   10     -93.4656088294      8.85e-07   Normal BFGS step
   11     -93.4656088294      2.00e-07   Normal BFGS step
   12     -93.4656088294      6.00e-08   Normal BFGS step
   13     -93.4656088294      2.88e-08   Normal BFGS step
   14     -93.4656088294      1.51e-08   Normal BFGS step
   15     -93.4656088294      5.30e-09  Convergence criterion met
 ---------------------------------------
 SCF time:   CPU 287.48s  wall 36.00s 
<S^2> =          0.881640815
 SCF   energy in the final basis set =      -93.4656088294
 Total energy in the final basis set =      -93.4656088294


 ------------------------------------------------------------------------------

   CCMAN2: suite of methods based on coupled cluster
           and equation of motion theories.

   Components:
   * libvmm-1.3-trunk
     by Evgeny Epifanovsky, Ilya Kaliman.
   * libtensor-2.5-trunk
     by Evgeny Epifanovsky, Michael Wormit, Dmitry Zuev, Sam Manzer, 
        Ilya Kaliman.
   * libcc-2.5-trunk
     by Evgeny Epifanovsky, Arik Landau, Tomasz Kus, Kirill Khistyaev, 
        Dmitry Zuev, Prashant Manohar, Xintian Feng, Anna Krylov, 
        Matthew Goldey, Alec White, Thomas Jagau, Kaushik Nanda, 
        Anastasia Gunina, Alexander Kunitsa, Joonho Lee.

   CCMAN original authors:
   Anna I. Krylov, C. David Sherrill, Steven R. Gwaltney,
   Edward F. C. Byrd (2000)
   Sergey V. Levchenko, Lyudmila V. Slipchenko, Tao Wang,
   Ana-Maria C. Cristian (2003)
   Piotr A. Pieniazek, C. Melania Oana, Evgeny Epifanovsky (2007)
   Prashant Manohar (2009)

 ------------------------------------------------------------------------------


 Calculation will run on 8 cores using libxm for tensor contractions

 ------------------------------------------------------------------------------
Libxm Tensor Library
Copyright (c) 2014-2018 Ilya Kaliman
https://github.com/ilyak/libxm
Reference: https://dx.doi.org/10.1002/jcc.24713
 ------------------------------------------------------------------------------

 
 Alpha MOs, Unrestricted
 -- Occupied --                  
-15.605 -11.267  -1.269  -0.820  -0.696  -0.590  -0.512  -0.447
  1 A     2 A     3 A     4 A     5 A     6 A     7 A     8 A                  
 -- Virtual --                   
  0.031   0.044   0.071   0.074   0.135   0.137   0.144   0.149
  9 A    10 A    11 A    12 A    13 A    14 A    15 A    16 A                  
  0.167   0.185   0.214   0.245   0.256   0.277   0.316   0.332
 17 A    18 A    19 A    20 A    21 A    22 A    23 A    24 A                  
  0.340   0.358   0.387   0.391   0.395   0.404   0.457   0.471
 25 A    26 A    27 A    28 A    29 A    30 A    31 A    32 A                  
  0.536   0.549   0.573   0.585   0.600   0.650   0.672   0.742
 33 A    34 A    35 A    36 A    37 A    38 A    39 A    40 A                  
  0.751   0.812   0.837   0.854   0.893   0.924   0.932   0.935
 41 A    42 A    43 A    44 A    45 A    46 A    47 A    48 A                  
  0.939   0.997   1.000   1.009   1.009   1.034   1.054   1.086
 49 A    50 A    51 A    52 A    53 A    54 A    55 A    56 A                  
  1.096   1.150   1.217   1.287   1.332   1.356   1.403   1.403
 57 A    58 A    59 A    60 A    61 A    62 A    63 A    64 A                  
  1.480   1.582   1.603   1.607   1.651   1.657   1.762   1.773
 65 A    66 A    67 A    68 A    69 A    70 A    71 A    72 A                  
  1.781   1.782   1.840   1.901   1.929   1.995   2.008   2.017
 73 A    74 A    75 A    76 A    77 A    78 A    79 A    80 A                  
  2.082   2.133   2.154   2.271   2.278   2.302   2.453   2.495
 81 A    82 A    83 A    84 A    85 A    86 A    87 A    88 A                  
  2.916   2.990   3.020   3.235   3.304   3.374   3.497   3.538
 89 A    90 A    91 A    92 A    93 A    94 A    95 A    96 A                  
  3.564   3.590   3.595   3.657   3.693   3.784   3.860   3.963
 97 A    98 A    99 A   100 A   101 A   102 A   103 A   104 A                  
  3.975   4.099   4.100   4.177   4.307   4.391   4.497   4.501
105 A   106 A   107 A   108 A   109 A   110 A   111 A   112 A                  
  4.654   4.666   4.672   4.730   4.895   4.926   5.002   5.014
113 A   114 A   115 A   116 A   117 A   118 A   119 A   120 A                  
  5.101   5.122   5.246   5.280   5.299   5.467   5.474   5.539
121 A   122 A   123 A   124 A   125 A   126 A   127 A   128 A                  
  5.579   5.603   5.875   5.918   5.941   6.216   6.446   6.659
129 A   130 A   131 A   132 A   133 A   134 A   135 A   136 A                  
  6.942   7.304  15.783  16.719  16.968  17.529  21.209  21.503
137 A   138 A   139 A   140 A   141 A   142 A   143 A   144 A                  
 21.802  23.366  39.206  39.226  39.289  39.367  39.527  41.534
145 A   146 A   147 A   148 A   149 A   150 A   151 A   152 A                  
 41.588  41.751  41.803  41.932  81.344  82.036  82.200  87.406
153 A   154 A   155 A   156 A   157 A   158 A   159 A   160 A                  
109.272 109.491 109.945 117.079
161 A   162 A   163 A   164 A                                                  
 
 Beta MOs, Unrestricted
 -- Occupied --                  
-15.564 -11.280  -1.179  -0.784  -0.626  -0.531  -0.466
  1 A     2 A     3 A     4 A     5 A     6 A     7 A                          
 -- Virtual --                   
  0.031   0.044   0.075   0.079   0.095   0.135   0.136   0.140
  8 A     9 A    10 A    11 A    12 A    13 A    14 A    15 A                  
  0.149   0.197   0.208   0.214   0.249   0.255   0.286   0.318
 16 A    17 A    18 A    19 A    20 A    21 A    22 A    23 A                  
  0.323   0.342   0.359   0.389   0.390   0.398   0.416   0.459
 24 A    25 A    26 A    27 A    28 A    29 A    30 A    31 A                  
  0.525   0.539   0.543   0.589   0.595   0.607   0.663   0.664
 32 A    33 A    34 A    35 A    36 A    37 A    38 A    39 A                  
  0.749   0.765   0.818   0.836   0.858   0.896   0.927   0.934
 40 A    41 A    42 A    43 A    44 A    45 A    46 A    47 A                  
  0.937   0.945   0.998   1.009   1.015   1.033   1.046   1.082
 48 A    49 A    50 A    51 A    52 A    53 A    54 A    55 A                  
  1.086   1.101   1.190   1.214   1.308   1.344   1.356   1.412
 56 A    57 A    58 A    59 A    60 A    61 A    62 A    63 A                  
  1.427   1.496   1.585   1.606   1.635   1.646   1.664   1.773
 64 A    65 A    66 A    67 A    68 A    69 A    70 A    71 A                  
  1.792   1.805   1.813   1.844   1.909   1.934   2.002   2.009
 72 A    73 A    74 A    75 A    76 A    77 A    78 A    79 A                  
  2.016   2.093   2.151   2.181   2.290   2.306   2.321   2.495
 80 A    81 A    82 A    83 A    84 A    85 A    86 A    87 A                  
  2.524   2.899   3.002   3.026   3.219   3.298   3.362   3.505
 88 A    89 A    90 A    91 A    92 A    93 A    94 A    95 A                  
  3.528   3.561   3.594   3.598   3.682   3.682   3.804   3.862
 96 A    97 A    98 A    99 A   100 A   101 A   102 A   103 A                  
  3.972   3.988   4.104   4.120   4.190   4.306   4.403   4.506
104 A   105 A   106 A   107 A   108 A   109 A   110 A   111 A                  
  4.538   4.664   4.682   4.695   4.742   4.936   4.985   5.024
112 A   113 A   114 A   115 A   116 A   117 A   118 A   119 A                  
  5.029   5.114   5.141   5.266   5.342   5.356   5.489   5.497
120 A   121 A   122 A   123 A   124 A   125 A   126 A   127 A                  
  5.602   5.610   5.640   5.896   5.954   5.955   6.223   6.449
128 A   129 A   130 A   131 A   132 A   133 A   134 A   135 A                  
  6.663   6.965   7.326  15.769  16.713  16.964  17.521  21.236
136 A   137 A   138 A   139 A   140 A   141 A   142 A   143 A                  
 21.553  21.820  23.389  39.240  39.261  39.303  39.395  39.543
144 A   145 A   146 A   147 A   148 A   149 A   150 A   151 A                  
 41.528  41.582  41.745  41.800  41.928  81.340  82.033  82.197
152 A   153 A   154 A   155 A   156 A   157 A   158 A   159 A                  
 87.402 109.279 109.503 109.949 117.086
160 A   161 A   162 A   163 A   164 A                                          

 Occupation and symmetry of molecular orbitals

 Point group: C1 (1 irreducible representation).

                           A     All 
 -------------------------------------
 All molecular orbitals:
  - Alpha                  164   164 
  - Beta                   164   164 
 -------------------------------------
 Alpha orbitals:
  - Frozen occupied        0     0   
  - Active occupied        8     8   
  - Active virtual         156   156 
  - Frozen virtual         0     0   
 -------------------------------------
 Beta orbitals:
  - Frozen occupied        0     0   
  - Active occupied        7     7   
  - Active virtual         157   157 
  - Frozen virtual         0     0   
 -------------------------------------

 Import integrals:   CPU 0.00 s  wall 0.00 s

 Import integrals:   CPU 390.24 s  wall 80.49 s

 MP2 amplitudes:   CPU 2.57 s  wall 0.81 s

Running a double precision version
           CCSD T amplitudes will be solved using DIIS.

           Start     Size      MaxIter   EConv     TConv     
           3         7         100       1.00e-06  1.00e-04  
 ------------------------------------------------------------------------------
           Energy (a.u.)   Ediff      Tdiff       Comment
 ------------------------------------------------------------------------------
           -93.88318980                           
     1     -93.89789866   1.47e-02   5.15e-01     
     2     -93.90833239   1.04e-02   5.62e-02     
     3     -93.91032522   1.99e-03   2.19e-02     
     4     -93.91297352   2.65e-03   1.35e-02     Switched to DIIS steps.
     5     -93.91462662   1.65e-03   1.15e-02     
     6     -93.91513578   5.09e-04   5.59e-03     
     7     -93.91524100   1.05e-04   1.34e-03     
     8     -93.91525985   1.89e-05   5.82e-04     
     9     -93.91525207   7.78e-06   2.20e-04     
    10     -93.91525329   1.22e-06   1.17e-04     
    11     -93.91525199   1.30e-06   6.17e-05     
    12     -93.91525196   3.45e-08   1.92e-05     
 ------------------------------------------------------------------------------
           -93.91525196                           CCSD T converged.

End of double precision

----------------------------------------
libpt (c) 2016-2018 Ilya Kaliman
Fast Coupled Cluster Triples Corrections
https://github.com/ilyak/libpt
----------------------------------------

 Starting (T) calculation...
 Using double precision libpt code
 (T) calculation completed in 69 sec
 (T) energy is -0.0160089602

 SCF energy                 = -93.46560883
 MP2 energy                 = -93.88318980
 CCSD correlation energy     =  -0.44964313
 CCSD total energy           = -93.91525196
 CCSD(T) correlation energy =  -0.01600896
 CCSD(T) total energy       = -93.93126092

 CCSD  T1^2 = 0.0298  T2^2 = 0.1288  Leading amplitudes:

 Amplitude    Orbitals with energies
  0.0725       7 (A) A                   ->    15 (A) A                   
              -0.5120                          0.1439                     
 -0.0646       7 (A) A                   ->    18 (A) A                   
              -0.5120                          0.1851                     
 -0.0632       7 (A) B                   ->    18 (A) B                   
              -0.4659                          0.2080                     
 -0.0472       7 (A) B                   ->    13 (A) B                   
              -0.4659                          0.1350                     

 Amplitude    Orbitals with energies
  0.0513       7 (A) A       7 (A) B     ->    18 (A) A      18 (A) B     
              -0.5120       -0.4659            0.1851        0.2080       
 -0.0513       7 (A) A       7 (A) B     ->    18 (A) B      18 (A) A     
              -0.5120       -0.4659            0.2080        0.1851       
 -0.0513       7 (A) B       7 (A) A     ->    18 (A) A      18 (A) B     
              -0.4659       -0.5120            0.1851        0.2080       
  0.0513       7 (A) B       7 (A) A     ->    18 (A) B      18 (A) A     
              -0.4659       -0.5120            0.2080        0.1851       

 CCSD calculation:   CPU 1763.15 s  wall 276.35 s

 Total ccman2 time:   CPU 2178.22 s  wall 370.89 s

 
 --------------------------------------------------------------
 
                    Orbital Energies (a.u.)
 --------------------------------------------------------------
 
 Alpha MOs
 -- Occupied --
-15.605 -11.267  -1.269  -0.820  -0.696  -0.590  -0.512  -0.447
 -- Virtual --
  0.031   0.044   0.071   0.074   0.135   0.137   0.144   0.149
  0.167   0.185   0.214   0.245   0.256   0.277   0.316   0.332
  0.340   0.358   0.387   0.391   0.395   0.404   0.457   0.471
  0.536   0.549   0.573   0.585   0.600   0.650   0.672   0.742
  0.751   0.812   0.837   0.854   0.893   0.924   0.932   0.935
  0.939   0.997   1.000   1.009   1.009   1.034   1.054   1.086
  1.096   1.150   1.217   1.287   1.332   1.356   1.403   1.403
  1.480   1.582   1.603   1.607   1.651   1.657   1.762   1.773
  1.781   1.782   1.840   1.901   1.929   1.995   2.008   2.017
  2.082   2.133   2.154   2.271   2.278   2.302   2.453   2.495
  2.916   2.990   3.020   3.235   3.304   3.374   3.497   3.538
  3.564   3.590   3.595   3.657   3.693   3.784   3.860   3.963
  3.975   4.099   4.100   4.177   4.307   4.391   4.497   4.501
  4.654   4.666   4.672   4.730   4.895   4.926   5.002   5.014
  5.101   5.122   5.246   5.280   5.299   5.467   5.474   5.539
  5.579   5.603   5.875   5.918   5.941   6.216   6.446   6.659
  6.942   7.304  15.783  16.719  16.968  17.529  21.209  21.503
 21.802  23.366  39.206  39.226  39.289  39.367  39.527  41.534
 41.588  41.751  41.803  41.932  81.344  82.036  82.200  87.406
109.272 109.491 109.945 117.079
 
 Beta MOs
 -- Occupied --
-15.564 -11.280  -1.179  -0.784  -0.626  -0.531  -0.466
 -- Virtual --
  0.031   0.044   0.075   0.079   0.095   0.135   0.136   0.140
  0.149   0.197   0.208   0.214   0.249   0.255   0.286   0.318
  0.323   0.342   0.359   0.389   0.390   0.398   0.416   0.459
  0.525   0.539   0.543   0.589   0.595   0.607   0.663   0.664
  0.749   0.765   0.818   0.836   0.858   0.896   0.927   0.934
  0.937   0.945   0.998   1.009   1.015   1.033   1.046   1.082
  1.086   1.101   1.190   1.214   1.308   1.344   1.356   1.412
  1.427   1.496   1.585   1.606   1.635   1.646   1.664   1.773
  1.792   1.805   1.813   1.844   1.909   1.934   2.002   2.009
  2.016   2.093   2.151   2.181   2.290   2.306   2.321   2.495
  2.524   2.899   3.002   3.026   3.219   3.298   3.362   3.505
  3.528   3.561   3.594   3.598   3.682   3.682   3.804   3.862
  3.972   3.988   4.104   4.120   4.190   4.306   4.403   4.506
  4.538   4.664   4.682   4.695   4.742   4.936   4.985   5.024
  5.029   5.114   5.141   5.266   5.342   5.356   5.489   5.497
  5.602   5.610   5.640   5.896   5.954   5.955   6.223   6.449
  6.663   6.965   7.326  15.769  16.713  16.964  17.521  21.236
 21.553  21.820  23.389  39.240  39.261  39.303  39.395  39.543
 41.528  41.582  41.745  41.800  41.928  81.340  82.033  82.197
 87.402 109.279 109.503 109.949 117.086
 --------------------------------------------------------------
 
          Ground-State Mulliken Net Atomic Charges

     Atom                 Charge (a.u.)    Spin (a.u.)
  --------------------------------------------------------
      1 C                    -0.466828      -0.609371
      2 N                    -0.454887       1.359652
      3 H                     0.460857       0.124859
      4 H                     0.460857       0.124859
  --------------------------------------------------------
  Sum of atomic charges =    -0.000000
  Sum of spin   charges =     1.000000

 -----------------------------------------------------------------
                    Cartesian Multipole Moments
 -----------------------------------------------------------------
    Charge (ESU x 10^10)
                -0.0000
    Dipole Moment (Debye)
         X       0.0000      Y      -0.0000      Z      -2.4788
       Tot       2.4788
    Quadrupole Moments (Debye-Ang)
        XX     -12.8777     XY       0.0000     YY     -11.0116
        XZ       0.0000     YZ       0.0000     ZZ     -13.0117
    Octopole Moments (Debye-Ang^2)
       XXX       0.0000    XXY      -0.0000    XYY      -0.0000
       YYY      -0.0000    XXZ      -0.1935    XYZ      -0.0000
       YYZ      -1.5838    XZZ       0.0000    YZZ      -0.0000
       ZZZ      -3.9811
    Hexadecapole Moments (Debye-Ang^3)
      XXXX     -13.5142   XXXY       0.0000   XXYY      -5.5587
      XYYY       0.0000   YYYY     -17.2764   XXXZ       0.0000
      XXYZ       0.0000   XYYZ       0.0000   YYYZ       0.0000
      XXZZ     -10.4820   XYZZ       0.0000   YYZZ      -9.7915
      XZZZ       0.0000   YZZZ       0.0000   ZZZZ     -50.4253
 -----------------------------------------------------------------
Archival summary:
1\1\n0088.mhg0\SP\ProcedureUnspecified\BasisUnspecified\112(2)\yhljason\TueAug400:47:192020TueAug400:47:192020\0\\#,ProcedureUnspecified,BasisUnspecified,\\0,2\C\H,1,1.0926\H,1,1.0926,2,117.526\N,1,1.2132,2,121.237,3,-180,0\\HF=-93.4656088\\@

 Total job time:  411.66s(wall), 2474.90s(cpu) 
 Tue Aug  4 00:47:19 2020

        *************************************************************
        *                                                           *
        *  Thank you very much for using Q-Chem.  Have a nice day.  *
        *                                                           *
        *************************************************************


