Q-Chem Developer Version!
                  Welcome to Q-Chem
     A Quantum Leap Into The Future Of Chemistry


 Q-Chem 5.1, Q-Chem, Inc., Pleasanton, CA (2018)

 Yihan Shao,  Zhengting Gan,  E. Epifanovsky,  A. T. B. Gilbert,  M. Wormit,  
 J. Kussmann,  A. W. Lange,  A. Behn,  Jia Deng,  Xintian Feng,  D. Ghosh,  
 M. Goldey,  P. R. Horn,  L. D. Jacobson,  I. Kaliman,  T. Kus,  A. Landau,  
 Jie Liu,  E. I. Proynov,  R. M. Richard,  R. P. Steele,  E. J. Sundstrom,  
 H. L. Woodcock III,  P. M. Zimmerman,  D. Zuev,  B. Albrecht,  E. Alguire,  
 S. A. Baeppler,  D. Barton,  Z. Benda,  Y. A. Bernard,  E. J. Berquist,  
 K. B. Bravaya,  H. Burton,  D. Casanova,  Chun-Min Chang,  Yunqing Chen,  
 A. Chien,  K. D. Closser,  M. P. Coons,  S. Coriani,  S. Dasgupta,  
 A. L. Dempwolff,  M. Diedenhofen,  Hainam Do,  R. G. Edgar,  Po-Tung Fang,  
 S. Faraji,  S. Fatehi,  Qingguo Feng,  K. D. Fenk,  J. Fosso-Tande,  
 Qinghui Ge,  A. Ghysels,  G. Gidofalvi,  J. Gomes,  J. Gonthier,  A. Gunina,  
 D. Hait,  M. W. D. Hanson-Heine,  P. H. P. Harbach,  A. W. Hauser,  
 J. E. Herr,  E. G. Hohenstein,  Z. C. Holden,  Kerwin Hui,  B. C. Huynh,  
 T.-C. Jagau,  Hyunjun Ji,  B. Kaduk,  K. Khistyaev,  Jaehoon Kim,  
 P. Klunzinger,  K. Koh,  D. Kosenkov,  L. Koulias,  T. Kowalczyk,  
 C. M. Krauter,  A. Kunitsa,  Ka Un Lao,  A. Laurent,  K. V. Lawler,  
 Joonho Lee,  D. Lefrancois,  S. Lehtola,  D. S. Levine,  Yi-Pei Li,  
 You-Sheng Lin,  Fenglai Liu,  E. Livshits,  A. Luenser,  P. Manohar,  
 E. Mansoor,  S. F. Manzer,  Shan-Ping Mao,  Yuezhi Mao,  N. Mardirossian,  
 A. V. Marenich,  T. Markovich,  L. A. Martinez-Martinez,  S. A. Maurer,  
 N. J. Mayhall,  S. C. McKenzie,  J.-M. Mewes,  A. F. Morrison,  
 J. W. Mullinax,  K. Nanda,  T. S. Nguyen-Beck,  R. Olivares-Amaya,  
 J. A. Parkhill,  T. M. Perrine,  F. Plasser,  P. Pokhilko,  S. Prager,  
 A. Prociuk,  E. Ramos,  D. R. Rehn,  F. Rob,  M. Schneider,  N. Sergueev,  
 S. M. Sharada,  S. Sharma,  D. W. Small,  T. Stauch,  T. Stein,  
 Yu-Chuan Su,  A. J. W. Thom,  A. Tkatchenko,  T. Tsuchimochi,  N. M. Tubman,  
 L. Vogt,  M. L. Vidal,  O. Vydrov,  M. A. Watson,  J. Wenzel,  
 M. de Wergifosse,  T. A. Wesolowski,  A. White,  J. Witte,  A. Yamada,  
 Jun Yang,  K. Yao,  S. Yeganeh,  S. R. Yost,  Zhi-Qiang You,  A. Zech,  
 Igor Ying Zhang,  Xing Zhang,  Yan Zhao,  Ying Zhu,  B. R. Brooks,  
 G. K. L. Chan,  C. J. Cramer,  M. S. Gordon,  W. J. Hehre,  A. Klamt,  
 M. W. Schmidt,  C. D. Sherrill,  D. G. Truhlar,  A. Aspuru-Guzik,  R. Baer,  
 A. T. Bell,  N. A. Besley,  Jeng-Da Chai,  A. E. DePrince, III,  
 R. A. DiStasio Jr.,  A. Dreuw,  B. D. Dunietz,  T. R. Furlani,  
 Chao-Ping Hsu,  Yousung Jung,  Jing Kong,  D. S. Lambrecht,  WanZhen Liang,  
 C. Ochsenfeld,  V. A. Rassolov,  L. V. Slipchenko,  J. E. Subotnik,  
 T. Van Voorhis,  J. M. Herbert,  A. I. Krylov,  P. M. W. Gill,  M. Head-Gordon

 Contributors to earlier versions of Q-Chem not listed above: 
 R. D. Adamson,  B. Austin,  J. Baker,  G. J. O. Beran,  K. Brandhorst,  
 S. T. Brown,  E. F. C. Byrd,  A. K. Chakraborty,  C.-L. Cheng,  
 Siu Hung Chien,  D. M. Chipman,  D. L. Crittenden,  H. Dachsel,  
 R. J. Doerksen,  A. D. Dutoi,  L. Fusti-Molnar,  W. A. Goddard III,  
 A. Golubeva-Zadorozhnaya,  S. R. Gwaltney,  G. Hawkins,  A. Heyden,  
 S. Hirata,  G. Kedziora,  F. J. Keil,  C. Kelley,  Jihan Kim,  R. A. King,  
 R. Z. Khaliullin,  P. P. Korambath,  W. Kurlancheek,  A. M. Lee,  M. S. Lee,  
 S. V. Levchenko,  Ching Yeh Lin,  D. Liotard,  R. C. Lochan,  I. Lotan,  
 P. E. Maslen,  N. Nair,  D. P. O'Neill,  D. Neuhauser,  E. Neuscamman,  
 C. M. Oana,  R. Olson,  B. Peters,  R. Peverati,  P. A. Pieniazek,  
 Y. M. Rhee,  J. Ritchie,  M. A. Rohrdanz,  E. Rosta,  N. J. Russ,  
 H. F. Schaefer III,  N. E. Schultz,  N. Shenvi,  A. C. Simmonett,  A. Sodt,  
 D. Stuck,  K. S. Thanthiriwatte,  V. Vanovschi,  Tao Wang,  A. Warshel,  
 C. F. Williams,  Q. Wu,  X. Xu,  W. Zhang

 Please cite Q-Chem as follows:
 Y. Shao et al., Mol. Phys. 113, 184-215 (2015)
 DOI: 10.1080/00268976.2014.952696

 Q-Chem 5.1.1 for Intel X86 EM64T Linux

 Parts of Q-Chem use Armadillo 8.300.2 (Tropical Shenanigans).
 http://arma.sourceforge.net/

 Q-Chem begins on Mon Aug  3 23:57:36 2020  

Host: n0101.mhg0
0

     Scratch files written to /local/scratch/users/yhljason/NH2_ccsdT_aug-cc-pcVQZ.inp20200803231138//
Input Ideriv = 0
Curr. Ideriv = -1
Max.  Ideriv = 0

Checking the input file for inconsistencies... 	...done.

--------------------------------------------------------------
User input:
--------------------------------------------------------------
$molecule
0 2
N1	0.0000	0.0000	0.0000
H2	0.0000	0.8036	0.6347
H3	0.0000	-0.8036	0.6347
$end

$rem
jobtype sp
method CCSD(T)
xc_grid 000099000590
basis aug-cc-pcVQZ
max_scf_cycles 200
thresh 14
scf_convergence 8
scf_algorithm gdm
symmetry false
sym_ignore true
unrestricted true
gen_scfman true
internal_stability_iter 15
internal_stability_davidson_iter 200
mem_total 128000
cc_memory 96000
cc_backend xm
mem_static 1500
n_frozen_core 0
$end


--------------------------------------------------------------
 ----------------------------------------------------------------
             Standard Nuclear Orientation (Angstroms)
    I     Atom           X                Y                Z
 ----------------------------------------------------------------
    1      N       0.0000000000     0.0000000000     0.0000000000
    2      H       0.0000000000     0.8036000000     0.6347000000
    3      H       0.0000000000    -0.8036000000     0.6347000000
 ----------------------------------------------------------------
 Nuclear Repulsion Energy =     7.5639571803 hartrees
 There are        5 alpha and        4 beta electrons
 Requested basis set is aug-cc-pCVQZ
 There are 57 shells and 201 basis functions
 Total memory of 128000MB is distributed as follows: 
   QALLOC including MEM_STATIC uses 32000MB
   MEM_STATIC is set to 1500MB
   CCMAN JOB total memory use is  96000MB
 Warning: actual memory use might exceed 128000MB

 Total QAlloc Memory Limit  32000 MB
 Mega-Array Size      1467 MB
 MEM_STATIC part      1500 MB

                       Distance Matrix (Angstroms)
             N (  1)   H (  2)
   H (  2)  1.024020
   H (  3)  1.024020  1.607200
 
 A cutoff of  1.0D-14 yielded   1653 shell pairs
 There are     20709 function pairs (     31923 Cartesian)
 
 -------------------------------------------------------
 OpenMP Integral Computing Module                       
 Release: version 1.0, May 2013, Q-Chem Inc. Pittsburgh 
 -------------------------------------------------------
 Integral Job Info:
 Integral job number is                      11
 Integral operator is                         1
 short-range coefficients                     0
 long-range coefficients              100000000
 Omega coefficients                           0
 if combine SR and LR in K                    0
 Integral screening is                        0
 Integral computing path is                   2
 max size of driver memory is           3200000
 size of driver memory is               1704330
 size of scratch memory is             18511652
 max col of scratch BK array              50625
 max len of scratch array in speh3         2114
 max len of scratch index in speh4           50
 max int batch size is                      520
 min int batch size is                       52
 fixed nKL is                                52
 max L of basis functions is                  4
 order of int derivative is                   0
 number of shells is                         57
 number of basis is                         249
 number of cartesian basis is               249
 number of contracted shell pairs          1653
 number of primitive shell pairs           3157
 maxK2 (contraction) of shell pair           81
 max number of K2 of shell pair               1
 max number of CS2 of shell pair            227
 max number of PS2 of shell pair            288
 mem total for path MDJ                  643177
 -------------------------------------------------------
 Smallest overlap matrix eigenvalue = 8.93E-05

 Scale SEOQF with 1.000000e-01/1.000000e-01/1.000000e-01

 Standard Electronic Orientation quadrupole field applied
 Guess from superposition of atomic densities
 Warning:  Energy on first SCF cycle will be non-variational
 SAD guess density has 9.000000 electrons

 -----------------------------------------------------------------------
  General SCF calculation program by
  Eric Jon Sundstrom, Paul Horn, Yuezhi Mao, Dmitri Zuev, Alec White,
  David Stuck, Shaama M.S., Shane Yost, Joonho Lee, David Small,
  Daniel Levine, Susi Lehtola, Hugh Burton, Evgeny Epifanovsky
 -----------------------------------------------------------------------
Running Object-Oriented UHF
performing a single roothaan step with Fock from read density so that orbitals are available to all algorithms
energy of the guess density (C=0) -55.357088042102
We will preform up to 15 macro iterations over saddle points until a stable solution is found
Energy prior to optimization (guess energy) = -55.574115512236
Begin Timing: Total SCF Calculation
Begin Timing: SCF Single Stationary Point Calculation
begin iterations for algorithm: GDM          
the SCF tolerance is set to 1.00e-08
    1     -55.5741155122      3.19e-02     00000  Normal BFGS step
    2     -55.5896701092      1.06e-02     00000  Normal BFGS step
    3     -55.5911883311      4.34e-03     00000  Normal BFGS step
    4     -55.5914054111      1.77e-03     00000  Normal BFGS step
    5     -55.5914536028      9.12e-04     00000  Normal BFGS step
    6     -55.5914653391      4.61e-04     00000  Normal BFGS step
    7     -55.5914678027      1.82e-04     00000  Normal BFGS step
    8     -55.5914682325      7.43e-05     00000  Normal BFGS step
    9     -55.5914682842      3.07e-05     00000  Normal BFGS step
   10     -55.5914682900      8.58e-06     00000  Normal BFGS step
   11     -55.5914682907      1.59e-06     00000  Normal BFGS step
   12     -55.5914682908      8.22e-07     00000  Normal BFGS step
   13     -55.5914682908      2.89e-07     00000  Normal BFGS step
   14     -55.5914682908      7.65e-08     00000  Normal BFGS step
   15     -55.5914682908      2.10e-08     00000  Normal BFGS step
   16     -55.5914682908      7.54e-09     00000 Convergence criterion met
Timing for Single Stationary Point: 69.00s (wall), 550.42s (cpu)
Begin Timing: Stability
===================================================
Beginning Test for Internal Stability
===================================================
generating davidson guess vectors based on koopmans excitations
    1      1.63e+00     00000 Davidson Iteration
    2      2.15e+00     00000 Davidson Iteration
    3      2.15e-01     00000 Davidson Iteration
    4      7.31e-01     00000 Davidson Iteration
    5      3.54e-01     00000 Davidson Iteration
    6      1.03e-01     00000 Davidson Iteration
    7      1.08e-01     00000 Davidson Iteration
    8      8.02e-02     00000 Davidson Iteration
    9      2.16e-02     00000 Davidson Iteration
   10      5.25e-03     00000 Davidson Iteration
   11      4.15e-03     00000 Davidson Iteration
   12      5.18e-04     00000 Davidson Iteration
   13      3.00e-04     00000 Davidson Iteration
   14      1.18e-04     00000 Davidson Iteration
   15      2.62e-05     00000 Davidson Iteration
   16      2.52e-04     00000 Davidson Iteration
   17      8.32e-04     00000 Davidson Iteration
   18      1.01e-03     00000 Davidson Iteration
   19      1.88e-04     00000 Davidson Iteration
   20      2.80e-05     00000 Davidson Converged
converged_eigenvalues
   0.1536
   0.5236
Threshold for negative eigenvalues: -1.0e-05
solution was a local minimum (stable)
===================================================
End Test for Internal Stability
===================================================
Our SCF solution is stable!
Timing for Total SCF: 233.00s (wall), 1846.81s (cpu)
 Total energy in the final basis set =      -55.5914682908
<S^2> =          0.759694612
    ==================================================
              The end of Object-Oriented SCFman       
    ==================================================


 ------------------------------------------------------------------------------

   CCMAN2: suite of methods based on coupled cluster
           and equation of motion theories.

   Components:
   * libvmm-1.3-trunk
     by Evgeny Epifanovsky, Ilya Kaliman.
   * libtensor-2.5-trunk
     by Evgeny Epifanovsky, Michael Wormit, Dmitry Zuev, Sam Manzer, 
        Ilya Kaliman.
   * libcc-2.5-trunk
     by Evgeny Epifanovsky, Arik Landau, Tomasz Kus, Kirill Khistyaev, 
        Dmitry Zuev, Prashant Manohar, Xintian Feng, Anna Krylov, 
        Matthew Goldey, Alec White, Thomas Jagau, Kaushik Nanda, 
        Anastasia Gunina, Alexander Kunitsa, Joonho Lee.

   CCMAN original authors:
   Anna I. Krylov, C. David Sherrill, Steven R. Gwaltney,
   Edward F. C. Byrd (2000)
   Sergey V. Levchenko, Lyudmila V. Slipchenko, Tao Wang,
   Ana-Maria C. Cristian (2003)
   Piotr A. Pieniazek, C. Melania Oana, Evgeny Epifanovsky (2007)
   Prashant Manohar (2009)

 ------------------------------------------------------------------------------


 Calculation will run on 8 cores using libxm for tensor contractions

 ------------------------------------------------------------------------------
Libxm Tensor Library
Copyright (c) 2014-2018 Ilya Kaliman
https://github.com/ilyak/libxm
Reference: https://dx.doi.org/10.1002/jcc.24713
 ------------------------------------------------------------------------------

 
 Alpha MOs, Unrestricted
 -- Occupied --                  
-15.595  -1.165  -0.648  -0.516  -0.508
  1 A     2 A     3 A     4 A     5 A                                          
 -- Virtual --                   
  0.026   0.043   0.101   0.102   0.135   0.143   0.181   0.190
  6 A     7 A     8 A     9 A    10 A    11 A    12 A    13 A                  
  0.204   0.230   0.238   0.290   0.349   0.371   0.380   0.386
 14 A    15 A    16 A    17 A    18 A    19 A    20 A    21 A                  
  0.399   0.436   0.447   0.553   0.573   0.595   0.632   0.636
 22 A    23 A    24 A    25 A    26 A    27 A    28 A    29 A                  
  0.646   0.673   0.708   0.738   0.749   0.765   0.774   0.821
 30 A    31 A    32 A    33 A    34 A    35 A    36 A    37 A                  
  0.842   0.849   0.963   1.004   1.047   1.059   1.141   1.142
 38 A    39 A    40 A    41 A    42 A    43 A    44 A    45 A                  
  1.177   1.189   1.257   1.281   1.346   1.464   1.477   1.490
 46 A    47 A    48 A    49 A    50 A    51 A    52 A    53 A                  
  1.512   1.558   1.614   1.619   1.625   1.664   1.686   1.797
 54 A    55 A    56 A    57 A    58 A    59 A    60 A    61 A                  
  1.814   1.843   1.883   1.923   1.925   1.949   1.958   1.984
 62 A    63 A    64 A    65 A    66 A    67 A    68 A    69 A                  
  2.029   2.106   2.126   2.173   2.260   2.413   2.666   2.671
 70 A    71 A    72 A    73 A    74 A    75 A    76 A    77 A                  
  2.694   2.719   2.855   2.929   2.951   3.008   3.037   3.057
 78 A    79 A    80 A    81 A    82 A    83 A    84 A    85 A                  
  3.081   3.093   3.099   3.173   3.216   3.218   3.260   3.278
 86 A    87 A    88 A    89 A    90 A    91 A    92 A    93 A                  
  3.323   3.330   3.350   3.479   3.584   3.874   3.928   3.974
 94 A    95 A    96 A    97 A    98 A    99 A   100 A   101 A                  
  3.982   3.993   4.134   4.145   4.217   4.298   4.425   4.592
102 A   103 A   104 A   105 A   106 A   107 A   108 A   109 A                  
  4.916   4.923   4.965   5.062   5.276   5.281   6.734   6.761
110 A   111 A   112 A   113 A   114 A   115 A   116 A   117 A                  
  6.763   6.784   7.127   7.283   7.307   7.354   7.370   7.488
118 A   119 A   120 A   121 A   122 A   123 A   124 A   125 A                  
  7.600   7.647   7.658   7.864   7.873   8.204   8.212   8.225
126 A   127 A   128 A   129 A   130 A   131 A   132 A   133 A                  
  8.230   8.310   8.347   8.458   8.465   8.470   8.502   8.785
134 A   135 A   136 A   137 A   138 A   139 A   140 A   141 A                  
  8.866   8.902   8.932   8.948   8.968   9.087   9.133   9.185
142 A   143 A   144 A   145 A   146 A   147 A   148 A   149 A                  
  9.272   9.434   9.482   9.519   9.680   9.688   9.806   9.850
150 A   151 A   152 A   153 A   154 A   155 A   156 A   157 A                  
 10.244  10.292  10.366  10.428  10.658  10.820  11.500  11.897
158 A   159 A   160 A   161 A   162 A   163 A   164 A   165 A                  
 12.126  12.139  12.238  12.682  13.709  14.651  15.864  26.675
166 A   167 A   168 A   169 A   170 A   171 A   172 A   173 A                  
 27.744  28.724  37.534  37.682  37.710  38.184  38.519  49.936
174 A   175 A   176 A   177 A   178 A   179 A   180 A   181 A                  
 92.023  92.808  93.548 112.227 112.233 112.236 112.254 112.257
182 A   183 A   184 A   185 A   186 A   187 A   188 A   189 A                  
112.312 112.329 157.203 157.276 157.302 157.546 157.729 166.591
190 A   191 A   192 A   193 A   194 A   195 A   196 A   197 A                  
309.624 310.254 310.861 687.577
198 A   199 A   200 A   201 A                                                  
 
 Beta MOs, Unrestricted
 -- Occupied --                  
-15.564  -1.044  -0.624  -0.464
  1 A     2 A     3 A     4 A                                                  
 -- Virtual --                   
  0.027   0.043   0.062   0.103   0.139   0.143   0.152   0.182
  5 A     6 A     7 A     8 A     9 A    10 A    11 A    12 A                  
  0.190   0.205   0.242   0.260   0.289   0.359   0.382   0.384
 13 A    14 A    15 A    16 A    17 A    18 A    19 A    20 A                  
  0.387   0.417   0.444   0.447   0.556   0.597   0.602   0.634
 21 A    22 A    23 A    24 A    25 A    26 A    27 A    28 A                  
  0.645   0.676   0.680   0.708   0.751   0.770   0.777   0.777
 29 A    30 A    31 A    32 A    33 A    34 A    35 A    36 A                  
  0.824   0.844   0.854   0.976   1.033   1.069   1.096   1.149
 37 A    38 A    39 A    40 A    41 A    42 A    43 A    44 A                  
  1.152   1.183   1.194   1.259   1.292   1.347   1.465   1.503
 45 A    46 A    47 A    48 A    49 A    50 A    51 A    52 A                  
  1.515   1.530   1.573   1.623   1.626   1.628   1.670   1.690
 53 A    54 A    55 A    56 A    57 A    58 A    59 A    60 A                  
  1.800   1.818   1.844   1.883   1.926   1.933   1.952   1.974
 61 A    62 A    63 A    64 A    65 A    66 A    67 A    68 A                  
  1.988   2.037   2.109   2.130   2.173   2.270   2.485   2.679
 69 A    70 A    71 A    72 A    73 A    74 A    75 A    76 A                  
  2.680   2.713   2.743   2.871   2.932   2.952   3.009   3.040
 77 A    78 A    79 A    80 A    81 A    82 A    83 A    84 A                  
  3.065   3.090   3.105   3.135   3.207   3.242   3.244   3.284
 85 A    86 A    87 A    88 A    89 A    90 A    91 A    92 A                  
  3.301   3.341   3.353   3.376   3.494   3.585   3.887   3.938
 93 A    94 A    95 A    96 A    97 A    98 A    99 A   100 A                  
  3.986   4.002   4.011   4.147   4.156   4.234   4.305   4.438
101 A   102 A   103 A   104 A   105 A   106 A   107 A   108 A                  
  4.601   4.936   4.948   4.974   5.092   5.287   5.297   6.736
109 A   110 A   111 A   112 A   113 A   114 A   115 A   116 A                  
  6.763   6.765   6.785   7.134   7.291   7.328   7.364   7.372
117 A   118 A   119 A   120 A   121 A   122 A   123 A   124 A                  
  7.498   7.606   7.648   7.673   7.879   7.922   8.217   8.227
125 A   126 A   127 A   128 A   129 A   130 A   131 A   132 A                  
  8.233   8.242   8.323   8.366   8.465   8.480   8.481   8.507
133 A   134 A   135 A   136 A   137 A   138 A   139 A   140 A                  
  8.803   8.884   8.907   8.955   8.963   8.984   9.088   9.153
141 A   142 A   143 A   144 A   145 A   146 A   147 A   148 A                  
  9.214   9.281   9.443   9.496   9.541   9.699   9.706   9.828
149 A   150 A   151 A   152 A   153 A   154 A   155 A   156 A                  
  9.852  10.254  10.302  10.405  10.466  10.665  10.840  11.506
157 A   158 A   159 A   160 A   161 A   162 A   163 A   164 A                  
 11.921  12.146  12.151  12.243  12.691  13.734  14.656  15.882
165 A   166 A   167 A   168 A   169 A   170 A   171 A   172 A                  
 26.711  27.754  28.734  37.557  37.699  37.733  38.199  38.525
173 A   174 A   175 A   176 A   177 A   178 A   179 A   180 A                  
 49.948  92.036  92.812  93.552 112.236 112.242 112.247 112.263
181 A   182 A   183 A   184 A   185 A   186 A   187 A   188 A                  
112.264 112.316 112.332 157.209 157.280 157.307 157.550 157.731
189 A   190 A   191 A   192 A   193 A   194 A   195 A   196 A                  
166.595 309.628 310.256 310.862 687.579
197 A   198 A   199 A   200 A   201 A                                          

 Occupation and symmetry of molecular orbitals

 Point group: C1 (1 irreducible representation).

                           A     All 
 -------------------------------------
 All molecular orbitals:
  - Alpha                  201   201 
  - Beta                   201   201 
 -------------------------------------
 Alpha orbitals:
  - Frozen occupied        0     0   
  - Active occupied        5     5   
  - Active virtual         196   196 
  - Frozen virtual         0     0   
 -------------------------------------
 Beta orbitals:
  - Frozen occupied        0     0   
  - Active occupied        4     4   
  - Active virtual         197   197 
  - Frozen virtual         0     0   
 -------------------------------------

 Import integrals:   CPU 0.00 s  wall 0.00 s

 Import integrals:   CPU 831.24 s  wall 225.87 s

 MP2 amplitudes:   CPU 2.33 s  wall 1.65 s

Running a double precision version
           CCSD T amplitudes will be solved using DIIS.

           Start     Size      MaxIter   EConv     TConv     
           3         7         100       1.00e-06  1.00e-04  
 ------------------------------------------------------------------------------
           Energy (a.u.)   Ediff      Tdiff       Comment
 ------------------------------------------------------------------------------
           -55.84733276                           
     1     -55.85729555   9.96e-03   3.98e-01     
     2     -55.86166880   4.37e-03   4.02e-02     
     3     -55.86249195   8.23e-04   1.36e-02     
     4     -55.86313147   6.40e-04   7.30e-03     Switched to DIIS steps.
     5     -55.86323113   9.97e-05   2.36e-03     
     6     -55.86324266   1.15e-05   1.24e-03     
     7     -55.86324541   2.75e-06   3.59e-04     
     8     -55.86324591   5.01e-07   1.58e-04     
     9     -55.86324575   1.65e-07   4.28e-05     
 ------------------------------------------------------------------------------
           -55.86324575                           CCSD T converged.

End of double precision

----------------------------------------
libpt (c) 2016-2018 Ilya Kaliman
Fast Coupled Cluster Triples Corrections
https://github.com/ilyak/libpt
----------------------------------------

 Starting (T) calculation...
 Using double precision libpt code
 (T) calculation completed in 26 sec
 (T) energy is -0.0071784870

 SCF energy                 = -55.59146829
 MP2 energy                 = -55.84733276
 CCSD correlation energy     =  -0.27177746
 CCSD total energy           = -55.86324575
 CCSD(T) correlation energy =  -0.00717849
 CCSD(T) total energy       = -55.87042423

 CCSD  T1^2 = 0.0015  T2^2 = 0.0663  Leading amplitudes:

 Amplitude    Orbitals with energies
 -0.0121       4 (A) A                   ->    15 (A) A                   
              -0.5161                          0.2300                     
  0.0118       4 (A) A                   ->    8 (A) A                    
              -0.5161                          0.1008                     
 -0.0072       2 (A) B                   ->    36 (A) B                   
              -1.0442                          0.7772                     
 -0.0071       4 (A) A                   ->    26 (A) A                   
              -0.5161                          0.5734                     

 Amplitude    Orbitals with energies
  0.0158       3 (A) A       3 (A) B     ->    20 (A) A      20 (A) B     
              -0.6478       -0.6238            0.3798        0.3837       
 -0.0158       3 (A) A       3 (A) B     ->    20 (A) B      20 (A) A     
              -0.6478       -0.6238            0.3837        0.3798       
 -0.0158       3 (A) B       3 (A) A     ->    20 (A) A      20 (A) B     
              -0.6238       -0.6478            0.3798        0.3837       
  0.0158       3 (A) B       3 (A) A     ->    20 (A) B      20 (A) A     
              -0.6238       -0.6478            0.3837        0.3798       

 CCSD calculation:   CPU 1079.32 s  wall 219.82 s

 Total ccman2 time:   CPU 1947.98 s  wall 494.61 s

 
 --------------------------------------------------------------
 
                    Orbital Energies (a.u.)
 --------------------------------------------------------------
 
 Alpha MOs
 -- Occupied --
-15.595  -1.165  -0.648  -0.516  -0.508
 -- Virtual --
  0.026   0.043   0.101   0.102   0.135   0.143   0.181   0.190
  0.204   0.230   0.238   0.290   0.349   0.371   0.380   0.386
  0.399   0.436   0.447   0.553   0.573   0.595   0.632   0.636
  0.646   0.673   0.708   0.738   0.749   0.765   0.774   0.821
  0.842   0.849   0.963   1.004   1.047   1.059   1.141   1.142
  1.177   1.189   1.257   1.281   1.346   1.464   1.477   1.490
  1.512   1.558   1.614   1.619   1.625   1.664   1.686   1.797
  1.814   1.843   1.883   1.923   1.925   1.949   1.958   1.984
  2.029   2.106   2.126   2.173   2.260   2.413   2.666   2.671
  2.694   2.719   2.855   2.929   2.951   3.008   3.037   3.057
  3.081   3.093   3.099   3.173   3.216   3.218   3.260   3.278
  3.323   3.330   3.350   3.479   3.584   3.874   3.928   3.974
  3.982   3.993   4.134   4.145   4.217   4.298   4.425   4.592
  4.916   4.923   4.965   5.062   5.276   5.281   6.734   6.761
  6.763   6.784   7.127   7.283   7.307   7.354   7.370   7.488
  7.600   7.647   7.658   7.864   7.873   8.204   8.212   8.225
  8.230   8.310   8.347   8.458   8.465   8.470   8.502   8.785
  8.866   8.902   8.932   8.948   8.968   9.087   9.133   9.185
  9.272   9.434   9.482   9.519   9.680   9.688   9.806   9.850
 10.244  10.292  10.366  10.428  10.658  10.820  11.500  11.897
 12.126  12.139  12.238  12.682  13.709  14.651  15.864  26.675
 27.744  28.724  37.534  37.682  37.710  38.184  38.519  49.936
 92.023  92.808  93.548 112.227 112.233 112.236 112.254 112.257
112.312 112.329 157.203 157.276 157.302 157.546 157.729 166.591
309.624 310.254 310.861 687.577
 
 Beta MOs
 -- Occupied --
-15.564  -1.044  -0.624  -0.464
 -- Virtual --
  0.027   0.043   0.062   0.103   0.139   0.143   0.152   0.182
  0.190   0.205   0.242   0.260   0.289   0.359   0.382   0.384
  0.387   0.417   0.444   0.447   0.556   0.597   0.602   0.634
  0.645   0.676   0.680   0.708   0.751   0.770   0.777   0.777
  0.824   0.844   0.854   0.976   1.033   1.069   1.096   1.149
  1.152   1.183   1.194   1.259   1.292   1.347   1.465   1.503
  1.515   1.530   1.573   1.623   1.626   1.628   1.670   1.690
  1.800   1.818   1.844   1.883   1.926   1.933   1.952   1.974
  1.988   2.037   2.109   2.130   2.173   2.270   2.485   2.679
  2.680   2.713   2.743   2.871   2.932   2.952   3.009   3.040
  3.065   3.090   3.105   3.135   3.207   3.242   3.244   3.284
  3.301   3.341   3.353   3.376   3.494   3.585   3.887   3.938
  3.986   4.002   4.011   4.147   4.156   4.234   4.305   4.438
  4.601   4.936   4.948   4.974   5.092   5.287   5.297   6.736
  6.763   6.765   6.785   7.134   7.291   7.328   7.364   7.372
  7.498   7.606   7.648   7.673   7.879   7.922   8.217   8.227
  8.233   8.242   8.323   8.366   8.465   8.480   8.481   8.507
  8.803   8.884   8.907   8.955   8.963   8.984   9.088   9.153
  9.214   9.281   9.443   9.496   9.541   9.699   9.706   9.828
  9.852  10.254  10.302  10.405  10.466  10.665  10.840  11.506
 11.921  12.146  12.151  12.243  12.691  13.734  14.656  15.882
 26.711  27.754  28.734  37.557  37.699  37.733  38.199  38.525
 49.948  92.036  92.812  93.552 112.236 112.242 112.247 112.263
112.264 112.316 112.332 157.209 157.280 157.307 157.550 157.731
166.595 309.628 310.256 310.862 687.579
 --------------------------------------------------------------
 
          Ground-State Mulliken Net Atomic Charges

     Atom                 Charge (a.u.)    Spin (a.u.)
  --------------------------------------------------------
      1 N                    -0.521872       1.067568
      2 H                     0.260936      -0.033784
      3 H                     0.260936      -0.033784
  --------------------------------------------------------
  Sum of atomic charges =    -0.000000
  Sum of spin   charges =     1.000000

 -----------------------------------------------------------------
                    Cartesian Multipole Moments
 -----------------------------------------------------------------
    Charge (ESU x 10^10)
                -0.0000
    Dipole Moment (Debye)
         X      -0.0000      Y      -0.0000      Z       1.8831
       Tot       1.8831
    Quadrupole Moments (Debye-Ang)
        XX      -7.1271     XY      -0.0000     YY      -5.4632
        XZ       0.0000     YZ      -0.0000     ZZ      -7.0945
    Octopole Moments (Debye-Ang^2)
       XXX      -0.0000    XXY       0.0000    XYY      -0.0000
       YYY      -0.0000    XXZ      -0.5881    XYZ      -0.0000
       YYZ       0.6349    XZZ       0.0000    YZZ       0.0000
       ZZZ      -1.3158
    Hexadecapole Moments (Debye-Ang^3)
      XXXX      -6.5705   XXXY      -0.0000   XXYY      -2.9240
      XYYY      -0.0000   YYYY      -9.2022   XXXZ       0.0000
      XXYZ       0.0000   XYYZ       0.0000   YYYZ      -0.0000
      XXZZ      -3.0017   XYZZ      -0.0000   YYZZ      -2.7578
      XZZZ       0.0000   YZZZ       0.0000   ZZZZ     -11.0351
 -----------------------------------------------------------------
Archival summary:
1\1\n0101.mhg0\SP\ProcedureUnspecified\BasisUnspecified\12(2)\yhljason\TueAug400:09:552020TueAug400:09:552020\0\\#,ProcedureUnspecified,BasisUnspecified,\\0,2\N\H,1,1.02402\H,1,1.02402,2,103.395\\HF=-55.5914683\\@

 Total job time:  739.09s(wall), 3844.40s(cpu) 
 Tue Aug  4 00:09:55 2020

        *************************************************************
        *                                                           *
        *  Thank you very much for using Q-Chem.  Have a nice day.  *
        *                                                           *
        *************************************************************


 
User input: 2 of 7 
 
Q-Chem Developer Version!
                  Welcome to Q-Chem
     A Quantum Leap Into The Future Of Chemistry


 Q-Chem 5.1, Q-Chem, Inc., Pleasanton, CA (2018)

 Yihan Shao,  Zhengting Gan,  E. Epifanovsky,  A. T. B. Gilbert,  M. Wormit,  
 J. Kussmann,  A. W. Lange,  A. Behn,  Jia Deng,  Xintian Feng,  D. Ghosh,  
 M. Goldey,  P. R. Horn,  L. D. Jacobson,  I. Kaliman,  T. Kus,  A. Landau,  
 Jie Liu,  E. I. Proynov,  R. M. Richard,  R. P. Steele,  E. J. Sundstrom,  
 H. L. Woodcock III,  P. M. Zimmerman,  D. Zuev,  B. Albrecht,  E. Alguire,  
 S. A. Baeppler,  D. Barton,  Z. Benda,  Y. A. Bernard,  E. J. Berquist,  
 K. B. Bravaya,  H. Burton,  D. Casanova,  Chun-Min Chang,  Yunqing Chen,  
 A. Chien,  K. D. Closser,  M. P. Coons,  S. Coriani,  S. Dasgupta,  
 A. L. Dempwolff,  M. Diedenhofen,  Hainam Do,  R. G. Edgar,  Po-Tung Fang,  
 S. Faraji,  S. Fatehi,  Qingguo Feng,  K. D. Fenk,  J. Fosso-Tande,  
 Qinghui Ge,  A. Ghysels,  G. Gidofalvi,  J. Gomes,  J. Gonthier,  A. Gunina,  
 D. Hait,  M. W. D. Hanson-Heine,  P. H. P. Harbach,  A. W. Hauser,  
 J. E. Herr,  E. G. Hohenstein,  Z. C. Holden,  Kerwin Hui,  B. C. Huynh,  
 T.-C. Jagau,  Hyunjun Ji,  B. Kaduk,  K. Khistyaev,  Jaehoon Kim,  
 P. Klunzinger,  K. Koh,  D. Kosenkov,  L. Koulias,  T. Kowalczyk,  
 C. M. Krauter,  A. Kunitsa,  Ka Un Lao,  A. Laurent,  K. V. Lawler,  
 Joonho Lee,  D. Lefrancois,  S. Lehtola,  D. S. Levine,  Yi-Pei Li,  
 You-Sheng Lin,  Fenglai Liu,  E. Livshits,  A. Luenser,  P. Manohar,  
 E. Mansoor,  S. F. Manzer,  Shan-Ping Mao,  Yuezhi Mao,  N. Mardirossian,  
 A. V. Marenich,  T. Markovich,  L. A. Martinez-Martinez,  S. A. Maurer,  
 N. J. Mayhall,  S. C. McKenzie,  J.-M. Mewes,  A. F. Morrison,  
 J. W. Mullinax,  K. Nanda,  T. S. Nguyen-Beck,  R. Olivares-Amaya,  
 J. A. Parkhill,  T. M. Perrine,  F. Plasser,  P. Pokhilko,  S. Prager,  
 A. Prociuk,  E. Ramos,  D. R. Rehn,  F. Rob,  M. Schneider,  N. Sergueev,  
 S. M. Sharada,  S. Sharma,  D. W. Small,  T. Stauch,  T. Stein,  
 Yu-Chuan Su,  A. J. W. Thom,  A. Tkatchenko,  T. Tsuchimochi,  N. M. Tubman,  
 L. Vogt,  M. L. Vidal,  O. Vydrov,  M. A. Watson,  J. Wenzel,  
 M. de Wergifosse,  T. A. Wesolowski,  A. White,  J. Witte,  A. Yamada,  
 Jun Yang,  K. Yao,  S. Yeganeh,  S. R. Yost,  Zhi-Qiang You,  A. Zech,  
 Igor Ying Zhang,  Xing Zhang,  Yan Zhao,  Ying Zhu,  B. R. Brooks,  
 G. K. L. Chan,  C. J. Cramer,  M. S. Gordon,  W. J. Hehre,  A. Klamt,  
 M. W. Schmidt,  C. D. Sherrill,  D. G. Truhlar,  A. Aspuru-Guzik,  R. Baer,  
 A. T. Bell,  N. A. Besley,  Jeng-Da Chai,  A. E. DePrince, III,  
 R. A. DiStasio Jr.,  A. Dreuw,  B. D. Dunietz,  T. R. Furlani,  
 Chao-Ping Hsu,  Yousung Jung,  Jing Kong,  D. S. Lambrecht,  WanZhen Liang,  
 C. Ochsenfeld,  V. A. Rassolov,  L. V. Slipchenko,  J. E. Subotnik,  
 T. Van Voorhis,  J. M. Herbert,  A. I. Krylov,  P. M. W. Gill,  M. Head-Gordon

 Contributors to earlier versions of Q-Chem not listed above: 
 R. D. Adamson,  B. Austin,  J. Baker,  G. J. O. Beran,  K. Brandhorst,  
 S. T. Brown,  E. F. C. Byrd,  A. K. Chakraborty,  C.-L. Cheng,  
 Siu Hung Chien,  D. M. Chipman,  D. L. Crittenden,  H. Dachsel,  
 R. J. Doerksen,  A. D. Dutoi,  L. Fusti-Molnar,  W. A. Goddard III,  
 A. Golubeva-Zadorozhnaya,  S. R. Gwaltney,  G. Hawkins,  A. Heyden,  
 S. Hirata,  G. Kedziora,  F. J. Keil,  C. Kelley,  Jihan Kim,  R. A. King,  
 R. Z. Khaliullin,  P. P. Korambath,  W. Kurlancheek,  A. M. Lee,  M. S. Lee,  
 S. V. Levchenko,  Ching Yeh Lin,  D. Liotard,  R. C. Lochan,  I. Lotan,  
 P. E. Maslen,  N. Nair,  D. P. O'Neill,  D. Neuhauser,  E. Neuscamman,  
 C. M. Oana,  R. Olson,  B. Peters,  R. Peverati,  P. A. Pieniazek,  
 Y. M. Rhee,  J. Ritchie,  M. A. Rohrdanz,  E. Rosta,  N. J. Russ,  
 H. F. Schaefer III,  N. E. Schultz,  N. Shenvi,  A. C. Simmonett,  A. Sodt,  
 D. Stuck,  K. S. Thanthiriwatte,  V. Vanovschi,  Tao Wang,  A. Warshel,  
 C. F. Williams,  Q. Wu,  X. Xu,  W. Zhang

 Please cite Q-Chem as follows:
 Y. Shao et al., Mol. Phys. 113, 184-215 (2015)
 DOI: 10.1080/00268976.2014.952696

 Q-Chem 5.1.1 for Intel X86 EM64T Linux

 Parts of Q-Chem use Armadillo 8.300.2 (Tropical Shenanigans).
 http://arma.sourceforge.net/

 Q-Chem begins on Tue Aug  4 00:09:55 2020  

Host: n0101.mhg0
0

     Scratch files written to /local/scratch/users/yhljason/NH2_ccsdT_aug-cc-pcVQZ.inp20200803231138//
The previous job contains 0 fragments, simply inherited here
Input Ideriv = 0
Curr. Ideriv = -1
Max.  Ideriv = 0

Checking the input file for inconsistencies... 	...done.

--------------------------------------------------------------
User input:
--------------------------------------------------------------
$molecule
read
$end

$rem

jobtype sp
method CCSD(T)
xc_grid 000099000590
basis aug-cc-pcVQZ
max_scf_cycles 200
thresh 14
scf_convergence 8
mem_total 128000
cc_memory 96000
cc_backend xm
mem_static 1500
symmetry false
sym_ignore true
scf_guess read
unrestricted true
scf_algorithm gdm
n_frozen_core 0
$end

$multipole_field
XX 0.0001
$end


--------------------------------------------------------------
 ----------------------------------------------------------------
             Standard Nuclear Orientation (Angstroms)
    I     Atom           X                Y                Z
 ----------------------------------------------------------------
    1      N       0.0000000000     0.0000000000     0.0000000000
    2      H       0.0000000000     0.8036000000     0.6347000000
    3      H       0.0000000000    -0.8036000000     0.6347000000
 ----------------------------------------------------------------
 Nuclear Repulsion Energy =     7.5639571803 hartrees
 There are        5 alpha and        4 beta electrons
 Requested basis set is aug-cc-pCVQZ
 There are 57 shells and 201 basis functions
 Total memory of 128000MB is distributed as follows: 
   QALLOC including MEM_STATIC uses 32000MB
   MEM_STATIC is set to 1500MB
   CCMAN JOB total memory use is  96000MB
 Warning: actual memory use might exceed 128000MB

 Total QAlloc Memory Limit  32000 MB
 Mega-Array Size      1467 MB
 MEM_STATIC part      1500 MB

                       Distance Matrix (Angstroms)
             N (  1)   H (  2)
   H (  2)  1.024020
   H (  3)  1.024020  1.607200
 
 Applying Cartesian multipole field
    Component          Value
    ---------          -----
     (2,0,0)        1.00000E-04
 A cutoff of  1.0D-14 yielded   1653 shell pairs
 There are     20709 function pairs (     31923 Cartesian)
 
 -------------------------------------------------------
 OpenMP Integral Computing Module                       
 Release: version 1.0, May 2013, Q-Chem Inc. Pittsburgh 
 -------------------------------------------------------
 Integral Job Info:
 Integral job number is                      11
 Integral operator is                         1
 short-range coefficients                     0
 long-range coefficients              100000000
 Omega coefficients                           0
 if combine SR and LR in K                    0
 Integral screening is                        0
 Integral computing path is                   2
 max size of driver memory is           3200000
 size of driver memory is               1704330
 size of scratch memory is             18511652
 max col of scratch BK array              50625
 max len of scratch array in speh3         2114
 max len of scratch index in speh4           50
 max int batch size is                      520
 min int batch size is                       52
 fixed nKL is                                52
 max L of basis functions is                  4
 order of int derivative is                   0
 number of shells is                         57
 number of basis is                         249
 number of cartesian basis is               249
 number of contracted shell pairs          1653
 number of primitive shell pairs           3157
 maxK2 (contraction) of shell pair           81
 max number of K2 of shell pair               1
 max number of CS2 of shell pair            227
 max number of PS2 of shell pair            288
 mem total for path MDJ                  643177
 -------------------------------------------------------
 Smallest overlap matrix eigenvalue = 8.93E-05
 Guess MOs from SCF MO coefficient file

 -----------------------------------------------------------------------
  General SCF calculation program by
  Eric Jon Sundstrom, Paul Horn, Yuezhi Mao, Dmitri Zuev, Alec White,
  David Stuck, Shaama M.S., Shane Yost, Joonho Lee, David Small,
  Daniel Levine, Susi Lehtola, Hugh Burton, Evgeny Epifanovsky
 -----------------------------------------------------------------------
 Hartree-Fock
 using 8 threads for integral computing
 -------------------------------------------------------
 OpenMP Integral computing Module                
 Release: version 2.0, May 2017, Q-Chem Inc. Pleasanton 
 -------------------------------------------------------
 A unrestricted SCF calculation will be
 performed using GDM
 SCF converges when RMS gradient is below 1.0e-08
 ---------------------------------------
  Cycle       Energy        RMS Gradient
 ---------------------------------------
    1     -55.5919981739      2.41e-04   Normal BFGS step
    2     -55.5919983047      6.31e-05   Normal BFGS step
    3     -55.5919983211      1.78e-05   Normal BFGS step
    4     -55.5919983226      6.32e-06   Normal BFGS step
    5     -55.5919983229      1.22e-06   Normal BFGS step
    6     -55.5919983230      8.40e-07   Normal BFGS step
    7     -55.5919983230      3.07e-07   Normal BFGS step
    8     -55.5919983230      1.57e-07   Normal BFGS step
    9     -55.5919983230      5.05e-08   Normal BFGS step
   10     -55.5919983230      1.82e-08   Normal BFGS step
   11     -55.5919983230      6.84e-09  Convergence criterion met
 ---------------------------------------
 SCF time:   CPU 416.27s  wall 53.00s 
<S^2> =          0.759689266
 SCF   energy in the final basis set =      -55.5919983230
 Total energy in the final basis set =      -55.5919983230


 ------------------------------------------------------------------------------

   CCMAN2: suite of methods based on coupled cluster
           and equation of motion theories.

   Components:
   * libvmm-1.3-trunk
     by Evgeny Epifanovsky, Ilya Kaliman.
   * libtensor-2.5-trunk
     by Evgeny Epifanovsky, Michael Wormit, Dmitry Zuev, Sam Manzer, 
        Ilya Kaliman.
   * libcc-2.5-trunk
     by Evgeny Epifanovsky, Arik Landau, Tomasz Kus, Kirill Khistyaev, 
        Dmitry Zuev, Prashant Manohar, Xintian Feng, Anna Krylov, 
        Matthew Goldey, Alec White, Thomas Jagau, Kaushik Nanda, 
        Anastasia Gunina, Alexander Kunitsa, Joonho Lee.

   CCMAN original authors:
   Anna I. Krylov, C. David Sherrill, Steven R. Gwaltney,
   Edward F. C. Byrd (2000)
   Sergey V. Levchenko, Lyudmila V. Slipchenko, Tao Wang,
   Ana-Maria C. Cristian (2003)
   Piotr A. Pieniazek, C. Melania Oana, Evgeny Epifanovsky (2007)
   Prashant Manohar (2009)

 ------------------------------------------------------------------------------


 Calculation will run on 8 cores using libxm for tensor contractions

 ------------------------------------------------------------------------------
Libxm Tensor Library
Copyright (c) 2014-2018 Ilya Kaliman
https://github.com/ilyak/libxm
Reference: https://dx.doi.org/10.1002/jcc.24713
 ------------------------------------------------------------------------------

 
 Alpha MOs, Unrestricted
 -- Occupied --                  
-15.595  -1.166  -0.648  -0.516  -0.508
  1 A     2 A     3 A     4 A     5 A                                          
 -- Virtual --                   
  0.024   0.041   0.098   0.101   0.133   0.142   0.180   0.189
  6 A     7 A     8 A     9 A    10 A    11 A    12 A    13 A                  
  0.202   0.228   0.237   0.289   0.349   0.370   0.379   0.386
 14 A    15 A    16 A    17 A    18 A    19 A    20 A    21 A                  
  0.397   0.435   0.446   0.553   0.573   0.594   0.631   0.635
 22 A    23 A    24 A    25 A    26 A    27 A    28 A    29 A                  
  0.645   0.673   0.707   0.738   0.749   0.765   0.773   0.821
 30 A    31 A    32 A    33 A    34 A    35 A    36 A    37 A                  
  0.842   0.849   0.963   1.003   1.046   1.058   1.141   1.141
 38 A    39 A    40 A    41 A    42 A    43 A    44 A    45 A                  
  1.177   1.188   1.257   1.281   1.346   1.464   1.476   1.490
 46 A    47 A    48 A    49 A    50 A    51 A    52 A    53 A                  
  1.512   1.557   1.614   1.619   1.625   1.664   1.686   1.796
 54 A    55 A    56 A    57 A    58 A    59 A    60 A    61 A                  
  1.814   1.843   1.883   1.923   1.924   1.949   1.957   1.983
 62 A    63 A    64 A    65 A    66 A    67 A    68 A    69 A                  
  2.028   2.106   2.126   2.173   2.260   2.413   2.666   2.670
 70 A    71 A    72 A    73 A    74 A    75 A    76 A    77 A                  
  2.694   2.719   2.855   2.929   2.951   3.008   3.037   3.057
 78 A    79 A    80 A    81 A    82 A    83 A    84 A    85 A                  
  3.080   3.093   3.099   3.173   3.216   3.218   3.260   3.278
 86 A    87 A    88 A    89 A    90 A    91 A    92 A    93 A                  
  3.323   3.329   3.350   3.479   3.583   3.874   3.927   3.974
 94 A    95 A    96 A    97 A    98 A    99 A   100 A   101 A                  
  3.982   3.992   4.134   4.145   4.217   4.297   4.425   4.592
102 A   103 A   104 A   105 A   106 A   107 A   108 A   109 A                  
  4.916   4.923   4.965   5.062   5.276   5.281   6.734   6.761
110 A   111 A   112 A   113 A   114 A   115 A   116 A   117 A                  
  6.763   6.784   7.127   7.283   7.306   7.354   7.370   7.488
118 A   119 A   120 A   121 A   122 A   123 A   124 A   125 A                  
  7.600   7.647   7.658   7.864   7.873   8.203   8.212   8.225
126 A   127 A   128 A   129 A   130 A   131 A   132 A   133 A                  
  8.230   8.310   8.347   8.458   8.465   8.470   8.502   8.785
134 A   135 A   136 A   137 A   138 A   139 A   140 A   141 A                  
  8.866   8.902   8.931   8.948   8.967   9.087   9.133   9.185
142 A   143 A   144 A   145 A   146 A   147 A   148 A   149 A                  
  9.272   9.434   9.482   9.519   9.680   9.688   9.806   9.850
150 A   151 A   152 A   153 A   154 A   155 A   156 A   157 A                  
 10.244  10.291  10.366  10.428  10.658  10.820  11.500  11.896
158 A   159 A   160 A   161 A   162 A   163 A   164 A   165 A                  
 12.126  12.139  12.237  12.682  13.709  14.651  15.864  26.675
166 A   167 A   168 A   169 A   170 A   171 A   172 A   173 A                  
 27.744  28.724  37.534  37.682  37.710  38.184  38.518  49.936
174 A   175 A   176 A   177 A   178 A   179 A   180 A   181 A                  
 92.023  92.807  93.548 112.227 112.232 112.236 112.253 112.257
182 A   183 A   184 A   185 A   186 A   187 A   188 A   189 A                  
112.312 112.328 157.203 157.275 157.301 157.546 157.728 166.591
190 A   191 A   192 A   193 A   194 A   195 A   196 A   197 A                  
309.624 310.254 310.860 687.577
198 A   199 A   200 A   201 A                                                  
 
 Beta MOs, Unrestricted
 -- Occupied --                  
-15.564  -1.044  -0.624  -0.464
  1 A     2 A     3 A     4 A                                                  
 -- Virtual --                   
  0.025   0.041   0.060   0.102   0.137   0.142   0.150   0.181
  5 A     6 A     7 A     8 A     9 A    10 A    11 A    12 A                  
  0.189   0.204   0.241   0.259   0.289   0.358   0.381   0.383
 13 A    14 A    15 A    16 A    17 A    18 A    19 A    20 A                  
  0.386   0.416   0.444   0.447   0.555   0.596   0.601   0.633
 21 A    22 A    23 A    24 A    25 A    26 A    27 A    28 A                  
  0.644   0.676   0.680   0.707   0.751   0.769   0.776   0.777
 29 A    30 A    31 A    32 A    33 A    34 A    35 A    36 A                  
  0.823   0.844   0.854   0.976   1.032   1.069   1.095   1.148
 37 A    38 A    39 A    40 A    41 A    42 A    43 A    44 A                  
  1.152   1.182   1.194   1.259   1.292   1.347   1.465   1.503
 45 A    46 A    47 A    48 A    49 A    50 A    51 A    52 A                  
  1.515   1.529   1.573   1.623   1.626   1.628   1.670   1.689
 53 A    54 A    55 A    56 A    57 A    58 A    59 A    60 A                  
  1.800   1.818   1.844   1.883   1.926   1.932   1.951   1.974
 61 A    62 A    63 A    64 A    65 A    66 A    67 A    68 A                  
  1.988   2.037   2.109   2.129   2.173   2.270   2.484   2.679
 69 A    70 A    71 A    72 A    73 A    74 A    75 A    76 A                  
  2.680   2.712   2.742   2.871   2.932   2.952   3.008   3.040
 77 A    78 A    79 A    80 A    81 A    82 A    83 A    84 A                  
  3.064   3.090   3.105   3.135   3.206   3.241   3.244   3.284
 85 A    86 A    87 A    88 A    89 A    90 A    91 A    92 A                  
  3.300   3.341   3.353   3.376   3.494   3.584   3.887   3.938
 93 A    94 A    95 A    96 A    97 A    98 A    99 A   100 A                  
  3.986   4.002   4.011   4.146   4.155   4.234   4.304   4.438
101 A   102 A   103 A   104 A   105 A   106 A   107 A   108 A                  
  4.601   4.936   4.948   4.973   5.092   5.287   5.297   6.736
109 A   110 A   111 A   112 A   113 A   114 A   115 A   116 A                  
  6.763   6.765   6.785   7.133   7.291   7.328   7.363   7.372
117 A   118 A   119 A   120 A   121 A   122 A   123 A   124 A                  
  7.498   7.606   7.648   7.672   7.878   7.921   8.217   8.227
125 A   126 A   127 A   128 A   129 A   130 A   131 A   132 A                  
  8.232   8.242   8.323   8.365   8.465   8.480   8.481   8.507
133 A   134 A   135 A   136 A   137 A   138 A   139 A   140 A                  
  8.802   8.884   8.906   8.954   8.963   8.984   9.088   9.153
141 A   142 A   143 A   144 A   145 A   146 A   147 A   148 A                  
  9.214   9.281   9.443   9.496   9.541   9.699   9.706   9.828
149 A   150 A   151 A   152 A   153 A   154 A   155 A   156 A                  
  9.851  10.254  10.302  10.405  10.466  10.665  10.840  11.506
157 A   158 A   159 A   160 A   161 A   162 A   163 A   164 A                  
 11.921  12.146  12.151  12.243  12.691  13.734  14.656  15.881
165 A   166 A   167 A   168 A   169 A   170 A   171 A   172 A                  
 26.711  27.754  28.734  37.557  37.699  37.733  38.199  38.525
173 A   174 A   175 A   176 A   177 A   178 A   179 A   180 A                  
 49.948  92.035  92.811  93.552 112.236 112.242 112.246 112.262
181 A   182 A   183 A   184 A   185 A   186 A   187 A   188 A                  
112.264 112.316 112.332 157.209 157.280 157.307 157.550 157.730
189 A   190 A   191 A   192 A   193 A   194 A   195 A   196 A                  
166.595 309.627 310.255 310.862 687.578
197 A   198 A   199 A   200 A   201 A                                          

 Occupation and symmetry of molecular orbitals

 Point group: C1 (1 irreducible representation).

                           A     All 
 -------------------------------------
 All molecular orbitals:
  - Alpha                  201   201 
  - Beta                   201   201 
 -------------------------------------
 Alpha orbitals:
  - Frozen occupied        0     0   
  - Active occupied        5     5   
  - Active virtual         196   196 
  - Frozen virtual         0     0   
 -------------------------------------
 Beta orbitals:
  - Frozen occupied        0     0   
  - Active occupied        4     4   
  - Active virtual         197   197 
  - Frozen virtual         0     0   
 -------------------------------------

 Import integrals:   CPU 0.00 s  wall 0.00 s

 Import integrals:   CPU 850.65 s  wall 249.64 s

 MP2 amplitudes:   CPU 2.33 s  wall 23.68 s

Running a double precision version
           CCSD T amplitudes will be solved using DIIS.

           Start     Size      MaxIter   EConv     TConv     
           3         7         100       1.00e-06  1.00e-04  
 ------------------------------------------------------------------------------
           Energy (a.u.)   Ediff      Tdiff       Comment
 ------------------------------------------------------------------------------
           -55.84787433                           
     1     -55.85783253   9.96e-03   3.98e-01     
     2     -55.86220617   4.37e-03   4.02e-02     
     3     -55.86302911   8.23e-04   1.36e-02     
     4     -55.86366852   6.39e-04   7.30e-03     Switched to DIIS steps.
     5     -55.86376831   9.98e-05   2.37e-03     
     6     -55.86377983   1.15e-05   1.24e-03     
     7     -55.86378257   2.74e-06   3.59e-04     
     8     -55.86378307   5.03e-07   1.58e-04     
     9     -55.86378291   1.65e-07   4.28e-05     
 ------------------------------------------------------------------------------
           -55.86378291                           CCSD T converged.

End of double precision

----------------------------------------
libpt (c) 2016-2018 Ilya Kaliman
Fast Coupled Cluster Triples Corrections
https://github.com/ilyak/libpt
----------------------------------------

 Starting (T) calculation...
 Using double precision libpt code
 (T) calculation completed in 28 sec
 (T) energy is -0.0071803400

 SCF energy                 = -55.59199832
 MP2 energy                 = -55.84787433
 CCSD correlation energy     =  -0.27178458
 CCSD total energy           = -55.86378291
 CCSD(T) correlation energy =  -0.00718034
 CCSD(T) total energy       = -55.87096325

 CCSD  T1^2 = 0.0015  T2^2 = 0.0663  Leading amplitudes:

 Amplitude    Orbitals with energies
 -0.0121       4 (A) A                   ->    15 (A) A                   
              -0.5163                          0.2284                     
 -0.0118       4 (A) A                   ->    8 (A) A                    
              -0.5163                          0.0981                     
  0.0072       2 (A) B                   ->    36 (A) B                   
              -1.0444                          0.7768                     
  0.0072       4 (A) A                   ->    26 (A) A                   
              -0.5163                          0.5726                     

 Amplitude    Orbitals with energies
  0.0157       3 (A) A       3 (A) B     ->    20 (A) A      21 (A) B     
              -0.6479       -0.6240            0.3793        0.3864       
 -0.0157       3 (A) A       3 (A) B     ->    21 (A) B      20 (A) A     
              -0.6479       -0.6240            0.3864        0.3793       
 -0.0157       3 (A) B       3 (A) A     ->    20 (A) A      21 (A) B     
              -0.6240       -0.6479            0.3793        0.3864       
  0.0157       3 (A) B       3 (A) A     ->    21 (A) B      20 (A) A     
              -0.6240       -0.6479            0.3864        0.3793       

 CCSD calculation:   CPU 1065.71 s  wall 224.82 s

 Total ccman2 time:   CPU 1956.81 s  wall 541.26 s

 
 --------------------------------------------------------------
 
                    Orbital Energies (a.u.)
 --------------------------------------------------------------
 
 Alpha MOs
 -- Occupied --
-15.595  -1.166  -0.648  -0.516  -0.508
 -- Virtual --
  0.024   0.041   0.098   0.101   0.133   0.142   0.180   0.189
  0.202   0.228   0.237   0.289   0.349   0.370   0.379   0.386
  0.397   0.435   0.446   0.553   0.573   0.594   0.631   0.635
  0.645   0.673   0.707   0.738   0.749   0.765   0.773   0.821
  0.842   0.849   0.963   1.003   1.046   1.058   1.141   1.141
  1.177   1.188   1.257   1.281   1.346   1.464   1.476   1.490
  1.512   1.557   1.614   1.619   1.625   1.664   1.686   1.796
  1.814   1.843   1.883   1.923   1.924   1.949   1.957   1.983
  2.028   2.106   2.126   2.173   2.260   2.413   2.666   2.670
  2.694   2.719   2.855   2.929   2.951   3.008   3.037   3.057
  3.080   3.093   3.099   3.173   3.216   3.218   3.260   3.278
  3.323   3.329   3.350   3.479   3.583   3.874   3.927   3.974
  3.982   3.992   4.134   4.145   4.217   4.297   4.425   4.592
  4.916   4.923   4.965   5.062   5.276   5.281   6.734   6.761
  6.763   6.784   7.127   7.283   7.306   7.354   7.370   7.488
  7.600   7.647   7.658   7.864   7.873   8.203   8.212   8.225
  8.230   8.310   8.347   8.458   8.465   8.470   8.502   8.785
  8.866   8.902   8.931   8.948   8.967   9.087   9.133   9.185
  9.272   9.434   9.482   9.519   9.680   9.688   9.806   9.850
 10.244  10.291  10.366  10.428  10.658  10.820  11.500  11.896
 12.126  12.139  12.237  12.682  13.709  14.651  15.864  26.675
 27.744  28.724  37.534  37.682  37.710  38.184  38.518  49.936
 92.023  92.807  93.548 112.227 112.232 112.236 112.253 112.257
112.312 112.328 157.203 157.275 157.301 157.546 157.728 166.591
309.624 310.254 310.860 687.577
 
 Beta MOs
 -- Occupied --
-15.564  -1.044  -0.624  -0.464
 -- Virtual --
  0.025   0.041   0.060   0.102   0.137   0.142   0.150   0.181
  0.189   0.204   0.241   0.259   0.289   0.358   0.381   0.383
  0.386   0.416   0.444   0.447   0.555   0.596   0.601   0.633
  0.644   0.676   0.680   0.707   0.751   0.769   0.776   0.777
  0.823   0.844   0.854   0.976   1.032   1.069   1.095   1.148
  1.152   1.182   1.194   1.259   1.292   1.347   1.465   1.503
  1.515   1.529   1.573   1.623   1.626   1.628   1.670   1.689
  1.800   1.818   1.844   1.883   1.926   1.932   1.951   1.974
  1.988   2.037   2.109   2.129   2.173   2.270   2.484   2.679
  2.680   2.712   2.742   2.871   2.932   2.952   3.008   3.040
  3.064   3.090   3.105   3.135   3.206   3.241   3.244   3.284
  3.300   3.341   3.353   3.376   3.494   3.584   3.887   3.938
  3.986   4.002   4.011   4.146   4.155   4.234   4.304   4.438
  4.601   4.936   4.948   4.973   5.092   5.287   5.297   6.736
  6.763   6.765   6.785   7.133   7.291   7.328   7.363   7.372
  7.498   7.606   7.648   7.672   7.878   7.921   8.217   8.227
  8.232   8.242   8.323   8.365   8.465   8.480   8.481   8.507
  8.802   8.884   8.906   8.954   8.963   8.984   9.088   9.153
  9.214   9.281   9.443   9.496   9.541   9.699   9.706   9.828
  9.851  10.254  10.302  10.405  10.466  10.665  10.840  11.506
 11.921  12.146  12.151  12.243  12.691  13.734  14.656  15.881
 26.711  27.754  28.734  37.557  37.699  37.733  38.199  38.525
 49.948  92.035  92.811  93.552 112.236 112.242 112.246 112.262
112.264 112.316 112.332 157.209 157.280 157.307 157.550 157.730
166.595 309.627 310.255 310.862 687.578
 --------------------------------------------------------------
 
          Ground-State Mulliken Net Atomic Charges

     Atom                 Charge (a.u.)    Spin (a.u.)
  --------------------------------------------------------
      1 N                    -0.522969       1.067701
      2 H                     0.261485      -0.033850
      3 H                     0.261485      -0.033850
  --------------------------------------------------------
  Sum of atomic charges =     0.000000
  Sum of spin   charges =     1.000000

 -----------------------------------------------------------------
                    Cartesian Multipole Moments
 -----------------------------------------------------------------
    Charge (ESU x 10^10)
                 0.0000
    Dipole Moment (Debye)
         X      -0.0000      Y      -0.0000      Z       1.8833
       Tot       1.8833
    Quadrupole Moments (Debye-Ang)
        XX      -7.1311     XY      -0.0000     YY      -5.4638
        XZ       0.0000     YZ       0.0000     ZZ      -7.0954
    Octopole Moments (Debye-Ang^2)
       XXX       0.0000    XXY      -0.0000    XYY       0.0000
       YYY       0.0000    XXZ      -0.5882    XYZ       0.0000
       YYZ       0.6353    XZZ      -0.0000    YZZ      -0.0000
       ZZZ      -1.3156
    Hexadecapole Moments (Debye-Ang^3)
      XXXX      -6.5841   XXXY      -0.0000   XXYY      -2.9270
      XYYY      -0.0000   YYYY      -9.2044   XXXZ       0.0000
      XXYZ      -0.0000   XYYZ       0.0000   YYYZ       0.0000
      XXZZ      -3.0051   XYZZ      -0.0000   YYZZ      -2.7588
      XZZZ       0.0000   YZZZ      -0.0000   ZZZZ     -11.0399
 -----------------------------------------------------------------
Archival summary:
1\1\n0101.mhg0\SP\ProcedureUnspecified\BasisUnspecified\12(2)\yhljason\TueAug400:19:582020TueAug400:19:582020\0\\#,ProcedureUnspecified,BasisUnspecified,\\0,2\N\H,1,1.02402\H,1,1.02402,2,103.395\\HF=-55.5919983\\@

 Total job time:  602.12s(wall), 2386.55s(cpu) 
 Tue Aug  4 00:19:58 2020

        *************************************************************
        *                                                           *
        *  Thank you very much for using Q-Chem.  Have a nice day.  *
        *                                                           *
        *************************************************************


 
User input: 3 of 7 
 
Q-Chem Developer Version!
                  Welcome to Q-Chem
     A Quantum Leap Into The Future Of Chemistry


 Q-Chem 5.1, Q-Chem, Inc., Pleasanton, CA (2018)

 Yihan Shao,  Zhengting Gan,  E. Epifanovsky,  A. T. B. Gilbert,  M. Wormit,  
 J. Kussmann,  A. W. Lange,  A. Behn,  Jia Deng,  Xintian Feng,  D. Ghosh,  
 M. Goldey,  P. R. Horn,  L. D. Jacobson,  I. Kaliman,  T. Kus,  A. Landau,  
 Jie Liu,  E. I. Proynov,  R. M. Richard,  R. P. Steele,  E. J. Sundstrom,  
 H. L. Woodcock III,  P. M. Zimmerman,  D. Zuev,  B. Albrecht,  E. Alguire,  
 S. A. Baeppler,  D. Barton,  Z. Benda,  Y. A. Bernard,  E. J. Berquist,  
 K. B. Bravaya,  H. Burton,  D. Casanova,  Chun-Min Chang,  Yunqing Chen,  
 A. Chien,  K. D. Closser,  M. P. Coons,  S. Coriani,  S. Dasgupta,  
 A. L. Dempwolff,  M. Diedenhofen,  Hainam Do,  R. G. Edgar,  Po-Tung Fang,  
 S. Faraji,  S. Fatehi,  Qingguo Feng,  K. D. Fenk,  J. Fosso-Tande,  
 Qinghui Ge,  A. Ghysels,  G. Gidofalvi,  J. Gomes,  J. Gonthier,  A. Gunina,  
 D. Hait,  M. W. D. Hanson-Heine,  P. H. P. Harbach,  A. W. Hauser,  
 J. E. Herr,  E. G. Hohenstein,  Z. C. Holden,  Kerwin Hui,  B. C. Huynh,  
 T.-C. Jagau,  Hyunjun Ji,  B. Kaduk,  K. Khistyaev,  Jaehoon Kim,  
 P. Klunzinger,  K. Koh,  D. Kosenkov,  L. Koulias,  T. Kowalczyk,  
 C. M. Krauter,  A. Kunitsa,  Ka Un Lao,  A. Laurent,  K. V. Lawler,  
 Joonho Lee,  D. Lefrancois,  S. Lehtola,  D. S. Levine,  Yi-Pei Li,  
 You-Sheng Lin,  Fenglai Liu,  E. Livshits,  A. Luenser,  P. Manohar,  
 E. Mansoor,  S. F. Manzer,  Shan-Ping Mao,  Yuezhi Mao,  N. Mardirossian,  
 A. V. Marenich,  T. Markovich,  L. A. Martinez-Martinez,  S. A. Maurer,  
 N. J. Mayhall,  S. C. McKenzie,  J.-M. Mewes,  A. F. Morrison,  
 J. W. Mullinax,  K. Nanda,  T. S. Nguyen-Beck,  R. Olivares-Amaya,  
 J. A. Parkhill,  T. M. Perrine,  F. Plasser,  P. Pokhilko,  S. Prager,  
 A. Prociuk,  E. Ramos,  D. R. Rehn,  F. Rob,  M. Schneider,  N. Sergueev,  
 S. M. Sharada,  S. Sharma,  D. W. Small,  T. Stauch,  T. Stein,  
 Yu-Chuan Su,  A. J. W. Thom,  A. Tkatchenko,  T. Tsuchimochi,  N. M. Tubman,  
 L. Vogt,  M. L. Vidal,  O. Vydrov,  M. A. Watson,  J. Wenzel,  
 M. de Wergifosse,  T. A. Wesolowski,  A. White,  J. Witte,  A. Yamada,  
 Jun Yang,  K. Yao,  S. Yeganeh,  S. R. Yost,  Zhi-Qiang You,  A. Zech,  
 Igor Ying Zhang,  Xing Zhang,  Yan Zhao,  Ying Zhu,  B. R. Brooks,  
 G. K. L. Chan,  C. J. Cramer,  M. S. Gordon,  W. J. Hehre,  A. Klamt,  
 M. W. Schmidt,  C. D. Sherrill,  D. G. Truhlar,  A. Aspuru-Guzik,  R. Baer,  
 A. T. Bell,  N. A. Besley,  Jeng-Da Chai,  A. E. DePrince, III,  
 R. A. DiStasio Jr.,  A. Dreuw,  B. D. Dunietz,  T. R. Furlani,  
 Chao-Ping Hsu,  Yousung Jung,  Jing Kong,  D. S. Lambrecht,  WanZhen Liang,  
 C. Ochsenfeld,  V. A. Rassolov,  L. V. Slipchenko,  J. E. Subotnik,  
 T. Van Voorhis,  J. M. Herbert,  A. I. Krylov,  P. M. W. Gill,  M. Head-Gordon

 Contributors to earlier versions of Q-Chem not listed above: 
 R. D. Adamson,  B. Austin,  J. Baker,  G. J. O. Beran,  K. Brandhorst,  
 S. T. Brown,  E. F. C. Byrd,  A. K. Chakraborty,  C.-L. Cheng,  
 Siu Hung Chien,  D. M. Chipman,  D. L. Crittenden,  H. Dachsel,  
 R. J. Doerksen,  A. D. Dutoi,  L. Fusti-Molnar,  W. A. Goddard III,  
 A. Golubeva-Zadorozhnaya,  S. R. Gwaltney,  G. Hawkins,  A. Heyden,  
 S. Hirata,  G. Kedziora,  F. J. Keil,  C. Kelley,  Jihan Kim,  R. A. King,  
 R. Z. Khaliullin,  P. P. Korambath,  W. Kurlancheek,  A. M. Lee,  M. S. Lee,  
 S. V. Levchenko,  Ching Yeh Lin,  D. Liotard,  R. C. Lochan,  I. Lotan,  
 P. E. Maslen,  N. Nair,  D. P. O'Neill,  D. Neuhauser,  E. Neuscamman,  
 C. M. Oana,  R. Olson,  B. Peters,  R. Peverati,  P. A. Pieniazek,  
 Y. M. Rhee,  J. Ritchie,  M. A. Rohrdanz,  E. Rosta,  N. J. Russ,  
 H. F. Schaefer III,  N. E. Schultz,  N. Shenvi,  A. C. Simmonett,  A. Sodt,  
 D. Stuck,  K. S. Thanthiriwatte,  V. Vanovschi,  Tao Wang,  A. Warshel,  
 C. F. Williams,  Q. Wu,  X. Xu,  W. Zhang

 Please cite Q-Chem as follows:
 Y. Shao et al., Mol. Phys. 113, 184-215 (2015)
 DOI: 10.1080/00268976.2014.952696

 Q-Chem 5.1.1 for Intel X86 EM64T Linux

 Parts of Q-Chem use Armadillo 8.300.2 (Tropical Shenanigans).
 http://arma.sourceforge.net/

 Q-Chem begins on Tue Aug  4 00:19:58 2020  

Host: n0101.mhg0
0

     Scratch files written to /local/scratch/users/yhljason/NH2_ccsdT_aug-cc-pcVQZ.inp20200803231138//
The previous job contains 0 fragments, simply inherited here
Input Ideriv = 0
Curr. Ideriv = -1
Max.  Ideriv = 0

Checking the input file for inconsistencies... 	...done.

--------------------------------------------------------------
User input:
--------------------------------------------------------------
$molecule
read
$end

$rem

jobtype sp
method CCSD(T)
xc_grid 000099000590
basis aug-cc-pcVQZ
max_scf_cycles 200
thresh 14
scf_convergence 8
mem_total 128000
cc_memory 96000
cc_backend xm
mem_static 1500
symmetry false
sym_ignore true
scf_guess read
unrestricted true
scf_algorithm gdm
n_frozen_core 0
$end

$multipole_field
XX -0.0001
$end


--------------------------------------------------------------
 ----------------------------------------------------------------
             Standard Nuclear Orientation (Angstroms)
    I     Atom           X                Y                Z
 ----------------------------------------------------------------
    1      N       0.0000000000     0.0000000000     0.0000000000
    2      H       0.0000000000     0.8036000000     0.6347000000
    3      H       0.0000000000    -0.8036000000     0.6347000000
 ----------------------------------------------------------------
 Nuclear Repulsion Energy =     7.5639571803 hartrees
 There are        5 alpha and        4 beta electrons
 Requested basis set is aug-cc-pCVQZ
 There are 57 shells and 201 basis functions
 Total memory of 128000MB is distributed as follows: 
   QALLOC including MEM_STATIC uses 32000MB
   MEM_STATIC is set to 1500MB
   CCMAN JOB total memory use is  96000MB
 Warning: actual memory use might exceed 128000MB

 Total QAlloc Memory Limit  32000 MB
 Mega-Array Size      1467 MB
 MEM_STATIC part      1500 MB

                       Distance Matrix (Angstroms)
             N (  1)   H (  2)
   H (  2)  1.024020
   H (  3)  1.024020  1.607200
 
 Applying Cartesian multipole field
    Component          Value
    ---------          -----
     (2,0,0)       -1.00000E-04
 A cutoff of  1.0D-14 yielded   1653 shell pairs
 There are     20709 function pairs (     31923 Cartesian)
 
 -------------------------------------------------------
 OpenMP Integral Computing Module                       
 Release: version 1.0, May 2013, Q-Chem Inc. Pittsburgh 
 -------------------------------------------------------
 Integral Job Info:
 Integral job number is                      11
 Integral operator is                         1
 short-range coefficients                     0
 long-range coefficients              100000000
 Omega coefficients                           0
 if combine SR and LR in K                    0
 Integral screening is                        0
 Integral computing path is                   2
 max size of driver memory is           3200000
 size of driver memory is               1704330
 size of scratch memory is             18511652
 max col of scratch BK array              50625
 max len of scratch array in speh3         2114
 max len of scratch index in speh4           50
 max int batch size is                      520
 min int batch size is                       52
 fixed nKL is                                52
 max L of basis functions is                  4
 order of int derivative is                   0
 number of shells is                         57
 number of basis is                         249
 number of cartesian basis is               249
 number of contracted shell pairs          1653
 number of primitive shell pairs           3157
 maxK2 (contraction) of shell pair           81
 max number of K2 of shell pair               1
 max number of CS2 of shell pair            227
 max number of PS2 of shell pair            288
 mem total for path MDJ                  643177
 -------------------------------------------------------
 Smallest overlap matrix eigenvalue = 8.93E-05
 Guess MOs from SCF MO coefficient file

 -----------------------------------------------------------------------
  General SCF calculation program by
  Eric Jon Sundstrom, Paul Horn, Yuezhi Mao, Dmitri Zuev, Alec White,
  David Stuck, Shaama M.S., Shane Yost, Joonho Lee, David Small,
  Daniel Levine, Susi Lehtola, Hugh Burton, Evgeny Epifanovsky
 -----------------------------------------------------------------------
 Hartree-Fock
 using 8 threads for integral computing
 -------------------------------------------------------
 OpenMP Integral computing Module                
 Release: version 2.0, May 2017, Q-Chem Inc. Pleasanton 
 -------------------------------------------------------
 A unrestricted SCF calculation will be
 performed using GDM
 SCF converges when RMS gradient is below 1.0e-08
 ---------------------------------------
  Cycle       Energy        RMS Gradient
 ---------------------------------------
    1     -55.5909379599      4.86e-04   Normal BFGS step
    2     -55.5909384837      1.27e-04   Normal BFGS step
    3     -55.5909385489      3.55e-05   Normal BFGS step
    4     -55.5909385550      1.26e-05   Normal BFGS step
    5     -55.5909385562      2.43e-06   Normal BFGS step
    6     -55.5909385563      1.67e-06   Normal BFGS step
    7     -55.5909385563      6.19e-07   Normal BFGS step
    8     -55.5909385563      3.16e-07   Normal BFGS step
    9     -55.5909385563      9.97e-08   Normal BFGS step
   10     -55.5909385563      3.62e-08   Normal BFGS step
   11     -55.5909385563      1.37e-08   Normal BFGS step
   12     -55.5909385563      4.93e-09  Convergence criterion met
 ---------------------------------------
 SCF time:   CPU 451.03s  wall 57.00s 
<S^2> =          0.759699938
 SCF   energy in the final basis set =      -55.5909385563
 Total energy in the final basis set =      -55.5909385563


 ------------------------------------------------------------------------------

   CCMAN2: suite of methods based on coupled cluster
           and equation of motion theories.

   Components:
   * libvmm-1.3-trunk
     by Evgeny Epifanovsky, Ilya Kaliman.
   * libtensor-2.5-trunk
     by Evgeny Epifanovsky, Michael Wormit, Dmitry Zuev, Sam Manzer, 
        Ilya Kaliman.
   * libcc-2.5-trunk
     by Evgeny Epifanovsky, Arik Landau, Tomasz Kus, Kirill Khistyaev, 
        Dmitry Zuev, Prashant Manohar, Xintian Feng, Anna Krylov, 
        Matthew Goldey, Alec White, Thomas Jagau, Kaushik Nanda, 
        Anastasia Gunina, Alexander Kunitsa, Joonho Lee.

   CCMAN original authors:
   Anna I. Krylov, C. David Sherrill, Steven R. Gwaltney,
   Edward F. C. Byrd (2000)
   Sergey V. Levchenko, Lyudmila V. Slipchenko, Tao Wang,
   Ana-Maria C. Cristian (2003)
   Piotr A. Pieniazek, C. Melania Oana, Evgeny Epifanovsky (2007)
   Prashant Manohar (2009)

 ------------------------------------------------------------------------------


 Calculation will run on 8 cores using libxm for tensor contractions

 ------------------------------------------------------------------------------
Libxm Tensor Library
Copyright (c) 2014-2018 Ilya Kaliman
https://github.com/ilyak/libxm
Reference: https://dx.doi.org/10.1002/jcc.24713
 ------------------------------------------------------------------------------

 
 Alpha MOs, Unrestricted
 -- Occupied --                  
-15.595  -1.165  -0.648  -0.516  -0.508
  1 A     2 A     3 A     4 A     5 A                                          
 -- Virtual --                   
  0.028   0.044   0.103   0.104   0.136   0.144   0.181   0.190
  6 A     7 A     8 A     9 A    10 A    11 A    12 A    13 A                  
  0.205   0.232   0.239   0.290   0.350   0.372   0.380   0.387
 14 A    15 A    16 A    17 A    18 A    19 A    20 A    21 A                  
  0.400   0.436   0.447   0.553   0.574   0.596   0.632   0.636
 22 A    23 A    24 A    25 A    26 A    27 A    28 A    29 A                  
  0.646   0.674   0.708   0.739   0.750   0.766   0.774   0.821
 30 A    31 A    32 A    33 A    34 A    35 A    36 A    37 A                  
  0.843   0.849   0.964   1.004   1.047   1.060   1.142   1.142
 38 A    39 A    40 A    41 A    42 A    43 A    44 A    45 A                  
  1.178   1.189   1.257   1.281   1.347   1.464   1.477   1.491
 46 A    47 A    48 A    49 A    50 A    51 A    52 A    53 A                  
  1.512   1.558   1.615   1.619   1.625   1.665   1.687   1.797
 54 A    55 A    56 A    57 A    58 A    59 A    60 A    61 A                  
  1.814   1.844   1.883   1.923   1.925   1.949   1.958   1.984
 62 A    63 A    64 A    65 A    66 A    67 A    68 A    69 A                  
  2.029   2.106   2.127   2.173   2.260   2.413   2.666   2.671
 70 A    71 A    72 A    73 A    74 A    75 A    76 A    77 A                  
  2.695   2.719   2.855   2.929   2.951   3.008   3.037   3.058
 78 A    79 A    80 A    81 A    82 A    83 A    84 A    85 A                  
  3.081   3.093   3.100   3.174   3.216   3.219   3.260   3.278
 86 A    87 A    88 A    89 A    90 A    91 A    92 A    93 A                  
  3.323   3.330   3.350   3.479   3.584   3.874   3.928   3.974
 94 A    95 A    96 A    97 A    98 A    99 A   100 A   101 A                  
  3.982   3.993   4.134   4.145   4.217   4.298   4.425   4.592
102 A   103 A   104 A   105 A   106 A   107 A   108 A   109 A                  
  4.917   4.924   4.966   5.063   5.276   5.281   6.735   6.762
110 A   111 A   112 A   113 A   114 A   115 A   116 A   117 A                  
  6.764   6.784   7.127   7.284   7.307   7.354   7.370   7.489
118 A   119 A   120 A   121 A   122 A   123 A   124 A   125 A                  
  7.600   7.648   7.659   7.865   7.873   8.204   8.212   8.225
126 A   127 A   128 A   129 A   130 A   131 A   132 A   133 A                  
  8.230   8.311   8.347   8.458   8.465   8.470   8.502   8.785
134 A   135 A   136 A   137 A   138 A   139 A   140 A   141 A                  
  8.866   8.902   8.932   8.948   8.968   9.087   9.133   9.185
142 A   143 A   144 A   145 A   146 A   147 A   148 A   149 A                  
  9.272   9.434   9.483   9.519   9.680   9.689   9.806   9.850
150 A   151 A   152 A   153 A   154 A   155 A   156 A   157 A                  
 10.244  10.292  10.367  10.428  10.658  10.820  11.500  11.897
158 A   159 A   160 A   161 A   162 A   163 A   164 A   165 A                  
 12.126  12.139  12.238  12.682  13.709  14.652  15.865  26.675
166 A   167 A   168 A   169 A   170 A   171 A   172 A   173 A                  
 27.745  28.724  37.534  37.682  37.711  38.184  38.519  49.936
174 A   175 A   176 A   177 A   178 A   179 A   180 A   181 A                  
 92.024  92.808  93.548 112.228 112.233 112.236 112.254 112.257
182 A   183 A   184 A   185 A   186 A   187 A   188 A   189 A                  
112.312 112.329 157.204 157.276 157.302 157.547 157.729 166.591
190 A   191 A   192 A   193 A   194 A   195 A   196 A   197 A                  
309.624 310.254 310.861 687.577
198 A   199 A   200 A   201 A                                                  
 
 Beta MOs, Unrestricted
 -- Occupied --                  
-15.564  -1.044  -0.624  -0.463
  1 A     2 A     3 A     4 A                                                  
 -- Virtual --                   
  0.029   0.044   0.063   0.104   0.140   0.144   0.155   0.182
  5 A     6 A     7 A     8 A     9 A    10 A    11 A    12 A                  
  0.190   0.207   0.244   0.261   0.290   0.359   0.383   0.384
 13 A    14 A    15 A    16 A    17 A    18 A    19 A    20 A                  
  0.388   0.418   0.445   0.448   0.556   0.597   0.603   0.635
 21 A    22 A    23 A    24 A    25 A    26 A    27 A    28 A                  
  0.646   0.677   0.681   0.708   0.752   0.770   0.777   0.778
 29 A    30 A    31 A    32 A    33 A    34 A    35 A    36 A                  
  0.824   0.845   0.855   0.977   1.033   1.070   1.096   1.149
 37 A    38 A    39 A    40 A    41 A    42 A    43 A    44 A                  
  1.153   1.183   1.195   1.260   1.293   1.347   1.466   1.504
 45 A    46 A    47 A    48 A    49 A    50 A    51 A    52 A                  
  1.515   1.530   1.573   1.623   1.627   1.629   1.670   1.690
 53 A    54 A    55 A    56 A    57 A    58 A    59 A    60 A                  
  1.800   1.818   1.844   1.883   1.927   1.933   1.952   1.975
 61 A    62 A    63 A    64 A    65 A    66 A    67 A    68 A                  
  1.989   2.038   2.110   2.130   2.173   2.270   2.485   2.680
 69 A    70 A    71 A    72 A    73 A    74 A    75 A    76 A                  
  2.680   2.713   2.743   2.871   2.932   2.952   3.009   3.040
 77 A    78 A    79 A    80 A    81 A    82 A    83 A    84 A                  
  3.065   3.090   3.106   3.135   3.207   3.242   3.244   3.284
 85 A    86 A    87 A    88 A    89 A    90 A    91 A    92 A                  
  3.301   3.342   3.354   3.376   3.495   3.585   3.887   3.938
 93 A    94 A    95 A    96 A    97 A    98 A    99 A   100 A                  
  3.986   4.002   4.011   4.147   4.156   4.235   4.305   4.438
101 A   102 A   103 A   104 A   105 A   106 A   107 A   108 A                  
  4.601   4.936   4.948   4.974   5.093   5.287   5.297   6.736
109 A   110 A   111 A   112 A   113 A   114 A   115 A   116 A                  
  6.764   6.766   6.785   7.134   7.291   7.328   7.364   7.372
117 A   118 A   119 A   120 A   121 A   122 A   123 A   124 A                  
  7.499   7.606   7.648   7.673   7.879   7.922   8.217   8.228
125 A   126 A   127 A   128 A   129 A   130 A   131 A   132 A                  
  8.233   8.243   8.323   8.366   8.465   8.481   8.482   8.507
133 A   134 A   135 A   136 A   137 A   138 A   139 A   140 A                  
  8.803   8.885   8.907   8.955   8.963   8.984   9.088   9.153
141 A   142 A   143 A   144 A   145 A   146 A   147 A   148 A                  
  9.214   9.281   9.443   9.497   9.542   9.699   9.706   9.828
149 A   150 A   151 A   152 A   153 A   154 A   155 A   156 A                  
  9.852  10.255  10.302  10.405  10.466  10.665  10.840  11.506
157 A   158 A   159 A   160 A   161 A   162 A   163 A   164 A                  
 11.921  12.146  12.151  12.243  12.691  13.734  14.656  15.882
165 A   166 A   167 A   168 A   169 A   170 A   171 A   172 A                  
 26.711  27.754  28.735  37.557  37.699  37.734  38.199  38.525
173 A   174 A   175 A   176 A   177 A   178 A   179 A   180 A                  
 49.949  92.036  92.812  93.552 112.236 112.242 112.247 112.263
181 A   182 A   183 A   184 A   185 A   186 A   187 A   188 A                  
112.264 112.316 112.332 157.209 157.281 157.307 157.550 157.731
189 A   190 A   191 A   192 A   193 A   194 A   195 A   196 A                  
166.596 309.628 310.256 310.863 687.579
197 A   198 A   199 A   200 A   201 A                                          

 Occupation and symmetry of molecular orbitals

 Point group: C1 (1 irreducible representation).

                           A     All 
 -------------------------------------
 All molecular orbitals:
  - Alpha                  201   201 
  - Beta                   201   201 
 -------------------------------------
 Alpha orbitals:
  - Frozen occupied        0     0   
  - Active occupied        5     5   
  - Active virtual         196   196 
  - Frozen virtual         0     0   
 -------------------------------------
 Beta orbitals:
  - Frozen occupied        0     0   
  - Active occupied        4     4   
  - Active virtual         197   197 
  - Frozen virtual         0     0   
 -------------------------------------

 Import integrals:   CPU 0.00 s  wall 0.00 s

 Import integrals:   CPU 807.60 s  wall 219.22 s

 MP2 amplitudes:   CPU 2.45 s  wall 1.88 s

Running a double precision version
[...]
 performed using GDM
 SCF converges when RMS gradient is below 1.0e-08
 ---------------------------------------
  Cycle       Energy        RMS Gradient
 ---------------------------------------
    1     -55.5909400168      5.57e-04   Normal BFGS step
    2     -55.5909409792      1.13e-04   Normal BFGS step
    3     -55.5909410964      3.36e-05   Normal BFGS step
    4     -55.5909411028      1.40e-05   Normal BFGS step
    5     -55.5909411042      2.54e-06   Normal BFGS step
    6     -55.5909411043      1.82e-06   Normal BFGS step
    7     -55.5909411043      7.14e-07   Normal BFGS step
    8     -55.5909411043      3.47e-07   Normal BFGS step
    9     -55.5909411043      1.23e-07   Normal BFGS step
   10     -55.5909411043      4.85e-08   Normal BFGS step
   11     -55.5909411043      1.83e-08   Normal BFGS step
   12     -55.5909411043      5.30e-09  Convergence criterion met
 ---------------------------------------
 SCF time:   CPU 449.20s  wall 57.00s 
<S^2> =          0.759685322
 SCF   energy in the final basis set =      -55.5909411043
 Total energy in the final basis set =      -55.5909411043


 ------------------------------------------------------------------------------

   CCMAN2: suite of methods based on coupled cluster
           and equation of motion theories.

   Components:
   * libvmm-1.3-trunk
     by Evgeny Epifanovsky, Ilya Kaliman.
   * libtensor-2.5-trunk
     by Evgeny Epifanovsky, Michael Wormit, Dmitry Zuev, Sam Manzer, 
        Ilya Kaliman.
   * libcc-2.5-trunk
     by Evgeny Epifanovsky, Arik Landau, Tomasz Kus, Kirill Khistyaev, 
        Dmitry Zuev, Prashant Manohar, Xintian Feng, Anna Krylov, 
        Matthew Goldey, Alec White, Thomas Jagau, Kaushik Nanda, 
        Anastasia Gunina, Alexander Kunitsa, Joonho Lee.

   CCMAN original authors:
   Anna I. Krylov, C. David Sherrill, Steven R. Gwaltney,
   Edward F. C. Byrd (2000)
   Sergey V. Levchenko, Lyudmila V. Slipchenko, Tao Wang,
   Ana-Maria C. Cristian (2003)
   Piotr A. Pieniazek, C. Melania Oana, Evgeny Epifanovsky (2007)
   Prashant Manohar (2009)

 ------------------------------------------------------------------------------


 Calculation will run on 8 cores using libxm for tensor contractions

 ------------------------------------------------------------------------------
Libxm Tensor Library
Copyright (c) 2014-2018 Ilya Kaliman
https://github.com/ilyak/libxm
Reference: https://dx.doi.org/10.1002/jcc.24713
 ------------------------------------------------------------------------------

 
 Alpha MOs, Unrestricted
 -- Occupied --                  
-15.595  -1.165  -0.648  -0.516  -0.507
  1 A     2 A     3 A     4 A     5 A                                          
 -- Virtual --                   
  0.028   0.044   0.102   0.104   0.137   0.144   0.182   0.191
  6 A     7 A     8 A     9 A    10 A    11 A    12 A    13 A                  
  0.204   0.231   0.239   0.291   0.351   0.372   0.381   0.387
 14 A    15 A    16 A    17 A    18 A    19 A    20 A    21 A                  
  0.399   0.436   0.448   0.554   0.574   0.596   0.632   0.636
 22 A    23 A    24 A    25 A    26 A    27 A    28 A    29 A                  
  0.646   0.674   0.709   0.739   0.750   0.766   0.775   0.822
 30 A    31 A    32 A    33 A    34 A    35 A    36 A    37 A                  
  0.843   0.850   0.964   1.004   1.047   1.060   1.142   1.142
 38 A    39 A    40 A    41 A    42 A    43 A    44 A    45 A                  
  1.178   1.189   1.258   1.282   1.347   1.465   1.477   1.491
 46 A    47 A    48 A    49 A    50 A    51 A    52 A    53 A                  
  1.513   1.558   1.615   1.619   1.625   1.665   1.687   1.797
 54 A    55 A    56 A    57 A    58 A    59 A    60 A    61 A                  
  1.815   1.844   1.883   1.924   1.925   1.950   1.958   1.984
 62 A    63 A    64 A    65 A    66 A    67 A    68 A    69 A                  
  2.029   2.107   2.127   2.173   2.260   2.413   2.666   2.671
 70 A    71 A    72 A    73 A    74 A    75 A    76 A    77 A                  
  2.695   2.720   2.856   2.930   2.951   3.009   3.037   3.058
 78 A    79 A    80 A    81 A    82 A    83 A    84 A    85 A                  
  3.081   3.093   3.100   3.174   3.216   3.218   3.260   3.279
 86 A    87 A    88 A    89 A    90 A    91 A    92 A    93 A                  
  3.323   3.330   3.350   3.480   3.584   3.874   3.928   3.974
 94 A    95 A    96 A    97 A    98 A    99 A   100 A   101 A                  
  3.983   3.993   4.134   4.146   4.217   4.298   4.425   4.592
102 A   103 A   104 A   105 A   106 A   107 A   108 A   109 A                  
  4.917   4.924   4.966   5.063   5.276   5.281   6.735   6.762
110 A   111 A   112 A   113 A   114 A   115 A   116 A   117 A                  
  6.764   6.784   7.127   7.284   7.307   7.354   7.370   7.489
118 A   119 A   120 A   121 A   122 A   123 A   124 A   125 A                  
  7.600   7.648   7.659   7.865   7.873   8.204   8.212   8.225
126 A   127 A   128 A   129 A   130 A   131 A   132 A   133 A                  
  8.231   8.311   8.347   8.458   8.465   8.470   8.502   8.785
134 A   135 A   136 A   137 A   138 A   139 A   140 A   141 A                  
  8.866   8.903   8.932   8.948   8.968   9.087   9.133   9.185
142 A   143 A   144 A   145 A   146 A   147 A   148 A   149 A                  
  9.272   9.434   9.483   9.520   9.680   9.689   9.806   9.850
150 A   151 A   152 A   153 A   154 A   155 A   156 A   157 A                  
 10.244  10.292  10.367  10.429  10.659  10.820  11.500  11.897
158 A   159 A   160 A   161 A   162 A   163 A   164 A   165 A                  
 12.126  12.139  12.238  12.682  13.709  14.652  15.865  26.675
166 A   167 A   168 A   169 A   170 A   171 A   172 A   173 A                  
 27.745  28.724  37.535  37.682  37.711  38.184  38.519  49.936
174 A   175 A   176 A   177 A   178 A   179 A   180 A   181 A                  
 92.024  92.808  93.548 112.228 112.233 112.236 112.254 112.257
182 A   183 A   184 A   185 A   186 A   187 A   188 A   189 A                  
112.312 112.329 157.204 157.276 157.302 157.547 157.729 166.592
190 A   191 A   192 A   193 A   194 A   195 A   196 A   197 A                  
309.624 310.255 310.861 687.578
198 A   199 A   200 A   201 A                                                  
 
 Beta MOs, Unrestricted
 -- Occupied --                  
-15.564  -1.044  -0.624  -0.463
  1 A     2 A     3 A     4 A                                                  
 -- Virtual --                   
  0.029   0.045   0.062   0.106   0.141   0.145   0.153   0.183
  5 A     6 A     7 A     8 A     9 A    10 A    11 A    12 A                  
  0.191   0.206   0.244   0.261   0.291   0.360   0.383   0.385
 13 A    14 A    15 A    16 A    17 A    18 A    19 A    20 A                  
  0.388   0.418   0.445   0.448   0.556   0.597   0.603   0.635
 21 A    22 A    23 A    24 A    25 A    26 A    27 A    28 A                  
  0.646   0.677   0.681   0.708   0.752   0.770   0.778   0.778
 29 A    30 A    31 A    32 A    33 A    34 A    35 A    36 A                  
  0.824   0.845   0.855   0.977   1.033   1.070   1.096   1.149
 37 A    38 A    39 A    40 A    41 A    42 A    43 A    44 A                  
  1.152   1.183   1.195   1.260   1.293   1.347   1.466   1.504
 45 A    46 A    47 A    48 A    49 A    50 A    51 A    52 A                  
  1.516   1.530   1.573   1.623   1.627   1.629   1.671   1.690
 53 A    54 A    55 A    56 A    57 A    58 A    59 A    60 A                  
  1.801   1.818   1.844   1.884   1.927   1.933   1.952   1.974
 61 A    62 A    63 A    64 A    65 A    66 A    67 A    68 A                  
  1.989   2.038   2.110   2.130   2.174   2.270   2.485   2.680
 69 A    70 A    71 A    72 A    73 A    74 A    75 A    76 A                  
  2.680   2.713   2.743   2.872   2.933   2.952   3.009   3.040
 77 A    78 A    79 A    80 A    81 A    82 A    83 A    84 A                  
  3.065   3.090   3.106   3.135   3.207   3.242   3.244   3.285
 85 A    86 A    87 A    88 A    89 A    90 A    91 A    92 A                  
  3.301   3.342   3.354   3.377   3.495   3.585   3.887   3.938
 93 A    94 A    95 A    96 A    97 A    98 A    99 A   100 A                  
  3.986   4.003   4.011   4.147   4.156   4.235   4.305   4.438
101 A   102 A   103 A   104 A   105 A   106 A   107 A   108 A                  
  4.601   4.936   4.948   4.974   5.093   5.287   5.298   6.737
109 A   110 A   111 A   112 A   113 A   114 A   115 A   116 A                  
  6.764   6.766   6.785   7.134   7.291   7.328   7.364   7.372
117 A   118 A   119 A   120 A   121 A   122 A   123 A   124 A                  
  7.499   7.606   7.648   7.673   7.879   7.922   8.218   8.228
125 A   126 A   127 A   128 A   129 A   130 A   131 A   132 A                  
  8.233   8.243   8.323   8.366   8.465   8.481   8.482   8.507
133 A   134 A   135 A   136 A   137 A   138 A   139 A   140 A                  
  8.803   8.885   8.907   8.955   8.963   8.984   9.088   9.153
141 A   142 A   143 A   144 A   145 A   146 A   147 A   148 A                  
  9.214   9.281   9.444   9.497   9.542   9.699   9.706   9.828
149 A   150 A   151 A   152 A   153 A   154 A   155 A   156 A                  
  9.852  10.255  10.302  10.405  10.466  10.665  10.840  11.506
157 A   158 A   159 A   160 A   161 A   162 A   163 A   164 A                  
 11.921  12.147  12.151  12.243  12.691  13.734  14.656  15.882
165 A   166 A   167 A   168 A   169 A   170 A   171 A   172 A                  
 26.711  27.754  28.735  37.557  37.700  37.734  38.200  38.525
173 A   174 A   175 A   176 A   177 A   178 A   179 A   180 A                  
 49.949  92.036  92.812  93.553 112.236 112.242 112.247 112.263
181 A   182 A   183 A   184 A   185 A   186 A   187 A   188 A                  
112.265 112.316 112.332 157.209 157.281 157.308 157.550 157.731
189 A   190 A   191 A   192 A   193 A   194 A   195 A   196 A                  
166.596 309.628 310.256 310.863 687.579
197 A   198 A   199 A   200 A   201 A                                          

 Occupation and symmetry of molecular orbitals

 Point group: C1 (1 irreducible representation).

                           A     All 
 -------------------------------------
 All molecular orbitals:
  - Alpha                  201   201 
  - Beta                   201   201 
 -------------------------------------
 Alpha orbitals:
  - Frozen occupied        0     0   
  - Active occupied        5     5   
  - Active virtual         196   196 
  - Frozen virtual         0     0   
 -------------------------------------
 Beta orbitals:
  - Frozen occupied        0     0   
  - Active occupied        4     4   
  - Active virtual         197   197 
  - Frozen virtual         0     0   
 -------------------------------------

 Import integrals:   CPU 0.00 s  wall 0.00 s

 Import integrals:   CPU 811.98 s  wall 223.35 s

 MP2 amplitudes:   CPU 2.46 s  wall 1.71 s

Running a double precision version
           CCSD T amplitudes will be solved using DIIS.

           Start     Size      MaxIter   EConv     TConv     
           3         7         100       1.00e-06  1.00e-04  
 ------------------------------------------------------------------------------
           Energy (a.u.)   Ediff      Tdiff       Comment
 ------------------------------------------------------------------------------
           -55.84679508                           
     1     -55.85676377   9.97e-03   3.98e-01     
     2     -55.86113551   4.37e-03   4.02e-02     
     3     -55.86195877   8.23e-04   1.36e-02     
     4     -55.86259834   6.40e-04   7.30e-03     Switched to DIIS steps.
     5     -55.86269744   9.91e-05   2.36e-03     
     6     -55.86270893   1.15e-05   1.24e-03     
     7     -55.86271167   2.74e-06   3.57e-04     
     8     -55.86271216   4.94e-07   1.57e-04     
     9     -55.86271200   1.64e-07   4.26e-05     
 ------------------------------------------------------------------------------
           -55.86271200                           CCSD T converged.

End of double precision

----------------------------------------
libpt (c) 2016-2018 Ilya Kaliman
Fast Coupled Cluster Triples Corrections
https://github.com/ilyak/libpt
----------------------------------------

 Starting (T) calculation...
 Using double precision libpt code
 (T) calculation completed in 27 sec
 (T) energy is -0.0071757593

 SCF energy                 = -55.59094110
 MP2 energy                 = -55.84679508
 CCSD correlation energy     =  -0.27177089
 CCSD total energy           = -55.86271200
 CCSD(T) correlation energy =  -0.00717576
 CCSD(T) total energy       = -55.86988776

 CCSD  T1^2 = 0.0015  T2^2 = 0.0663  Leading amplitudes:

 Amplitude    Orbitals with energies
 -0.0120       4 (A) A                   ->    15 (A) A                   
              -0.5158                          0.2310                     
 -0.0118       4 (A) A                   ->    8 (A) A                    
              -0.5158                          0.1016                     
  0.0072       2 (A) B                   ->    36 (A) B                   
              -1.0439                          0.7782                     
  0.0071       4 (A) A                   ->    26 (A) A                   
              -0.5158                          0.5741                     

 Amplitude    Orbitals with energies
 -0.0156       3 (A) A       3 (A) B     ->    20 (A) A      21 (A) B     
              -0.6475       -0.6236            0.3808        0.3881       
  0.0156       3 (A) A       3 (A) B     ->    21 (A) B      20 (A) A     
              -0.6475       -0.6236            0.3881        0.3808       
  0.0156       3 (A) B       3 (A) A     ->    20 (A) A      21 (A) B     
              -0.6236       -0.6475            0.3808        0.3881       
 -0.0156       3 (A) B       3 (A) A     ->    21 (A) B      20 (A) A     
              -0.6236       -0.6475            0.3881        0.3808       

 CCSD calculation:   CPU 1086.26 s  wall 249.95 s

 Total ccman2 time:   CPU 1939.07 s  wall 510.62 s

 
 --------------------------------------------------------------
 
                    Orbital Energies (a.u.)
 --------------------------------------------------------------
 
 Alpha MOs
 -- Occupied --
-15.595  -1.165  -0.648  -0.516  -0.507
 -- Virtual --
  0.028   0.044   0.102   0.104   0.137   0.144   0.182   0.191
  0.204   0.231   0.239   0.291   0.351   0.372   0.381   0.387
  0.399   0.436   0.448   0.554   0.574   0.596   0.632   0.636
  0.646   0.674   0.709   0.739   0.750   0.766   0.775   0.822
  0.843   0.850   0.964   1.004   1.047   1.060   1.142   1.142
  1.178   1.189   1.258   1.282   1.347   1.465   1.477   1.491
  1.513   1.558   1.615   1.619   1.625   1.665   1.687   1.797
  1.815   1.844   1.883   1.924   1.925   1.950   1.958   1.984
  2.029   2.107   2.127   2.173   2.260   2.413   2.666   2.671
  2.695   2.720   2.856   2.930   2.951   3.009   3.037   3.058
  3.081   3.093   3.100   3.174   3.216   3.218   3.260   3.279
  3.323   3.330   3.350   3.480   3.584   3.874   3.928   3.974
  3.983   3.993   4.134   4.146   4.217   4.298   4.425   4.592
  4.917   4.924   4.966   5.063   5.276   5.281   6.735   6.762
  6.764   6.784   7.127   7.284   7.307   7.354   7.370   7.489
  7.600   7.648   7.659   7.865   7.873   8.204   8.212   8.225
  8.231   8.311   8.347   8.458   8.465   8.470   8.502   8.785
  8.866   8.903   8.932   8.948   8.968   9.087   9.133   9.185
  9.272   9.434   9.483   9.520   9.680   9.689   9.806   9.850
 10.244  10.292  10.367  10.429  10.659  10.820  11.500  11.897
 12.126  12.139  12.238  12.682  13.709  14.652  15.865  26.675
 27.745  28.724  37.535  37.682  37.711  38.184  38.519  49.936
 92.024  92.808  93.548 112.228 112.233 112.236 112.254 112.257
112.312 112.329 157.204 157.276 157.302 157.547 157.729 166.592
309.624 310.255 310.861 687.578
 
 Beta MOs
 -- Occupied --
-15.564  -1.044  -0.624  -0.463
 -- Virtual --
  0.029   0.045   0.062   0.106   0.141   0.145   0.153   0.183
  0.191   0.206   0.244   0.261   0.291   0.360   0.383   0.385
  0.388   0.418   0.445   0.448   0.556   0.597   0.603   0.635
  0.646   0.677   0.681   0.708   0.752   0.770   0.778   0.778
  0.824   0.845   0.855   0.977   1.033   1.070   1.096   1.149
  1.152   1.183   1.195   1.260   1.293   1.347   1.466   1.504
  1.516   1.530   1.573   1.623   1.627   1.629   1.671   1.690
  1.801   1.818   1.844   1.884   1.927   1.933   1.952   1.974
  1.989   2.038   2.110   2.130   2.174   2.270   2.485   2.680
  2.680   2.713   2.743   2.872   2.933   2.952   3.009   3.040
  3.065   3.090   3.106   3.135   3.207   3.242   3.244   3.285
  3.301   3.342   3.354   3.377   3.495   3.585   3.887   3.938
  3.986   4.003   4.011   4.147   4.156   4.235   4.305   4.438
  4.601   4.936   4.948   4.974   5.093   5.287   5.298   6.737
  6.764   6.766   6.785   7.134   7.291   7.328   7.364   7.372
  7.499   7.606   7.648   7.673   7.879   7.922   8.218   8.228
  8.233   8.243   8.323   8.366   8.465   8.481   8.482   8.507
  8.803   8.885   8.907   8.955   8.963   8.984   9.088   9.153
  9.214   9.281   9.444   9.497   9.542   9.699   9.706   9.828
  9.852  10.255  10.302  10.405  10.466  10.665  10.840  11.506
 11.921  12.147  12.151  12.243  12.691  13.734  14.656  15.882
 26.711  27.754  28.735  37.557  37.700  37.734  38.200  38.525
 49.949  92.036  92.812  93.553 112.236 112.242 112.247 112.263
112.265 112.316 112.332 157.209 157.281 157.308 157.550 157.731
166.596 309.628 310.256 310.863 687.579
 --------------------------------------------------------------
 
          Ground-State Mulliken Net Atomic Charges

     Atom                 Charge (a.u.)    Spin (a.u.)
  --------------------------------------------------------
      1 N                    -0.522359       1.067579
      2 H                     0.261179      -0.033790
      3 H                     0.261179      -0.033790
  --------------------------------------------------------
  Sum of atomic charges =     0.000000
  Sum of spin   charges =     1.000000

 -----------------------------------------------------------------
                    Cartesian Multipole Moments
 -----------------------------------------------------------------
    Charge (ESU x 10^10)
                 0.0000
    Dipole Moment (Debye)
         X       0.0000      Y      -0.0000      Z       1.8847
       Tot       1.8847
    Quadrupole Moments (Debye-Ang)
        XX      -7.1262     XY      -0.0000     YY      -5.4621
        XZ      -0.0000     YZ      -0.0000     ZZ      -7.0872
    Octopole Moments (Debye-Ang^2)
       XXX       0.0000    XXY      -0.0000    XYY       0.0000
       YYY      -0.0000    XXZ      -0.5876    XYZ      -0.0000
       YYZ       0.6366    XZZ      -0.0000    YZZ      -0.0000
       ZZZ      -1.3109
    Hexadecapole Moments (Debye-Ang^3)
      XXXX      -6.5677   XXXY      -0.0000   XXYY      -2.9229
      XYYY      -0.0000   YYYY      -9.1985   XXXZ      -0.0000
      XXYZ      -0.0000   XYYZ      -0.0000   YYYZ      -0.0000
      XXZZ      -2.9969   XYZZ       0.0000   YYZZ      -2.7515
      XZZZ      -0.0000   YZZZ      -0.0000   ZZZZ     -11.0053
 -----------------------------------------------------------------
Archival summary:
1\1\n0101.mhg0\SP\ProcedureUnspecified\BasisUnspecified\12(2)\yhljason\TueAug401:08:052020TueAug401:08:052020\0\\#,ProcedureUnspecified,BasisUnspecified,\\0,2\N\H,1,1.02402\H,1,1.02402,2,103.395\\HF=-55.5909411\\@

 Total job time:  574.66s(wall), 2400.85s(cpu) 
 Tue Aug  4 01:08:05 2020

        *************************************************************
        *                                                           *
        *  Thank you very much for using Q-Chem.  Have a nice day.  *
        *                                                           *
        *************************************************************


