Q-Chem Developer Version!
                  Welcome to Q-Chem
     A Quantum Leap Into The Future Of Chemistry


 Q-Chem 5.1, Q-Chem, Inc., Pleasanton, CA (2018)

 Yihan Shao,  Zhengting Gan,  E. Epifanovsky,  A. T. B. Gilbert,  M. Wormit,  
 J. Kussmann,  A. W. Lange,  A. Behn,  Jia Deng,  Xintian Feng,  D. Ghosh,  
 M. Goldey,  P. R. Horn,  L. D. Jacobson,  I. Kaliman,  T. Kus,  A. Landau,  
 Jie Liu,  E. I. Proynov,  R. M. Richard,  R. P. Steele,  E. J. Sundstrom,  
 H. L. Woodcock III,  P. M. Zimmerman,  D. Zuev,  B. Albrecht,  E. Alguire,  
 S. A. Baeppler,  D. Barton,  Z. Benda,  Y. A. Bernard,  E. J. Berquist,  
 K. B. Bravaya,  H. Burton,  D. Casanova,  Chun-Min Chang,  Yunqing Chen,  
 A. Chien,  K. D. Closser,  M. P. Coons,  S. Coriani,  S. Dasgupta,  
 A. L. Dempwolff,  M. Diedenhofen,  Hainam Do,  R. G. Edgar,  Po-Tung Fang,  
 S. Faraji,  S. Fatehi,  Qingguo Feng,  K. D. Fenk,  J. Fosso-Tande,  
 Qinghui Ge,  A. Ghysels,  G. Gidofalvi,  J. Gomes,  J. Gonthier,  A. Gunina,  
 D. Hait,  M. W. D. Hanson-Heine,  P. H. P. Harbach,  A. W. Hauser,  
 J. E. Herr,  E. G. Hohenstein,  Z. C. Holden,  Kerwin Hui,  B. C. Huynh,  
 T.-C. Jagau,  Hyunjun Ji,  B. Kaduk,  K. Khistyaev,  Jaehoon Kim,  
 P. Klunzinger,  K. Koh,  D. Kosenkov,  L. Koulias,  T. Kowalczyk,  
 C. M. Krauter,  A. Kunitsa,  Ka Un Lao,  A. Laurent,  K. V. Lawler,  
 Joonho Lee,  D. Lefrancois,  S. Lehtola,  D. S. Levine,  Yi-Pei Li,  
 You-Sheng Lin,  Fenglai Liu,  E. Livshits,  A. Luenser,  P. Manohar,  
 E. Mansoor,  S. F. Manzer,  Shan-Ping Mao,  Yuezhi Mao,  N. Mardirossian,  
 A. V. Marenich,  T. Markovich,  L. A. Martinez-Martinez,  S. A. Maurer,  
 N. J. Mayhall,  S. C. McKenzie,  J.-M. Mewes,  A. F. Morrison,  
 J. W. Mullinax,  K. Nanda,  T. S. Nguyen-Beck,  R. Olivares-Amaya,  
 J. A. Parkhill,  T. M. Perrine,  F. Plasser,  P. Pokhilko,  S. Prager,  
 A. Prociuk,  E. Ramos,  D. R. Rehn,  F. Rob,  M. Schneider,  N. Sergueev,  
 S. M. Sharada,  S. Sharma,  D. W. Small,  T. Stauch,  T. Stein,  
 Yu-Chuan Su,  A. J. W. Thom,  A. Tkatchenko,  T. Tsuchimochi,  N. M. Tubman,  
 L. Vogt,  M. L. Vidal,  O. Vydrov,  M. A. Watson,  J. Wenzel,  
 M. de Wergifosse,  T. A. Wesolowski,  A. White,  J. Witte,  A. Yamada,  
 Jun Yang,  K. Yao,  S. Yeganeh,  S. R. Yost,  Zhi-Qiang You,  A. Zech,  
 Igor Ying Zhang,  Xing Zhang,  Yan Zhao,  Ying Zhu,  B. R. Brooks,  
 G. K. L. Chan,  C. J. Cramer,  M. S. Gordon,  W. J. Hehre,  A. Klamt,  
 M. W. Schmidt,  C. D. Sherrill,  D. G. Truhlar,  A. Aspuru-Guzik,  R. Baer,  
 A. T. Bell,  N. A. Besley,  Jeng-Da Chai,  A. E. DePrince, III,  
 R. A. DiStasio Jr.,  A. Dreuw,  B. D. Dunietz,  T. R. Furlani,  
 Chao-Ping Hsu,  Yousung Jung,  Jing Kong,  D. S. Lambrecht,  WanZhen Liang,  
 C. Ochsenfeld,  V. A. Rassolov,  L. V. Slipchenko,  J. E. Subotnik,  
 T. Van Voorhis,  J. M. Herbert,  A. I. Krylov,  P. M. W. Gill,  M. Head-Gordon

 Contributors to earlier versions of Q-Chem not listed above: 
 R. D. Adamson,  B. Austin,  J. Baker,  G. J. O. Beran,  K. Brandhorst,  
 S. T. Brown,  E. F. C. Byrd,  A. K. Chakraborty,  C.-L. Cheng,  
 Siu Hung Chien,  D. M. Chipman,  D. L. Crittenden,  H. Dachsel,  
 R. J. Doerksen,  A. D. Dutoi,  L. Fusti-Molnar,  W. A. Goddard III,  
 A. Golubeva-Zadorozhnaya,  S. R. Gwaltney,  G. Hawkins,  A. Heyden,  
 S. Hirata,  G. Kedziora,  F. J. Keil,  C. Kelley,  Jihan Kim,  R. A. King,  
 R. Z. Khaliullin,  P. P. Korambath,  W. Kurlancheek,  A. M. Lee,  M. S. Lee,  
 S. V. Levchenko,  Ching Yeh Lin,  D. Liotard,  R. C. Lochan,  I. Lotan,  
 P. E. Maslen,  N. Nair,  D. P. O'Neill,  D. Neuhauser,  E. Neuscamman,  
 C. M. Oana,  R. Olson,  B. Peters,  R. Peverati,  P. A. Pieniazek,  
 Y. M. Rhee,  J. Ritchie,  M. A. Rohrdanz,  E. Rosta,  N. J. Russ,  
 H. F. Schaefer III,  N. E. Schultz,  N. Shenvi,  A. C. Simmonett,  A. Sodt,  
 D. Stuck,  K. S. Thanthiriwatte,  V. Vanovschi,  Tao Wang,  A. Warshel,  
 C. F. Williams,  Q. Wu,  X. Xu,  W. Zhang

 Please cite Q-Chem as follows:
 Y. Shao et al., Mol. Phys. 113, 184-215 (2015)
 DOI: 10.1080/00268976.2014.952696

 Q-Chem 5.1.1 for Intel X86 EM64T Linux

 Parts of Q-Chem use Armadillo 8.300.2 (Tropical Shenanigans).
 http://arma.sourceforge.net/

 Q-Chem begins on Thu Jul  2 11:06:59 2020  

Host: n0046.mhg0
0

     Scratch files written to /local/scratch/users/yhljason/HCl_ccsdT_aug-cc-pcVDZ.inp20200702023627//
Input Ideriv = 0
Curr. Ideriv = -1
Max.  Ideriv = 0

Checking the input file for inconsistencies... 	...done.

--------------------------------------------------------------
User input:
--------------------------------------------------------------
$molecule
0 1
Cl1     0.0000  0.0000  0.0000
H2      0.0000  0.0000  1.2746
$end

$rem
jobtype sp
method CCSD(T)
xc_grid 000099000590
basis aug-cc-pcVDZ
max_scf_cycles 200
thresh 14
scf_convergence 8
scf_algorithm gdm
symmetry false
sym_ignore true
unrestricted true
gen_scfman true
internal_stability_iter 15
internal_stability_davidson_iter 200
mem_total 128000
cc_memory 96000
cc_backend xm
mem_static 1500
n_frozen_core 0
$end


--------------------------------------------------------------
 ----------------------------------------------------------------
             Standard Nuclear Orientation (Angstroms)
    I     Atom           X                Y                Z
 ----------------------------------------------------------------
    1      Cl      0.0000000000     0.0000000000     0.0000000000
    2      H       0.0000000000     0.0000000000     1.2746000000
 ----------------------------------------------------------------
 Nuclear Repulsion Energy =     7.0579103904 hartrees
 There are        9 alpha and        9 beta electrons
 Requested basis set is aug-cc-pCVDZ
 There are 19 shells and 45 basis functions
 Total memory of 128000MB is distributed as follows: 
   QALLOC including MEM_STATIC uses 32000MB
   MEM_STATIC is set to 1500MB
   CCMAN JOB total memory use is  96000MB
 Warning: actual memory use might exceed 128000MB

 Total QAlloc Memory Limit  32000 MB
 Mega-Array Size      1467 MB
 MEM_STATIC part      1500 MB

                       Distance Matrix (Angstroms)
             Cl(  1)
   H (  2)  1.274600
 
 A cutoff of  1.0D-14 yielded    190 shell pairs
 There are      1086 function pairs (      1242 Cartesian)
 
 -------------------------------------------------------
 OpenMP Integral Computing Module                       
 Release: version 1.0, May 2013, Q-Chem Inc. Pittsburgh 
 -------------------------------------------------------
 Integral Job Info:
 Integral job number is                      11
 Integral operator is                         1
 short-range coefficients                     0
 long-range coefficients              100000000
 Omega coefficients                           0
 if combine SR and LR in K                    0
 Integral screening is                        0
 Integral computing path is                   2
 max size of driver memory is            800000
 size of driver memory is                593474
 size of scratch memory is             29825385
 max col of scratch BK array               1296
 max len of scratch array in speh3          155
 max len of scratch index in speh4           18
 max int batch size is                      520
 min int batch size is                       52
 fixed nKL is                                41
 max L of basis functions is                  2
 order of int derivative is                   0
 number of shells is                         19
 number of basis is                          48
 number of cartesian basis is                48
 number of contracted shell pairs           190
 number of primitive shell pairs           2194
 maxK2 (contraction) of shell pair          121
 max number of K2 of shell pair               1
 max number of CS2 of shell pair             25
 max number of PS2 of shell pair            726
 mem total for path MDJ                  514994
 -------------------------------------------------------
 Smallest overlap matrix eigenvalue = 2.21E-03

 Scale SEOQF with 1.000000e-01/1.000000e-01/1.000000e-01

 Standard Electronic Orientation quadrupole field applied
 Nucleus-field energy     =    -0.0000000002 hartrees
 Guess from superposition of atomic densities
 Warning:  Energy on first SCF cycle will be non-variational
 SAD guess density has 18.000000 electrons

 -----------------------------------------------------------------------
  General SCF calculation program by
  Eric Jon Sundstrom, Paul Horn, Yuezhi Mao, Dmitri Zuev, Alec White,
  David Stuck, Shaama M.S., Shane Yost, Joonho Lee, David Small,
  Daniel Levine, Susi Lehtola, Hugh Burton, Evgeny Epifanovsky
 -----------------------------------------------------------------------
Running Object-Oriented UHF
performing a single roothaan step with Fock from read density so that orbitals are available to all algorithms
energy of the guess density (C=0) -460.042794194204
We will preform up to 15 macro iterations over saddle points until a stable solution is found
Energy prior to optimization (guess energy) = -460.078128637491
Begin Timing: Total SCF Calculation
Begin Timing: SCF Single Stationary Point Calculation
begin iterations for algorithm: GDM          
the SCF tolerance is set to 1.00e-08
    1    -460.0781286375      6.10e-02     00000  Normal BFGS step
    2    -460.0914310261      1.60e-02     00000  Normal BFGS step
    3    -460.0929453723      3.55e-03     00000  Normal BFGS step
    4    -460.0930507733      1.18e-03     00000  Normal BFGS step
    5    -460.0930584903      2.45e-04     00000  Normal BFGS step
    6    -460.0930587410      3.20e-05     00000  Normal BFGS step
    7    -460.0930587558      1.06e-05     00000  Normal BFGS step
    8    -460.0930587564      1.45e-06     00000  Normal BFGS step
    9    -460.0930587565      3.30e-07     00000  Normal BFGS step
   10    -460.0930587565      4.38e-08     00000  Normal BFGS step
   11    -460.0930587565      6.29e-09     00000 Convergence criterion met
Timing for Single Stationary Point: 2.00s (wall), 34.69s (cpu)
Begin Timing: Stability
===================================================
Beginning Test for Internal Stability
===================================================
generating davidson guess vectors based on koopmans excitations
    1      7.88e-01     00000 Davidson Iteration
    2      9.80e-01     00000 Davidson Iteration
    3      2.82e-01     00000 Davidson Iteration
    4      1.32e-01     00000 Davidson Iteration
    5      4.83e-02     00000 Davidson Iteration
    6      8.50e-03     00000 Davidson Iteration
    7      4.01e-03     00000 Davidson Iteration
    8      4.34e-03     00000 Davidson Iteration
    9      1.12e-03     00000 Davidson Iteration
   10      2.98e-04     00000 Davidson Iteration
   11      1.20e-04     00000 Davidson Iteration
   12      3.99e-05     00000 Davidson Iteration
   13      1.46e-03     00000 Davidson Iteration
   14      5.79e-04     00000 Davidson Iteration
   15      3.81e-04     00000 Davidson Iteration
   16      2.11e-04     00000 Davidson Iteration
   17      1.45e-04     00000 Davidson Iteration
   18      1.05e-04     00000 Davidson Iteration
   19      1.15e-04     00000 Davidson Iteration
   20      1.42e-04     00000 Davidson Iteration
   21      1.06e-04     00000 Davidson Iteration
   22      8.30e-05     00000 Davidson Converged
converged_eigenvalues
   0.4810
   0.4810
Threshold for negative eigenvalues: -1.0e-05
solution was a local minimum (stable)
===================================================
End Test for Internal Stability
===================================================
Our SCF solution is stable!
Timing for Total SCF: 7.00s (wall), 110.75s (cpu)
 Total energy in the final basis set =     -460.0930587565
<S^2> =         -0.000000000
    ==================================================
              The end of Object-Oriented SCFman       
    ==================================================


 ------------------------------------------------------------------------------

   CCMAN2: suite of methods based on coupled cluster
           and equation of motion theories.

   Components:
   * libvmm-1.3-trunk
     by Evgeny Epifanovsky, Ilya Kaliman.
   * libtensor-2.5-trunk
     by Evgeny Epifanovsky, Michael Wormit, Dmitry Zuev, Sam Manzer, 
        Ilya Kaliman.
   * libcc-2.5-trunk
     by Evgeny Epifanovsky, Arik Landau, Tomasz Kus, Kirill Khistyaev, 
        Dmitry Zuev, Prashant Manohar, Xintian Feng, Anna Krylov, 
        Matthew Goldey, Alec White, Thomas Jagau, Kaushik Nanda, 
        Anastasia Gunina, Alexander Kunitsa, Joonho Lee.

   CCMAN original authors:
   Anna I. Krylov, C. David Sherrill, Steven R. Gwaltney,
   Edward F. C. Byrd (2000)
   Sergey V. Levchenko, Lyudmila V. Slipchenko, Tao Wang,
   Ana-Maria C. Cristian (2003)
   Piotr A. Pieniazek, C. Melania Oana, Evgeny Epifanovsky (2007)
   Prashant Manohar (2009)

 ------------------------------------------------------------------------------


 Calculation will run on 16 cores using libxm for tensor contractions

 ------------------------------------------------------------------------------
Libxm Tensor Library
Copyright (c) 2014-2018 Ilya Kaliman
https://github.com/ilyak/libxm
Reference: https://dx.doi.org/10.1002/jcc.24713
 ------------------------------------------------------------------------------

 
 Alpha MOs, Unrestricted
 -- Occupied --                  
-104.85  -10.58   -8.04   -8.04   -8.04   -1.12   -0.63   -0.48
  1 A     2 A     3 A     4 A     5 A     6 A     7 A     8 A                  
 -0.477
  9 A                                                                          
 -- Virtual --                   
  0.035   0.126   0.138   0.138   0.182   0.214   0.319   0.319
 10 A    11 A    12 A    13 A    14 A    15 A    16 A    17 A                  
  0.469   0.469   0.491   0.574   0.607   0.607   0.895   0.921
 18 A    19 A    20 A    21 A    22 A    23 A    24 A    25 A                  
  0.921   1.031   1.358   1.358   1.364   1.364   1.427   1.788
 26 A    27 A    28 A    29 A    30 A    31 A    32 A    33 A                  
  1.853   1.853   2.429  12.425  12.425  12.699  16.022  16.022
 34 A    35 A    36 A    37 A    38 A    39 A    40 A    41 A                  
 16.030  16.030  16.063  20.282
 42 A    43 A    44 A    45 A                                                  
 
 Beta MOs, Unrestricted
 -- Occupied --                  
-104.85  -10.58   -8.04   -8.04   -8.04   -1.12   -0.63   -0.48
  1 A     2 A     3 A     4 A     5 A     6 A     7 A     8 A                  
 -0.477
  9 A                                                                          
 -- Virtual --                   
  0.035   0.126   0.138   0.138   0.182   0.214   0.319   0.319
 10 A    11 A    12 A    13 A    14 A    15 A    16 A    17 A                  
  0.469   0.469   0.491   0.574   0.607   0.607   0.895   0.921
 18 A    19 A    20 A    21 A    22 A    23 A    24 A    25 A                  
  0.921   1.031   1.358   1.358   1.364   1.364   1.427   1.788
 26 A    27 A    28 A    29 A    30 A    31 A    32 A    33 A                  
  1.853   1.853   2.429  12.425  12.425  12.699  16.022  16.022
 34 A    35 A    36 A    37 A    38 A    39 A    40 A    41 A                  
 16.030  16.030  16.063  20.282
 42 A    43 A    44 A    45 A                                                  

 Occupation and symmetry of molecular orbitals

 Point group: C1 (1 irreducible representation).

                           A     All 
 -------------------------------------
 All molecular orbitals:
  - Alpha                  45    45  
  - Beta                   45    45  
 -------------------------------------
 Alpha orbitals:
  - Frozen occupied        0     0   
  - Active occupied        9     9   
  - Active virtual         36    36  
  - Frozen virtual         0     0   
 -------------------------------------
 Beta orbitals:
  - Frozen occupied        0     0   
  - Active occupied        9     9   
  - Active virtual         36    36  
  - Frozen virtual         0     0   
 -------------------------------------

 Import integrals:   CPU 0.00 s  wall 0.00 s

 Import integrals:   CPU 2.45 s  wall 0.65 s

 MP2 amplitudes:   CPU 0.35 s  wall 0.15 s

Running a double precision version
           CCSD T amplitudes will be solved using DIIS.

           Start     Size      MaxIter   EConv     TConv     
           3         7         100       1.00e-06  1.00e-04  
 ------------------------------------------------------------------------------
           Energy (a.u.)   Ediff      Tdiff       Comment
 ------------------------------------------------------------------------------
          -460.47106326                           
     1    -460.48178503   1.07e-02   4.60e-01     
     2    -460.48479880   3.01e-03   4.19e-02     
     3    -460.48543495   6.36e-04   1.27e-02     
     4    -460.48577808   3.43e-04   6.14e-03     Switched to DIIS steps.
     5    -460.48579366   1.56e-05   8.68e-04     
     6    -460.48579279   8.70e-07   2.40e-04     
     7    -460.48579281   1.63e-08   3.46e-05     
 ------------------------------------------------------------------------------
          -460.48579281                           CCSD T converged.

End of double precision

----------------------------------------
libpt (c) 2016-2018 Ilya Kaliman
Fast Coupled Cluster Triples Corrections
https://github.com/ilyak/libpt
----------------------------------------

 Starting (T) calculation...
 Using double precision libpt code
 (T) calculation completed in 0 sec
 (T) energy is -0.0049931945

 SCF energy                 = -460.09305876
 MP2 energy                 = -460.47106326
 CCSD correlation energy     =   -0.39273405
 CCSD total energy           = -460.48579281
 CCSD(T) correlation energy =   -0.00499319
 CCSD(T) total energy       = -460.49078600

 CCSD  T1^2 = 0.0007  T2^2 = 0.0813  Leading amplitudes:

 Amplitude    Orbitals with energies
  0.0073       7 (A) B                   ->    20 (A) B                   
              -0.6268                          0.4907                     
  0.0073       7 (A) A                   ->    20 (A) A                   
              -0.6268                          0.4907                     
  0.0071       8 (A) A                   ->    16 (A) A                   
              -0.4774                          0.3190                     
  0.0071       8 (A) B                   ->    16 (A) B                   
              -0.4774                          0.3190                     
  0.0071       9 (A) B                   ->    17 (A) B                   
              -0.4774                          0.3190                     
  0.0071       9 (A) A                   ->    17 (A) A                   
              -0.4774                          0.3190                     

 Amplitude    Orbitals with energies
 -0.0434       7 (A) A       7 (A) B     ->    14 (A) A      14 (A) B     
              -0.6268       -0.6268            0.1823        0.1823       
  0.0434       7 (A) A       7 (A) B     ->    14 (A) B      14 (A) A     
              -0.6268       -0.6268            0.1823        0.1823       
  0.0434       7 (A) B       7 (A) A     ->    14 (A) A      14 (A) B     
              -0.6268       -0.6268            0.1823        0.1823       
 -0.0434       7 (A) B       7 (A) A     ->    14 (A) B      14 (A) A     
              -0.6268       -0.6268            0.1823        0.1823       

 CCSD calculation:   CPU 19.93 s  wall 5.50 s

 Total ccman2 time:   CPU 30.64 s  wall 8.24 s

 
 --------------------------------------------------------------
 
                    Orbital Energies (a.u.)
 --------------------------------------------------------------
 
 Alpha MOs
 -- Occupied --
******* -10.577  -8.045  -8.042  -8.042  -1.120  -0.627  -0.477
 -0.477
 -- Virtual --
  0.035   0.126   0.138   0.138   0.182   0.214   0.319   0.319
  0.469   0.469   0.491   0.574   0.607   0.607   0.895   0.921
  0.921   1.031   1.358   1.358   1.364   1.364   1.427   1.788
  1.853   1.853   2.429  12.425  12.425  12.699  16.022  16.022
 16.030  16.030  16.063  20.282
 
 Beta MOs
 -- Occupied --
******* -10.577  -8.045  -8.042  -8.042  -1.120  -0.627  -0.477
 -0.477
 -- Virtual --
  0.035   0.126   0.138   0.138   0.182   0.214   0.319   0.319
  0.469   0.469   0.491   0.574   0.607   0.607   0.895   0.921
  0.921   1.031   1.358   1.358   1.364   1.364   1.427   1.788
  1.853   1.853   2.429  12.425  12.425  12.699  16.022  16.022
 16.030  16.030  16.063  20.282
 --------------------------------------------------------------
 
          Ground-State Mulliken Net Atomic Charges

     Atom                 Charge (a.u.)    Spin (a.u.)
  --------------------------------------------------------
      1 Cl                   -0.118380       0.000000
      2 H                     0.118380       0.000000
  --------------------------------------------------------
  Sum of atomic charges =    -0.000000
  Sum of spin   charges =     0.000000

 -----------------------------------------------------------------
                    Cartesian Multipole Moments
 -----------------------------------------------------------------
    Charge (ESU x 10^10)
                 0.0000
    Dipole Moment (Debye)
         X      -0.0000      Y       0.0000      Z       1.2348
       Tot       1.2348
    Quadrupole Moments (Debye-Ang)
        XX     -14.1476     XY      -0.0000     YY     -14.1476
        XZ      -0.0000     YZ      -0.0000     ZZ     -10.1841
    Octopole Moments (Debye-Ang^2)
       XXX      -0.0000    XXY      -0.0000    XYY      -0.0000
       YYY      -0.0000    XXZ      -0.8554    XYZ       0.0000
       YYZ      -0.8554    XZZ      -0.0000    YZZ      -0.0000
       ZZZ       0.4895
    Hexadecapole Moments (Debye-Ang^3)
      XXXX     -16.6020   XXXY       0.0000   XXYY      -5.5340
      XYYY       0.0000   YYYY     -16.6020   XXXZ      -0.0000
      XXYZ      -0.0000   XYYZ      -0.0000   YYYZ      -0.0000
      XXZZ      -5.8680   XYZZ       0.0000   YYZZ      -5.8680
      XZZZ      -0.0000   YZZZ      -0.0000   ZZZZ     -13.2738
 -----------------------------------------------------------------
Archival summary:
1\1\n0046.mhg0\SP\ProcedureUnspecified\BasisUnspecified\l11\yhljason\ThuJul211:07:152020ThuJul211:07:152020\0\\#,ProcedureUnspecified,BasisUnspecified,\\0,1\Cl\H,1,1.2746\\HF=-460.093059\\@

 Total job time:  16.46s(wall), 156.04s(cpu) 
 Thu Jul  2 11:07:15 2020

        *************************************************************
        *                                                           *
        *  Thank you very much for using Q-Chem.  Have a nice day.  *
        *                                                           *
        *************************************************************


 
User input: 2 of 6 
 
Q-Chem Developer Version!
                  Welcome to Q-Chem
     A Quantum Leap Into The Future Of Chemistry


 Q-Chem 5.1, Q-Chem, Inc., Pleasanton, CA (2018)

 Yihan Shao,  Zhengting Gan,  E. Epifanovsky,  A. T. B. Gilbert,  M. Wormit,  
 J. Kussmann,  A. W. Lange,  A. Behn,  Jia Deng,  Xintian Feng,  D. Ghosh,  
 M. Goldey,  P. R. Horn,  L. D. Jacobson,  I. Kaliman,  T. Kus,  A. Landau,  
 Jie Liu,  E. I. Proynov,  R. M. Richard,  R. P. Steele,  E. J. Sundstrom,  
 H. L. Woodcock III,  P. M. Zimmerman,  D. Zuev,  B. Albrecht,  E. Alguire,  
 S. A. Baeppler,  D. Barton,  Z. Benda,  Y. A. Bernard,  E. J. Berquist,  
 K. B. Bravaya,  H. Burton,  D. Casanova,  Chun-Min Chang,  Yunqing Chen,  
 A. Chien,  K. D. Closser,  M. P. Coons,  S. Coriani,  S. Dasgupta,  
 A. L. Dempwolff,  M. Diedenhofen,  Hainam Do,  R. G. Edgar,  Po-Tung Fang,  
 S. Faraji,  S. Fatehi,  Qingguo Feng,  K. D. Fenk,  J. Fosso-Tande,  
 Qinghui Ge,  A. Ghysels,  G. Gidofalvi,  J. Gomes,  J. Gonthier,  A. Gunina,  
 D. Hait,  M. W. D. Hanson-Heine,  P. H. P. Harbach,  A. W. Hauser,  
 J. E. Herr,  E. G. Hohenstein,  Z. C. Holden,  Kerwin Hui,  B. C. Huynh,  
 T.-C. Jagau,  Hyunjun Ji,  B. Kaduk,  K. Khistyaev,  Jaehoon Kim,  
 P. Klunzinger,  K. Koh,  D. Kosenkov,  L. Koulias,  T. Kowalczyk,  
 C. M. Krauter,  A. Kunitsa,  Ka Un Lao,  A. Laurent,  K. V. Lawler,  
 Joonho Lee,  D. Lefrancois,  S. Lehtola,  D. S. Levine,  Yi-Pei Li,  
 You-Sheng Lin,  Fenglai Liu,  E. Livshits,  A. Luenser,  P. Manohar,  
 E. Mansoor,  S. F. Manzer,  Shan-Ping Mao,  Yuezhi Mao,  N. Mardirossian,  
 A. V. Marenich,  T. Markovich,  L. A. Martinez-Martinez,  S. A. Maurer,  
 N. J. Mayhall,  S. C. McKenzie,  J.-M. Mewes,  A. F. Morrison,  
 J. W. Mullinax,  K. Nanda,  T. S. Nguyen-Beck,  R. Olivares-Amaya,  
 J. A. Parkhill,  T. M. Perrine,  F. Plasser,  P. Pokhilko,  S. Prager,  
 A. Prociuk,  E. Ramos,  D. R. Rehn,  F. Rob,  M. Schneider,  N. Sergueev,  
 S. M. Sharada,  S. Sharma,  D. W. Small,  T. Stauch,  T. Stein,  
 Yu-Chuan Su,  A. J. W. Thom,  A. Tkatchenko,  T. Tsuchimochi,  N. M. Tubman,  
 L. Vogt,  M. L. Vidal,  O. Vydrov,  M. A. Watson,  J. Wenzel,  
 M. de Wergifosse,  T. A. Wesolowski,  A. White,  J. Witte,  A. Yamada,  
 Jun Yang,  K. Yao,  S. Yeganeh,  S. R. Yost,  Zhi-Qiang You,  A. Zech,  
 Igor Ying Zhang,  Xing Zhang,  Yan Zhao,  Ying Zhu,  B. R. Brooks,  
 G. K. L. Chan,  C. J. Cramer,  M. S. Gordon,  W. J. Hehre,  A. Klamt,  
 M. W. Schmidt,  C. D. Sherrill,  D. G. Truhlar,  A. Aspuru-Guzik,  R. Baer,  
 A. T. Bell,  N. A. Besley,  Jeng-Da Chai,  A. E. DePrince, III,  
 R. A. DiStasio Jr.,  A. Dreuw,  B. D. Dunietz,  T. R. Furlani,  
 Chao-Ping Hsu,  Yousung Jung,  Jing Kong,  D. S. Lambrecht,  WanZhen Liang,  
 C. Ochsenfeld,  V. A. Rassolov,  L. V. Slipchenko,  J. E. Subotnik,  
 T. Van Voorhis,  J. M. Herbert,  A. I. Krylov,  P. M. W. Gill,  M. Head-Gordon

 Contributors to earlier versions of Q-Chem not listed above: 
 R. D. Adamson,  B. Austin,  J. Baker,  G. J. O. Beran,  K. Brandhorst,  
 S. T. Brown,  E. F. C. Byrd,  A. K. Chakraborty,  C.-L. Cheng,  
 Siu Hung Chien,  D. M. Chipman,  D. L. Crittenden,  H. Dachsel,  
 R. J. Doerksen,  A. D. Dutoi,  L. Fusti-Molnar,  W. A. Goddard III,  
 A. Golubeva-Zadorozhnaya,  S. R. Gwaltney,  G. Hawkins,  A. Heyden,  
 S. Hirata,  G. Kedziora,  F. J. Keil,  C. Kelley,  Jihan Kim,  R. A. King,  
 R. Z. Khaliullin,  P. P. Korambath,  W. Kurlancheek,  A. M. Lee,  M. S. Lee,  
 S. V. Levchenko,  Ching Yeh Lin,  D. Liotard,  R. C. Lochan,  I. Lotan,  
 P. E. Maslen,  N. Nair,  D. P. O'Neill,  D. Neuhauser,  E. Neuscamman,  
 C. M. Oana,  R. Olson,  B. Peters,  R. Peverati,  P. A. Pieniazek,  
 Y. M. Rhee,  J. Ritchie,  M. A. Rohrdanz,  E. Rosta,  N. J. Russ,  
 H. F. Schaefer III,  N. E. Schultz,  N. Shenvi,  A. C. Simmonett,  A. Sodt,  
 D. Stuck,  K. S. Thanthiriwatte,  V. Vanovschi,  Tao Wang,  A. Warshel,  
 C. F. Williams,  Q. Wu,  X. Xu,  W. Zhang

 Please cite Q-Chem as follows:
 Y. Shao et al., Mol. Phys. 113, 184-215 (2015)
 DOI: 10.1080/00268976.2014.952696

 Q-Chem 5.1.1 for Intel X86 EM64T Linux

 Parts of Q-Chem use Armadillo 8.300.2 (Tropical Shenanigans).
 http://arma.sourceforge.net/

 Q-Chem begins on Thu Jul  2 11:07:15 2020  

Host: n0046.mhg0
0

     Scratch files written to /local/scratch/users/yhljason/HCl_ccsdT_aug-cc-pcVDZ.inp20200702023627//
The previous job contains 0 fragments, simply inherited here
Input Ideriv = 0
Curr. Ideriv = -1
Max.  Ideriv = 0

Checking the input file for inconsistencies... 	...done.

--------------------------------------------------------------
User input:
--------------------------------------------------------------
$molecule
read
$end

$rem

jobtype sp
method CCSD(T)
xc_grid 000099000590
basis aug-cc-pcVDZ
max_scf_cycles 200
thresh 14
scf_convergence 8
mem_total 128000
cc_memory 96000
cc_backend xm
mem_static 1500
symmetry false
sym_ignore true
scf_guess read
unrestricted true
scf_algorithm gdm
n_frozen_core 0
$end

$multipole_field
XX -0.0001
$end


--------------------------------------------------------------
 ----------------------------------------------------------------
             Standard Nuclear Orientation (Angstroms)
    I     Atom           X                Y                Z
 ----------------------------------------------------------------
    1      Cl      0.0000000000     0.0000000000     0.0000000000
    2      H       0.0000000000     0.0000000000     1.2746000000
 ----------------------------------------------------------------
 Nuclear Repulsion Energy =     7.0579103904 hartrees
 There are        9 alpha and        9 beta electrons
 Requested basis set is aug-cc-pCVDZ
 There are 19 shells and 45 basis functions
 Total memory of 128000MB is distributed as follows: 
   QALLOC including MEM_STATIC uses 32000MB
   MEM_STATIC is set to 1500MB
   CCMAN JOB total memory use is  96000MB
 Warning: actual memory use might exceed 128000MB

 Total QAlloc Memory Limit  32000 MB
 Mega-Array Size      1467 MB
 MEM_STATIC part      1500 MB

                       Distance Matrix (Angstroms)
             Cl(  1)
   H (  2)  1.274600
 
 Applying Cartesian multipole field
    Component          Value
    ---------          -----
     (2,0,0)       -1.00000E-04
 A cutoff of  1.0D-14 yielded    190 shell pairs
 There are      1086 function pairs (      1242 Cartesian)
 
 -------------------------------------------------------
 OpenMP Integral Computing Module                       
 Release: version 1.0, May 2013, Q-Chem Inc. Pittsburgh 
 -------------------------------------------------------
 Integral Job Info:
 Integral job number is                      11
 Integral operator is                         1
 short-range coefficients                     0
 long-range coefficients              100000000
 Omega coefficients                           0
 if combine SR and LR in K                    0
 Integral screening is                        0
 Integral computing path is                   2
 max size of driver memory is            800000
 size of driver memory is                593474
 size of scratch memory is             29825385
 max col of scratch BK array               1296
 max len of scratch array in speh3          155
 max len of scratch index in speh4           18
 max int batch size is                      520
 min int batch size is                       52
 fixed nKL is                                41
 max L of basis functions is                  2
 order of int derivative is                   0
 number of shells is                         19
 number of basis is                          48
 number of cartesian basis is                48
 number of contracted shell pairs           190
 number of primitive shell pairs           2194
 maxK2 (contraction) of shell pair          121
 max number of K2 of shell pair               1
 max number of CS2 of shell pair             25
 max number of PS2 of shell pair            726
 mem total for path MDJ                  514994
 -------------------------------------------------------
 Smallest overlap matrix eigenvalue = 2.21E-03
 Guess MOs from SCF MO coefficient file

 -----------------------------------------------------------------------
  General SCF calculation program by
  Eric Jon Sundstrom, Paul Horn, Yuezhi Mao, Dmitri Zuev, Alec White,
  David Stuck, Shaama M.S., Shane Yost, Joonho Lee, David Small,
  Daniel Levine, Susi Lehtola, Hugh Burton, Evgeny Epifanovsky
 -----------------------------------------------------------------------
 Hartree-Fock
 using 16 threads for integral computing
 -------------------------------------------------------
 OpenMP Integral computing Module                
 Release: version 2.0, May 2017, Q-Chem Inc. Pleasanton 
 -------------------------------------------------------
 A unrestricted SCF calculation will be
 performed using GDM
 SCF converges when RMS gradient is below 1.0e-08
 ---------------------------------------
  Cycle       Energy        RMS Gradient
 ---------------------------------------
    1    -460.0920069150      3.51e-04   Normal BFGS step
    2    -460.0920071441      7.32e-05   Normal BFGS step
    3    -460.0920071660      7.29e-06   Normal BFGS step
    4    -460.0920071667      2.31e-06   Normal BFGS step
    5    -460.0920071667      4.79e-07   Normal BFGS step
    6    -460.0920071667      1.35e-07   Normal BFGS step
    7    -460.0920071667      3.19e-08   Normal BFGS step
    8    -460.0920071667      7.30e-09  Convergence criterion met
 ---------------------------------------
 SCF time:   CPU 28.83s  wall 2.00s 
<S^2> =          0.000000000
 SCF   energy in the final basis set =     -460.0920071667
 Total energy in the final basis set =     -460.0920071667


 ------------------------------------------------------------------------------

   CCMAN2: suite of methods based on coupled cluster
           and equation of motion theories.

   Components:
   * libvmm-1.3-trunk
     by Evgeny Epifanovsky, Ilya Kaliman.
   * libtensor-2.5-trunk
     by Evgeny Epifanovsky, Michael Wormit, Dmitry Zuev, Sam Manzer, 
        Ilya Kaliman.
   * libcc-2.5-trunk
     by Evgeny Epifanovsky, Arik Landau, Tomasz Kus, Kirill Khistyaev, 
        Dmitry Zuev, Prashant Manohar, Xintian Feng, Anna Krylov, 
        Matthew Goldey, Alec White, Thomas Jagau, Kaushik Nanda, 
        Anastasia Gunina, Alexander Kunitsa, Joonho Lee.

   CCMAN original authors:
   Anna I. Krylov, C. David Sherrill, Steven R. Gwaltney,
   Edward F. C. Byrd (2000)
   Sergey V. Levchenko, Lyudmila V. Slipchenko, Tao Wang,
   Ana-Maria C. Cristian (2003)
   Piotr A. Pieniazek, C. Melania Oana, Evgeny Epifanovsky (2007)
   Prashant Manohar (2009)

 ------------------------------------------------------------------------------


 Calculation will run on 16 cores using libxm for tensor contractions

 ------------------------------------------------------------------------------
Libxm Tensor Library
Copyright (c) 2014-2018 Ilya Kaliman
https://github.com/ilyak/libxm
Reference: https://dx.doi.org/10.1002/jcc.24713
 ------------------------------------------------------------------------------

 
 Alpha MOs, Unrestricted
 -- Occupied --                  
-104.85  -10.58   -8.04   -8.04   -8.04   -1.12   -0.63   -0.48
  1 A     2 A     3 A     4 A     5 A     6 A     7 A     8 A                  
 -0.477
  9 A                                                                          
 -- Virtual --                   
  0.037   0.126   0.139   0.140   0.183   0.215   0.319   0.320
 10 A    11 A    12 A    13 A    14 A    15 A    16 A    17 A                  
  0.470   0.470   0.491   0.575   0.607   0.607   0.895   0.921
 18 A    19 A    20 A    21 A    22 A    23 A    24 A    25 A                  
  0.921   1.031   1.359   1.359   1.364   1.364   1.428   1.788
 26 A    27 A    28 A    29 A    30 A    31 A    32 A    33 A                  
  1.854   1.854   2.430  12.425  12.425  12.700  16.022  16.022
 34 A    35 A    36 A    37 A    38 A    39 A    40 A    41 A                  
 16.030  16.030  16.063  20.282
 42 A    43 A    44 A    45 A                                                  
 
 Beta MOs, Unrestricted
 -- Occupied --                  
-104.85  -10.58   -8.04   -8.04   -8.04   -1.12   -0.63   -0.48
  1 A     2 A     3 A     4 A     5 A     6 A     7 A     8 A                  
 -0.477
  9 A                                                                          
 -- Virtual --                   
  0.037   0.126   0.139   0.140   0.183   0.215   0.319   0.320
 10 A    11 A    12 A    13 A    14 A    15 A    16 A    17 A                  
  0.470   0.470   0.491   0.575   0.607   0.607   0.895   0.921
 18 A    19 A    20 A    21 A    22 A    23 A    24 A    25 A                  
  0.921   1.031   1.359   1.359   1.364   1.364   1.428   1.788
 26 A    27 A    28 A    29 A    30 A    31 A    32 A    33 A                  
  1.854   1.854   2.430  12.425  12.425  12.700  16.022  16.022
 34 A    35 A    36 A    37 A    38 A    39 A    40 A    41 A                  
 16.030  16.030  16.063  20.282
 42 A    43 A    44 A    45 A                                                  

 Occupation and symmetry of molecular orbitals

 Point group: C1 (1 irreducible representation).

                           A     All 
 -------------------------------------
 All molecular orbitals:
  - Alpha                  45    45  
  - Beta                   45    45  
 -------------------------------------
 Alpha orbitals:
  - Frozen occupied        0     0   
  - Active occupied        9     9   
  - Active virtual         36    36  
  - Frozen virtual         0     0   
 -------------------------------------
 Beta orbitals:
  - Frozen occupied        0     0   
  - Active occupied        9     9   
  - Active virtual         36    36  
  - Frozen virtual         0     0   
 -------------------------------------

 Import integrals:   CPU 0.00 s  wall 0.00 s

 Import integrals:   CPU 2.31 s  wall 0.62 s

 MP2 amplitudes:   CPU 0.33 s  wall 0.14 s

Running a double precision version
           CCSD T amplitudes will be solved using DIIS.

           Start     Size      MaxIter   EConv     TConv     
           3         7         100       1.00e-06  1.00e-04  
 ------------------------------------------------------------------------------
           Energy (a.u.)   Ediff      Tdiff       Comment
 ------------------------------------------------------------------------------
          -460.47000411                           
     1    -460.48072818   1.07e-02   4.60e-01     
     2    -460.48374194   3.01e-03   4.19e-02     
     3    -460.48437821   6.36e-04   1.27e-02     
     4    -460.48472140   3.43e-04   6.14e-03     Switched to DIIS steps.
     5    -460.48473694   1.55e-05   8.67e-04     
     6    -460.48473607   8.69e-07   2.40e-04     
     7    -460.48473609   1.65e-08   3.46e-05     
 ------------------------------------------------------------------------------
          -460.48473609                           CCSD T converged.

End of double precision

----------------------------------------
libpt (c) 2016-2018 Ilya Kaliman
Fast Coupled Cluster Triples Corrections
https://github.com/ilyak/libpt
----------------------------------------

 Starting (T) calculation...
 Using double precision libpt code
 (T) calculation completed in 1 sec
 (T) energy is -0.0049916523

 SCF energy                 = -460.09200717
 MP2 energy                 = -460.47000411
 CCSD correlation energy     =   -0.39272892
 CCSD total energy           = -460.48473609
 CCSD(T) correlation energy =   -0.00499165
 CCSD(T) total energy       = -460.48972774

 CCSD  T1^2 = 0.0007  T2^2 = 0.0813  Leading amplitudes:

 Amplitude    Orbitals with energies
 -0.0073       7 (A) A                   ->    20 (A) A                   
              -0.6266                          0.4910                     
 -0.0073       7 (A) B                   ->    20 (A) B                   
              -0.6266                          0.4910                     
 -0.0071       8 (A) A                   ->    16 (A) A                   
              -0.4772                          0.3192                     
 -0.0071       8 (A) B                   ->    16 (A) B                   
              -0.4772                          0.3192                     

 Amplitude    Orbitals with energies
 -0.0438       7 (A) A       7 (A) B     ->    14 (A) A      14 (A) B     
              -0.6266       -0.6266            0.1829        0.1829       
  0.0438       7 (A) A       7 (A) B     ->    14 (A) B      14 (A) A     
              -0.6266       -0.6266            0.1829        0.1829       
  0.0438       7 (A) B       7 (A) A     ->    14 (A) A      14 (A) B     
              -0.6266       -0.6266            0.1829        0.1829       
 -0.0438       7 (A) B       7 (A) A     ->    14 (A) B      14 (A) A     
              -0.6266       -0.6266            0.1829        0.1829       

 CCSD calculation:   CPU 20.29 s  wall 5.55 s

 Total ccman2 time:   CPU 26.75 s  wall 7.98 s

 
 --------------------------------------------------------------
 
                    Orbital Energies (a.u.)
 --------------------------------------------------------------
 
 Alpha MOs
 -- Occupied --
******* -10.577  -8.045  -8.042  -8.042  -1.119  -0.627  -0.477
 -0.477
 -- Virtual --
  0.037   0.126   0.139   0.140   0.183   0.215   0.319   0.320
  0.470   0.470   0.491   0.575   0.607   0.607   0.895   0.921
  0.921   1.031   1.359   1.359   1.364   1.364   1.428   1.788
  1.854   1.854   2.430  12.425  12.425  12.700  16.022  16.022
 16.030  16.030  16.063  20.282
 
 Beta MOs
 -- Occupied --
******* -10.577  -8.045  -8.042  -8.042  -1.119  -0.627  -0.477
 -0.477
 -- Virtual --
  0.037   0.126   0.139   0.140   0.183   0.215   0.319   0.320
  0.470   0.470   0.491   0.575   0.607   0.607   0.895   0.921
  0.921   1.031   1.359   1.359   1.364   1.364   1.428   1.788
  1.854   1.854   2.430  12.425  12.425  12.700  16.022  16.022
 16.030  16.030  16.063  20.282
 --------------------------------------------------------------
 
          Ground-State Mulliken Net Atomic Charges

     Atom                 Charge (a.u.)    Spin (a.u.)
  --------------------------------------------------------
      1 Cl                   -0.118240       0.000000
      2 H                     0.118240       0.000000
  --------------------------------------------------------
  Sum of atomic charges =     0.000000
  Sum of spin   charges =     0.000000

 -----------------------------------------------------------------
                    Cartesian Multipole Moments
 -----------------------------------------------------------------
    Charge (ESU x 10^10)
                 0.0000
    Dipole Moment (Debye)
         X      -0.0000      Y       0.0000      Z       1.2343
       Tot       1.2343
    Quadrupole Moments (Debye-Ang)
        XX     -14.1409     XY      -0.0000     YY     -14.1446
        XZ      -0.0000     YZ       0.0000     ZZ     -10.1831
    Octopole Moments (Debye-Ang^2)
       XXX      -0.0000    XXY       0.0000    XYY      -0.0000
       YYY       0.0000    XXZ      -0.8555    XYZ      -0.0000
       YYZ      -0.8554    XZZ      -0.0000    YZZ       0.0000
       ZZZ       0.4877
    Hexadecapole Moments (Debye-Ang^3)
      XXXX     -16.5713   XXXY      -0.0000   XXYY      -5.5268
      XYYY      -0.0000   YYYY     -16.5898   XXXZ      -0.0000
      XXYZ      -0.0000   XYYZ      -0.0000   YYYZ      -0.0000
      XXZZ      -5.8619   XYZZ      -0.0000   YYZZ      -5.8648
      XZZZ      -0.0000   YZZZ      -0.0000   ZZZZ     -13.2697
 -----------------------------------------------------------------
Archival summary:
1\1\n0046.mhg0\SP\ProcedureUnspecified\BasisUnspecified\l11\yhljason\ThuJul211:07:262020ThuJul211:07:262020\0\\#,ProcedureUnspecified,BasisUnspecified,\\0,1\Cl\H,1,1.2746\\HF=-460.092007\\@

 Total job time:  10.59s(wall), 62.02s(cpu) 
 Thu Jul  2 11:07:26 2020

        *************************************************************
        *                                                           *
        *  Thank you very much for using Q-Chem.  Have a nice day.  *
        *                                                           *
        *************************************************************


 
User input: 3 of 6 
 
Q-Chem Developer Version!
                  Welcome to Q-Chem
     A Quantum Leap Into The Future Of Chemistry


 Q-Chem 5.1, Q-Chem, Inc., Pleasanton, CA (2018)

 Yihan Shao,  Zhengting Gan,  E. Epifanovsky,  A. T. B. Gilbert,  M. Wormit,  
 J. Kussmann,  A. W. Lange,  A. Behn,  Jia Deng,  Xintian Feng,  D. Ghosh,  
 M. Goldey,  P. R. Horn,  L. D. Jacobson,  I. Kaliman,  T. Kus,  A. Landau,  
 Jie Liu,  E. I. Proynov,  R. M. Richard,  R. P. Steele,  E. J. Sundstrom,  
 H. L. Woodcock III,  P. M. Zimmerman,  D. Zuev,  B. Albrecht,  E. Alguire,  
 S. A. Baeppler,  D. Barton,  Z. Benda,  Y. A. Bernard,  E. J. Berquist,  
 K. B. Bravaya,  H. Burton,  D. Casanova,  Chun-Min Chang,  Yunqing Chen,  
 A. Chien,  K. D. Closser,  M. P. Coons,  S. Coriani,  S. Dasgupta,  
 A. L. Dempwolff,  M. Diedenhofen,  Hainam Do,  R. G. Edgar,  Po-Tung Fang,  
 S. Faraji,  S. Fatehi,  Qingguo Feng,  K. D. Fenk,  J. Fosso-Tande,  
 Qinghui Ge,  A. Ghysels,  G. Gidofalvi,  J. Gomes,  J. Gonthier,  A. Gunina,  
 D. Hait,  M. W. D. Hanson-Heine,  P. H. P. Harbach,  A. W. Hauser,  
 J. E. Herr,  E. G. Hohenstein,  Z. C. Holden,  Kerwin Hui,  B. C. Huynh,  
 T.-C. Jagau,  Hyunjun Ji,  B. Kaduk,  K. Khistyaev,  Jaehoon Kim,  
 P. Klunzinger,  K. Koh,  D. Kosenkov,  L. Koulias,  T. Kowalczyk,  
 C. M. Krauter,  A. Kunitsa,  Ka Un Lao,  A. Laurent,  K. V. Lawler,  
 Joonho Lee,  D. Lefrancois,  S. Lehtola,  D. S. Levine,  Yi-Pei Li,  
 You-Sheng Lin,  Fenglai Liu,  E. Livshits,  A. Luenser,  P. Manohar,  
 E. Mansoor,  S. F. Manzer,  Shan-Ping Mao,  Yuezhi Mao,  N. Mardirossian,  
 A. V. Marenich,  T. Markovich,  L. A. Martinez-Martinez,  S. A. Maurer,  
 N. J. Mayhall,  S. C. McKenzie,  J.-M. Mewes,  A. F. Morrison,  
 J. W. Mullinax,  K. Nanda,  T. S. Nguyen-Beck,  R. Olivares-Amaya,  
 J. A. Parkhill,  T. M. Perrine,  F. Plasser,  P. Pokhilko,  S. Prager,  
 A. Prociuk,  E. Ramos,  D. R. Rehn,  F. Rob,  M. Schneider,  N. Sergueev,  
 S. M. Sharada,  S. Sharma,  D. W. Small,  T. Stauch,  T. Stein,  
 Yu-Chuan Su,  A. J. W. Thom,  A. Tkatchenko,  T. Tsuchimochi,  N. M. Tubman,  
 L. Vogt,  M. L. Vidal,  O. Vydrov,  M. A. Watson,  J. Wenzel,  
 M. de Wergifosse,  T. A. Wesolowski,  A. White,  J. Witte,  A. Yamada,  
 Jun Yang,  K. Yao,  S. Yeganeh,  S. R. Yost,  Zhi-Qiang You,  A. Zech,  
 Igor Ying Zhang,  Xing Zhang,  Yan Zhao,  Ying Zhu,  B. R. Brooks,  
 G. K. L. Chan,  C. J. Cramer,  M. S. Gordon,  W. J. Hehre,  A. Klamt,  
 M. W. Schmidt,  C. D. Sherrill,  D. G. Truhlar,  A. Aspuru-Guzik,  R. Baer,  
 A. T. Bell,  N. A. Besley,  Jeng-Da Chai,  A. E. DePrince, III,  
 R. A. DiStasio Jr.,  A. Dreuw,  B. D. Dunietz,  T. R. Furlani,  
 Chao-Ping Hsu,  Yousung Jung,  Jing Kong,  D. S. Lambrecht,  WanZhen Liang,  
 C. Ochsenfeld,  V. A. Rassolov,  L. V. Slipchenko,  J. E. Subotnik,  
 T. Van Voorhis,  J. M. Herbert,  A. I. Krylov,  P. M. W. Gill,  M. Head-Gordon

 Contributors to earlier versions of Q-Chem not listed above: 
 R. D. Adamson,  B. Austin,  J. Baker,  G. J. O. Beran,  K. Brandhorst,  
 S. T. Brown,  E. F. C. Byrd,  A. K. Chakraborty,  C.-L. Cheng,  
 Siu Hung Chien,  D. M. Chipman,  D. L. Crittenden,  H. Dachsel,  
 R. J. Doerksen,  A. D. Dutoi,  L. Fusti-Molnar,  W. A. Goddard III,  
 A. Golubeva-Zadorozhnaya,  S. R. Gwaltney,  G. Hawkins,  A. Heyden,  
 S. Hirata,  G. Kedziora,  F. J. Keil,  C. Kelley,  Jihan Kim,  R. A. King,  
 R. Z. Khaliullin,  P. P. Korambath,  W. Kurlancheek,  A. M. Lee,  M. S. Lee,  
 S. V. Levchenko,  Ching Yeh Lin,  D. Liotard,  R. C. Lochan,  I. Lotan,  
 P. E. Maslen,  N. Nair,  D. P. O'Neill,  D. Neuhauser,  E. Neuscamman,  
 C. M. Oana,  R. Olson,  B. Peters,  R. Peverati,  P. A. Pieniazek,  
 Y. M. Rhee,  J. Ritchie,  M. A. Rohrdanz,  E. Rosta,  N. J. Russ,  
 H. F. Schaefer III,  N. E. Schultz,  N. Shenvi,  A. C. Simmonett,  A. Sodt,  
 D. Stuck,  K. S. Thanthiriwatte,  V. Vanovschi,  Tao Wang,  A. Warshel,  
 C. F. Williams,  Q. Wu,  X. Xu,  W. Zhang

 Please cite Q-Chem as follows:
 Y. Shao et al., Mol. Phys. 113, 184-215 (2015)
 DOI: 10.1080/00268976.2014.952696

 Q-Chem 5.1.1 for Intel X86 EM64T Linux

 Parts of Q-Chem use Armadillo 8.300.2 (Tropical Shenanigans).
 http://arma.sourceforge.net/

 Q-Chem begins on Thu Jul  2 11:07:26 2020  

Host: n0046.mhg0
0

     Scratch files written to /local/scratch/users/yhljason/HCl_ccsdT_aug-cc-pcVDZ.inp20200702023627//
The previous job contains 0 fragments, simply inherited here
Input Ideriv = 0
Curr. Ideriv = -1
Max.  Ideriv = 0

Checking the input file for inconsistencies... 	...done.

--------------------------------------------------------------
User input:
--------------------------------------------------------------
$molecule
read
$end

$rem

jobtype sp
method CCSD(T)
xc_grid 000099000590
basis aug-cc-pcVDZ
max_scf_cycles 200
thresh 14
scf_convergence 8
mem_total 128000
cc_memory 96000
cc_backend xm
mem_static 1500
symmetry false
sym_ignore true
scf_guess read
unrestricted true
scf_algorithm gdm
n_frozen_core 0
$end

$multipole_field
YY -0.0001
$end


--------------------------------------------------------------
 ----------------------------------------------------------------
             Standard Nuclear Orientation (Angstroms)
    I     Atom           X                Y                Z
 ----------------------------------------------------------------
    1      Cl      0.0000000000     0.0000000000     0.0000000000
    2      H       0.0000000000     0.0000000000     1.2746000000
 ----------------------------------------------------------------
 Nuclear Repulsion Energy =     7.0579103904 hartrees
 There are        9 alpha and        9 beta electrons
 Requested basis set is aug-cc-pCVDZ
 There are 19 shells and 45 basis functions
 Total memory of 128000MB is distributed as follows: 
   QALLOC including MEM_STATIC uses 32000MB
   MEM_STATIC is set to 1500MB
   CCMAN JOB total memory use is  96000MB
 Warning: actual memory use might exceed 128000MB

 Total QAlloc Memory Limit  32000 MB
 Mega-Array Size      1467 MB
 MEM_STATIC part      1500 MB

                       Distance Matrix (Angstroms)
             Cl(  1)
   H (  2)  1.274600
 
 Applying Cartesian multipole field
    Component          Value
    ---------          -----
     (0,2,0)       -1.00000E-04
 A cutoff of  1.0D-14 yielded    190 shell pairs
 There are      1086 function pairs (      1242 Cartesian)
 
 -------------------------------------------------------
 OpenMP Integral Computing Module                       
 Release: version 1.0, May 2013, Q-Chem Inc. Pittsburgh 
 -------------------------------------------------------
 Integral Job Info:
 Integral job number is                      11
 Integral operator is                         1
 short-range coefficients                     0
 long-range coefficients              100000000
 Omega coefficients                           0
 if combine SR and LR in K                    0
 Integral screening is                        0
 Integral computing path is                   2
 max size of driver memory is            800000
 size of driver memory is                593474
 size of scratch memory is             29825385
 max col of scratch BK array               1296
 max len of scratch array in speh3          155
 max len of scratch index in speh4           18
 max int batch size is                      520
 min int batch size is                       52
 fixed nKL is                                41
 max L of basis functions is                  2
 order of int derivative is                   0
 number of shells is                         19
 number of basis is                          48
 number of cartesian basis is                48
 number of contracted shell pairs           190
 number of primitive shell pairs           2194
 maxK2 (contraction) of shell pair          121
 max number of K2 of shell pair               1
 max number of CS2 of shell pair             25
 max number of PS2 of shell pair            726
 mem total for path MDJ                  514994
 -------------------------------------------------------
 Smallest overlap matrix eigenvalue = 2.21E-03
 Guess MOs from SCF MO coefficient file

 -----------------------------------------------------------------------
  General SCF calculation program by
  Eric Jon Sundstrom, Paul Horn, Yuezhi Mao, Dmitri Zuev, Alec White,
  David Stuck, Shaama M.S., Shane Yost, Joonho Lee, David Small,
  Daniel Levine, Susi Lehtola, Hugh Burton, Evgeny Epifanovsky
 -----------------------------------------------------------------------
 Hartree-Fock
 using 16 threads for integral computing
 -------------------------------------------------------
 OpenMP Integral computing Module                
 Release: version 2.0, May 2017, Q-Chem Inc. Pleasanton 
 -------------------------------------------------------
 A unrestricted SCF calculation will be
 performed using GDM
 SCF converges when RMS gradient is below 1.0e-08
 ---------------------------------------
  Cycle       Energy        RMS Gradient
 ---------------------------------------
    1    -460.0920068862      2.34e-04   Normal BFGS step
    2    -460.0920071326      8.40e-05   Normal BFGS step
    3    -460.0920071665      9.32e-06   Normal BFGS step
    4    -460.0920071667      2.57e-06   Normal BFGS step
    5    -460.0920071667      1.03e-07   Normal BFGS step
    6    -460.0920071667      3.00e-08   Normal BFGS step
    7    -460.0920071667      4.17e-09  Convergence criterion met
 ---------------------------------------
 SCF time:   CPU 23.84s  wall 1.00s 
<S^2> =          0.000000000
 SCF   energy in the final basis set =     -460.0920071667
 Total energy in the final basis set =     -460.0920071667


 ------------------------------------------------------------------------------

   CCMAN2: suite of methods based on coupled cluster
           and equation of motion theories.

   Components:
   * libvmm-1.3-trunk
     by Evgeny Epifanovsky, Ilya Kaliman.
   * libtensor-2.5-trunk
     by Evgeny Epifanovsky, Michael Wormit, Dmitry Zuev, Sam Manzer, 
        Ilya Kaliman.
   * libcc-2.5-trunk
     by Evgeny Epifanovsky, Arik Landau, Tomasz Kus, Kirill Khistyaev, 
        Dmitry Zuev, Prashant Manohar, Xintian Feng, Anna Krylov, 
        Matthew Goldey, Alec White, Thomas Jagau, Kaushik Nanda, 
        Anastasia Gunina, Alexander Kunitsa, Joonho Lee.

   CCMAN original authors:
   Anna I. Krylov, C. David Sherrill, Steven R. Gwaltney,
   Edward F. C. Byrd (2000)
   Sergey V. Levchenko, Lyudmila V. Slipchenko, Tao Wang,
   Ana-Maria C. Cristian (2003)
   Piotr A. Pieniazek, C. Melania Oana, Evgeny Epifanovsky (2007)
   Prashant Manohar (2009)

 ------------------------------------------------------------------------------


 Calculation will run on 16 cores using libxm for tensor contractions

 ------------------------------------------------------------------------------
Libxm Tensor Library
Copyright (c) 2014-2018 Ilya Kaliman
https://github.com/ilyak/libxm
Reference: https://dx.doi.org/10.1002/jcc.24713
 ------------------------------------------------------------------------------

 
 Alpha MOs, Unrestricted
 -- Occupied --                  
-104.85  -10.58   -8.04   -8.04   -8.04   -1.12   -0.63   -0.48
  1 A     2 A     3 A     4 A     5 A     6 A     7 A     8 A                  
 -0.477
  9 A                                                                          
 -- Virtual --                   
  0.037   0.126   0.139   0.140   0.183   0.215   0.319   0.320
 10 A    11 A    12 A    13 A    14 A    15 A    16 A    17 A                  
  0.470   0.470   0.491   0.575   0.607   0.607   0.895   0.921
 18 A    19 A    20 A    21 A    22 A    23 A    24 A    25 A                  
  0.921   1.031   1.359   1.359   1.364   1.364   1.428   1.788
 26 A    27 A    28 A    29 A    30 A    31 A    32 A    33 A                  
  1.854   1.854   2.430  12.425  12.425  12.700  16.022  16.022
 34 A    35 A    36 A    37 A    38 A    39 A    40 A    41 A                  
 16.030  16.030  16.063  20.282
 42 A    43 A    44 A    45 A                                                  
 
 Beta MOs, Unrestricted
 -- Occupied --                  
-104.85  -10.58   -8.04   -8.04   -8.04   -1.12   -0.63   -0.48
  1 A     2 A     3 A     4 A     5 A     6 A     7 A     8 A                  
 -0.477
  9 A                                                                          
 -- Virtual --                   
  0.037   0.126   0.139   0.140   0.183   0.215   0.319   0.320
 10 A    11 A    12 A    13 A    14 A    15 A    16 A    17 A                  
  0.470   0.470   0.491   0.575   0.607   0.607   0.895   0.921
 18 A    19 A    20 A    21 A    22 A    23 A    24 A    25 A                  
  0.921   1.031   1.359   1.359   1.364   1.364   1.428   1.788
 26 A    27 A    28 A    29 A    30 A    31 A    32 A    33 A                  
  1.854   1.854   2.430  12.425  12.425  12.700  16.022  16.022
 34 A    35 A    36 A    37 A    38 A    39 A    40 A    41 A                  
 16.030  16.030  16.063  20.282
 42 A    43 A    44 A    45 A                                                  

 Occupation and symmetry of molecular orbitals

 Point group: C1 (1 irreducible representation).

                           A     All 
 -------------------------------------
 All molecular orbitals:
  - Alpha                  45    45  
  - Beta                   45    45  
 -------------------------------------
 Alpha orbitals:
  - Frozen occupied        0     0   
  - Active occupied        9     9   
  - Active virtual         36    36  
  - Frozen virtual         0     0   
 -------------------------------------
 Beta orbitals:
  - Frozen occupied        0     0   
  - Active occupied        9     9   
  - Active virtual         36    36  
  - Frozen virtual         0     0   
 -------------------------------------

 Import integrals:   CPU 0.00 s  wall 0.00 s

 Import integrals:   CPU 2.29 s  wall 0.67 s

 MP2 amplitudes:   CPU 0.36 s  wall 0.16 s

Running a double precision version
           CCSD T amplitudes will be solved using DIIS.

           Start     Size      MaxIter   EConv     TConv     
           3         7         100       1.00e-06  1.00e-04  
 ------------------------------------------------------------------------------
           Energy (a.u.)   Ediff      Tdiff       Comment
 ------------------------------------------------------------------------------
          -460.47000411                           
     1    -460.48072818   1.07e-02   4.60e-01     
     2    -460.48374194   3.01e-03   4.19e-02     
     3    -460.48437821   6.36e-04   1.27e-02     
     4    -460.48472140   3.43e-04   6.14e-03     Switched to DIIS steps.
     5    -460.48473694   1.55e-05   8.67e-04     
     6    -460.48473607   8.69e-07   2.40e-04     
     7    -460.48473609   1.65e-08   3.46e-05     
 ------------------------------------------------------------------------------
          -460.48473609                           CCSD T converged.

End of double precision

----------------------------------------
libpt (c) 2016-2018 Ilya Kaliman
Fast Coupled Cluster Triples Corrections
https://github.com/ilyak/libpt
----------------------------------------

 Starting (T) calculation...
 Using double precision libpt code
 (T) calculation completed in 0 sec
 (T) energy is -0.0049916523

 SCF energy                 = -460.09200717
 MP2 energy                 = -460.47000411
 CCSD correlation energy     =   -0.39272892
 CCSD total energy           = -460.48473609
 CCSD(T) correlation energy =   -0.00499165
 CCSD(T) total energy       = -460.48972774

 CCSD  T1^2 = 0.0007  T2^2 = 0.0813  Leading amplitudes:

 Amplitude    Orbitals with energies
 -0.0073       7 (A) A                   ->    20 (A) A                   
              -0.6266                          0.4910                     
 -0.0073       7 (A) B                   ->    20 (A) B                   
              -0.6266                          0.4910                     
  0.0071       8 (A) A                   ->    16 (A) A                   
              -0.4772                          0.3192                     
  0.0071       8 (A) B                   ->    16 (A) B                   
              -0.4772                          0.3192                     

 Amplitude    Orbitals with energies
 -0.0438       7 (A) A       7 (A) B     ->    14 (A) A      14 (A) B     
              -0.6266       -0.6266            0.1829        0.1829       
  0.0438       7 (A) A       7 (A) B     ->    14 (A) B      14 (A) A     
              -0.6266       -0.6266            0.1829        0.1829       
  0.0438       7 (A) B       7 (A) A     ->    14 (A) A      14 (A) B     
              -0.6266       -0.6266            0.1829        0.1829       
 -0.0438       7 (A) B       7 (A) A     ->    14 (A) B      14 (A) A     
              -0.6266       -0.6266            0.1829        0.1829       

 CCSD calculation:   CPU 19.39 s  wall 5.55 s

 Total ccman2 time:   CPU 27.03 s  wall 8.11 s

 
 --------------------------------------------------------------
 
                    Orbital Energies (a.u.)
 --------------------------------------------------------------
 
 Alpha MOs
 -- Occupied --
******* -10.577  -8.045  -8.042  -8.042  -1.119  -0.627  -0.477
 -0.477
 -- Virtual --
  0.037   0.126   0.139   0.140   0.183   0.215   0.319   0.320
  0.470   0.470   0.491   0.575   0.607   0.607   0.895   0.921
  0.921   1.031   1.359   1.359   1.364   1.364   1.428   1.788
  1.854   1.854   2.430  12.425  12.425  12.700  16.022  16.022
 16.030  16.030  16.063  20.282
 
 Beta MOs
 -- Occupied --
******* -10.577  -8.045  -8.042  -8.042  -1.119  -0.627  -0.477
 -0.477
 -- Virtual --
  0.037   0.126   0.139   0.140   0.183   0.215   0.319   0.320
  0.470   0.470   0.491   0.575   0.607   0.607   0.895   0.921
  0.921   1.031   1.359   1.359   1.364   1.364   1.428   1.788
  1.854   1.854   2.430  12.425  12.425  12.700  16.022  16.022
 16.030  16.030  16.063  20.282
 --------------------------------------------------------------
 
          Ground-State Mulliken Net Atomic Charges

     Atom                 Charge (a.u.)    Spin (a.u.)
  --------------------------------------------------------
      1 Cl                   -0.118240       0.000000
      2 H                     0.118240       0.000000
  --------------------------------------------------------
  Sum of atomic charges =     0.000000
  Sum of spin   charges =     0.000000

 -----------------------------------------------------------------
                    Cartesian Multipole Moments
 -----------------------------------------------------------------
    Charge (ESU x 10^10)
                 0.0000
    Dipole Moment (Debye)
         X      -0.0000      Y       0.0000      Z       1.2343
       Tot       1.2343
    Quadrupole Moments (Debye-Ang)
        XX     -14.1446     XY       0.0000     YY     -14.1409
        XZ      -0.0000     YZ       0.0000     ZZ     -10.1831
    Octopole Moments (Debye-Ang^2)
       XXX      -0.0000    XXY       0.0000    XYY       0.0000
       YYY       0.0000    XXZ      -0.8554    XYZ       0.0000
       YYZ      -0.8555    XZZ      -0.0000    YZZ       0.0000
       ZZZ       0.4877
    Hexadecapole Moments (Debye-Ang^3)
      XXXX     -16.5898   XXXY       0.0000   XXYY      -5.5268
      XYYY       0.0000   YYYY     -16.5713   XXXZ      -0.0000
      XXYZ       0.0000   XYYZ      -0.0000   YYYZ       0.0000
      XXZZ      -5.8648   XYZZ       0.0000   YYZZ      -5.8619
      XZZZ       0.0000   YZZZ       0.0000   ZZZZ     -13.2697
 -----------------------------------------------------------------
Archival summary:
1\1\n0046.mhg0\SP\ProcedureUnspecified\BasisUnspecified\l11\yhljason\ThuJul211:07:372020ThuJul211:07:372020\0\\#,ProcedureUnspecified,BasisUnspecified,\\0,1\Cl\H,1,1.2746\\HF=-460.092007\\@

 Total job time:  10.40s(wall), 60.02s(cpu) 
 Thu Jul  2 11:07:37 2020

        *************************************************************
        *                                                           *
        *  Thank you very much for using Q-Chem.  Have a nice day.  *
        *                                                           *
        *************************************************************


 
User input: 4 of 6 
 
Q-Chem Developer Version!
                  Welcome to Q-Chem
     A Quantum Leap Into The Future Of Chemistry


 Q-Chem 5.1, Q-Chem, Inc., Pleasanton, CA (2018)

 Yihan Shao,  Zhengting Gan,  E. Epifanovsky,  A. T. B. Gilbert,  M. Wormit,  
 J. Kussmann,  A. W. Lange,  A. Behn,  Jia Deng,  Xintian Feng,  D. Ghosh,  
 M. Goldey,  P. R. Horn,  L. D. Jacobson,  I. Kaliman,  T. Kus,  A. Landau,  
 Jie Liu,  E. I. Proynov,  R. M. Richard,  R. P. Steele,  E. J. Sundstrom,  
 H. L. Woodcock III,  P. M. Zimmerman,  D. Zuev,  B. Albrecht,  E. Alguire,  
 S. A. Baeppler,  D. Barton,  Z. Benda,  Y. A. Bernard,  E. J. Berquist,  
 K. B. Bravaya,  H. Burton,  D. Casanova,  Chun-Min Chang,  Yunqing Chen,  
 A. Chien,  K. D. Closser,  M. P. Coons,  S. Coriani,  S. Dasgupta,  
 A. L. Dempwolff,  M. Diedenhofen,  Hainam Do,  R. G. Edgar,  Po-Tung Fang,  
 S. Faraji,  S. Fatehi,  Qingguo Feng,  K. D. Fenk,  J. Fosso-Tande,  
 Qinghui Ge,  A. Ghysels,  G. Gidofalvi,  J. Gomes,  J. Gonthier,  A. Gunina,  
 D. Hait,  M. W. D. Hanson-Heine,  P. H. P. Harbach,  A. W. Hauser,  
 J. E. Herr,  E. G. Hohenstein,  Z. C. Holden,  Kerwin Hui,  B. C. Huynh,  
 T.-C. Jagau,  Hyunjun Ji,  B. Kaduk,  K. Khistyaev,  Jaehoon Kim,  
 P. Klunzinger,  K. Koh,  D. Kosenkov,  L. Koulias,  T. Kowalczyk,  
 C. M. Krauter,  A. Kunitsa,  Ka Un Lao,  A. Laurent,  K. V. Lawler,  
 Joonho Lee,  D. Lefrancois,  S. Lehtola,  D. S. Levine,  Yi-Pei Li,  
 You-Sheng Lin,  Fenglai Liu,  E. Livshits,  A. Luenser,  P. Manohar,  
 E. Mansoor,  S. F. Manzer,  Shan-Ping Mao,  Yuezhi Mao,  N. Mardirossian,  
 A. V. Marenich,  T. Markovich,  L. A. Martinez-Martinez,  S. A. Maurer,  
 N. J. Mayhall,  S. C. McKenzie,  J.-M. Mewes,  A. F. Morrison,  
 J. W. Mullinax,  K. Nanda,  T. S. Nguyen-Beck,  R. Olivares-Amaya,  
 J. A. Parkhill,  T. M. Perrine,  F. Plasser,  P. Pokhilko,  S. Prager,  
 A. Prociuk,  E. Ramos,  D. R. Rehn,  F. Rob,  M. Schneider,  N. Sergueev,  
 S. M. Sharada,  S. Sharma,  D. W. Small,  T. Stauch,  T. Stein,  
 Yu-Chuan Su,  A. J. W. Thom,  A. Tkatchenko,  T. Tsuchimochi,  N. M. Tubman,  
 L. Vogt,  M. L. Vidal,  O. Vydrov,  M. A. Watson,  J. Wenzel,  
 M. de Wergifosse,  T. A. Wesolowski,  A. White,  J. Witte,  A. Yamada,  
 Jun Yang,  K. Yao,  S. Yeganeh,  S. R. Yost,  Zhi-Qiang You,  A. Zech,  
 Igor Ying Zhang,  Xing Zhang,  Yan Zhao,  Ying Zhu,  B. R. Brooks,  
 G. K. L. Chan,  C. J. Cramer,  M. S. Gordon,  W. J. Hehre,  A. Klamt,  
 M. W. Schmidt,  C. D. Sherrill,  D. G. Truhlar,  A. Aspuru-Guzik,  R. Baer,  
 A. T. Bell,  N. A. Besley,  Jeng-Da Chai,  A. E. DePrince, III,  
 R. A. DiStasio Jr.,  A. Dreuw,  B. D. Dunietz,  T. R. Furlani,  
 Chao-Ping Hsu,  Yousung Jung,  Jing Kong,  D. S. Lambrecht,  WanZhen Liang,  
 C. Ochsenfeld,  V. A. Rassolov,  L. V. Slipchenko,  J. E. Subotnik,  
 T. Van Voorhis,  J. M. Herbert,  A. I. Krylov,  P. M. W. Gill,  M. Head-Gordon

 Contributors to earlier versions of Q-Chem not listed above: 
 R. D. Adamson,  B. Austin,  J. Baker,  G. J. O. Beran,  K. Brandhorst,  
 S. T. Brown,  E. F. C. Byrd,  A. K. Chakraborty,  C.-L. Cheng,  
 Siu Hung Chien,  D. M. Chipman,  D. L. Crittenden,  H. Dachsel,  
 R. J. Doerksen,  A. D. Dutoi,  L. Fusti-Molnar,  W. A. Goddard III,  
 A. Golubeva-Zadorozhnaya,  S. R. Gwaltney,  G. Hawkins,  A. Heyden,  
 S. Hirata,  G. Kedziora,  F. J. Keil,  C. Kelley,  Jihan Kim,  R. A. King,  
 R. Z. Khaliullin,  P. P. Korambath,  W. Kurlancheek,  A. M. Lee,  M. S. Lee,  
 S. V. Levchenko,  Ching Yeh Lin,  D. Liotard,  R. C. Lochan,  I. Lotan,  
 P. E. Maslen,  N. Nair,  D. P. O'Neill,  D. Neuhauser,  E. Neuscamman,  
 C. M. Oana,  R. Olson,  B. Peters,  R. Peverati,  P. A. Pieniazek,  
 Y. M. Rhee,  J. Ritchie,  M. A. Rohrdanz,  E. Rosta,  N. J. Russ,  
 H. F. Schaefer III,  N. E. Schultz,  N. Shenvi,  A. C. Simmonett,  A. Sodt,  
 D. Stuck,  K. S. Thanthiriwatte,  V. Vanovschi,  Tao Wang,  A. Warshel,  
 C. F. Williams,  Q. Wu,  X. Xu,  W. Zhang

 Please cite Q-Chem as follows:
 Y. Shao et al., Mol. Phys. 113, 184-215 (2015)
 DOI: 10.1080/00268976.2014.952696

 Q-Chem 5.1.1 for Intel X86 EM64T Linux

 Parts of Q-Chem use Armadillo 8.300.2 (Tropical Shenanigans).
 http://arma.sourceforge.net/

 Q-Chem begins on Thu Jul  2 11:07:37 2020  

Host: n0046.mhg0
0

     Scratch files written to /local/scratch/users/yhljason/HCl_ccsdT_aug-cc-pcVDZ.inp20200702023627//
The previous job contains 0 fragments, simply inherited here
Input Ideriv = 0
Curr. Ideriv = -1
Max.  Ideriv = 0

Checking the input file for inconsistencies... 	...done.

--------------------------------------------------------------
User input:
--------------------------------------------------------------
$molecule
read
$end

$rem

jobtype sp
method CCSD(T)
xc_grid 000099000590
basis aug-cc-pcVDZ
max_scf_cycles 200
thresh 14
scf_convergence 8
mem_total 128000
cc_memory 96000
cc_backend xm
mem_static 1500
symmetry false
sym_ignore true
scf_guess read
unrestricted true
scf_algorithm gdm
n_frozen_core 0
$end

$multipole_field
ZZ -0.0001
$end


--------------------------------------------------------------
 ----------------------------------------------------------------
             Standard Nuclear Orientation (Angstroms)
    I     Atom           X                Y                Z
 ----------------------------------------------------------------
    1      Cl      0.0000000000     0.0000000000     0.0000000000
    2      H       0.0000000000     0.0000000000     1.2746000000
 ----------------------------------------------------------------
 Nuclear Repulsion Energy =     7.0579103904 hartrees
 There are        9 alpha and        9 beta electrons
 Requested basis set is aug-cc-pCVDZ
 There are 19 shells and 45 basis functions
 Total memory of 128000MB is distributed as follows: 
   QALLOC including MEM_STATIC uses 32000MB
   MEM_STATIC is set to 1500MB
   CCMAN JOB total memory use is  96000MB
 Warning: actual memory use might exceed 128000MB

 Total QAlloc Memory Limit  32000 MB
 Mega-Array Size      1467 MB
 MEM_STATIC part      1500 MB

                       Distance Matrix (Angstroms)
             Cl(  1)
   H (  2)  1.274600
 
 Applying Cartesian multipole field
    Component          Value
    ---------          -----
     (0,0,2)       -1.00000E-04
 Nucleus-field energy     =    -0.0005801570 hartrees
 A cutoff of  1.0D-14 yielded    190 shell pairs
 There are      1086 function pairs (      1242 Cartesian)
 
 -------------------------------------------------------
 OpenMP Integral Computing Module                       
 Release: version 1.0, May 2013, Q-Chem Inc. Pittsburgh 
 -------------------------------------------------------
 Integral Job Info:
 Integral job number is                      11
 Integral operator is                         1
 short-range coefficients                     0
 long-range coefficients              100000000
 Omega coefficients                           0
 if combine SR and LR in K                    0
 Integral screening is                        0
 Integral computing path is                   2
 max size of driver memory is            800000
 size of driver memory is                593474
 size of scratch memory is             29825385
 max col of scratch BK array               1296
 max len of scratch array in speh3          155
 max len of scratch index in speh4           18
 max int batch size is                      520
 min int batch size is                       52
 fixed nKL is                                41
 max L of basis functions is                  2
 order of int derivative is                   0
 number of shells is                         19
 number of basis is                          48
 number of cartesian basis is                48
 number of contracted shell pairs           190
 number of primitive shell pairs           2194
 maxK2 (contraction) of shell pair          121
 max number of K2 of shell pair               1
 max number of CS2 of shell pair             25
 max number of PS2 of shell pair            726
 mem total for path MDJ                  514994
 -------------------------------------------------------
 Smallest overlap matrix eigenvalue = 2.21E-03
 Guess MOs from SCF MO coefficient file

 -----------------------------------------------------------------------
  General SCF calculation program by
  Eric Jon Sundstrom, Paul Horn, Yuezhi Mao, Dmitri Zuev, Alec White,
  David Stuck, Shaama M.S., Shane Yost, Joonho Lee, David Small,
  Daniel Levine, Susi Lehtola, Hugh Burton, Evgeny Epifanovsky
 -----------------------------------------------------------------------
 Hartree-Fock
 using 16 threads for integral computing
 -------------------------------------------------------
 OpenMP Integral computing Module                
 Release: version 2.0, May 2017, Q-Chem Inc. Pleasanton 
 -------------------------------------------------------
 A unrestricted SCF calculation will be
 performed using GDM
 SCF converges when RMS gradient is below 1.0e-08
 ---------------------------------------
  Cycle       Energy        RMS Gradient
 ---------------------------------------
    1    -460.0923014198      2.91e-04   Normal BFGS step
    2    -460.0923019340      1.00e-04   Normal BFGS step
    3    -460.0923019822      1.39e-05   Normal BFGS step
    4    -460.0923019836      5.72e-06   Normal BFGS step
    5    -460.0923019837      1.02e-06   Normal BFGS step
    6    -460.0923019837      2.13e-07   Normal BFGS step
    7    -460.0923019837      5.55e-08   Normal BFGS step
    8    -460.0923019837      7.40e-09  Convergence criterion met
 ---------------------------------------
 SCF time:   CPU 31.02s  wall 2.00s 
<S^2> =          0.000000000
 SCF   energy in the final basis set =     -460.0923019837
 Total energy in the final basis set =     -460.0923019837


 ------------------------------------------------------------------------------

   CCMAN2: suite of methods based on coupled cluster
           and equation of motion theories.

   Components:
   * libvmm-1.3-trunk
     by Evgeny Epifanovsky, Ilya Kaliman.
   * libtensor-2.5-trunk
     by Evgeny Epifanovsky, Michael Wormit, Dmitry Zuev, Sam Manzer, 
        Ilya Kaliman.
   * libcc-2.5-trunk
     by Evgeny Epifanovsky, Arik Landau, Tomasz Kus, Kirill Khistyaev, 
        Dmitry Zuev, Prashant Manohar, Xintian Feng, Anna Krylov, 
        Matthew Goldey, Alec White, Thomas Jagau, Kaushik Nanda, 
        Anastasia Gunina, Alexander Kunitsa, Joonho Lee.

   CCMAN original authors:
   Anna I. Krylov, C. David Sherrill, Steven R. Gwaltney,
   Edward F. C. Byrd (2000)
   Sergey V. Levchenko, Lyudmila V. Slipchenko, Tao Wang,
   Ana-Maria C. Cristian (2003)
   Piotr A. Pieniazek, C. Melania Oana, Evgeny Epifanovsky (2007)
   Prashant Manohar (2009)

 ------------------------------------------------------------------------------


 Calculation will run on 16 cores using libxm for tensor contractions

 ------------------------------------------------------------------------------
Libxm Tensor Library
Copyright (c) 2014-2018 Ilya Kaliman
https://github.com/ilyak/libxm
Reference: https://dx.doi.org/10.1002/jcc.24713
 ------------------------------------------------------------------------------

 
 Alpha MOs, Unrestricted
 -- Occupied --                  
-104.85  -10.58   -8.04   -8.04   -8.04   -1.12   -0.63   -0.48
  1 A     2 A     3 A     4 A     5 A     6 A     7 A     8 A                  
 -0.477
  9 A                                                                          
 -- Virtual --                   
  0.038   0.128   0.139   0.139   0.184   0.215   0.320   0.320
 10 A    11 A    12 A    13 A    14 A    15 A    16 A    17 A                  
  0.470   0.470   0.492   0.576   0.607   0.607   0.896   0.921
 18 A    19 A    20 A    21 A    22 A    23 A    24 A    25 A                  
  0.921   1.032   1.359   1.359   1.364   1.364   1.428   1.788
 26 A    27 A    28 A    29 A    30 A    31 A    32 A    33 A                  
  1.854   1.854   2.430  12.425  12.425  12.700  16.022  16.022
 34 A    35 A    36 A    37 A    38 A    39 A    40 A    41 A                  
 16.030  16.030  16.063  20.282
 42 A    43 A    44 A    45 A                                                  
 
 Beta MOs, Unrestricted
 -- Occupied --                  
-104.85  -10.58   -8.04   -8.04   -8.04   -1.12   -0.63   -0.48
  1 A     2 A     3 A     4 A     5 A     6 A     7 A     8 A                  
 -0.477
  9 A                                                                          
 -- Virtual --                   
  0.038   0.128   0.139   0.139   0.184   0.215   0.320   0.320
 10 A    11 A    12 A    13 A    14 A    15 A    16 A    17 A                  
  0.470   0.470   0.492   0.576   0.607   0.607   0.896   0.921
 18 A    19 A    20 A    21 A    22 A    23 A    24 A    25 A                  
  0.921   1.032   1.359   1.359   1.364   1.364   1.428   1.788
 26 A    27 A    28 A    29 A    30 A    31 A    32 A    33 A                  
  1.854   1.854   2.430  12.425  12.425  12.700  16.022  16.022
 34 A    35 A    36 A    37 A    38 A    39 A    40 A    41 A                  
 16.030  16.030  16.063  20.282
 42 A    43 A    44 A    45 A                                                  

 Occupation and symmetry of molecular orbitals

 Point group: C1 (1 irreducible representation).

                           A     All 
 -------------------------------------
 All molecular orbitals:
  - Alpha                  45    45  
  - Beta                   45    45  
 -------------------------------------
 Alpha orbitals:
  - Frozen occupied        0     0   
  - Active occupied        9     9   
  - Active virtual         36    36  
  - Frozen virtual         0     0   
 -------------------------------------
 Beta orbitals:
  - Frozen occupied        0     0   
  - Active occupied        9     9   
  - Active virtual         36    36  
  - Frozen virtual         0     0   
 -------------------------------------

 Import integrals:   CPU 0.00 s  wall 0.00 s

 Import integrals:   CPU 2.29 s  wall 0.62 s

 MP2 amplitudes:   CPU 0.36 s  wall 0.15 s

Running a double precision version
           CCSD T amplitudes will be solved using DIIS.

           Start     Size      MaxIter   EConv     TConv     
           3         7         100       1.00e-06  1.00e-04  
 ------------------------------------------------------------------------------
           Energy (a.u.)   Ediff      Tdiff       Comment
 ------------------------------------------------------------------------------
          -460.47029028                           
     1    -460.48101100   1.07e-02   4.60e-01     
     2    -460.48402320   3.01e-03   4.19e-02     
     3    -460.48465906   6.36e-04   1.27e-02     
     4    -460.48500194   3.43e-04   6.14e-03     Switched to DIIS steps.
     5    -460.48501744   1.55e-05   8.65e-04     
     6    -460.48501657   8.67e-07   2.40e-04     
     7    -460.48501659   1.70e-08   3.45e-05     
 ------------------------------------------------------------------------------
          -460.48501659                           CCSD T converged.

End of double precision

----------------------------------------
libpt (c) 2016-2018 Ilya Kaliman
Fast Coupled Cluster Triples Corrections
https://github.com/ilyak/libpt
----------------------------------------

 Starting (T) calculation...
 Using double precision libpt code
 (T) calculation completed in 0 sec
 (T) energy is -0.0049904445

 SCF energy                 = -460.09230198
 MP2 energy                 = -460.47029028
 CCSD correlation energy     =   -0.39271460
 CCSD total energy           = -460.48501659
 CCSD(T) correlation energy =   -0.00499044
 CCSD(T) total energy       = -460.49000703

 CCSD  T1^2 = 0.0007  T2^2 = 0.0812  Leading amplitudes:

 Amplitude    Orbitals with energies
 -0.0073       7 (A) A                   ->    20 (A) A                   
              -0.6264                          0.4919                     
 -0.0073       7 (A) B                   ->    20 (A) B                   
              -0.6264                          0.4919                     
 -0.0071       9 (A) B                   ->    17 (A) B                   
              -0.4772                          0.3199                     
 -0.0071       9 (A) A                   ->    17 (A) A                   
[...]
 A. L. Dempwolff,  M. Diedenhofen,  Hainam Do,  R. G. Edgar,  Po-Tung Fang,  
 S. Faraji,  S. Fatehi,  Qingguo Feng,  K. D. Fenk,  J. Fosso-Tande,  
 Qinghui Ge,  A. Ghysels,  G. Gidofalvi,  J. Gomes,  J. Gonthier,  A. Gunina,  
 D. Hait,  M. W. D. Hanson-Heine,  P. H. P. Harbach,  A. W. Hauser,  
 J. E. Herr,  E. G. Hohenstein,  Z. C. Holden,  Kerwin Hui,  B. C. Huynh,  
 T.-C. Jagau,  Hyunjun Ji,  B. Kaduk,  K. Khistyaev,  Jaehoon Kim,  
 P. Klunzinger,  K. Koh,  D. Kosenkov,  L. Koulias,  T. Kowalczyk,  
 C. M. Krauter,  A. Kunitsa,  Ka Un Lao,  A. Laurent,  K. V. Lawler,  
 Joonho Lee,  D. Lefrancois,  S. Lehtola,  D. S. Levine,  Yi-Pei Li,  
 You-Sheng Lin,  Fenglai Liu,  E. Livshits,  A. Luenser,  P. Manohar,  
 E. Mansoor,  S. F. Manzer,  Shan-Ping Mao,  Yuezhi Mao,  N. Mardirossian,  
 A. V. Marenich,  T. Markovich,  L. A. Martinez-Martinez,  S. A. Maurer,  
 N. J. Mayhall,  S. C. McKenzie,  J.-M. Mewes,  A. F. Morrison,  
 J. W. Mullinax,  K. Nanda,  T. S. Nguyen-Beck,  R. Olivares-Amaya,  
 J. A. Parkhill,  T. M. Perrine,  F. Plasser,  P. Pokhilko,  S. Prager,  
 A. Prociuk,  E. Ramos,  D. R. Rehn,  F. Rob,  M. Schneider,  N. Sergueev,  
 S. M. Sharada,  S. Sharma,  D. W. Small,  T. Stauch,  T. Stein,  
 Yu-Chuan Su,  A. J. W. Thom,  A. Tkatchenko,  T. Tsuchimochi,  N. M. Tubman,  
 L. Vogt,  M. L. Vidal,  O. Vydrov,  M. A. Watson,  J. Wenzel,  
 M. de Wergifosse,  T. A. Wesolowski,  A. White,  J. Witte,  A. Yamada,  
 Jun Yang,  K. Yao,  S. Yeganeh,  S. R. Yost,  Zhi-Qiang You,  A. Zech,  
 Igor Ying Zhang,  Xing Zhang,  Yan Zhao,  Ying Zhu,  B. R. Brooks,  
 G. K. L. Chan,  C. J. Cramer,  M. S. Gordon,  W. J. Hehre,  A. Klamt,  
 M. W. Schmidt,  C. D. Sherrill,  D. G. Truhlar,  A. Aspuru-Guzik,  R. Baer,  
 A. T. Bell,  N. A. Besley,  Jeng-Da Chai,  A. E. DePrince, III,  
 R. A. DiStasio Jr.,  A. Dreuw,  B. D. Dunietz,  T. R. Furlani,  
 Chao-Ping Hsu,  Yousung Jung,  Jing Kong,  D. S. Lambrecht,  WanZhen Liang,  
 C. Ochsenfeld,  V. A. Rassolov,  L. V. Slipchenko,  J. E. Subotnik,  
 T. Van Voorhis,  J. M. Herbert,  A. I. Krylov,  P. M. W. Gill,  M. Head-Gordon

 Contributors to earlier versions of Q-Chem not listed above: 
 R. D. Adamson,  B. Austin,  J. Baker,  G. J. O. Beran,  K. Brandhorst,  
 S. T. Brown,  E. F. C. Byrd,  A. K. Chakraborty,  C.-L. Cheng,  
 Siu Hung Chien,  D. M. Chipman,  D. L. Crittenden,  H. Dachsel,  
 R. J. Doerksen,  A. D. Dutoi,  L. Fusti-Molnar,  W. A. Goddard III,  
 A. Golubeva-Zadorozhnaya,  S. R. Gwaltney,  G. Hawkins,  A. Heyden,  
 S. Hirata,  G. Kedziora,  F. J. Keil,  C. Kelley,  Jihan Kim,  R. A. King,  
 R. Z. Khaliullin,  P. P. Korambath,  W. Kurlancheek,  A. M. Lee,  M. S. Lee,  
 S. V. Levchenko,  Ching Yeh Lin,  D. Liotard,  R. C. Lochan,  I. Lotan,  
 P. E. Maslen,  N. Nair,  D. P. O'Neill,  D. Neuhauser,  E. Neuscamman,  
 C. M. Oana,  R. Olson,  B. Peters,  R. Peverati,  P. A. Pieniazek,  
 Y. M. Rhee,  J. Ritchie,  M. A. Rohrdanz,  E. Rosta,  N. J. Russ,  
 H. F. Schaefer III,  N. E. Schultz,  N. Shenvi,  A. C. Simmonett,  A. Sodt,  
 D. Stuck,  K. S. Thanthiriwatte,  V. Vanovschi,  Tao Wang,  A. Warshel,  
 C. F. Williams,  Q. Wu,  X. Xu,  W. Zhang

 Please cite Q-Chem as follows:
 Y. Shao et al., Mol. Phys. 113, 184-215 (2015)
 DOI: 10.1080/00268976.2014.952696

 Q-Chem 5.1.1 for Intel X86 EM64T Linux

 Parts of Q-Chem use Armadillo 8.300.2 (Tropical Shenanigans).
 http://arma.sourceforge.net/

 Q-Chem begins on Thu Jul  2 11:07:58 2020  

Host: n0046.mhg0
0

     Scratch files written to /local/scratch/users/yhljason/HCl_ccsdT_aug-cc-pcVDZ.inp20200702023627//
The previous job contains 0 fragments, simply inherited here
Input Ideriv = 0
Curr. Ideriv = -1
Max.  Ideriv = 0

Checking the input file for inconsistencies... 	...done.

--------------------------------------------------------------
User input:
--------------------------------------------------------------
$molecule
read
$end

$rem

jobtype sp
method CCSD(T)
xc_grid 000099000590
basis aug-cc-pcVDZ
max_scf_cycles 200
thresh 14
scf_convergence 8
mem_total 128000
cc_memory 96000
cc_backend xm
mem_static 1500
symmetry false
sym_ignore true
scf_guess read
unrestricted true
scf_algorithm gdm
n_frozen_core 0
$end

$multipole_field
Z -0.0001
$end

--------------------------------------------------------------
 ----------------------------------------------------------------
             Standard Nuclear Orientation (Angstroms)
    I     Atom           X                Y                Z
 ----------------------------------------------------------------
    1      Cl      0.0000000000     0.0000000000     0.0000000000
    2      H       0.0000000000     0.0000000000     1.2746000000
 ----------------------------------------------------------------
 Nuclear Repulsion Energy =     7.0579103904 hartrees
 There are        9 alpha and        9 beta electrons
 Requested basis set is aug-cc-pCVDZ
 There are 19 shells and 45 basis functions
 Total memory of 128000MB is distributed as follows: 
   QALLOC including MEM_STATIC uses 32000MB
   MEM_STATIC is set to 1500MB
   CCMAN JOB total memory use is  96000MB
 Warning: actual memory use might exceed 128000MB

 Total QAlloc Memory Limit  32000 MB
 Mega-Array Size      1467 MB
 MEM_STATIC part      1500 MB

                       Distance Matrix (Angstroms)
             Cl(  1)
   H (  2)  1.274600
 
 Applying Cartesian multipole field
    Component          Value
    ---------          -----
     (0,0,1)       -1.00000E-04
 Nucleus-field energy     =    -0.0002408645 hartrees
 A cutoff of  1.0D-14 yielded    190 shell pairs
 There are      1086 function pairs (      1242 Cartesian)
 
 -------------------------------------------------------
 OpenMP Integral Computing Module                       
 Release: version 1.0, May 2013, Q-Chem Inc. Pittsburgh 
 -------------------------------------------------------
 Integral Job Info:
 Integral job number is                      11
 Integral operator is                         1
 short-range coefficients                     0
 long-range coefficients              100000000
 Omega coefficients                           0
 if combine SR and LR in K                    0
 Integral screening is                        0
 Integral computing path is                   2
 max size of driver memory is            800000
 size of driver memory is                593474
 size of scratch memory is             29825385
 max col of scratch BK array               1296
 max len of scratch array in speh3          155
 max len of scratch index in speh4           18
 max int batch size is                      520
 min int batch size is                       52
 fixed nKL is                                41
 max L of basis functions is                  2
 order of int derivative is                   0
 number of shells is                         19
 number of basis is                          48
 number of cartesian basis is                48
 number of contracted shell pairs           190
 number of primitive shell pairs           2194
 maxK2 (contraction) of shell pair          121
 max number of K2 of shell pair               1
 max number of CS2 of shell pair             25
 max number of PS2 of shell pair            726
 mem total for path MDJ                  514994
 -------------------------------------------------------
 Smallest overlap matrix eigenvalue = 2.21E-03
 Guess MOs from SCF MO coefficient file

 -----------------------------------------------------------------------
  General SCF calculation program by
  Eric Jon Sundstrom, Paul Horn, Yuezhi Mao, Dmitri Zuev, Alec White,
  David Stuck, Shaama M.S., Shane Yost, Joonho Lee, David Small,
  Daniel Levine, Susi Lehtola, Hugh Burton, Evgeny Epifanovsky
 -----------------------------------------------------------------------
 Hartree-Fock
 using 16 threads for integral computing
 -------------------------------------------------------
 OpenMP Integral computing Module                
 Release: version 2.0, May 2017, Q-Chem Inc. Pleasanton 
 -------------------------------------------------------
 A unrestricted SCF calculation will be
 performed using GDM
 SCF converges when RMS gradient is below 1.0e-08
 ---------------------------------------
  Cycle       Energy        RMS Gradient
 ---------------------------------------
    1    -460.0931070825      3.42e-04   Normal BFGS step
    2    -460.0931073966      5.45e-05   Normal BFGS step
    3    -460.0931074229      1.04e-05   Normal BFGS step
    4    -460.0931074237      2.14e-06   Normal BFGS step
    5    -460.0931074237      6.42e-07   Normal BFGS step
    6    -460.0931074237      1.44e-07   Normal BFGS step
    7    -460.0931074237      4.72e-08   Normal BFGS step
    8    -460.0931074237      6.95e-09  Convergence criterion met
 ---------------------------------------
 SCF time:   CPU 27.52s  wall 2.00s 
<S^2> =          0.000000000
 SCF   energy in the final basis set =     -460.0931074237
 Total energy in the final basis set =     -460.0931074237


 ------------------------------------------------------------------------------

   CCMAN2: suite of methods based on coupled cluster
           and equation of motion theories.

   Components:
   * libvmm-1.3-trunk
     by Evgeny Epifanovsky, Ilya Kaliman.
   * libtensor-2.5-trunk
     by Evgeny Epifanovsky, Michael Wormit, Dmitry Zuev, Sam Manzer, 
        Ilya Kaliman.
   * libcc-2.5-trunk
     by Evgeny Epifanovsky, Arik Landau, Tomasz Kus, Kirill Khistyaev, 
        Dmitry Zuev, Prashant Manohar, Xintian Feng, Anna Krylov, 
        Matthew Goldey, Alec White, Thomas Jagau, Kaushik Nanda, 
        Anastasia Gunina, Alexander Kunitsa, Joonho Lee.

   CCMAN original authors:
   Anna I. Krylov, C. David Sherrill, Steven R. Gwaltney,
   Edward F. C. Byrd (2000)
   Sergey V. Levchenko, Lyudmila V. Slipchenko, Tao Wang,
   Ana-Maria C. Cristian (2003)
   Piotr A. Pieniazek, C. Melania Oana, Evgeny Epifanovsky (2007)
   Prashant Manohar (2009)

 ------------------------------------------------------------------------------


 Calculation will run on 16 cores using libxm for tensor contractions

 ------------------------------------------------------------------------------
Libxm Tensor Library
Copyright (c) 2014-2018 Ilya Kaliman
https://github.com/ilyak/libxm
Reference: https://dx.doi.org/10.1002/jcc.24713
 ------------------------------------------------------------------------------

 
 Alpha MOs, Unrestricted
 -- Occupied --                  
-104.85  -10.58   -8.04   -8.04   -8.04   -1.12   -0.63   -0.48
  1 A     2 A     3 A     4 A     5 A     6 A     7 A     8 A                  
 -0.477
  9 A                                                                          
 -- Virtual --                   
  0.036   0.125   0.138   0.138   0.183   0.214   0.319   0.319
 10 A    11 A    12 A    13 A    14 A    15 A    16 A    17 A                  
  0.469   0.469   0.491   0.575   0.607   0.607   0.895   0.921
 18 A    19 A    20 A    21 A    22 A    23 A    24 A    25 A                  
  0.921   1.031   1.358   1.358   1.364   1.364   1.427   1.788
 26 A    27 A    28 A    29 A    30 A    31 A    32 A    33 A                  
  1.854   1.854   2.429  12.425  12.425  12.699  16.022  16.022
 34 A    35 A    36 A    37 A    38 A    39 A    40 A    41 A                  
 16.030  16.030  16.063  20.282
 42 A    43 A    44 A    45 A                                                  
 
 Beta MOs, Unrestricted
 -- Occupied --                  
-104.85  -10.58   -8.04   -8.04   -8.04   -1.12   -0.63   -0.48
  1 A     2 A     3 A     4 A     5 A     6 A     7 A     8 A                  
 -0.477
  9 A                                                                          
 -- Virtual --                   
  0.036   0.125   0.138   0.138   0.183   0.214   0.319   0.319
 10 A    11 A    12 A    13 A    14 A    15 A    16 A    17 A                  
  0.469   0.469   0.491   0.575   0.607   0.607   0.895   0.921
 18 A    19 A    20 A    21 A    22 A    23 A    24 A    25 A                  
  0.921   1.031   1.358   1.358   1.364   1.364   1.427   1.788
 26 A    27 A    28 A    29 A    30 A    31 A    32 A    33 A                  
  1.854   1.854   2.429  12.425  12.425  12.699  16.022  16.022
 34 A    35 A    36 A    37 A    38 A    39 A    40 A    41 A                  
 16.030  16.030  16.063  20.282
 42 A    43 A    44 A    45 A                                                  

 Occupation and symmetry of molecular orbitals

 Point group: C1 (1 irreducible representation).

                           A     All 
 -------------------------------------
 All molecular orbitals:
  - Alpha                  45    45  
  - Beta                   45    45  
 -------------------------------------
 Alpha orbitals:
  - Frozen occupied        0     0   
  - Active occupied        9     9   
  - Active virtual         36    36  
  - Frozen virtual         0     0   
 -------------------------------------
 Beta orbitals:
  - Frozen occupied        0     0   
  - Active occupied        9     9   
  - Active virtual         36    36  
  - Frozen virtual         0     0   
 -------------------------------------

 Import integrals:   CPU 0.00 s  wall 0.00 s

 Import integrals:   CPU 2.42 s  wall 0.64 s

 MP2 amplitudes:   CPU 0.36 s  wall 0.15 s

Running a double precision version
           CCSD T amplitudes will be solved using DIIS.

           Start     Size      MaxIter   EConv     TConv     
           3         7         100       1.00e-06  1.00e-04  
 ------------------------------------------------------------------------------
           Energy (a.u.)   Ediff      Tdiff       Comment
 ------------------------------------------------------------------------------
          -460.47110934                           
     1    -460.48183078   1.07e-02   4.60e-01     
     2    -460.48484407   3.01e-03   4.19e-02     
     3    -460.48548016   6.36e-04   1.27e-02     
     4    -460.48582323   3.43e-04   6.14e-03     Switched to DIIS steps.
     5    -460.48583879   1.56e-05   8.67e-04     
     6    -460.48583792   8.69e-07   2.40e-04     
     7    -460.48583793   1.66e-08   3.46e-05     
 ------------------------------------------------------------------------------
          -460.48583793                           CCSD T converged.

End of double precision

----------------------------------------
libpt (c) 2016-2018 Ilya Kaliman
Fast Coupled Cluster Triples Corrections
https://github.com/ilyak/libpt
----------------------------------------

 Starting (T) calculation...
 Using double precision libpt code
 (T) calculation completed in 1 sec
 (T) energy is -0.0049925695

 SCF energy                 = -460.09310742
 MP2 energy                 = -460.47110934
 CCSD correlation energy     =   -0.39273051
 CCSD total energy           = -460.48583793
 CCSD(T) correlation energy =   -0.00499257
 CCSD(T) total energy       = -460.49083050

 CCSD  T1^2 = 0.0007  T2^2 = 0.0813  Leading amplitudes:

 Amplitude    Orbitals with energies
 -0.0073       7 (A) B                   ->    20 (A) B                   
              -0.6268                          0.4908                     
 -0.0073       7 (A) A                   ->    20 (A) A                   
              -0.6268                          0.4908                     
 -0.0071       9 (A) A                   ->    17 (A) A                   
              -0.4774                          0.3191                     
 -0.0071       9 (A) B                   ->    17 (A) B                   
              -0.4774                          0.3191                     
  0.0071       8 (A) B                   ->    16 (A) B                   
              -0.4774                          0.3191                     
  0.0071       8 (A) A                   ->    16 (A) A                   
              -0.4774                          0.3191                     

 Amplitude    Orbitals with energies
 -0.0435       7 (A) A       7 (A) B     ->    14 (A) A      14 (A) B     
              -0.6268       -0.6268            0.1826        0.1826       
  0.0435       7 (A) A       7 (A) B     ->    14 (A) B      14 (A) A     
              -0.6268       -0.6268            0.1826        0.1826       
  0.0435       7 (A) B       7 (A) A     ->    14 (A) A      14 (A) B     
              -0.6268       -0.6268            0.1826        0.1826       
 -0.0435       7 (A) B       7 (A) A     ->    14 (A) B      14 (A) A     
              -0.6268       -0.6268            0.1826        0.1826       

 CCSD calculation:   CPU 19.40 s  wall 5.50 s

 Total ccman2 time:   CPU 27.07 s  wall 8.02 s

 
 --------------------------------------------------------------
 
                    Orbital Energies (a.u.)
 --------------------------------------------------------------
 
 Alpha MOs
 -- Occupied --
******* -10.577  -8.045  -8.042  -8.042  -1.120  -0.627  -0.477
 -0.477
 -- Virtual --
  0.036   0.125   0.138   0.138   0.183   0.214   0.319   0.319
  0.469   0.469   0.491   0.575   0.607   0.607   0.895   0.921
  0.921   1.031   1.358   1.358   1.364   1.364   1.427   1.788
  1.854   1.854   2.429  12.425  12.425  12.699  16.022  16.022
 16.030  16.030  16.063  20.282
 
 Beta MOs
 -- Occupied --
******* -10.577  -8.045  -8.042  -8.042  -1.120  -0.627  -0.477
 -0.477
 -- Virtual --
  0.036   0.125   0.138   0.138   0.183   0.214   0.319   0.319
  0.469   0.469   0.491   0.575   0.607   0.607   0.895   0.921
  0.921   1.031   1.358   1.358   1.364   1.364   1.427   1.788
  1.854   1.854   2.429  12.425  12.425  12.699  16.022  16.022
 16.030  16.030  16.063  20.282
 --------------------------------------------------------------
 
          Ground-State Mulliken Net Atomic Charges

     Atom                 Charge (a.u.)    Spin (a.u.)
  --------------------------------------------------------
      1 Cl                   -0.118845       0.000000
      2 H                     0.118845       0.000000
  --------------------------------------------------------
  Sum of atomic charges =     0.000000
  Sum of spin   charges =     0.000000

 -----------------------------------------------------------------
                    Cartesian Multipole Moments
 -----------------------------------------------------------------
    Charge (ESU x 10^10)
                 0.0000
    Dipole Moment (Debye)
         X       0.0000      Y       0.0000      Z       1.2392
       Tot       1.2392
    Quadrupole Moments (Debye-Ang)
        XX     -14.1479     XY       0.0000     YY     -14.1479
        XZ       0.0000     YZ      -0.0000     ZZ     -10.1820
    Octopole Moments (Debye-Ang^2)
       XXX      -0.0000    XXY       0.0000    XYY      -0.0000
       YYY       0.0000    XXZ      -0.8532    XYZ       0.0000
       YYZ      -0.8532    XZZ       0.0000    YZZ       0.0000
       ZZZ       0.4988
    Hexadecapole Moments (Debye-Ang^3)
      XXXX     -16.6033   XXXY       0.0000   XXYY      -5.5344
      XYYY       0.0000   YYYY     -16.6033   XXXZ      -0.0000
      XXYZ       0.0000   XYYZ      -0.0000   YYYZ       0.0000
      XXZZ      -5.8674   XYZZ       0.0000   YYZZ      -5.8674
      XZZZ      -0.0000   YZZZ       0.0000   ZZZZ     -13.2646
 -----------------------------------------------------------------
Archival summary:
1\1\n0046.mhg0\SP\ProcedureUnspecified\BasisUnspecified\l11\yhljason\ThuJul211:08:092020ThuJul211:08:092020\0\\#,ProcedureUnspecified,BasisUnspecified,\\0,1\Cl\H,1,1.2746\\HF=-460.093107\\@

 Total job time:  10.94s(wall), 60.30s(cpu) 
 Thu Jul  2 11:08:09 2020

        *************************************************************
        *                                                           *
        *  Thank you very much for using Q-Chem.  Have a nice day.  *
        *                                                           *
        *************************************************************


