Q-Chem Developer Version!
                  Welcome to Q-Chem
     A Quantum Leap Into The Future Of Chemistry


 Q-Chem 5.1, Q-Chem, Inc., Pleasanton, CA (2018)

 Yihan Shao,  Zhengting Gan,  E. Epifanovsky,  A. T. B. Gilbert,  M. Wormit,  
 J. Kussmann,  A. W. Lange,  A. Behn,  Jia Deng,  Xintian Feng,  D. Ghosh,  
 M. Goldey,  P. R. Horn,  L. D. Jacobson,  I. Kaliman,  T. Kus,  A. Landau,  
 Jie Liu,  E. I. Proynov,  R. M. Richard,  R. P. Steele,  E. J. Sundstrom,  
 H. L. Woodcock III,  P. M. Zimmerman,  D. Zuev,  B. Albrecht,  E. Alguire,  
 S. A. Baeppler,  D. Barton,  Z. Benda,  Y. A. Bernard,  E. J. Berquist,  
 K. B. Bravaya,  H. Burton,  D. Casanova,  Chun-Min Chang,  Yunqing Chen,  
 A. Chien,  K. D. Closser,  M. P. Coons,  S. Coriani,  S. Dasgupta,  
 A. L. Dempwolff,  M. Diedenhofen,  Hainam Do,  R. G. Edgar,  Po-Tung Fang,  
 S. Faraji,  S. Fatehi,  Qingguo Feng,  K. D. Fenk,  J. Fosso-Tande,  
 Qinghui Ge,  A. Ghysels,  G. Gidofalvi,  J. Gomes,  J. Gonthier,  A. Gunina,  
 D. Hait,  M. W. D. Hanson-Heine,  P. H. P. Harbach,  A. W. Hauser,  
 J. E. Herr,  E. G. Hohenstein,  Z. C. Holden,  Kerwin Hui,  B. C. Huynh,  
 T.-C. Jagau,  Hyunjun Ji,  B. Kaduk,  K. Khistyaev,  Jaehoon Kim,  
 P. Klunzinger,  K. Koh,  D. Kosenkov,  L. Koulias,  T. Kowalczyk,  
 C. M. Krauter,  A. Kunitsa,  Ka Un Lao,  A. Laurent,  K. V. Lawler,  
 Joonho Lee,  D. Lefrancois,  S. Lehtola,  D. S. Levine,  Yi-Pei Li,  
 You-Sheng Lin,  Fenglai Liu,  E. Livshits,  A. Luenser,  P. Manohar,  
 E. Mansoor,  S. F. Manzer,  Shan-Ping Mao,  Yuezhi Mao,  N. Mardirossian,  
 A. V. Marenich,  T. Markovich,  L. A. Martinez-Martinez,  S. A. Maurer,  
 N. J. Mayhall,  S. C. McKenzie,  J.-M. Mewes,  A. F. Morrison,  
 J. W. Mullinax,  K. Nanda,  T. S. Nguyen-Beck,  R. Olivares-Amaya,  
 J. A. Parkhill,  T. M. Perrine,  F. Plasser,  P. Pokhilko,  S. Prager,  
 A. Prociuk,  E. Ramos,  D. R. Rehn,  F. Rob,  M. Schneider,  N. Sergueev,  
 S. M. Sharada,  S. Sharma,  D. W. Small,  T. Stauch,  T. Stein,  
 Yu-Chuan Su,  A. J. W. Thom,  A. Tkatchenko,  T. Tsuchimochi,  N. M. Tubman,  
 L. Vogt,  M. L. Vidal,  O. Vydrov,  M. A. Watson,  J. Wenzel,  
 M. de Wergifosse,  T. A. Wesolowski,  A. White,  J. Witte,  A. Yamada,  
 Jun Yang,  K. Yao,  S. Yeganeh,  S. R. Yost,  Zhi-Qiang You,  A. Zech,  
 Igor Ying Zhang,  Xing Zhang,  Yan Zhao,  Ying Zhu,  B. R. Brooks,  
 G. K. L. Chan,  C. J. Cramer,  M. S. Gordon,  W. J. Hehre,  A. Klamt,  
 M. W. Schmidt,  C. D. Sherrill,  D. G. Truhlar,  A. Aspuru-Guzik,  R. Baer,  
 A. T. Bell,  N. A. Besley,  Jeng-Da Chai,  A. E. DePrince, III,  
 R. A. DiStasio Jr.,  A. Dreuw,  B. D. Dunietz,  T. R. Furlani,  
 Chao-Ping Hsu,  Yousung Jung,  Jing Kong,  D. S. Lambrecht,  WanZhen Liang,  
 C. Ochsenfeld,  V. A. Rassolov,  L. V. Slipchenko,  J. E. Subotnik,  
 T. Van Voorhis,  J. M. Herbert,  A. I. Krylov,  P. M. W. Gill,  M. Head-Gordon

 Contributors to earlier versions of Q-Chem not listed above: 
 R. D. Adamson,  B. Austin,  J. Baker,  G. J. O. Beran,  K. Brandhorst,  
 S. T. Brown,  E. F. C. Byrd,  A. K. Chakraborty,  C.-L. Cheng,  
 Siu Hung Chien,  D. M. Chipman,  D. L. Crittenden,  H. Dachsel,  
 R. J. Doerksen,  A. D. Dutoi,  L. Fusti-Molnar,  W. A. Goddard III,  
 A. Golubeva-Zadorozhnaya,  S. R. Gwaltney,  G. Hawkins,  A. Heyden,  
 S. Hirata,  G. Kedziora,  F. J. Keil,  C. Kelley,  Jihan Kim,  R. A. King,  
 R. Z. Khaliullin,  P. P. Korambath,  W. Kurlancheek,  A. M. Lee,  M. S. Lee,  
 S. V. Levchenko,  Ching Yeh Lin,  D. Liotard,  R. C. Lochan,  I. Lotan,  
 P. E. Maslen,  N. Nair,  D. P. O'Neill,  D. Neuhauser,  E. Neuscamman,  
 C. M. Oana,  R. Olson,  B. Peters,  R. Peverati,  P. A. Pieniazek,  
 Y. M. Rhee,  J. Ritchie,  M. A. Rohrdanz,  E. Rosta,  N. J. Russ,  
 H. F. Schaefer III,  N. E. Schultz,  N. Shenvi,  A. C. Simmonett,  A. Sodt,  
 D. Stuck,  K. S. Thanthiriwatte,  V. Vanovschi,  Tao Wang,  A. Warshel,  
 C. F. Williams,  Q. Wu,  X. Xu,  W. Zhang

 Please cite Q-Chem as follows:
 Y. Shao et al., Mol. Phys. 113, 184-215 (2015)
 DOI: 10.1080/00268976.2014.952696

 Q-Chem 5.1.1 for Intel X86 EM64T Linux

 Parts of Q-Chem use Armadillo 8.300.2 (Tropical Shenanigans).
 http://arma.sourceforge.net/

 Q-Chem begins on Thu Jul  2 16:57:13 2020  

Host: n0089.mhg0
0

     Scratch files written to /local/scratch/users/yhljason/SiO_ccsdT_aug-cc-pcVQZ.inp20200702023604//
Input Ideriv = 0
Curr. Ideriv = -1
Max.  Ideriv = 0

Checking the input file for inconsistencies... 	...done.

--------------------------------------------------------------
User input:
--------------------------------------------------------------
$molecule
0 1
Si1     0.0000  0.0000  0.0000
O2      0.0000  0.0000  1.5097
$end

$rem
jobtype sp
method CCSD(T)
xc_grid 000099000590
basis aug-cc-pcVQZ
max_scf_cycles 200
thresh 14
scf_convergence 8
scf_algorithm gdm
symmetry false
sym_ignore true
unrestricted true
gen_scfman true
internal_stability_iter 15
internal_stability_davidson_iter 200
mem_total 128000
cc_memory 96000
cc_backend xm
mem_static 1500
n_frozen_core 0
$end


--------------------------------------------------------------
 ----------------------------------------------------------------
             Standard Nuclear Orientation (Angstroms)
    I     Atom           X                Y                Z
 ----------------------------------------------------------------
    1      Si      0.0000000000     0.0000000000     0.0000000000
    2      O       0.0000000000     0.0000000000     1.5097000000
 ----------------------------------------------------------------
 Nuclear Repulsion Energy =    39.2580298136 hartrees
 There are       11 alpha and       11 beta electrons
 Requested basis set is aug-cc-pCVQZ
 There are 63 shells and 243 basis functions
 Total memory of 128000MB is distributed as follows: 
   QALLOC including MEM_STATIC uses 32000MB
   MEM_STATIC is set to 1500MB
   CCMAN JOB total memory use is  96000MB
 Warning: actual memory use might exceed 128000MB

 Total QAlloc Memory Limit  32000 MB
 Mega-Array Size      1467 MB
 MEM_STATIC part      1500 MB

                       Distance Matrix (Angstroms)
             Si(  1)
   O (  2)  1.509700
 
 A cutoff of  1.0D-14 yielded   1954 shell pairs
 There are     29314 function pairs (     48921 Cartesian)
 
 -------------------------------------------------------
 OpenMP Integral Computing Module                       
 Release: version 1.0, May 2013, Q-Chem Inc. Pittsburgh 
 -------------------------------------------------------
 Integral Job Info:
 Integral job number is                      11
 Integral operator is                         1
 short-range coefficients                     0
 long-range coefficients              100000000
 Omega coefficients                           0
 if combine SR and LR in K                    0
 Integral screening is                        0
 Integral computing path is                   2
 max size of driver memory is           3200000
 size of driver memory is               1704330
 size of scratch memory is             29435624
 max col of scratch BK array              50625
 max len of scratch array in speh3         2114
 max len of scratch index in speh4           50
 max int batch size is                      520
 min int batch size is                       52
 fixed nKL is                                22
 max L of basis functions is                  4
 order of int derivative is                   0
 number of shells is                         63
 number of basis is                         313
 number of cartesian basis is               313
 number of contracted shell pairs          1954
 number of primitive shell pairs           7521
 maxK2 (contraction) of shell pair          169
 max number of K2 of shell pair               1
 max number of CS2 of shell pair            189
 max number of PS2 of shell pair           1014
 mem total for path MDJ                  712981
 -------------------------------------------------------
 Smallest overlap matrix eigenvalue = 3.71E-05

 Scale SEOQF with 1.000000e-01/1.000000e-01/1.000000e-01

 Standard Electronic Orientation quadrupole field applied
 Nucleus-field energy     =    -0.0000000020 hartrees
 Guess from superposition of atomic densities
 Warning:  Energy on first SCF cycle will be non-variational
 SAD guess density has 22.000000 electrons

 -----------------------------------------------------------------------
  General SCF calculation program by
  Eric Jon Sundstrom, Paul Horn, Yuezhi Mao, Dmitri Zuev, Alec White,
  David Stuck, Shaama M.S., Shane Yost, Joonho Lee, David Small,
  Daniel Levine, Susi Lehtola, Hugh Burton, Evgeny Epifanovsky
 -----------------------------------------------------------------------
Running Object-Oriented UHF
performing a single roothaan step with Fock from read density so that orbitals are available to all algorithms
energy of the guess density (C=0) -363.654839742672
We will preform up to 15 macro iterations over saddle points until a stable solution is found
Energy prior to optimization (guess energy) = -363.726068142368
Begin Timing: Total SCF Calculation
Begin Timing: SCF Single Stationary Point Calculation
begin iterations for algorithm: GDM          
the SCF tolerance is set to 1.00e-08
    1    -363.7260681424      1.57e-01     00000  Descent step
    2    -363.8452018305      1.89e-02     00000  Normal BFGS step
    3    -363.8526846277      6.18e-03     00000  Normal BFGS step
    4    -363.8534404761      7.82e-04     00000  Normal BFGS step
    5    -363.8534565596      2.68e-04     00000  Normal BFGS step
    6    -363.8534578869      8.40e-05     00000  Normal BFGS step
    7    -363.8534579722      2.11e-05     00000  Normal BFGS step
    8    -363.8534579862      9.44e-06     00000  Normal BFGS step
    9    -363.8534579871      2.39e-06     00000  Normal BFGS step
   10    -363.8534579872      3.61e-07     00000  Normal BFGS step
   11    -363.8534579872      7.81e-08     00000  Normal BFGS step
   12    -363.8534579872      2.79e-08     00000  Normal BFGS step
   13    -363.8534579872      1.78e-08     00000  Normal BFGS step
   14    -363.8534579872      1.14e-09     00000 Convergence criterion met
Timing for Single Stationary Point: 145.00s (wall), 2313.57s (cpu)
Begin Timing: Stability
===================================================
Beginning Test for Internal Stability
===================================================
generating davidson guess vectors based on koopmans excitations
    1      1.85e+00     00000 Davidson Iteration
    2      1.07e+00     00000 Davidson Iteration
    3      3.99e-01     00000 Davidson Iteration
    4      8.07e-02     00000 Davidson Iteration
    5      2.53e-02     00000 Davidson Iteration
    6      1.53e-02     00000 Davidson Iteration
    7      5.10e-03     00000 Davidson Iteration
    8      2.75e-03     00000 Davidson Iteration
    9      7.72e-04     00000 Davidson Iteration
   10      2.06e-04     00000 Davidson Iteration
   11      1.88e-04     00000 Davidson Iteration
   12      5.53e-05     00000 Davidson Iteration
   13      2.41e-03     00000 Davidson Iteration
   14      9.36e-03     00000 Davidson Iteration
   15      3.42e-03     00000 Davidson Iteration
   16      1.44e-02     00000 Davidson Iteration
   17      2.71e-02     00000 Davidson Iteration
   18      3.45e-02     00000 Davidson Iteration
   19      2.29e-02     00000 Davidson Iteration
   20      8.20e-03     00000 Davidson Iteration
   21      1.51e-03     00000 Davidson Iteration
   22      6.23e-04     00000 Davidson Iteration
   23      2.65e-04     00000 Davidson Iteration
   24      1.41e-04     00000 Davidson Iteration
   25      4.87e-05     00000 Davidson Iteration
   26      3.65e-05     00000 Davidson Converged
converged_eigenvalues
   0.1177
   0.1177
   0.1130
Threshold for negative eigenvalues: -1.0e-05
solution was a local minimum (stable)
===================================================
End Test for Internal Stability
===================================================
Our SCF solution is stable!
Timing for Total SCF: 541.00s (wall), 8578.97s (cpu)
 Total energy in the final basis set =     -363.8534579872
<S^2> =          0.000000000
    ==================================================
              The end of Object-Oriented SCFman       
    ==================================================


 ------------------------------------------------------------------------------

   CCMAN2: suite of methods based on coupled cluster
           and equation of motion theories.

   Components:
   * libvmm-1.3-trunk
     by Evgeny Epifanovsky, Ilya Kaliman.
   * libtensor-2.5-trunk
     by Evgeny Epifanovsky, Michael Wormit, Dmitry Zuev, Sam Manzer, 
        Ilya Kaliman.
   * libcc-2.5-trunk
     by Evgeny Epifanovsky, Arik Landau, Tomasz Kus, Kirill Khistyaev, 
        Dmitry Zuev, Prashant Manohar, Xintian Feng, Anna Krylov, 
        Matthew Goldey, Alec White, Thomas Jagau, Kaushik Nanda, 
        Anastasia Gunina, Alexander Kunitsa, Joonho Lee.

   CCMAN original authors:
   Anna I. Krylov, C. David Sherrill, Steven R. Gwaltney,
   Edward F. C. Byrd (2000)
   Sergey V. Levchenko, Lyudmila V. Slipchenko, Tao Wang,
   Ana-Maria C. Cristian (2003)
   Piotr A. Pieniazek, C. Melania Oana, Evgeny Epifanovsky (2007)
   Prashant Manohar (2009)

 ------------------------------------------------------------------------------


 Calculation will run on 16 cores using libxm for tensor contractions

 ------------------------------------------------------------------------------
Libxm Tensor Library
Copyright (c) 2014-2018 Ilya Kaliman
https://github.com/ilyak/libxm
Reference: https://dx.doi.org/10.1002/jcc.24713
 ------------------------------------------------------------------------------

 
 Alpha MOs, Unrestricted
 -- Occupied --                  
-68.819 -20.530  -6.167  -4.268  -4.268  -4.268  -1.263  -0.609
  1 A     2 A     3 A     4 A     5 A     6 A     7 A     8 A                  
 -0.475  -0.475  -0.438
  9 A    10 A    11 A                                                          
 -- Virtual --                   
  0.018   0.018   0.034   0.057   0.069   0.069   0.113   0.121
 12 A    13 A    14 A    15 A    16 A    17 A    18 A    19 A                  
  0.121   0.140   0.140   0.145   0.203   0.203   0.207   0.258
 20 A    21 A    22 A    23 A    24 A    25 A    26 A    27 A                  
  0.293   0.293   0.327   0.327   0.327   0.327   0.328   0.349
 28 A    29 A    30 A    31 A    32 A    33 A    34 A    35 A                  
  0.349   0.386   0.386   0.417   0.429   0.472   0.472   0.608
 36 A    37 A    38 A    39 A    40 A    41 A    42 A    43 A                  
  0.608   0.610   0.663   0.663   0.689   0.881   0.881   0.891
 44 A    45 A    46 A    47 A    48 A    49 A    50 A    51 A                  
  0.893   0.893   0.937   0.937   0.943   0.943   0.963   1.004
 52 A    53 A    54 A    55 A    56 A    57 A    58 A    59 A                  
  1.004   1.008   1.008   1.022   1.022   1.046   1.046   1.134
 60 A    61 A    62 A    63 A    64 A    65 A    66 A    67 A                  
  1.163   1.163   1.173   1.173   1.224   1.325   1.369   1.369
 68 A    69 A    70 A    71 A    72 A    73 A    74 A    75 A                  
  1.566   1.599   1.599   1.702   1.702   1.719   1.782   1.782
 76 A    77 A    78 A    79 A    80 A    81 A    82 A    83 A                  
  1.899   1.970   1.970   2.152   2.152   2.169   2.238   2.238
 84 A    85 A    86 A    87 A    88 A    89 A    90 A    91 A                  
  2.356   2.356   2.414   2.414   2.444   2.444   2.526   2.631
 92 A    93 A    94 A    95 A    96 A    97 A    98 A    99 A                  
  2.631   2.642   2.642   2.686   2.686   2.845   2.845   2.854
100 A   101 A   102 A   103 A   104 A   105 A   106 A   107 A                  
  2.854   2.873   3.083   3.384   3.384   3.726   3.726   3.792
108 A   109 A   110 A   111 A   112 A   113 A   114 A   115 A                  
  3.975   3.975   3.993   3.993   4.195   4.250   4.250   4.344
116 A   117 A   118 A   119 A   120 A   121 A   122 A   123 A                  
  4.344   4.404   4.404   4.497   4.568   4.568   4.585   4.789
124 A   125 A   126 A   127 A   128 A   129 A   130 A   131 A                  
  4.789   4.826   4.826   5.243   5.461   5.461   5.464   6.258
132 A   133 A   134 A   135 A   136 A   137 A   138 A   139 A                  
  6.844   6.844   7.384   7.384   8.227   9.912   9.912  10.697
140 A   141 A   142 A   143 A   144 A   145 A   146 A   147 A                  
 10.697  10.793  10.793  10.847  11.013  11.013  11.018  11.018
148 A   149 A   150 A   151 A   152 A   153 A   154 A   155 A                  
 11.020  11.758  11.758  11.992  11.992  12.167  12.167  12.242
156 A   157 A   158 A   159 A   160 A   161 A   162 A   163 A                  
 12.438  12.438  12.694  12.891  12.891  13.327  13.327  13.516
164 A   165 A   166 A   167 A   168 A   169 A   170 A   171 A                  
 13.948  13.948  14.017  14.017  14.212  14.212  14.735  17.649
172 A   173 A   174 A   175 A   176 A   177 A   178 A   179 A                  
 18.737  21.877  21.877  22.191  22.191  22.861  32.876  32.876
180 A   181 A   182 A   183 A   184 A   185 A   186 A   187 A                  
 33.575  33.686  33.686  34.519  39.127  39.127  39.134  39.134
188 A   189 A   190 A   191 A   192 A   193 A   194 A   195 A                  
 39.140  39.140  39.150  39.150  39.163  47.227  47.227  47.464
196 A   197 A   198 A   199 A   200 A   201 A   202 A   203 A                  
 47.464  47.623  48.534  48.534  48.567  48.567  48.663  48.663
204 A   205 A   206 A   207 A   208 A   209 A   210 A   211 A                  
 48.804  55.263  64.064  64.745  64.745  64.963  64.963  65.477
212 A   213 A   214 A   215 A   216 A   217 A   218 A   219 A                  
102.116 102.116 102.661 103.419 103.419 103.441 103.441 103.470
220 A   221 A   222 A   223 A   224 A   225 A   226 A   227 A                  
103.470 103.501 116.950 116.950 117.641 198.696 198.696 198.825
228 A   229 A   230 A   231 A   232 A   233 A   234 A   235 A                  
198.825 198.932 216.617 267.383 395.469 395.469 396.028 895.429
236 A   237 A   238 A   239 A   240 A   241 A   242 A   243 A                  
 
 Beta MOs, Unrestricted
 -- Occupied --                  
-68.819 -20.530  -6.167  -4.268  -4.268  -4.268  -1.263  -0.609
  1 A     2 A     3 A     4 A     5 A     6 A     7 A     8 A                  
 -0.475  -0.475  -0.438
  9 A    10 A    11 A                                                          
 -- Virtual --                   
  0.018   0.018   0.034   0.057   0.069   0.069   0.113   0.121
 12 A    13 A    14 A    15 A    16 A    17 A    18 A    19 A                  
  0.121   0.140   0.140   0.145   0.203   0.203   0.207   0.258
 20 A    21 A    22 A    23 A    24 A    25 A    26 A    27 A                  
  0.293   0.293   0.327   0.327   0.327   0.327   0.328   0.349
 28 A    29 A    30 A    31 A    32 A    33 A    34 A    35 A                  
  0.349   0.386   0.386   0.417   0.429   0.472   0.472   0.608
 36 A    37 A    38 A    39 A    40 A    41 A    42 A    43 A                  
  0.608   0.610   0.663   0.663   0.689   0.881   0.881   0.891
 44 A    45 A    46 A    47 A    48 A    49 A    50 A    51 A                  
  0.893   0.893   0.937   0.937   0.943   0.943   0.963   1.004
 52 A    53 A    54 A    55 A    56 A    57 A    58 A    59 A                  
  1.004   1.008   1.008   1.022   1.022   1.046   1.046   1.134
 60 A    61 A    62 A    63 A    64 A    65 A    66 A    67 A                  
  1.163   1.163   1.173   1.173   1.224   1.325   1.369   1.369
 68 A    69 A    70 A    71 A    72 A    73 A    74 A    75 A                  
  1.566   1.599   1.599   1.702   1.702   1.719   1.782   1.782
 76 A    77 A    78 A    79 A    80 A    81 A    82 A    83 A                  
  1.899   1.970   1.970   2.152   2.152   2.169   2.238   2.238
 84 A    85 A    86 A    87 A    88 A    89 A    90 A    91 A                  
  2.356   2.356   2.414   2.414   2.444   2.444   2.526   2.631
 92 A    93 A    94 A    95 A    96 A    97 A    98 A    99 A                  
  2.631   2.642   2.642   2.686   2.686   2.845   2.845   2.854
100 A   101 A   102 A   103 A   104 A   105 A   106 A   107 A                  
  2.854   2.873   3.083   3.384   3.384   3.726   3.726   3.792
108 A   109 A   110 A   111 A   112 A   113 A   114 A   115 A                  
  3.975   3.975   3.993   3.993   4.195   4.250   4.250   4.344
116 A   117 A   118 A   119 A   120 A   121 A   122 A   123 A                  
  4.344   4.404   4.404   4.497   4.568   4.568   4.585   4.789
124 A   125 A   126 A   127 A   128 A   129 A   130 A   131 A                  
  4.789   4.826   4.826   5.243   5.461   5.461   5.464   6.258
132 A   133 A   134 A   135 A   136 A   137 A   138 A   139 A                  
  6.844   6.844   7.384   7.384   8.227   9.912   9.912  10.697
140 A   141 A   142 A   143 A   144 A   145 A   146 A   147 A                  
 10.697  10.793  10.793  10.847  11.013  11.013  11.018  11.018
148 A   149 A   150 A   151 A   152 A   153 A   154 A   155 A                  
 11.020  11.758  11.758  11.992  11.992  12.167  12.167  12.242
156 A   157 A   158 A   159 A   160 A   161 A   162 A   163 A                  
 12.438  12.438  12.694  12.891  12.891  13.327  13.327  13.516
164 A   165 A   166 A   167 A   168 A   169 A   170 A   171 A                  
 13.948  13.948  14.017  14.017  14.212  14.212  14.735  17.649
172 A   173 A   174 A   175 A   176 A   177 A   178 A   179 A                  
 18.737  21.877  21.877  22.191  22.191  22.861  32.876  32.876
180 A   181 A   182 A   183 A   184 A   185 A   186 A   187 A                  
 33.575  33.686  33.686  34.519  39.127  39.127  39.134  39.134
188 A   189 A   190 A   191 A   192 A   193 A   194 A   195 A                  
 39.140  39.140  39.150  39.150  39.163  47.227  47.227  47.464
196 A   197 A   198 A   199 A   200 A   201 A   202 A   203 A                  
 47.464  47.623  48.534  48.534  48.567  48.567  48.663  48.663
204 A   205 A   206 A   207 A   208 A   209 A   210 A   211 A                  
 48.804  55.263  64.064  64.745  64.745  64.963  64.963  65.477
212 A   213 A   214 A   215 A   216 A   217 A   218 A   219 A                  
102.116 102.116 102.661 103.419 103.419 103.441 103.441 103.470
220 A   221 A   222 A   223 A   224 A   225 A   226 A   227 A                  
103.470 103.501 116.950 116.950 117.641 198.696 198.696 198.825
228 A   229 A   230 A   231 A   232 A   233 A   234 A   235 A                  
198.825 198.932 216.617 267.383 395.469 395.469 396.028 895.429
236 A   237 A   238 A   239 A   240 A   241 A   242 A   243 A                  

 Occupation and symmetry of molecular orbitals

 Point group: C1 (1 irreducible representation).

                           A     All 
 -------------------------------------
 All molecular orbitals:
  - Alpha                  243   243 
  - Beta                   243   243 
 -------------------------------------
 Alpha orbitals:
  - Frozen occupied        0     0   
  - Active occupied        11    11  
  - Active virtual         232   232 
  - Frozen virtual         0     0   
 -------------------------------------
 Beta orbitals:
  - Frozen occupied        0     0   
  - Active occupied        11    11  
  - Active virtual         232   232 
  - Frozen virtual         0     0   
 -------------------------------------

 Import integrals:   CPU 0.00 s  wall 0.00 s

 Import integrals:   CPU 2879.24 s  wall 365.96 s

 MP2 amplitudes:   CPU 12.82 s  wall 4.74 s

Running a double precision version
           CCSD T amplitudes will be solved using DIIS.

           Start     Size      MaxIter   EConv     TConv     
           3         7         100       1.00e-06  1.00e-04  
 ------------------------------------------------------------------------------
           Energy (a.u.)   Ediff      Tdiff       Comment
 ------------------------------------------------------------------------------
          -364.64903296                           
     1    -364.62792286   2.11e-02   5.59e-01     Step took 01.07.
     2    -364.64871207   2.08e-02   8.31e-02     
     3    -364.64362914   5.08e-03   4.32e-02     
     4    -364.64643498   2.81e-03   4.51e-02     Switched to DIIS steps.
     5    -364.64716607   7.31e-04   9.96e-03     
     6    -364.64718576   1.97e-05   2.83e-03     
     7    -364.64718039   5.37e-06   1.05e-03     
     8    -364.64718423   3.84e-06   4.38e-04     
     9    -364.64718761   3.38e-06   1.65e-04     
    10    -364.64718662   9.91e-07   3.65e-05     
 ------------------------------------------------------------------------------
          -364.64718662                           CCSD T converged.

End of double precision

----------------------------------------
libpt (c) 2016-2018 Ilya Kaliman
Fast Coupled Cluster Triples Corrections
https://github.com/ilyak/libpt
----------------------------------------

 Starting (T) calculation...
 Using double precision libpt code
 (T) calculation completed in 1128 sec
 (T) energy is -0.0242859373

 SCF energy                 = -363.85345799
 MP2 energy                 = -364.64903296
 CCSD correlation energy     =   -0.79372863
 CCSD total energy           = -364.64718662
 CCSD(T) correlation energy =   -0.02428594
 CCSD(T) total energy       = -364.67147256

 CCSD  T1^2 = 0.0128  T2^2 = 0.1467  Leading amplitudes:

 Amplitude    Orbitals with energies
 -0.0350       9 (A) A                   ->    13 (A) A                   
              -0.4746                          0.0180                     
 -0.0350       10 (A) A                  ->    12 (A) A                   
              -0.4746                          0.0180                     
  0.0350       9 (A) B                   ->    13 (A) B                   
              -0.4746                          0.0180                     
  0.0350       10 (A) B                  ->    12 (A) B                   
              -0.4746                          0.0180                     

 Amplitude    Orbitals with energies
  0.0359       11 (A) A      11 (A) B    ->    13 (A) A      13 (A) B     
              -0.4376       -0.4376            0.0180        0.0180       
 -0.0359       11 (A) A      11 (A) B    ->    13 (A) B      13 (A) A     
              -0.4376       -0.4376            0.0180        0.0180       
 -0.0359       11 (A) B      11 (A) A    ->    13 (A) A      13 (A) B     
              -0.4376       -0.4376            0.0180        0.0180       
  0.0359       11 (A) B      11 (A) A    ->    13 (A) B      13 (A) A     
              -0.4376       -0.4376            0.0180        0.0180       
 -0.0359       11 (A) A      11 (A) B    ->    12 (A) A      12 (A) B     
              -0.4376       -0.4376            0.0180        0.0180       
  0.0359       11 (A) A      11 (A) B    ->    12 (A) B      12 (A) A     
              -0.4376       -0.4376            0.0180        0.0180       
  0.0359       11 (A) B      11 (A) A    ->    12 (A) A      12 (A) B     
              -0.4376       -0.4376            0.0180        0.0180       
 -0.0359       11 (A) B      11 (A) A    ->    12 (A) B      12 (A) A     
              -0.4376       -0.4376            0.0180        0.0180       

 CCSD calculation:   CPU 26207.93 s  wall 1943.07 s

 Total ccman2 time:   CPU 29155.56 s  wall 2347.96 s

 
 --------------------------------------------------------------
 
                    Orbital Energies (a.u.)
 --------------------------------------------------------------
 
 Alpha MOs
 -- Occupied --
-68.819 -20.530  -6.167  -4.268  -4.268  -4.268  -1.263  -0.609
 -0.475  -0.475  -0.438
 -- Virtual --
  0.018   0.018   0.034   0.057   0.069   0.069   0.113   0.121
  0.121   0.140   0.140   0.145   0.203   0.203   0.207   0.258
  0.293   0.293   0.327   0.327   0.327   0.327   0.328   0.349
  0.349   0.386   0.386   0.417   0.429   0.472   0.472   0.608
  0.608   0.610   0.663   0.663   0.689   0.881   0.881   0.891
  0.893   0.893   0.937   0.937   0.943   0.943   0.963   1.004
  1.004   1.008   1.008   1.022   1.022   1.046   1.046   1.134
  1.163   1.163   1.173   1.173   1.224   1.325   1.369   1.369
  1.566   1.599   1.599   1.702   1.702   1.719   1.782   1.782
  1.899   1.970   1.970   2.152   2.152   2.169   2.238   2.238
  2.356   2.356   2.414   2.414   2.444   2.444   2.526   2.631
  2.631   2.642   2.642   2.686   2.686   2.845   2.845   2.854
  2.854   2.873   3.083   3.384   3.384   3.726   3.726   3.792
  3.975   3.975   3.993   3.993   4.195   4.250   4.250   4.344
  4.344   4.404   4.404   4.497   4.568   4.568   4.585   4.789
  4.789   4.826   4.826   5.243   5.461   5.461   5.464   6.258
  6.844   6.844   7.384   7.384   8.227   9.912   9.912  10.697
 10.697  10.793  10.793  10.847  11.013  11.013  11.018  11.018
 11.020  11.758  11.758  11.992  11.992  12.167  12.167  12.242
 12.438  12.438  12.694  12.891  12.891  13.327  13.327  13.516
 13.948  13.948  14.017  14.017  14.212  14.212  14.735  17.649
 18.737  21.877  21.877  22.191  22.191  22.861  32.876  32.876
 33.575  33.686  33.686  34.519  39.127  39.127  39.134  39.134
 39.140  39.140  39.150  39.150  39.163  47.227  47.227  47.464
 47.464  47.623  48.534  48.534  48.567  48.567  48.663  48.663
 48.804  55.263  64.064  64.745  64.745  64.963  64.963  65.477
102.116 102.116 102.661 103.419 103.419 103.441 103.441 103.470
103.470 103.501 116.950 116.950 117.641 198.696 198.696 198.825
198.825 198.932 216.617 267.383 395.469 395.469 396.028 895.429
 
 Beta MOs
 -- Occupied --
-68.819 -20.530  -6.167  -4.268  -4.268  -4.268  -1.263  -0.609
 -0.475  -0.475  -0.438
 -- Virtual --
  0.018   0.018   0.034   0.057   0.069   0.069   0.113   0.121
  0.121   0.140   0.140   0.145   0.203   0.203   0.207   0.258
  0.293   0.293   0.327   0.327   0.327   0.327   0.328   0.349
  0.349   0.386   0.386   0.417   0.429   0.472   0.472   0.608
  0.608   0.610   0.663   0.663   0.689   0.881   0.881   0.891
  0.893   0.893   0.937   0.937   0.943   0.943   0.963   1.004
  1.004   1.008   1.008   1.022   1.022   1.046   1.046   1.134
  1.163   1.163   1.173   1.173   1.224   1.325   1.369   1.369
  1.566   1.599   1.599   1.702   1.702   1.719   1.782   1.782
  1.899   1.970   1.970   2.152   2.152   2.169   2.238   2.238
  2.356   2.356   2.414   2.414   2.444   2.444   2.526   2.631
  2.631   2.642   2.642   2.686   2.686   2.845   2.845   2.854
  2.854   2.873   3.083   3.384   3.384   3.726   3.726   3.792
  3.975   3.975   3.993   3.993   4.195   4.250   4.250   4.344
  4.344   4.404   4.404   4.497   4.568   4.568   4.585   4.789
  4.789   4.826   4.826   5.243   5.461   5.461   5.464   6.258
  6.844   6.844   7.384   7.384   8.227   9.912   9.912  10.697
 10.697  10.793  10.793  10.847  11.013  11.013  11.018  11.018
 11.020  11.758  11.758  11.992  11.992  12.167  12.167  12.242
 12.438  12.438  12.694  12.891  12.891  13.327  13.327  13.516
 13.948  13.948  14.017  14.017  14.212  14.212  14.735  17.649
 18.737  21.877  21.877  22.191  22.191  22.861  32.876  32.876
 33.575  33.686  33.686  34.519  39.127  39.127  39.134  39.134
 39.140  39.140  39.150  39.150  39.163  47.227  47.227  47.464
 47.464  47.623  48.534  48.534  48.567  48.567  48.663  48.663
 48.804  55.263  64.064  64.745  64.745  64.963  64.963  65.477
102.116 102.116 102.661 103.419 103.419 103.441 103.441 103.470
103.470 103.501 116.950 116.950 117.641 198.696 198.696 198.825
198.825 198.932 216.617 267.383 395.469 395.469 396.028 895.429
 --------------------------------------------------------------
 
          Ground-State Mulliken Net Atomic Charges

     Atom                 Charge (a.u.)    Spin (a.u.)
  --------------------------------------------------------
      1 Si                    0.935622      -0.000000
      2 O                    -0.935622       0.000000
  --------------------------------------------------------
  Sum of atomic charges =     0.000000
  Sum of spin   charges =    -0.000000

 -----------------------------------------------------------------
                    Cartesian Multipole Moments
 -----------------------------------------------------------------
    Charge (ESU x 10^10)
                 0.0000
    Dipole Moment (Debye)
         X      -0.0000      Y      -0.0000      Z      -3.7296
       Tot       3.7296
    Quadrupole Moments (Debye-Ang)
        XX     -16.0870     XY       0.0000     YY     -16.0870
        XZ       0.0000     YZ       0.0000     ZZ     -25.3700
    Octopole Moments (Debye-Ang^2)
       XXX      -0.0000    XXY       0.0000    XYY      -0.0000
       YYY       0.0000    XXZ      -8.9114    XYZ       0.0000
       YYZ      -8.9114    XZZ       0.0000    YZZ      -0.0000
       ZZZ     -35.8144
    Hexadecapole Moments (Debye-Ang^3)
      XXXX     -20.6440   XXXY       0.0000   XXYY      -6.8813
      XYYY       0.0000   YYYY     -20.6440   XXXZ      -0.0000
      XXYZ       0.0000   XYYZ      -0.0000   YYYZ       0.0000
      XXZZ     -22.5285   XYZZ       0.0000   YYZZ     -22.5285
      XZZZ       0.0000   YZZZ       0.0000   ZZZZ    -125.5854
 -----------------------------------------------------------------
Archival summary:
1\1\n0089.mhg0\SP\ProcedureUnspecified\BasisUnspecified\i11\yhljason\ThuJul217:45:562020ThuJul217:45:562020\0\\#,ProcedureUnspecified,BasisUnspecified,\\0,1\Si\O,1,1.5097\\HF=-363.853458\\@

 Total job time:  2922.44s(wall), 38009.77s(cpu) 
 Thu Jul  2 17:45:56 2020

        *************************************************************
        *                                                           *
        *  Thank you very much for using Q-Chem.  Have a nice day.  *
        *                                                           *
        *************************************************************


 
User input: 2 of 6 
 
Q-Chem Developer Version!
                  Welcome to Q-Chem
     A Quantum Leap Into The Future Of Chemistry


 Q-Chem 5.1, Q-Chem, Inc., Pleasanton, CA (2018)

 Yihan Shao,  Zhengting Gan,  E. Epifanovsky,  A. T. B. Gilbert,  M. Wormit,  
 J. Kussmann,  A. W. Lange,  A. Behn,  Jia Deng,  Xintian Feng,  D. Ghosh,  
 M. Goldey,  P. R. Horn,  L. D. Jacobson,  I. Kaliman,  T. Kus,  A. Landau,  
 Jie Liu,  E. I. Proynov,  R. M. Richard,  R. P. Steele,  E. J. Sundstrom,  
 H. L. Woodcock III,  P. M. Zimmerman,  D. Zuev,  B. Albrecht,  E. Alguire,  
 S. A. Baeppler,  D. Barton,  Z. Benda,  Y. A. Bernard,  E. J. Berquist,  
 K. B. Bravaya,  H. Burton,  D. Casanova,  Chun-Min Chang,  Yunqing Chen,  
 A. Chien,  K. D. Closser,  M. P. Coons,  S. Coriani,  S. Dasgupta,  
 A. L. Dempwolff,  M. Diedenhofen,  Hainam Do,  R. G. Edgar,  Po-Tung Fang,  
 S. Faraji,  S. Fatehi,  Qingguo Feng,  K. D. Fenk,  J. Fosso-Tande,  
 Qinghui Ge,  A. Ghysels,  G. Gidofalvi,  J. Gomes,  J. Gonthier,  A. Gunina,  
 D. Hait,  M. W. D. Hanson-Heine,  P. H. P. Harbach,  A. W. Hauser,  
 J. E. Herr,  E. G. Hohenstein,  Z. C. Holden,  Kerwin Hui,  B. C. Huynh,  
 T.-C. Jagau,  Hyunjun Ji,  B. Kaduk,  K. Khistyaev,  Jaehoon Kim,  
 P. Klunzinger,  K. Koh,  D. Kosenkov,  L. Koulias,  T. Kowalczyk,  
 C. M. Krauter,  A. Kunitsa,  Ka Un Lao,  A. Laurent,  K. V. Lawler,  
 Joonho Lee,  D. Lefrancois,  S. Lehtola,  D. S. Levine,  Yi-Pei Li,  
 You-Sheng Lin,  Fenglai Liu,  E. Livshits,  A. Luenser,  P. Manohar,  
 E. Mansoor,  S. F. Manzer,  Shan-Ping Mao,  Yuezhi Mao,  N. Mardirossian,  
 A. V. Marenich,  T. Markovich,  L. A. Martinez-Martinez,  S. A. Maurer,  
 N. J. Mayhall,  S. C. McKenzie,  J.-M. Mewes,  A. F. Morrison,  
 J. W. Mullinax,  K. Nanda,  T. S. Nguyen-Beck,  R. Olivares-Amaya,  
 J. A. Parkhill,  T. M. Perrine,  F. Plasser,  P. Pokhilko,  S. Prager,  
 A. Prociuk,  E. Ramos,  D. R. Rehn,  F. Rob,  M. Schneider,  N. Sergueev,  
 S. M. Sharada,  S. Sharma,  D. W. Small,  T. Stauch,  T. Stein,  
 Yu-Chuan Su,  A. J. W. Thom,  A. Tkatchenko,  T. Tsuchimochi,  N. M. Tubman,  
 L. Vogt,  M. L. Vidal,  O. Vydrov,  M. A. Watson,  J. Wenzel,  
 M. de Wergifosse,  T. A. Wesolowski,  A. White,  J. Witte,  A. Yamada,  
 Jun Yang,  K. Yao,  S. Yeganeh,  S. R. Yost,  Zhi-Qiang You,  A. Zech,  
 Igor Ying Zhang,  Xing Zhang,  Yan Zhao,  Ying Zhu,  B. R. Brooks,  
 G. K. L. Chan,  C. J. Cramer,  M. S. Gordon,  W. J. Hehre,  A. Klamt,  
 M. W. Schmidt,  C. D. Sherrill,  D. G. Truhlar,  A. Aspuru-Guzik,  R. Baer,  
 A. T. Bell,  N. A. Besley,  Jeng-Da Chai,  A. E. DePrince, III,  
 R. A. DiStasio Jr.,  A. Dreuw,  B. D. Dunietz,  T. R. Furlani,  
 Chao-Ping Hsu,  Yousung Jung,  Jing Kong,  D. S. Lambrecht,  WanZhen Liang,  
 C. Ochsenfeld,  V. A. Rassolov,  L. V. Slipchenko,  J. E. Subotnik,  
 T. Van Voorhis,  J. M. Herbert,  A. I. Krylov,  P. M. W. Gill,  M. Head-Gordon

 Contributors to earlier versions of Q-Chem not listed above: 
 R. D. Adamson,  B. Austin,  J. Baker,  G. J. O. Beran,  K. Brandhorst,  
 S. T. Brown,  E. F. C. Byrd,  A. K. Chakraborty,  C.-L. Cheng,  
 Siu Hung Chien,  D. M. Chipman,  D. L. Crittenden,  H. Dachsel,  
 R. J. Doerksen,  A. D. Dutoi,  L. Fusti-Molnar,  W. A. Goddard III,  
 A. Golubeva-Zadorozhnaya,  S. R. Gwaltney,  G. Hawkins,  A. Heyden,  
 S. Hirata,  G. Kedziora,  F. J. Keil,  C. Kelley,  Jihan Kim,  R. A. King,  
 R. Z. Khaliullin,  P. P. Korambath,  W. Kurlancheek,  A. M. Lee,  M. S. Lee,  
 S. V. Levchenko,  Ching Yeh Lin,  D. Liotard,  R. C. Lochan,  I. Lotan,  
 P. E. Maslen,  N. Nair,  D. P. O'Neill,  D. Neuhauser,  E. Neuscamman,  
 C. M. Oana,  R. Olson,  B. Peters,  R. Peverati,  P. A. Pieniazek,  
 Y. M. Rhee,  J. Ritchie,  M. A. Rohrdanz,  E. Rosta,  N. J. Russ,  
 H. F. Schaefer III,  N. E. Schultz,  N. Shenvi,  A. C. Simmonett,  A. Sodt,  
 D. Stuck,  K. S. Thanthiriwatte,  V. Vanovschi,  Tao Wang,  A. Warshel,  
 C. F. Williams,  Q. Wu,  X. Xu,  W. Zhang

 Please cite Q-Chem as follows:
 Y. Shao et al., Mol. Phys. 113, 184-215 (2015)
 DOI: 10.1080/00268976.2014.952696

 Q-Chem 5.1.1 for Intel X86 EM64T Linux

 Parts of Q-Chem use Armadillo 8.300.2 (Tropical Shenanigans).
 http://arma.sourceforge.net/

 Q-Chem begins on Thu Jul  2 17:45:56 2020  

Host: n0089.mhg0
0

     Scratch files written to /local/scratch/users/yhljason/SiO_ccsdT_aug-cc-pcVQZ.inp20200702023604//
The previous job contains 0 fragments, simply inherited here
Input Ideriv = 0
Curr. Ideriv = -1
Max.  Ideriv = 0

Checking the input file for inconsistencies... 	...done.

--------------------------------------------------------------
User input:
--------------------------------------------------------------
$molecule
read
$end

$rem

jobtype sp
method CCSD(T)
xc_grid 000099000590
basis aug-cc-pcVQZ
max_scf_cycles 200
thresh 14
scf_convergence 8
mem_total 128000
cc_memory 96000
cc_backend xm
mem_static 1500
symmetry false
sym_ignore true
scf_guess read
unrestricted true
scf_algorithm gdm
n_frozen_core 0
$end

$multipole_field
XX -0.0001
$end


--------------------------------------------------------------
 ----------------------------------------------------------------
             Standard Nuclear Orientation (Angstroms)
    I     Atom           X                Y                Z
 ----------------------------------------------------------------
    1      Si      0.0000000000     0.0000000000     0.0000000000
    2      O       0.0000000000     0.0000000000     1.5097000000
 ----------------------------------------------------------------
 Nuclear Repulsion Energy =    39.2580298136 hartrees
 There are       11 alpha and       11 beta electrons
 Requested basis set is aug-cc-pCVQZ
 There are 63 shells and 243 basis functions
 Total memory of 128000MB is distributed as follows: 
   QALLOC including MEM_STATIC uses 32000MB
   MEM_STATIC is set to 1500MB
   CCMAN JOB total memory use is  96000MB
 Warning: actual memory use might exceed 128000MB

 Total QAlloc Memory Limit  32000 MB
 Mega-Array Size      1467 MB
 MEM_STATIC part      1500 MB

                       Distance Matrix (Angstroms)
             Si(  1)
   O (  2)  1.509700
 
 Applying Cartesian multipole field
    Component          Value
    ---------          -----
     (2,0,0)       -1.00000E-04
 A cutoff of  1.0D-14 yielded   1954 shell pairs
 There are     29314 function pairs (     48921 Cartesian)
 
 -------------------------------------------------------
 OpenMP Integral Computing Module                       
 Release: version 1.0, May 2013, Q-Chem Inc. Pittsburgh 
 -------------------------------------------------------
 Integral Job Info:
 Integral job number is                      11
 Integral operator is                         1
 short-range coefficients                     0
 long-range coefficients              100000000
 Omega coefficients                           0
 if combine SR and LR in K                    0
 Integral screening is                        0
 Integral computing path is                   2
 max size of driver memory is           3200000
 size of driver memory is               1704330
 size of scratch memory is             29435624
 max col of scratch BK array              50625
 max len of scratch array in speh3         2114
 max len of scratch index in speh4           50
 max int batch size is                      520
 min int batch size is                       52
 fixed nKL is                                22
 max L of basis functions is                  4
 order of int derivative is                   0
 number of shells is                         63
 number of basis is                         313
 number of cartesian basis is               313
 number of contracted shell pairs          1954
 number of primitive shell pairs           7521
 maxK2 (contraction) of shell pair          169
 max number of K2 of shell pair               1
 max number of CS2 of shell pair            189
 max number of PS2 of shell pair           1014
 mem total for path MDJ                  712981
 -------------------------------------------------------
 Smallest overlap matrix eigenvalue = 3.71E-05
 Guess MOs from SCF MO coefficient file

 -----------------------------------------------------------------------
  General SCF calculation program by
  Eric Jon Sundstrom, Paul Horn, Yuezhi Mao, Dmitri Zuev, Alec White,
  David Stuck, Shaama M.S., Shane Yost, Joonho Lee, David Small,
  Daniel Levine, Susi Lehtola, Hugh Burton, Evgeny Epifanovsky
 -----------------------------------------------------------------------
 Hartree-Fock
 using 16 threads for integral computing
 -------------------------------------------------------
 OpenMP Integral computing Module                
 Release: version 2.0, May 2017, Q-Chem Inc. Pleasanton 
 -------------------------------------------------------
 A unrestricted SCF calculation will be
 performed using GDM
 SCF converges when RMS gradient is below 1.0e-08
 ---------------------------------------
  Cycle       Energy        RMS Gradient
 ---------------------------------------
    1    -363.8522619571      2.66e-04   Normal BFGS step
    2    -363.8522625297      8.70e-05   Normal BFGS step
    3    -363.8522626007      7.07e-05   Normal BFGS step
    4    -363.8522626305      1.72e-05   Normal BFGS step
    5    -363.8522626338      1.17e-05   Normal BFGS step
    6    -363.8522626353      3.11e-06   Normal BFGS step
    7    -363.8522626354      8.91e-07   Normal BFGS step
    8    -363.8522626354      2.10e-07   Normal BFGS step
    9    -363.8522626354      7.82e-08   Normal BFGS step
   10    -363.8522626354      2.28e-08   Normal BFGS step
   11    -363.8522626354      5.18e-09  Convergence criterion met
 ---------------------------------------
 SCF time:   CPU 1984.33s  wall 125.00s 
<S^2> =         -0.000000000
 SCF   energy in the final basis set =     -363.8522626354
 Total energy in the final basis set =     -363.8522626354


 ------------------------------------------------------------------------------

   CCMAN2: suite of methods based on coupled cluster
           and equation of motion theories.

   Components:
   * libvmm-1.3-trunk
     by Evgeny Epifanovsky, Ilya Kaliman.
   * libtensor-2.5-trunk
     by Evgeny Epifanovsky, Michael Wormit, Dmitry Zuev, Sam Manzer, 
        Ilya Kaliman.
   * libcc-2.5-trunk
     by Evgeny Epifanovsky, Arik Landau, Tomasz Kus, Kirill Khistyaev, 
        Dmitry Zuev, Prashant Manohar, Xintian Feng, Anna Krylov, 
        Matthew Goldey, Alec White, Thomas Jagau, Kaushik Nanda, 
        Anastasia Gunina, Alexander Kunitsa, Joonho Lee.

   CCMAN original authors:
   Anna I. Krylov, C. David Sherrill, Steven R. Gwaltney,
   Edward F. C. Byrd (2000)
   Sergey V. Levchenko, Lyudmila V. Slipchenko, Tao Wang,
   Ana-Maria C. Cristian (2003)
   Piotr A. Pieniazek, C. Melania Oana, Evgeny Epifanovsky (2007)
   Prashant Manohar (2009)

 ------------------------------------------------------------------------------


 Calculation will run on 16 cores using libxm for tensor contractions

 ------------------------------------------------------------------------------
Libxm Tensor Library
Copyright (c) 2014-2018 Ilya Kaliman
https://github.com/ilyak/libxm
Reference: https://dx.doi.org/10.1002/jcc.24713
 ------------------------------------------------------------------------------

 
 Alpha MOs, Unrestricted
 -- Occupied --                  
-68.819 -20.530  -6.166  -4.268  -4.268  -4.267  -1.262  -0.609
  1 A     2 A     3 A     4 A     5 A     6 A     7 A     8 A                  
 -0.474  -0.474  -0.437
  9 A    10 A    11 A                                                          
 -- Virtual --                   
  0.019   0.020   0.036   0.059   0.070   0.073   0.114   0.123
 12 A    13 A    14 A    15 A    16 A    17 A    18 A    19 A                  
  0.123   0.141   0.142   0.146   0.203   0.205   0.208   0.259
 20 A    21 A    22 A    23 A    24 A    25 A    26 A    27 A                  
  0.294   0.295   0.328   0.328   0.329   0.329   0.329   0.350
 28 A    29 A    30 A    31 A    32 A    33 A    34 A    35 A                  
  0.350   0.386   0.387   0.418   0.430   0.472   0.473   0.608
 36 A    37 A    38 A    39 A    40 A    41 A    42 A    43 A                  
  0.609   0.610   0.663   0.663   0.689   0.882   0.882   0.891
 44 A    45 A    46 A    47 A    48 A    49 A    50 A    51 A                  
  0.893   0.893   0.937   0.937   0.944   0.944   0.963   1.005
 52 A    53 A    54 A    55 A    56 A    57 A    58 A    59 A                  
  1.005   1.009   1.009   1.023   1.023   1.046   1.047   1.135
 60 A    61 A    62 A    63 A    64 A    65 A    66 A    67 A                  
  1.163   1.164   1.174   1.174   1.225   1.325   1.369   1.369
 68 A    69 A    70 A    71 A    72 A    73 A    74 A    75 A                  
  1.567   1.599   1.599   1.702   1.702   1.719   1.782   1.782
 76 A    77 A    78 A    79 A    80 A    81 A    82 A    83 A                  
  1.899   1.971   1.971   2.153   2.153   2.169   2.239   2.239
 84 A    85 A    86 A    87 A    88 A    89 A    90 A    91 A                  
  2.356   2.356   2.414   2.414   2.444   2.445   2.526   2.631
 92 A    93 A    94 A    95 A    96 A    97 A    98 A    99 A                  
  2.631   2.642   2.642   2.687   2.687   2.846   2.846   2.855
100 A   101 A   102 A   103 A   104 A   105 A   106 A   107 A                  
  2.855   2.874   3.084   3.384   3.384   3.726   3.726   3.792
108 A   109 A   110 A   111 A   112 A   113 A   114 A   115 A                  
  3.975   3.975   3.993   3.993   4.196   4.250   4.250   4.344
116 A   117 A   118 A   119 A   120 A   121 A   122 A   123 A                  
  4.344   4.404   4.404   4.498   4.569   4.569   4.585   4.789
124 A   125 A   126 A   127 A   128 A   129 A   130 A   131 A                  
  4.789   4.826   4.826   5.243   5.462   5.462   5.464   6.258
132 A   133 A   134 A   135 A   136 A   137 A   138 A   139 A                  
  6.845   6.845   7.385   7.385   8.227   9.913   9.913  10.697
140 A   141 A   142 A   143 A   144 A   145 A   146 A   147 A                  
 10.697  10.793  10.793  10.848  11.013  11.013  11.018  11.018
148 A   149 A   150 A   151 A   152 A   153 A   154 A   155 A                  
 11.020  11.758  11.758  11.993  11.993  12.167  12.167  12.243
156 A   157 A   158 A   159 A   160 A   161 A   162 A   163 A                  
 12.439  12.439  12.694  12.891  12.891  13.327  13.327  13.517
164 A   165 A   166 A   167 A   168 A   169 A   170 A   171 A                  
 13.948  13.948  14.017  14.017  14.212  14.212  14.735  17.649
172 A   173 A   174 A   175 A   176 A   177 A   178 A   179 A                  
 18.737  21.877  21.877  22.191  22.191  22.861  32.876  32.876
180 A   181 A   182 A   183 A   184 A   185 A   186 A   187 A                  
 33.576  33.687  33.687  34.520  39.128  39.128  39.134  39.134
188 A   189 A   190 A   191 A   192 A   193 A   194 A   195 A                  
 39.140  39.140  39.150  39.150  39.163  47.228  47.228  47.464
196 A   197 A   198 A   199 A   200 A   201 A   202 A   203 A                  
 47.464  47.623  48.534  48.534  48.567  48.567  48.664  48.664
204 A   205 A   206 A   207 A   208 A   209 A   210 A   211 A                  
 48.804  55.263  64.065  64.745  64.745  64.963  64.963  65.478
212 A   213 A   214 A   215 A   216 A   217 A   218 A   219 A                  
102.117 102.117 102.662 103.420 103.420 103.442 103.442 103.471
220 A   221 A   222 A   223 A   224 A   225 A   226 A   227 A                  
103.471 103.502 116.950 116.950 117.641 198.697 198.697 198.826
228 A   229 A   230 A   231 A   232 A   233 A   234 A   235 A                  
198.826 198.933 216.618 267.383 395.469 395.469 396.028 895.430
236 A   237 A   238 A   239 A   240 A   241 A   242 A   243 A                  
 
 Beta MOs, Unrestricted
 -- Occupied --                  
-68.819 -20.530  -6.166  -4.268  -4.268  -4.267  -1.262  -0.609
  1 A     2 A     3 A     4 A     5 A     6 A     7 A     8 A                  
 -0.474  -0.474  -0.437
  9 A    10 A    11 A                                                          
 -- Virtual --                   
  0.019   0.020   0.036   0.059   0.070   0.073   0.114   0.123
 12 A    13 A    14 A    15 A    16 A    17 A    18 A    19 A                  
  0.123   0.141   0.142   0.146   0.203   0.205   0.208   0.259
 20 A    21 A    22 A    23 A    24 A    25 A    26 A    27 A                  
  0.294   0.295   0.328   0.328   0.329   0.329   0.329   0.350
 28 A    29 A    30 A    31 A    32 A    33 A    34 A    35 A                  
  0.350   0.386   0.387   0.418   0.430   0.472   0.473   0.608
 36 A    37 A    38 A    39 A    40 A    41 A    42 A    43 A                  
  0.609   0.610   0.663   0.663   0.689   0.882   0.882   0.891
 44 A    45 A    46 A    47 A    48 A    49 A    50 A    51 A                  
  0.893   0.893   0.937   0.937   0.944   0.944   0.963   1.005
 52 A    53 A    54 A    55 A    56 A    57 A    58 A    59 A                  
  1.005   1.009   1.009   1.023   1.023   1.046   1.047   1.135
 60 A    61 A    62 A    63 A    64 A    65 A    66 A    67 A                  
  1.163   1.164   1.174   1.174   1.225   1.325   1.369   1.369
 68 A    69 A    70 A    71 A    72 A    73 A    74 A    75 A                  
  1.567   1.599   1.599   1.702   1.702   1.719   1.782   1.782
 76 A    77 A    78 A    79 A    80 A    81 A    82 A    83 A                  
  1.899   1.971   1.971   2.153   2.153   2.169   2.239   2.239
 84 A    85 A    86 A    87 A    88 A    89 A    90 A    91 A                  
  2.356   2.356   2.414   2.414   2.444   2.445   2.526   2.631
 92 A    93 A    94 A    95 A    96 A    97 A    98 A    99 A                  
  2.631   2.642   2.642   2.687   2.687   2.846   2.846   2.855
100 A   101 A   102 A   103 A   104 A   105 A   106 A   107 A                  
  2.855   2.874   3.084   3.384   3.384   3.726   3.726   3.792
108 A   109 A   110 A   111 A   112 A   113 A   114 A   115 A                  
  3.975   3.975   3.993   3.993   4.196   4.250   4.250   4.344
116 A   117 A   118 A   119 A   120 A   121 A   122 A   123 A                  
  4.344   4.404   4.404   4.498   4.569   4.569   4.585   4.789
124 A   125 A   126 A   127 A   128 A   129 A   130 A   131 A                  
  4.789   4.826   4.826   5.243   5.462   5.462   5.464   6.258
132 A   133 A   134 A   135 A   136 A   137 A   138 A   139 A                  
  6.845   6.845   7.385   7.385   8.227   9.913   9.913  10.697
140 A   141 A   142 A   143 A   144 A   145 A   146 A   147 A                  
 10.697  10.793  10.793  10.848  11.013  11.013  11.018  11.018
148 A   149 A   150 A   151 A   152 A   153 A   154 A   155 A                  
 11.020  11.758  11.758  11.993  11.993  12.167  12.167  12.243
156 A   157 A   158 A   159 A   160 A   161 A   162 A   163 A                  
 12.439  12.439  12.694  12.891  12.891  13.327  13.327  13.517
164 A   165 A   166 A   167 A   168 A   169 A   170 A   171 A                  
 13.948  13.948  14.017  14.017  14.212  14.212  14.735  17.649
172 A   173 A   174 A   175 A   176 A   177 A   178 A   179 A                  
 18.737  21.877  21.877  22.191  22.191  22.861  32.876  32.876
180 A   181 A   182 A   183 A   184 A   185 A   186 A   187 A                  
 33.576  33.687  33.687  34.520  39.128  39.128  39.134  39.134
188 A   189 A   190 A   191 A   192 A   193 A   194 A   195 A                  
 39.140  39.140  39.150  39.150  39.163  47.228  47.228  47.464
196 A   197 A   198 A   199 A   200 A   201 A   202 A   203 A                  
 47.464  47.623  48.534  48.534  48.567  48.567  48.664  48.664
204 A   205 A   206 A   207 A   208 A   209 A   210 A   211 A                  
 48.804  55.263  64.065  64.745  64.745  64.963  64.963  65.478
212 A   213 A   214 A   215 A   216 A   217 A   218 A   219 A                  
102.117 102.117 102.662 103.420 103.420 103.442 103.442 103.471
220 A   221 A   222 A   223 A   224 A   225 A   226 A   227 A                  
103.471 103.502 116.950 116.950 117.641 198.697 198.697 198.826
228 A   229 A   230 A   231 A   232 A   233 A   234 A   235 A                  
198.826 198.933 216.618 267.383 395.469 395.469 396.028 895.430
236 A   237 A   238 A   239 A   240 A   241 A   242 A   243 A                  

 Occupation and symmetry of molecular orbitals

 Point group: C1 (1 irreducible representation).

                           A     All 
 -------------------------------------
 All molecular orbitals:
  - Alpha                  243   243 
  - Beta                   243   243 
 -------------------------------------
 Alpha orbitals:
  - Frozen occupied        0     0   
  - Active occupied        11    11  
  - Active virtual         232   232 
  - Frozen virtual         0     0   
 -------------------------------------
 Beta orbitals:
  - Frozen occupied        0     0   
  - Active occupied        11    11  
  - Active virtual         232   232 
  - Frozen virtual         0     0   
 -------------------------------------

 Import integrals:   CPU 0.00 s  wall 0.00 s

 Import integrals:   CPU 2848.13 s  wall 361.34 s

 MP2 amplitudes:   CPU 12.89 s  wall 4.77 s

Running a double precision version
           CCSD T amplitudes will be solved using DIIS.

           Start     Size      MaxIter   EConv     TConv     
           3         7         100       1.00e-06  1.00e-04  
 ------------------------------------------------------------------------------
           Energy (a.u.)   Ediff      Tdiff       Comment
 ------------------------------------------------------------------------------
          -364.64779977                           
     1    -364.62672380   2.11e-02   5.59e-01     Step took 01.13.
     2    -364.64749552   2.08e-02   8.31e-02     
     3    -364.64242325   5.07e-03   4.32e-02     
     4    -364.64522523   2.80e-03   4.51e-02     Switched to DIIS steps.
     5    -364.64595599   7.31e-04   9.96e-03     
     6    -364.64597560   1.96e-05   2.83e-03     
     7    -364.64597027   5.33e-06   1.05e-03     
     8    -364.64597412   3.85e-06   4.36e-04     
     9    -364.64597749   3.37e-06   1.65e-04     
    10    -364.64597650   9.89e-07   3.63e-05     
 ------------------------------------------------------------------------------
          -364.64597650                           CCSD T converged.

End of double precision

----------------------------------------
libpt (c) 2016-2018 Ilya Kaliman
Fast Coupled Cluster Triples Corrections
https://github.com/ilyak/libpt
----------------------------------------

 Starting (T) calculation...
 Using double precision libpt code
 (T) calculation completed in 1139 sec
 (T) energy is -0.0242767733

 SCF energy                 = -363.85226264
 MP2 energy                 = -364.64779977
 CCSD correlation energy     =   -0.79371387
 CCSD total energy           = -364.64597650
 CCSD(T) correlation energy =   -0.02427677
 CCSD(T) total energy       = -364.67025328

 CCSD  T1^2 = 0.0128  T2^2 = 0.1467  Leading amplitudes:

 Amplitude    Orbitals with energies
  0.0361       9 (A) B                   ->    13 (A) B                   
              -0.4743                          0.0203                     
  0.0361       9 (A) A                   ->    13 (A) A                   
              -0.4743                          0.0203                     
  0.0353       10 (A) B                  ->    12 (A) B                   
              -0.4743                          0.0188                     
  0.0353       10 (A) A                  ->    12 (A) A                   
              -0.4743                          0.0188                     

 Amplitude    Orbitals with energies
 -0.0383       11 (A) A      11 (A) B    ->    13 (A) A      13 (A) B     
              -0.4373       -0.4373            0.0203        0.0203       
  0.0383       11 (A) A      11 (A) B    ->    13 (A) B      13 (A) A     
              -0.4373       -0.4373            0.0203        0.0203       
  0.0383       11 (A) B      11 (A) A    ->    13 (A) A      13 (A) B     
              -0.4373       -0.4373            0.0203        0.0203       
 -0.0383       11 (A) B      11 (A) A    ->    13 (A) B      13 (A) A     
              -0.4373       -0.4373            0.0203        0.0203       

 CCSD calculation:   CPU 26512.81 s  wall 1955.27 s

 Total ccman2 time:   CPU 29430.68 s  wall 2355.87 s

 
 --------------------------------------------------------------
 
                    Orbital Energies (a.u.)
 --------------------------------------------------------------
 
 Alpha MOs
 -- Occupied --
-68.819 -20.530  -6.166  -4.268  -4.268  -4.267  -1.262  -0.609
 -0.474  -0.474  -0.437
 -- Virtual --
  0.019   0.020   0.036   0.059   0.070   0.073   0.114   0.123
  0.123   0.141   0.142   0.146   0.203   0.205   0.208   0.259
  0.294   0.295   0.328   0.328   0.329   0.329   0.329   0.350
  0.350   0.386   0.387   0.418   0.430   0.472   0.473   0.608
  0.609   0.610   0.663   0.663   0.689   0.882   0.882   0.891
  0.893   0.893   0.937   0.937   0.944   0.944   0.963   1.005
  1.005   1.009   1.009   1.023   1.023   1.046   1.047   1.135
  1.163   1.164   1.174   1.174   1.225   1.325   1.369   1.369
  1.567   1.599   1.599   1.702   1.702   1.719   1.782   1.782
  1.899   1.971   1.971   2.153   2.153   2.169   2.239   2.239
  2.356   2.356   2.414   2.414   2.444   2.445   2.526   2.631
  2.631   2.642   2.642   2.687   2.687   2.846   2.846   2.855
  2.855   2.874   3.084   3.384   3.384   3.726   3.726   3.792
  3.975   3.975   3.993   3.993   4.196   4.250   4.250   4.344
  4.344   4.404   4.404   4.498   4.569   4.569   4.585   4.789
  4.789   4.826   4.826   5.243   5.462   5.462   5.464   6.258
  6.845   6.845   7.385   7.385   8.227   9.913   9.913  10.697
 10.697  10.793  10.793  10.848  11.013  11.013  11.018  11.018
 11.020  11.758  11.758  11.993  11.993  12.167  12.167  12.243
 12.439  12.439  12.694  12.891  12.891  13.327  13.327  13.517
 13.948  13.948  14.017  14.017  14.212  14.212  14.735  17.649
 18.737  21.877  21.877  22.191  22.191  22.861  32.876  32.876
 33.576  33.687  33.687  34.520  39.128  39.128  39.134  39.134
 39.140  39.140  39.150  39.150  39.163  47.228  47.228  47.464
 47.464  47.623  48.534  48.534  48.567  48.567  48.664  48.664
 48.804  55.263  64.065  64.745  64.745  64.963  64.963  65.478
102.117 102.117 102.662 103.420 103.420 103.442 103.442 103.471
103.471 103.502 116.950 116.950 117.641 198.697 198.697 198.826
198.826 198.933 216.618 267.383 395.469 395.469 396.028 895.430
 
 Beta MOs
 -- Occupied --
-68.819 -20.530  -6.166  -4.268  -4.268  -4.267  -1.262  -0.609
 -0.474  -0.474  -0.437
 -- Virtual --
  0.019   0.020   0.036   0.059   0.070   0.073   0.114   0.123
  0.123   0.141   0.142   0.146   0.203   0.205   0.208   0.259
  0.294   0.295   0.328   0.328   0.329   0.329   0.329   0.350
  0.350   0.386   0.387   0.418   0.430   0.472   0.473   0.608
  0.609   0.610   0.663   0.663   0.689   0.882   0.882   0.891
  0.893   0.893   0.937   0.937   0.944   0.944   0.963   1.005
  1.005   1.009   1.009   1.023   1.023   1.046   1.047   1.135
  1.163   1.164   1.174   1.174   1.225   1.325   1.369   1.369
  1.567   1.599   1.599   1.702   1.702   1.719   1.782   1.782
  1.899   1.971   1.971   2.153   2.153   2.169   2.239   2.239
  2.356   2.356   2.414   2.414   2.444   2.445   2.526   2.631
  2.631   2.642   2.642   2.687   2.687   2.846   2.846   2.855
  2.855   2.874   3.084   3.384   3.384   3.726   3.726   3.792
  3.975   3.975   3.993   3.993   4.196   4.250   4.250   4.344
  4.344   4.404   4.404   4.498   4.569   4.569   4.585   4.789
  4.789   4.826   4.826   5.243   5.462   5.462   5.464   6.258
  6.845   6.845   7.385   7.385   8.227   9.913   9.913  10.697
 10.697  10.793  10.793  10.848  11.013  11.013  11.018  11.018
 11.020  11.758  11.758  11.993  11.993  12.167  12.167  12.243
 12.439  12.439  12.694  12.891  12.891  13.327  13.327  13.517
 13.948  13.948  14.017  14.017  14.212  14.212  14.735  17.649
 18.737  21.877  21.877  22.191  22.191  22.861  32.876  32.876
 33.576  33.687  33.687  34.520  39.128  39.128  39.134  39.134
 39.140  39.140  39.150  39.150  39.163  47.228  47.228  47.464
 47.464  47.623  48.534  48.534  48.567  48.567  48.664  48.664
 48.804  55.263  64.065  64.745  64.745  64.963  64.963  65.478
102.117 102.117 102.662 103.420 103.420 103.442 103.442 103.471
103.471 103.502 116.950 116.950 117.641 198.697 198.697 198.826
198.826 198.933 216.618 267.383 395.469 395.469 396.028 895.430
 --------------------------------------------------------------
 
          Ground-State Mulliken Net Atomic Charges

     Atom                 Charge (a.u.)    Spin (a.u.)
  --------------------------------------------------------
      1 Si                    0.935970       0.000000
      2 O                    -0.935970      -0.000000
  --------------------------------------------------------
  Sum of atomic charges =    -0.000000
  Sum of spin   charges =     0.000000

 -----------------------------------------------------------------
                    Cartesian Multipole Moments
 -----------------------------------------------------------------
    Charge (ESU x 10^10)
                -0.0000
    Dipole Moment (Debye)
         X       0.0000      Y      -0.0000      Z      -3.7305
       Tot       3.7305
    Quadrupole Moments (Debye-Ang)
        XX     -16.0688     XY      -0.0000     YY     -16.0858
        XZ       0.0000     YZ       0.0000     ZZ     -25.3726
    Octopole Moments (Debye-Ang^2)
       XXX       0.0000    XXY      -0.0000    XYY       0.0000
       YYY      -0.0000    XXZ      -8.9095    XYZ      -0.0000
       YYZ      -8.9105    XZZ       0.0000    YZZ      -0.0000
       ZZZ     -35.8188
    Hexadecapole Moments (Debye-Ang^3)
      XXXX     -20.5588   XXXY      -0.0000   XXYY      -6.8661
      XYYY      -0.0000   YYYY     -20.6378   XXXZ      -0.0000
      XXYZ       0.0000   XYYZ      -0.0000   YYYZ      -0.0000
      XXZZ     -22.5063   XYZZ      -0.0000   YYZZ     -22.5255
      XZZZ       0.0000   YZZZ      -0.0000   ZZZZ    -125.5875
 -----------------------------------------------------------------
Archival summary:
1\1\n0089.mhg0\SP\ProcedureUnspecified\BasisUnspecified\i11\yhljason\ThuJul218:27:352020ThuJul218:27:352020\0\\#,ProcedureUnspecified,BasisUnspecified,\\0,1\Si\O,1,1.5097\\HF=-363.852263\\@

 Total job time:  2499.24s(wall), 31446.21s(cpu) 
 Thu Jul  2 18:27:35 2020

        *************************************************************
        *                                                           *
        *  Thank you very much for using Q-Chem.  Have a nice day.  *
        *                                                           *
        *************************************************************


 
User input: 3 of 6 
 
Q-Chem Developer Version!
                  Welcome to Q-Chem
     A Quantum Leap Into The Future Of Chemistry


 Q-Chem 5.1, Q-Chem, Inc., Pleasanton, CA (2018)

 Yihan Shao,  Zhengting Gan,  E. Epifanovsky,  A. T. B. Gilbert,  M. Wormit,  
 J. Kussmann,  A. W. Lange,  A. Behn,  Jia Deng,  Xintian Feng,  D. Ghosh,  
 M. Goldey,  P. R. Horn,  L. D. Jacobson,  I. Kaliman,  T. Kus,  A. Landau,  
 Jie Liu,  E. I. Proynov,  R. M. Richard,  R. P. Steele,  E. J. Sundstrom,  
 H. L. Woodcock III,  P. M. Zimmerman,  D. Zuev,  B. Albrecht,  E. Alguire,  
 S. A. Baeppler,  D. Barton,  Z. Benda,  Y. A. Bernard,  E. J. Berquist,  
 K. B. Bravaya,  H. Burton,  D. Casanova,  Chun-Min Chang,  Yunqing Chen,  
 A. Chien,  K. D. Closser,  M. P. Coons,  S. Coriani,  S. Dasgupta,  
 A. L. Dempwolff,  M. Diedenhofen,  Hainam Do,  R. G. Edgar,  Po-Tung Fang,  
 S. Faraji,  S. Fatehi,  Qingguo Feng,  K. D. Fenk,  J. Fosso-Tande,  
 Qinghui Ge,  A. Ghysels,  G. Gidofalvi,  J. Gomes,  J. Gonthier,  A. Gunina,  
 D. Hait,  M. W. D. Hanson-Heine,  P. H. P. Harbach,  A. W. Hauser,  
 J. E. Herr,  E. G. Hohenstein,  Z. C. Holden,  Kerwin Hui,  B. C. Huynh,  
 T.-C. Jagau,  Hyunjun Ji,  B. Kaduk,  K. Khistyaev,  Jaehoon Kim,  
 P. Klunzinger,  K. Koh,  D. Kosenkov,  L. Koulias,  T. Kowalczyk,  
 C. M. Krauter,  A. Kunitsa,  Ka Un Lao,  A. Laurent,  K. V. Lawler,  
 Joonho Lee,  D. Lefrancois,  S. Lehtola,  D. S. Levine,  Yi-Pei Li,  
 You-Sheng Lin,  Fenglai Liu,  E. Livshits,  A. Luenser,  P. Manohar,  
 E. Mansoor,  S. F. Manzer,  Shan-Ping Mao,  Yuezhi Mao,  N. Mardirossian,  
 A. V. Marenich,  T. Markovich,  L. A. Martinez-Martinez,  S. A. Maurer,  
 N. J. Mayhall,  S. C. McKenzie,  J.-M. Mewes,  A. F. Morrison,  
 J. W. Mullinax,  K. Nanda,  T. S. Nguyen-Beck,  R. Olivares-Amaya,  
 J. A. Parkhill,  T. M. Perrine,  F. Plasser,  P. Pokhilko,  S. Prager,  
 A. Prociuk,  E. Ramos,  D. R. Rehn,  F. Rob,  M. Schneider,  N. Sergueev,  
 S. M. Sharada,  S. Sharma,  D. W. Small,  T. Stauch,  T. Stein,  
 Yu-Chuan Su,  A. J. W. Thom,  A. Tkatchenko,  T. Tsuchimochi,  N. M. Tubman,  
 L. Vogt,  M. L. Vidal,  O. Vydrov,  M. A. Watson,  J. Wenzel,  
 M. de Wergifosse,  T. A. Wesolowski,  A. White,  J. Witte,  A. Yamada,  
 Jun Yang,  K. Yao,  S. Yeganeh,  S. R. Yost,  Zhi-Qiang You,  A. Zech,  
 Igor Ying Zhang,  Xing Zhang,  Yan Zhao,  Ying Zhu,  B. R. Brooks,  
 G. K. L. Chan,  C. J. Cramer,  M. S. Gordon,  W. J. Hehre,  A. Klamt,  
 M. W. Schmidt,  C. D. Sherrill,  D. G. Truhlar,  A. Aspuru-Guzik,  R. Baer,  
 A. T. Bell,  N. A. Besley,  Jeng-Da Chai,  A. E. DePrince, III,  
 R. A. DiStasio Jr.,  A. Dreuw,  B. D. Dunietz,  T. R. Furlani,  
 Chao-Ping Hsu,  Yousung Jung,  Jing Kong,  D. S. Lambrecht,  WanZhen Liang,  
 C. Ochsenfeld,  V. A. Rassolov,  L. V. Slipchenko,  J. E. Subotnik,  
 T. Van Voorhis,  J. M. Herbert,  A. I. Krylov,  P. M. W. Gill,  M. Head-Gordon

 Contributors to earlier versions of Q-Chem not listed above: 
 R. D. Adamson,  B. Austin,  J. Baker,  G. J. O. Beran,  K. Brandhorst,  
 S. T. Brown,  E. F. C. Byrd,  A. K. Chakraborty,  C.-L. Cheng,  
 Siu Hung Chien,  D. M. Chipman,  D. L. Crittenden,  H. Dachsel,  
 R. J. Doerksen,  A. D. Dutoi,  L. Fusti-Molnar,  W. A. Goddard III,  
 A. Golubeva-Zadorozhnaya,  S. R. Gwaltney,  G. Hawkins,  A. Heyden,  
 S. Hirata,  G. Kedziora,  F. J. Keil,  C. Kelley,  Jihan Kim,  R. A. King,  
 R. Z. Khaliullin,  P. P. Korambath,  W. Kurlancheek,  A. M. Lee,  M. S. Lee,  
 S. V. Levchenko,  Ching Yeh Lin,  D. Liotard,  R. C. Lochan,  I. Lotan,  
 P. E. Maslen,  N. Nair,  D. P. O'Neill,  D. Neuhauser,  E. Neuscamman,  
 C. M. Oana,  R. Olson,  B. Peters,  R. Peverati,  P. A. Pieniazek,  
 Y. M. Rhee,  J. Ritchie,  M. A. Rohrdanz,  E. Rosta,  N. J. Russ,  
 H. F. Schaefer III,  N. E. Schultz,  N. Shenvi,  A. C. Simmonett,  A. Sodt,  
 D. Stuck,  K. S. Thanthiriwatte,  V. Vanovschi,  Tao Wang,  A. Warshel,  
 C. F. Williams,  Q. Wu,  X. Xu,  W. Zhang

 Please cite Q-Chem as follows:
 Y. Shao et al., Mol. Phys. 113, 184-215 (2015)
 DOI: 10.1080/00268976.2014.952696

 Q-Chem 5.1.1 for Intel X86 EM64T Linux

 Parts of Q-Chem use Armadillo 8.300.2 (Tropical Shenanigans).
 http://arma.sourceforge.net/

 Q-Chem begins on Thu Jul  2 18:27:35 2020  

Host: n0089.mhg0
0

     Scratch files written to /local/scratch/users/yhljason/SiO_ccsdT_aug-cc-pcVQZ.inp20200702023604//
The previous job contains 0 fragments, simply inherited here
Input Ideriv = 0
Curr. Ideriv = -1
Max.  Ideriv = 0

Checking the input file for inconsistencies... 	...done.

--------------------------------------------------------------
User input:
--------------------------------------------------------------
$molecule
read
$end

$rem

jobtype sp
method CCSD(T)
xc_grid 000099000590
basis aug-cc-pcVQZ
max_scf_cycles 200
thresh 14
scf_convergence 8
mem_total 128000
cc_memory 96000
cc_backend xm
mem_static 1500
symmetry false
sym_ignore true
scf_guess read
unrestricted true
scf_algorithm gdm
n_frozen_core 0
$end

$multipole_field
YY -0.0001
$end


--------------------------------------------------------------
 ----------------------------------------------------------------
             Standard Nuclear Orientation (Angstroms)
    I     Atom           X                Y                Z
 ----------------------------------------------------------------
    1      Si      0.0000000000     0.0000000000     0.0000000000
    2      O       0.0000000000     0.0000000000     1.5097000000
 ----------------------------------------------------------------
 Nuclear Repulsion Energy =    39.2580298136 hartrees
 There are       11 alpha and       11 beta electrons
 Requested basis set is aug-cc-pCVQZ
 There are 63 shells and 243 basis functions
 Total memory of 128000MB is distributed as follows: 
   QALLOC including MEM_STATIC uses 32000MB
   MEM_STATIC is set to 1500MB
   CCMAN JOB total memory use is  96000MB
 Warning: actual memory use might exceed 128000MB

 Total QAlloc Memory Limit  32000 MB
 Mega-Array Size      1467 MB
 MEM_STATIC part      1500 MB

                       Distance Matrix (Angstroms)
             Si(  1)
   O (  2)  1.509700
 
 Applying Cartesian multipole field
    Component          Value
    ---------          -----
     (0,2,0)       -1.00000E-04
 A cutoff of  1.0D-14 yielded   1954 shell pairs
 There are     29314 function pairs (     48921 Cartesian)
 
 -------------------------------------------------------
 OpenMP Integral Computing Module                       
 Release: version 1.0, May 2013, Q-Chem Inc. Pittsburgh 
 -------------------------------------------------------
 Integral Job Info:
 Integral job number is                      11
 Integral operator is                         1
 short-range coefficients                     0
 long-range coefficients              100000000
 Omega coefficients                           0
 if combine SR and LR in K                    0
 Integral screening is                        0
 Integral computing path is                   2
 max size of driver memory is           3200000
 size of driver memory is               1704330
 size of scratch memory is             29435624
 max col of scratch BK array              50625
 max len of scratch array in speh3         2114
 max len of scratch index in speh4           50
 max int batch size is                      520
 min int batch size is                       52
 fixed nKL is                                22
 max L of basis functions is                  4
 order of int derivative is                   0
 number of shells is                         63
 number of basis is                         313
 number of cartesian basis is               313
 number of contracted shell pairs          1954
 number of primitive shell pairs           7521
 maxK2 (contraction) of shell pair          169
 max number of K2 of shell pair               1
 max number of CS2 of shell pair            189
 max number of PS2 of shell pair           1014
 mem total for path MDJ                  712981
 -------------------------------------------------------
 Smallest overlap matrix eigenvalue = 3.71E-05
 Guess MOs from SCF MO coefficient file

 -----------------------------------------------------------------------
  General SCF calculation program by
  Eric Jon Sundstrom, Paul Horn, Yuezhi Mao, Dmitri Zuev, Alec White,
  David Stuck, Shaama M.S., Shane Yost, Joonho Lee, David Small,
  Daniel Levine, Susi Lehtola, Hugh Burton, Evgeny Epifanovsky
 -----------------------------------------------------------------------
 Hartree-Fock
 using 16 threads for integral computing
 -------------------------------------------------------
 OpenMP Integral computing Module                
 Release: version 2.0, May 2017, Q-Chem Inc. Pleasanton 
 -------------------------------------------------------
 A unrestricted SCF calculation will be
 performed using GDM
 SCF converges when RMS gradient is below 1.0e-08
 ---------------------------------------
  Cycle       Energy        RMS Gradient
 ---------------------------------------
    1    -363.8522613743      5.11e-04   Normal BFGS step
    2    -363.8522624408      1.64e-04   Normal BFGS step
    3    -363.8522626079      4.15e-05   Normal BFGS step
    4    -363.8522626256      2.09e-05   Normal BFGS step
    5    -363.8522626351      8.05e-06   Normal BFGS step
    6    -363.8522626354      1.96e-06   Normal BFGS step
    7    -363.8522626354      6.01e-07   Normal BFGS step
    8    -363.8522626354      3.63e-07   Normal BFGS step
    9    -363.8522626354      2.55e-08   Normal BFGS step
   10    -363.8522626354      5.33e-09  Convergence criterion met
 ---------------------------------------
 SCF time:   CPU 1815.85s  wall 115.00s 
<S^2> =         -0.000000000
 SCF   energy in the final basis set =     -363.8522626354
 Total energy in the final basis set =     -363.8522626354


 ------------------------------------------------------------------------------

   CCMAN2: suite of methods based on coupled cluster
           and equation of motion theories.

   Components:
   * libvmm-1.3-trunk
     by Evgeny Epifanovsky, Ilya Kaliman.
   * libtensor-2.5-trunk
     by Evgeny Epifanovsky, Michael Wormit, Dmitry Zuev, Sam Manzer, 
        Ilya Kaliman.
   * libcc-2.5-trunk
     by Evgeny Epifanovsky, Arik Landau, Tomasz Kus, Kirill Khistyaev, 
        Dmitry Zuev, Prashant Manohar, Xintian Feng, Anna Krylov, 
        Matthew Goldey, Alec White, Thomas Jagau, Kaushik Nanda, 
        Anastasia Gunina, Alexander Kunitsa, Joonho Lee.

   CCMAN original authors:
   Anna I. Krylov, C. David Sherrill, Steven R. Gwaltney,
   Edward F. C. Byrd (2000)
   Sergey V. Levchenko, Lyudmila V. Slipchenko, Tao Wang,
   Ana-Maria C. Cristian (2003)
   Piotr A. Pieniazek, C. Melania Oana, Evgeny Epifanovsky (2007)
   Prashant Manohar (2009)

 ------------------------------------------------------------------------------


 Calculation will run on 16 cores using libxm for tensor contractions

 ------------------------------------------------------------------------------
Libxm Tensor Library
Copyright (c) 2014-2018 Ilya Kaliman
https://github.com/ilyak/libxm
Reference: https://dx.doi.org/10.1002/jcc.24713
 ------------------------------------------------------------------------------

 
 Alpha MOs, Unrestricted
 -- Occupied --                  
-68.819 -20.530  -6.166  -4.268  -4.268  -4.267  -1.262  -0.609
  1 A     2 A     3 A     4 A     5 A     6 A     7 A     8 A                  
 -0.474  -0.474  -0.437
  9 A    10 A    11 A                                                          
 -- Virtual --                   
  0.019   0.020   0.036   0.059   0.070   0.073   0.114   0.123
 12 A    13 A    14 A    15 A    16 A    17 A    18 A    19 A                  
  0.123   0.141   0.142   0.146   0.203   0.205   0.208   0.259
 20 A    21 A    22 A    23 A    24 A    25 A    26 A    27 A                  
  0.294   0.295   0.328   0.328   0.329   0.329   0.329   0.350
 28 A    29 A    30 A    31 A    32 A    33 A    34 A    35 A                  
  0.350   0.386   0.387   0.418   0.430   0.472   0.473   0.608
 36 A    37 A    38 A    39 A    40 A    41 A    42 A    43 A                  
  0.609   0.610   0.663   0.663   0.689   0.882   0.882   0.891
 44 A    45 A    46 A    47 A    48 A    49 A    50 A    51 A                  
  0.893   0.893   0.937   0.937   0.944   0.944   0.963   1.005
 52 A    53 A    54 A    55 A    56 A    57 A    58 A    59 A                  
  1.005   1.009   1.009   1.023   1.023   1.046   1.047   1.135
 60 A    61 A    62 A    63 A    64 A    65 A    66 A    67 A                  
  1.163   1.164   1.174   1.174   1.225   1.325   1.369   1.369
 68 A    69 A    70 A    71 A    72 A    73 A    74 A    75 A                  
  1.567   1.599   1.599   1.702   1.702   1.719   1.782   1.782
 76 A    77 A    78 A    79 A    80 A    81 A    82 A    83 A                  
  1.899   1.971   1.971   2.153   2.153   2.169   2.239   2.239
 84 A    85 A    86 A    87 A    88 A    89 A    90 A    91 A                  
  2.356   2.356   2.414   2.414   2.444   2.445   2.526   2.631
 92 A    93 A    94 A    95 A    96 A    97 A    98 A    99 A                  
  2.631   2.642   2.642   2.687   2.687   2.846   2.846   2.855
100 A   101 A   102 A   103 A   104 A   105 A   106 A   107 A                  
  2.855   2.874   3.084   3.384   3.384   3.726   3.726   3.792
108 A   109 A   110 A   111 A   112 A   113 A   114 A   115 A                  
  3.975   3.975   3.993   3.993   4.196   4.250   4.250   4.344
116 A   117 A   118 A   119 A   120 A   121 A   122 A   123 A                  
  4.344   4.404   4.404   4.498   4.569   4.569   4.585   4.789
124 A   125 A   126 A   127 A   128 A   129 A   130 A   131 A                  
  4.789   4.826   4.826   5.243   5.462   5.462   5.464   6.258
132 A   133 A   134 A   135 A   136 A   137 A   138 A   139 A                  
  6.845   6.845   7.385   7.385   8.227   9.913   9.913  10.697
140 A   141 A   142 A   143 A   144 A   145 A   146 A   147 A                  
 10.697  10.793  10.793  10.848  11.013  11.013  11.018  11.018
148 A   149 A   150 A   151 A   152 A   153 A   154 A   155 A                  
 11.020  11.758  11.758  11.993  11.993  12.167  12.167  12.243
156 A   157 A   158 A   159 A   160 A   161 A   162 A   163 A                  
 12.439  12.439  12.694  12.891  12.891  13.327  13.327  13.517
164 A   165 A   166 A   167 A   168 A   169 A   170 A   171 A                  
 13.948  13.948  14.017  14.017  14.212  14.212  14.735  17.649
172 A   173 A   174 A   175 A   176 A   177 A   178 A   179 A                  
 18.737  21.877  21.877  22.191  22.191  22.861  32.876  32.876
180 A   181 A   182 A   183 A   184 A   185 A   186 A   187 A                  
 33.576  33.687  33.687  34.520  39.128  39.128  39.134  39.134
188 A   189 A   190 A   191 A   192 A   193 A   194 A   195 A                  
 39.140  39.140  39.150  39.150  39.163  47.228  47.228  47.464
196 A   197 A   198 A   199 A   200 A   201 A   202 A   203 A                  
[...]
 -0.474  -0.474  -0.438
  9 A    10 A    11 A                                                          
 -- Virtual --                   
  0.018   0.018   0.033   0.057   0.069   0.069   0.113   0.121
 12 A    13 A    14 A    15 A    16 A    17 A    18 A    19 A                  
  0.121   0.140   0.140   0.145   0.203   0.203   0.207   0.258
 20 A    21 A    22 A    23 A    24 A    25 A    26 A    27 A                  
  0.294   0.294   0.327   0.327   0.327   0.327   0.328   0.349
 28 A    29 A    30 A    31 A    32 A    33 A    34 A    35 A                  
  0.349   0.386   0.386   0.417   0.429   0.472   0.472   0.608
 36 A    37 A    38 A    39 A    40 A    41 A    42 A    43 A                  
  0.608   0.610   0.663   0.663   0.689   0.881   0.881   0.891
 44 A    45 A    46 A    47 A    48 A    49 A    50 A    51 A                  
  0.893   0.893   0.937   0.937   0.943   0.943   0.963   1.004
 52 A    53 A    54 A    55 A    56 A    57 A    58 A    59 A                  
  1.004   1.008   1.008   1.022   1.022   1.046   1.046   1.134
 60 A    61 A    62 A    63 A    64 A    65 A    66 A    67 A                  
  1.163   1.163   1.173   1.173   1.224   1.325   1.369   1.369
 68 A    69 A    70 A    71 A    72 A    73 A    74 A    75 A                  
  1.567   1.599   1.599   1.702   1.702   1.719   1.782   1.782
 76 A    77 A    78 A    79 A    80 A    81 A    82 A    83 A                  
  1.899   1.970   1.970   2.153   2.153   2.169   2.238   2.238
 84 A    85 A    86 A    87 A    88 A    89 A    90 A    91 A                  
  2.356   2.356   2.414   2.414   2.444   2.444   2.526   2.631
 92 A    93 A    94 A    95 A    96 A    97 A    98 A    99 A                  
  2.631   2.642   2.642   2.686   2.686   2.845   2.845   2.854
100 A   101 A   102 A   103 A   104 A   105 A   106 A   107 A                  
  2.854   2.873   3.083   3.384   3.384   3.726   3.726   3.792
108 A   109 A   110 A   111 A   112 A   113 A   114 A   115 A                  
  3.975   3.975   3.993   3.993   4.196   4.250   4.250   4.344
116 A   117 A   118 A   119 A   120 A   121 A   122 A   123 A                  
  4.344   4.404   4.404   4.497   4.568   4.568   4.585   4.789
124 A   125 A   126 A   127 A   128 A   129 A   130 A   131 A                  
  4.789   4.826   4.826   5.243   5.462   5.462   5.464   6.258
132 A   133 A   134 A   135 A   136 A   137 A   138 A   139 A                  
  6.844   6.844   7.384   7.384   8.227   9.912   9.912  10.697
140 A   141 A   142 A   143 A   144 A   145 A   146 A   147 A                  
 10.697  10.793  10.793  10.848  11.013  11.013  11.018  11.018
148 A   149 A   150 A   151 A   152 A   153 A   154 A   155 A                  
 11.020  11.758  11.758  11.993  11.993  12.167  12.167  12.243
156 A   157 A   158 A   159 A   160 A   161 A   162 A   163 A                  
 12.438  12.438  12.694  12.891  12.891  13.327  13.327  13.516
164 A   165 A   166 A   167 A   168 A   169 A   170 A   171 A                  
 13.948  13.948  14.017  14.017  14.212  14.212  14.735  17.649
172 A   173 A   174 A   175 A   176 A   177 A   178 A   179 A                  
 18.737  21.877  21.877  22.191  22.191  22.861  32.876  32.876
180 A   181 A   182 A   183 A   184 A   185 A   186 A   187 A                  
 33.575  33.687  33.687  34.519  39.127  39.127  39.134  39.134
188 A   189 A   190 A   191 A   192 A   193 A   194 A   195 A                  
 39.140  39.140  39.150  39.150  39.163  47.228  47.228  47.464
196 A   197 A   198 A   199 A   200 A   201 A   202 A   203 A                  
 47.464  47.623  48.534  48.534  48.567  48.567  48.663  48.663
204 A   205 A   206 A   207 A   208 A   209 A   210 A   211 A                  
 48.804  55.263  64.064  64.745  64.745  64.963  64.963  65.477
212 A   213 A   214 A   215 A   216 A   217 A   218 A   219 A                  
102.116 102.116 102.661 103.419 103.419 103.441 103.441 103.470
220 A   221 A   222 A   223 A   224 A   225 A   226 A   227 A                  
103.470 103.501 116.950 116.950 117.641 198.696 198.696 198.825
228 A   229 A   230 A   231 A   232 A   233 A   234 A   235 A                  
198.825 198.932 216.617 267.383 395.469 395.469 396.028 895.429
236 A   237 A   238 A   239 A   240 A   241 A   242 A   243 A                  
 
 Beta MOs, Unrestricted
 -- Occupied --                  
-68.819 -20.530  -6.167  -4.268  -4.268  -4.268  -1.263  -0.609
  1 A     2 A     3 A     4 A     5 A     6 A     7 A     8 A                  
 -0.474  -0.474  -0.438
  9 A    10 A    11 A                                                          
 -- Virtual --                   
  0.018   0.018   0.033   0.057   0.069   0.069   0.113   0.121
 12 A    13 A    14 A    15 A    16 A    17 A    18 A    19 A                  
  0.121   0.140   0.140   0.145   0.203   0.203   0.207   0.258
 20 A    21 A    22 A    23 A    24 A    25 A    26 A    27 A                  
  0.294   0.294   0.327   0.327   0.327   0.327   0.328   0.349
 28 A    29 A    30 A    31 A    32 A    33 A    34 A    35 A                  
  0.349   0.386   0.386   0.417   0.429   0.472   0.472   0.608
 36 A    37 A    38 A    39 A    40 A    41 A    42 A    43 A                  
  0.608   0.610   0.663   0.663   0.689   0.881   0.881   0.891
 44 A    45 A    46 A    47 A    48 A    49 A    50 A    51 A                  
  0.893   0.893   0.937   0.937   0.943   0.943   0.963   1.004
 52 A    53 A    54 A    55 A    56 A    57 A    58 A    59 A                  
  1.004   1.008   1.008   1.022   1.022   1.046   1.046   1.134
 60 A    61 A    62 A    63 A    64 A    65 A    66 A    67 A                  
  1.163   1.163   1.173   1.173   1.224   1.325   1.369   1.369
 68 A    69 A    70 A    71 A    72 A    73 A    74 A    75 A                  
  1.567   1.599   1.599   1.702   1.702   1.719   1.782   1.782
 76 A    77 A    78 A    79 A    80 A    81 A    82 A    83 A                  
  1.899   1.970   1.970   2.153   2.153   2.169   2.238   2.238
 84 A    85 A    86 A    87 A    88 A    89 A    90 A    91 A                  
  2.356   2.356   2.414   2.414   2.444   2.444   2.526   2.631
 92 A    93 A    94 A    95 A    96 A    97 A    98 A    99 A                  
  2.631   2.642   2.642   2.686   2.686   2.845   2.845   2.854
100 A   101 A   102 A   103 A   104 A   105 A   106 A   107 A                  
  2.854   2.873   3.083   3.384   3.384   3.726   3.726   3.792
108 A   109 A   110 A   111 A   112 A   113 A   114 A   115 A                  
  3.975   3.975   3.993   3.993   4.196   4.250   4.250   4.344
116 A   117 A   118 A   119 A   120 A   121 A   122 A   123 A                  
  4.344   4.404   4.404   4.497   4.568   4.568   4.585   4.789
124 A   125 A   126 A   127 A   128 A   129 A   130 A   131 A                  
  4.789   4.826   4.826   5.243   5.462   5.462   5.464   6.258
132 A   133 A   134 A   135 A   136 A   137 A   138 A   139 A                  
  6.844   6.844   7.384   7.384   8.227   9.912   9.912  10.697
140 A   141 A   142 A   143 A   144 A   145 A   146 A   147 A                  
 10.697  10.793  10.793  10.848  11.013  11.013  11.018  11.018
148 A   149 A   150 A   151 A   152 A   153 A   154 A   155 A                  
 11.020  11.758  11.758  11.993  11.993  12.167  12.167  12.243
156 A   157 A   158 A   159 A   160 A   161 A   162 A   163 A                  
 12.438  12.438  12.694  12.891  12.891  13.327  13.327  13.516
164 A   165 A   166 A   167 A   168 A   169 A   170 A   171 A                  
 13.948  13.948  14.017  14.017  14.212  14.212  14.735  17.649
172 A   173 A   174 A   175 A   176 A   177 A   178 A   179 A                  
 18.737  21.877  21.877  22.191  22.191  22.861  32.876  32.876
180 A   181 A   182 A   183 A   184 A   185 A   186 A   187 A                  
 33.575  33.687  33.687  34.519  39.127  39.127  39.134  39.134
188 A   189 A   190 A   191 A   192 A   193 A   194 A   195 A                  
 39.140  39.140  39.150  39.150  39.163  47.228  47.228  47.464
196 A   197 A   198 A   199 A   200 A   201 A   202 A   203 A                  
 47.464  47.623  48.534  48.534  48.567  48.567  48.663  48.663
204 A   205 A   206 A   207 A   208 A   209 A   210 A   211 A                  
 48.804  55.263  64.064  64.745  64.745  64.963  64.963  65.477
212 A   213 A   214 A   215 A   216 A   217 A   218 A   219 A                  
102.116 102.116 102.661 103.419 103.419 103.441 103.441 103.470
220 A   221 A   222 A   223 A   224 A   225 A   226 A   227 A                  
103.470 103.501 116.950 116.950 117.641 198.696 198.696 198.825
228 A   229 A   230 A   231 A   232 A   233 A   234 A   235 A                  
198.825 198.932 216.617 267.383 395.469 395.469 396.028 895.429
236 A   237 A   238 A   239 A   240 A   241 A   242 A   243 A                  

 Occupation and symmetry of molecular orbitals

 Point group: C1 (1 irreducible representation).

                           A     All 
 -------------------------------------
 All molecular orbitals:
  - Alpha                  243   243 
  - Beta                   243   243 
 -------------------------------------
 Alpha orbitals:
  - Frozen occupied        0     0   
  - Active occupied        11    11  
  - Active virtual         232   232 
  - Frozen virtual         0     0   
 -------------------------------------
 Beta orbitals:
  - Frozen occupied        0     0   
  - Active occupied        11    11  
  - Active virtual         232   232 
  - Frozen virtual         0     0   
 -------------------------------------

 Import integrals:   CPU 0.00 s  wall 0.00 s

 Import integrals:   CPU 2831.36 s  wall 358.08 s

 MP2 amplitudes:   CPU 12.96 s  wall 4.79 s

Running a double precision version
           CCSD T amplitudes will be solved using DIIS.

           Start     Size      MaxIter   EConv     TConv     
           3         7         100       1.00e-06  1.00e-04  
 ------------------------------------------------------------------------------
           Energy (a.u.)   Ediff      Tdiff       Comment
 ------------------------------------------------------------------------------
          -364.64891431                           
     1    -364.62778230   2.11e-02   5.59e-01     Step took 01.06.
     2    -364.64858780   2.08e-02   8.31e-02     
     3    -364.64349420   5.09e-03   4.32e-02     
     4    -364.64630459   2.81e-03   4.52e-02     Switched to DIIS steps.
     5    -364.64703625   7.32e-04   9.96e-03     
     6    -364.64705603   1.98e-05   2.84e-03     
     7    -364.64705063   5.40e-06   1.05e-03     
     8    -364.64705447   3.84e-06   4.39e-04     
     9    -364.64705787   3.39e-06   1.65e-04     
    10    -364.64705687   9.94e-07   3.66e-05     
 ------------------------------------------------------------------------------
          -364.64705687                           CCSD T converged.

End of double precision

----------------------------------------
libpt (c) 2016-2018 Ilya Kaliman
Fast Coupled Cluster Triples Corrections
https://github.com/ilyak/libpt
----------------------------------------

 Starting (T) calculation...
 Using double precision libpt code
 (T) calculation completed in 1185 sec
 (T) energy is -0.0242937837

 SCF energy                 = -363.85331141
 MP2 energy                 = -364.64891431
 CCSD correlation energy     =   -0.79374547
 CCSD total energy           = -364.64705687
 CCSD(T) correlation energy =   -0.02429378
 CCSD(T) total energy       = -364.67135066

 CCSD  T1^2 = 0.0128  T2^2 = 0.1468  Leading amplitudes:

 Amplitude    Orbitals with energies
 -0.0350       10 (A) B                  ->    13 (A) B                   
              -0.4745                          0.0179                     
 -0.0350       9 (A) B                   ->    12 (A) B                   
              -0.4745                          0.0179                     
 -0.0350       10 (A) A                  ->    13 (A) A                   
              -0.4745                          0.0179                     
  0.0350       9 (A) A                   ->    12 (A) A                   
              -0.4745                          0.0179                     

 Amplitude    Orbitals with energies
  0.0358       11 (A) A      11 (A) B    ->    12 (A) A      12 (A) B     
              -0.4376       -0.4376            0.0179        0.0179       
 -0.0358       11 (A) A      11 (A) B    ->    12 (A) B      12 (A) A     
              -0.4376       -0.4376            0.0179        0.0179       
 -0.0358       11 (A) B      11 (A) A    ->    12 (A) A      12 (A) B     
              -0.4376       -0.4376            0.0179        0.0179       
  0.0358       11 (A) B      11 (A) A    ->    12 (A) B      12 (A) A     
              -0.4376       -0.4376            0.0179        0.0179       
 -0.0358       11 (A) A      11 (A) B    ->    13 (A) A      13 (A) B     
              -0.4376       -0.4376            0.0179        0.0179       
  0.0358       11 (A) A      11 (A) B    ->    13 (A) B      13 (A) A     
              -0.4376       -0.4376            0.0179        0.0179       
  0.0358       11 (A) B      11 (A) A    ->    13 (A) A      13 (A) B     
              -0.4376       -0.4376            0.0179        0.0179       
 -0.0358       11 (A) B      11 (A) A    ->    13 (A) B      13 (A) A     
              -0.4376       -0.4376            0.0179        0.0179       

 CCSD calculation:   CPU 26666.75 s  wall 1967.75 s

 Total ccman2 time:   CPU 29566.69 s  wall 2367.57 s

 
 --------------------------------------------------------------
 
                    Orbital Energies (a.u.)
 --------------------------------------------------------------
 
 Alpha MOs
 -- Occupied --
-68.819 -20.530  -6.167  -4.268  -4.268  -4.268  -1.263  -0.609
 -0.474  -0.474  -0.438
 -- Virtual --
  0.018   0.018   0.033   0.057   0.069   0.069   0.113   0.121
  0.121   0.140   0.140   0.145   0.203   0.203   0.207   0.258
  0.294   0.294   0.327   0.327   0.327   0.327   0.328   0.349
  0.349   0.386   0.386   0.417   0.429   0.472   0.472   0.608
  0.608   0.610   0.663   0.663   0.689   0.881   0.881   0.891
  0.893   0.893   0.937   0.937   0.943   0.943   0.963   1.004
  1.004   1.008   1.008   1.022   1.022   1.046   1.046   1.134
  1.163   1.163   1.173   1.173   1.224   1.325   1.369   1.369
  1.567   1.599   1.599   1.702   1.702   1.719   1.782   1.782
  1.899   1.970   1.970   2.153   2.153   2.169   2.238   2.238
  2.356   2.356   2.414   2.414   2.444   2.444   2.526   2.631
  2.631   2.642   2.642   2.686   2.686   2.845   2.845   2.854
  2.854   2.873   3.083   3.384   3.384   3.726   3.726   3.792
  3.975   3.975   3.993   3.993   4.196   4.250   4.250   4.344
  4.344   4.404   4.404   4.497   4.568   4.568   4.585   4.789
  4.789   4.826   4.826   5.243   5.462   5.462   5.464   6.258
  6.844   6.844   7.384   7.384   8.227   9.912   9.912  10.697
 10.697  10.793  10.793  10.848  11.013  11.013  11.018  11.018
 11.020  11.758  11.758  11.993  11.993  12.167  12.167  12.243
 12.438  12.438  12.694  12.891  12.891  13.327  13.327  13.516
 13.948  13.948  14.017  14.017  14.212  14.212  14.735  17.649
 18.737  21.877  21.877  22.191  22.191  22.861  32.876  32.876
 33.575  33.687  33.687  34.519  39.127  39.127  39.134  39.134
 39.140  39.140  39.150  39.150  39.163  47.228  47.228  47.464
 47.464  47.623  48.534  48.534  48.567  48.567  48.663  48.663
 48.804  55.263  64.064  64.745  64.745  64.963  64.963  65.477
102.116 102.116 102.661 103.419 103.419 103.441 103.441 103.470
103.470 103.501 116.950 116.950 117.641 198.696 198.696 198.825
198.825 198.932 216.617 267.383 395.469 395.469 396.028 895.429
 
 Beta MOs
 -- Occupied --
-68.819 -20.530  -6.167  -4.268  -4.268  -4.268  -1.263  -0.609
 -0.474  -0.474  -0.438
 -- Virtual --
  0.018   0.018   0.033   0.057   0.069   0.069   0.113   0.121
  0.121   0.140   0.140   0.145   0.203   0.203   0.207   0.258
  0.294   0.294   0.327   0.327   0.327   0.327   0.328   0.349
  0.349   0.386   0.386   0.417   0.429   0.472   0.472   0.608
  0.608   0.610   0.663   0.663   0.689   0.881   0.881   0.891
  0.893   0.893   0.937   0.937   0.943   0.943   0.963   1.004
  1.004   1.008   1.008   1.022   1.022   1.046   1.046   1.134
  1.163   1.163   1.173   1.173   1.224   1.325   1.369   1.369
  1.567   1.599   1.599   1.702   1.702   1.719   1.782   1.782
  1.899   1.970   1.970   2.153   2.153   2.169   2.238   2.238
  2.356   2.356   2.414   2.414   2.444   2.444   2.526   2.631
  2.631   2.642   2.642   2.686   2.686   2.845   2.845   2.854
  2.854   2.873   3.083   3.384   3.384   3.726   3.726   3.792
  3.975   3.975   3.993   3.993   4.196   4.250   4.250   4.344
  4.344   4.404   4.404   4.497   4.568   4.568   4.585   4.789
  4.789   4.826   4.826   5.243   5.462   5.462   5.464   6.258
  6.844   6.844   7.384   7.384   8.227   9.912   9.912  10.697
 10.697  10.793  10.793  10.848  11.013  11.013  11.018  11.018
 11.020  11.758  11.758  11.993  11.993  12.167  12.167  12.243
 12.438  12.438  12.694  12.891  12.891  13.327  13.327  13.516
 13.948  13.948  14.017  14.017  14.212  14.212  14.735  17.649
 18.737  21.877  21.877  22.191  22.191  22.861  32.876  32.876
 33.575  33.687  33.687  34.519  39.127  39.127  39.134  39.134
 39.140  39.140  39.150  39.150  39.163  47.228  47.228  47.464
 47.464  47.623  48.534  48.534  48.567  48.567  48.663  48.663
 48.804  55.263  64.064  64.745  64.745  64.963  64.963  65.477
102.116 102.116 102.661 103.419 103.419 103.441 103.441 103.470
103.470 103.501 116.950 116.950 117.641 198.696 198.696 198.825
198.825 198.932 216.617 267.383 395.469 395.469 396.028 895.429
 --------------------------------------------------------------
 
          Ground-State Mulliken Net Atomic Charges

     Atom                 Charge (a.u.)    Spin (a.u.)
  --------------------------------------------------------
      1 Si                    0.935221      -0.000000
      2 O                    -0.935221       0.000000
  --------------------------------------------------------
  Sum of atomic charges =    -0.000000
  Sum of spin   charges =    -0.000000

 -----------------------------------------------------------------
                    Cartesian Multipole Moments
 -----------------------------------------------------------------
    Charge (ESU x 10^10)
                -0.0000
    Dipole Moment (Debye)
         X       0.0000      Y       0.0000      Z      -3.7219
       Tot       3.7219
    Quadrupole Moments (Debye-Ang)
        XX     -16.0875     XY      -0.0000     YY     -16.0875
        XZ       0.0000     YZ       0.0000     ZZ     -25.3644
    Octopole Moments (Debye-Ang^2)
       XXX       0.0000    XXY       0.0000    XYY      -0.0000
       YYY       0.0000    XXZ      -8.9060    XYZ       0.0000
       YYZ      -8.9060    XZZ       0.0000    YZZ       0.0000
       ZZZ     -35.7794
    Hexadecapole Moments (Debye-Ang^3)
      XXXX     -20.6460   XXXY      -0.0000   XXYY      -6.8820
      XYYY      -0.0000   YYYY     -20.6460   XXXZ       0.0000
      XXYZ       0.0000   XYYZ       0.0000   YYYZ       0.0000
      XXZZ     -22.5261   XYZZ       0.0000   YYZZ     -22.5261
      XZZZ       0.0000   YZZZ       0.0000   ZZZZ    -125.5420
 -----------------------------------------------------------------
Archival summary:
1\1\n0089.mhg0\SP\ProcedureUnspecified\BasisUnspecified\i11\yhljason\ThuJul221:19:372020ThuJul221:19:372020\0\\#,ProcedureUnspecified,BasisUnspecified,\\0,1\Si\O,1,1.5097\\HF=-363.853311\\@

 Total job time:  2591.33s(wall), 31245.18s(cpu) 
 Thu Jul  2 21:19:37 2020

        *************************************************************
        *                                                           *
        *  Thank you very much for using Q-Chem.  Have a nice day.  *
        *                                                           *
        *************************************************************


