Q-Chem Developer Version!
                  Welcome to Q-Chem
     A Quantum Leap Into The Future Of Chemistry


 Q-Chem 5.1, Q-Chem, Inc., Pleasanton, CA (2018)

 Yihan Shao,  Zhengting Gan,  E. Epifanovsky,  A. T. B. Gilbert,  M. Wormit,  
 J. Kussmann,  A. W. Lange,  A. Behn,  Jia Deng,  Xintian Feng,  D. Ghosh,  
 M. Goldey,  P. R. Horn,  L. D. Jacobson,  I. Kaliman,  T. Kus,  A. Landau,  
 Jie Liu,  E. I. Proynov,  R. M. Richard,  R. P. Steele,  E. J. Sundstrom,  
 H. L. Woodcock III,  P. M. Zimmerman,  D. Zuev,  B. Albrecht,  E. Alguire,  
 S. A. Baeppler,  D. Barton,  Z. Benda,  Y. A. Bernard,  E. J. Berquist,  
 K. B. Bravaya,  H. Burton,  D. Casanova,  Chun-Min Chang,  Yunqing Chen,  
 A. Chien,  K. D. Closser,  M. P. Coons,  S. Coriani,  S. Dasgupta,  
 A. L. Dempwolff,  M. Diedenhofen,  Hainam Do,  R. G. Edgar,  Po-Tung Fang,  
 S. Faraji,  S. Fatehi,  Qingguo Feng,  K. D. Fenk,  J. Fosso-Tande,  
 Qinghui Ge,  A. Ghysels,  G. Gidofalvi,  J. Gomes,  J. Gonthier,  A. Gunina,  
 D. Hait,  M. W. D. Hanson-Heine,  P. H. P. Harbach,  A. W. Hauser,  
 J. E. Herr,  E. G. Hohenstein,  Z. C. Holden,  Kerwin Hui,  B. C. Huynh,  
 T.-C. Jagau,  Hyunjun Ji,  B. Kaduk,  K. Khistyaev,  Jaehoon Kim,  
 P. Klunzinger,  K. Koh,  D. Kosenkov,  L. Koulias,  T. Kowalczyk,  
 C. M. Krauter,  A. Kunitsa,  Ka Un Lao,  A. Laurent,  K. V. Lawler,  
 Joonho Lee,  D. Lefrancois,  S. Lehtola,  D. S. Levine,  Yi-Pei Li,  
 You-Sheng Lin,  Fenglai Liu,  E. Livshits,  A. Luenser,  P. Manohar,  
 E. Mansoor,  S. F. Manzer,  Shan-Ping Mao,  Yuezhi Mao,  N. Mardirossian,  
 A. V. Marenich,  T. Markovich,  L. A. Martinez-Martinez,  S. A. Maurer,  
 N. J. Mayhall,  S. C. McKenzie,  J.-M. Mewes,  A. F. Morrison,  
 J. W. Mullinax,  K. Nanda,  T. S. Nguyen-Beck,  R. Olivares-Amaya,  
 J. A. Parkhill,  T. M. Perrine,  F. Plasser,  P. Pokhilko,  S. Prager,  
 A. Prociuk,  E. Ramos,  D. R. Rehn,  F. Rob,  M. Schneider,  N. Sergueev,  
 S. M. Sharada,  S. Sharma,  D. W. Small,  T. Stauch,  T. Stein,  
 Yu-Chuan Su,  A. J. W. Thom,  A. Tkatchenko,  T. Tsuchimochi,  N. M. Tubman,  
 L. Vogt,  M. L. Vidal,  O. Vydrov,  M. A. Watson,  J. Wenzel,  
 M. de Wergifosse,  T. A. Wesolowski,  A. White,  J. Witte,  A. Yamada,  
 Jun Yang,  K. Yao,  S. Yeganeh,  S. R. Yost,  Zhi-Qiang You,  A. Zech,  
 Igor Ying Zhang,  Xing Zhang,  Yan Zhao,  Ying Zhu,  B. R. Brooks,  
 G. K. L. Chan,  C. J. Cramer,  M. S. Gordon,  W. J. Hehre,  A. Klamt,  
 M. W. Schmidt,  C. D. Sherrill,  D. G. Truhlar,  A. Aspuru-Guzik,  R. Baer,  
 A. T. Bell,  N. A. Besley,  Jeng-Da Chai,  A. E. DePrince, III,  
 R. A. DiStasio Jr.,  A. Dreuw,  B. D. Dunietz,  T. R. Furlani,  
 Chao-Ping Hsu,  Yousung Jung,  Jing Kong,  D. S. Lambrecht,  WanZhen Liang,  
 C. Ochsenfeld,  V. A. Rassolov,  L. V. Slipchenko,  J. E. Subotnik,  
 T. Van Voorhis,  J. M. Herbert,  A. I. Krylov,  P. M. W. Gill,  M. Head-Gordon

 Contributors to earlier versions of Q-Chem not listed above: 
 R. D. Adamson,  B. Austin,  J. Baker,  G. J. O. Beran,  K. Brandhorst,  
 S. T. Brown,  E. F. C. Byrd,  A. K. Chakraborty,  C.-L. Cheng,  
 Siu Hung Chien,  D. M. Chipman,  D. L. Crittenden,  H. Dachsel,  
 R. J. Doerksen,  A. D. Dutoi,  L. Fusti-Molnar,  W. A. Goddard III,  
 A. Golubeva-Zadorozhnaya,  S. R. Gwaltney,  G. Hawkins,  A. Heyden,  
 S. Hirata,  G. Kedziora,  F. J. Keil,  C. Kelley,  Jihan Kim,  R. A. King,  
 R. Z. Khaliullin,  P. P. Korambath,  W. Kurlancheek,  A. M. Lee,  M. S. Lee,  
 S. V. Levchenko,  Ching Yeh Lin,  D. Liotard,  R. C. Lochan,  I. Lotan,  
 P. E. Maslen,  N. Nair,  D. P. O'Neill,  D. Neuhauser,  E. Neuscamman,  
 C. M. Oana,  R. Olson,  B. Peters,  R. Peverati,  P. A. Pieniazek,  
 Y. M. Rhee,  J. Ritchie,  M. A. Rohrdanz,  E. Rosta,  N. J. Russ,  
 H. F. Schaefer III,  N. E. Schultz,  N. Shenvi,  A. C. Simmonett,  A. Sodt,  
 D. Stuck,  K. S. Thanthiriwatte,  V. Vanovschi,  Tao Wang,  A. Warshel,  
 C. F. Williams,  Q. Wu,  X. Xu,  W. Zhang

 Please cite Q-Chem as follows:
 Y. Shao et al., Mol. Phys. 113, 184-215 (2015)
 DOI: 10.1080/00268976.2014.952696

 Q-Chem 5.1.1 for Intel X86 EM64T Linux

 Parts of Q-Chem use Armadillo 8.300.2 (Tropical Shenanigans).
 http://arma.sourceforge.net/

 Q-Chem begins on Thu May 28 05:53:11 2020  

Host: n0071.mhg0
0

     Scratch files written to /local/scratch/users/yhljason/C2H_pbe.inp20200528003900//
Input Ideriv = 2
Curr. Ideriv = -1
Max.  Ideriv = 2

Checking the input file for inconsistencies... 	...done.

--------------------------------------------------------------
User input:
--------------------------------------------------------------
$molecule
0 2
C	0.0000	0.0000	0.0000
C	0.0000	0.0000	-1.2165
H	0.0000	0.0000	1.0465
$end

$rem
jobtype sp
method pbe
xc_grid 000099000590
basis aug-cc-pcVTZ
max_scf_cycles 200
thresh 14
scf_convergence 8
scf_algorithm gdm
symmetry false
sym_ignore true
unrestricted true
gen_scfman true
internal_stability_iter 15
internal_stability_davidson_iter 200
mem_total 64000
mem_static 1500
n_frozen_core 0
$end


--------------------------------------------------------------
 ----------------------------------------------------------------
             Standard Nuclear Orientation (Angstroms)
    I     Atom           X                Y                Z
 ----------------------------------------------------------------
    1      C       0.0000000000     0.0000000000     0.0000000000
    2      C       0.0000000000     0.0000000000    -1.2165000000
    3      H       0.0000000000     0.0000000000     1.0465000000
 ----------------------------------------------------------------
 Nuclear Repulsion Energy =    20.0970073115 hartrees
 There are        7 alpha and        6 beta electrons
 Requested basis set is aug-cc-pCVTZ
 There are 47 shells and 141 basis functions

 Total QAlloc Memory Limit  64000 MB
 Mega-Array Size      1467 MB
 MEM_STATIC part      1500 MB

                       Distance Matrix (Angstroms)
             C (  1)   C (  2)
   C (  2)  1.216500
   H (  3)  1.046500  2.263000
 
 A cutoff of  1.0D-14 yielded   1123 shell pairs
 There are     10195 function pairs (     13690 Cartesian)
 
 -------------------------------------------------------
 OpenMP Integral Computing Module                       
 Release: version 1.0, May 2013, Q-Chem Inc. Pittsburgh 
 -------------------------------------------------------
 Integral Job Info:
 Integral job number is                      11
 Integral operator is                         1
 short-range coefficients                     0
 long-range coefficients              100000000
 Omega coefficients                           0
 if combine SR and LR in K                    0
 Integral screening is                        0
 Integral computing path is                   2
 max size of driver memory is            800000
 size of driver memory is                776718
 size of scratch memory is              6691272
 max col of scratch BK array              10000
 max len of scratch array in speh3          662
 max len of scratch index in speh4           32
 max int batch size is                      520
 min int batch size is                       52
 fixed nKL is                                52
 max L of basis functions is                  3
 order of int derivative is                   0
 number of shells is                         47
 number of basis is                         163
 number of cartesian basis is               163
 number of contracted shell pairs          1123
 number of primitive shell pairs           3136
 maxK2 (contraction) of shell pair           64
 max number of K2 of shell pair               1
 max number of CS2 of shell pair            169
 max number of PS2 of shell pair            384
 mem total for path MDJ                  555284
 -------------------------------------------------------
 Smallest overlap matrix eigenvalue = 3.43E-05

 Scale SEOQF with 1.000000e-01/1.000000e-01/1.000000e-01

 Standard Electronic Orientation quadrupole field applied
 Nucleus-field energy     =    -0.0000000011 hartrees
 Guess from superposition of atomic densities
 Warning:  Energy on first SCF cycle will be non-variational
 SAD guess density has 13.000000 electrons

 -----------------------------------------------------------------------
  General SCF calculation program by
  Eric Jon Sundstrom, Paul Horn, Yuezhi Mao, Dmitri Zuev, Alec White,
  David Stuck, Shaama M.S., Shane Yost, Joonho Lee, David Small,
  Daniel Levine, Susi Lehtola, Hugh Burton, Evgeny Epifanovsky
 -----------------------------------------------------------------------
 Exchange:  PBE      Correlation:  PBE
 Using Euler-Maclaurin-Lebedev (99,590) quadrature formula
Running Object-Oriented UKS (UHF)
performing a single roothaan step with Fock from read density so that orbitals are available to all algorithms
energy of the guess density (C=0) -76.714068027448
We will preform up to 15 macro iterations over saddle points until a stable solution is found
Energy prior to optimization (guess energy) = -76.442549037736
Begin Timing: Total SCF Calculation
Begin Timing: SCF Single Stationary Point Calculation
begin iterations for algorithm: GDM          
the SCF tolerance is set to 1.00e-08
    1     -76.4425490377      1.90e-01     00000  Descent step
    2     -76.4838883068      2.95e-01     00000  Normal BFGS step
    3     -76.4851683498      2.00e-01     00000  Normal BFGS step
    4     -76.5287947203      4.50e-02     00000  Normal BFGS step
    5     -76.5334561301      1.52e-02     00000  Normal BFGS step
    6     -76.5336858650      2.26e-03     00000  Normal BFGS step
    7     -76.5336932001      7.61e-04     00000  Normal BFGS step
    8     -76.5336948458      3.15e-04     00000  Normal BFGS step
    9     -76.5336949853      1.14e-05     00000  Normal BFGS step
   10     -76.5336949873      2.27e-06     00000  Normal BFGS step
   11     -76.5336949873      4.04e-07     00000  Normal BFGS step
   12     -76.5336949873      5.01e-07     00000  Normal BFGS step
   13     -76.5336949873      1.64e-07     00000  Normal BFGS step
   14     -76.5336949873      5.60e-08     00000  Normal BFGS step
   15     -76.5336949873      4.86e-09     00000 Convergence criterion met
Timing for Single Stationary Point: 8.00s (wall), 558.46s (cpu)
Begin Timing: Stability
===================================================
Beginning Test for Internal Stability
===================================================
generating davidson guess vectors based on koopmans excitations
    1      5.24e-01     00000 Davidson Iteration
    2      8.22e-02     00000 Davidson Iteration
    3      2.83e-02     00000 Davidson Iteration
    4      9.42e-03     00000 Davidson Iteration
    5      1.00e-03     00000 Davidson Iteration
    6      3.68e-04     00000 Davidson Iteration
    7      5.54e-05     00000 Davidson Iteration
    8      1.38e-05     00000 Davidson Converged
converged_eigenvalues
   0.0262
   0.0262
Threshold for negative eigenvalues: -1.0e-05
solution was a local minimum (stable)
===================================================
End Test for Internal Stability
===================================================
Our SCF solution is stable!
Timing for Total SCF: 21.00s (wall), 1252.02s (cpu)
 Total energy in the final basis set =      -76.5336949873
<S^2> =          0.773097390
    ==================================================
              The end of Object-Oriented SCFman       
    ==================================================
 
 --------------------------------------------------------------
 
                    Orbital Energies (a.u.)
 --------------------------------------------------------------
 
 Alpha MOs
 -- Occupied --
 -9.961  -9.914  -0.702  -0.510  -0.357  -0.283  -0.283
 -- Virtual --
 -0.030  -0.030  -0.003   0.015   0.043   0.043   0.057   0.088
  0.088   0.089   0.134   0.161   0.187   0.187   0.220   0.220
  0.227   0.285   0.285   0.300   0.300   0.312   0.329   0.355
  0.355   0.415   0.448   0.448   0.531   0.564   0.660   0.660
  0.727   0.727   0.730   0.730   0.749   0.779   0.819   0.819
  0.847   0.847   0.902   0.902   0.905   0.932   0.932   0.985
  1.070   1.070   1.097   1.097   1.179   1.266   1.266   1.357
  1.383   1.383   1.512   1.512   1.538   1.626   1.626   1.701
  1.701   1.749   1.852   2.254   2.254   2.471   2.637   2.713
  2.713   2.754   2.754   2.842   2.896   2.896   2.970   2.970
  3.050   3.050   3.128   3.199   3.199   3.211   3.211   3.290
  3.290   3.466   3.486   3.486   3.613   3.630   3.630   4.089
  4.089   4.270   4.289   4.289   4.382   4.685   4.685   5.120
  5.736   5.736   6.342   6.462  14.611  14.611  15.162  15.353
 15.353  15.956  16.675  17.029  40.136  40.136  40.184  40.184
 40.196  40.196  40.274  40.360  40.360  40.882  79.160  79.160
 79.727  79.727  79.877  80.609  83.419  85.632
 
 Beta MOs
 -- Occupied --
 -9.941  -9.914  -0.688  -0.502  -0.269  -0.269
 -- Virtual --
 -0.233  -0.007  -0.007  -0.002   0.024   0.045   0.045   0.064
  0.090   0.093   0.093   0.142   0.175   0.188   0.188   0.225
  0.225   0.245   0.301   0.301   0.306   0.306   0.314   0.341
  0.359   0.359   0.432   0.454   0.454   0.560   0.588   0.680
  0.680   0.731   0.731   0.734   0.734   0.767   0.785   0.822
  0.822   0.849   0.849   0.928   0.929   0.929   0.967   0.967
  1.014   1.094   1.094   1.105   1.105   1.235   1.276   1.276
  1.377   1.385   1.385   1.536   1.536   1.559   1.640   1.640
  1.725   1.725   1.756   1.854   2.261   2.261   2.494   2.726
  2.726   2.730   2.761   2.761   2.894   2.950   2.950   2.981
  2.981   3.047   3.047   3.194   3.209   3.209   3.287   3.287
  3.303   3.303   3.485   3.572   3.572   3.629   3.638   3.638
  4.100   4.100   4.280   4.306   4.306   4.424   4.705   4.705
  5.143   5.755   5.755   6.379   6.479  14.626  14.626  15.224
 15.359  15.359  15.965  16.692  17.038  40.144  40.144  40.196
 40.196  40.198  40.198  40.295  40.375  40.375  40.898  79.169
 79.169  79.731  79.731  79.897  80.618  83.435  85.636
 --------------------------------------------------------------
 
          Ground-State Mulliken Net Atomic Charges

     Atom                 Charge (a.u.)    Spin (a.u.)
  --------------------------------------------------------
      1 C                    -0.615924      -0.144838
      2 C                     0.068508       1.129292
      3 H                     0.547416       0.015546
  --------------------------------------------------------
  Sum of atomic charges =    -0.000000
  Sum of spin   charges =     1.000000

 -----------------------------------------------------------------
                    Cartesian Multipole Moments
 -----------------------------------------------------------------
    Charge (ESU x 10^10)
                -0.0000
    Dipole Moment (Debye)
         X       0.0000      Y      -0.0000      Z       0.7654
       Tot       0.7654
    Quadrupole Moments (Debye-Ang)
        XX     -12.9010     XY       0.0000     YY     -12.9010
        XZ      -0.0000     YZ       0.0000     ZZ      -9.1582
    Octopole Moments (Debye-Ang^2)
       XXX       0.0000    XXY      -0.0000    XYY       0.0000
       YYY      -0.0000    XXZ       6.6962    XYZ       0.0000
       YYZ       6.6962    XZZ       0.0000    YZZ      -0.0000
       ZZZ      17.4000
    Hexadecapole Moments (Debye-Ang^3)
      XXXX     -16.3526   XXXY       0.0000   XXYY      -5.4509
      XYYY       0.0000   YYYY     -16.3526   XXXZ      -0.0000
      XXYZ       0.0000   XYYZ      -0.0000   YYYZ       0.0000
      XXZZ     -14.0837   XYZZ       0.0000   YYZZ     -14.0837
      XZZZ      -0.0000   YZZZ       0.0000   ZZZZ     -59.5084
 -----------------------------------------------------------------
Archival summary:
1\1\n0071.mhg0\SP\ProcedureUnspecified\BasisUnspecified\21(2)\yhljason\ThuMay2805:53:382020ThuMay2805:53:382020\0\\#,ProcedureUnspecified,BasisUnspecified,\\0,2\C\H,1,1.0465\C,1,1.2165,2,180\\\@

 Total job time:  26.64s(wall), 1396.13s(cpu) 
 Thu May 28 05:53:38 2020

        *************************************************************
        *                                                           *
        *  Thank you very much for using Q-Chem.  Have a nice day.  *
        *                                                           *
        *************************************************************


 
User input: 2 of 7 
 
Q-Chem Developer Version!
                  Welcome to Q-Chem
     A Quantum Leap Into The Future Of Chemistry


 Q-Chem 5.1, Q-Chem, Inc., Pleasanton, CA (2018)

 Yihan Shao,  Zhengting Gan,  E. Epifanovsky,  A. T. B. Gilbert,  M. Wormit,  
 J. Kussmann,  A. W. Lange,  A. Behn,  Jia Deng,  Xintian Feng,  D. Ghosh,  
 M. Goldey,  P. R. Horn,  L. D. Jacobson,  I. Kaliman,  T. Kus,  A. Landau,  
 Jie Liu,  E. I. Proynov,  R. M. Richard,  R. P. Steele,  E. J. Sundstrom,  
 H. L. Woodcock III,  P. M. Zimmerman,  D. Zuev,  B. Albrecht,  E. Alguire,  
 S. A. Baeppler,  D. Barton,  Z. Benda,  Y. A. Bernard,  E. J. Berquist,  
 K. B. Bravaya,  H. Burton,  D. Casanova,  Chun-Min Chang,  Yunqing Chen,  
 A. Chien,  K. D. Closser,  M. P. Coons,  S. Coriani,  S. Dasgupta,  
 A. L. Dempwolff,  M. Diedenhofen,  Hainam Do,  R. G. Edgar,  Po-Tung Fang,  
 S. Faraji,  S. Fatehi,  Qingguo Feng,  K. D. Fenk,  J. Fosso-Tande,  
 Qinghui Ge,  A. Ghysels,  G. Gidofalvi,  J. Gomes,  J. Gonthier,  A. Gunina,  
 D. Hait,  M. W. D. Hanson-Heine,  P. H. P. Harbach,  A. W. Hauser,  
 J. E. Herr,  E. G. Hohenstein,  Z. C. Holden,  Kerwin Hui,  B. C. Huynh,  
 T.-C. Jagau,  Hyunjun Ji,  B. Kaduk,  K. Khistyaev,  Jaehoon Kim,  
 P. Klunzinger,  K. Koh,  D. Kosenkov,  L. Koulias,  T. Kowalczyk,  
 C. M. Krauter,  A. Kunitsa,  Ka Un Lao,  A. Laurent,  K. V. Lawler,  
 Joonho Lee,  D. Lefrancois,  S. Lehtola,  D. S. Levine,  Yi-Pei Li,  
 You-Sheng Lin,  Fenglai Liu,  E. Livshits,  A. Luenser,  P. Manohar,  
 E. Mansoor,  S. F. Manzer,  Shan-Ping Mao,  Yuezhi Mao,  N. Mardirossian,  
 A. V. Marenich,  T. Markovich,  L. A. Martinez-Martinez,  S. A. Maurer,  
 N. J. Mayhall,  S. C. McKenzie,  J.-M. Mewes,  A. F. Morrison,  
 J. W. Mullinax,  K. Nanda,  T. S. Nguyen-Beck,  R. Olivares-Amaya,  
 J. A. Parkhill,  T. M. Perrine,  F. Plasser,  P. Pokhilko,  S. Prager,  
 A. Prociuk,  E. Ramos,  D. R. Rehn,  F. Rob,  M. Schneider,  N. Sergueev,  
 S. M. Sharada,  S. Sharma,  D. W. Small,  T. Stauch,  T. Stein,  
 Yu-Chuan Su,  A. J. W. Thom,  A. Tkatchenko,  T. Tsuchimochi,  N. M. Tubman,  
 L. Vogt,  M. L. Vidal,  O. Vydrov,  M. A. Watson,  J. Wenzel,  
 M. de Wergifosse,  T. A. Wesolowski,  A. White,  J. Witte,  A. Yamada,  
 Jun Yang,  K. Yao,  S. Yeganeh,  S. R. Yost,  Zhi-Qiang You,  A. Zech,  
 Igor Ying Zhang,  Xing Zhang,  Yan Zhao,  Ying Zhu,  B. R. Brooks,  
 G. K. L. Chan,  C. J. Cramer,  M. S. Gordon,  W. J. Hehre,  A. Klamt,  
 M. W. Schmidt,  C. D. Sherrill,  D. G. Truhlar,  A. Aspuru-Guzik,  R. Baer,  
 A. T. Bell,  N. A. Besley,  Jeng-Da Chai,  A. E. DePrince, III,  
 R. A. DiStasio Jr.,  A. Dreuw,  B. D. Dunietz,  T. R. Furlani,  
 Chao-Ping Hsu,  Yousung Jung,  Jing Kong,  D. S. Lambrecht,  WanZhen Liang,  
 C. Ochsenfeld,  V. A. Rassolov,  L. V. Slipchenko,  J. E. Subotnik,  
 T. Van Voorhis,  J. M. Herbert,  A. I. Krylov,  P. M. W. Gill,  M. Head-Gordon

 Contributors to earlier versions of Q-Chem not listed above: 
 R. D. Adamson,  B. Austin,  J. Baker,  G. J. O. Beran,  K. Brandhorst,  
 S. T. Brown,  E. F. C. Byrd,  A. K. Chakraborty,  C.-L. Cheng,  
 Siu Hung Chien,  D. M. Chipman,  D. L. Crittenden,  H. Dachsel,  
 R. J. Doerksen,  A. D. Dutoi,  L. Fusti-Molnar,  W. A. Goddard III,  
 A. Golubeva-Zadorozhnaya,  S. R. Gwaltney,  G. Hawkins,  A. Heyden,  
 S. Hirata,  G. Kedziora,  F. J. Keil,  C. Kelley,  Jihan Kim,  R. A. King,  
 R. Z. Khaliullin,  P. P. Korambath,  W. Kurlancheek,  A. M. Lee,  M. S. Lee,  
 S. V. Levchenko,  Ching Yeh Lin,  D. Liotard,  R. C. Lochan,  I. Lotan,  
 P. E. Maslen,  N. Nair,  D. P. O'Neill,  D. Neuhauser,  E. Neuscamman,  
 C. M. Oana,  R. Olson,  B. Peters,  R. Peverati,  P. A. Pieniazek,  
 Y. M. Rhee,  J. Ritchie,  M. A. Rohrdanz,  E. Rosta,  N. J. Russ,  
 H. F. Schaefer III,  N. E. Schultz,  N. Shenvi,  A. C. Simmonett,  A. Sodt,  
 D. Stuck,  K. S. Thanthiriwatte,  V. Vanovschi,  Tao Wang,  A. Warshel,  
 C. F. Williams,  Q. Wu,  X. Xu,  W. Zhang

 Please cite Q-Chem as follows:
 Y. Shao et al., Mol. Phys. 113, 184-215 (2015)
 DOI: 10.1080/00268976.2014.952696

 Q-Chem 5.1.1 for Intel X86 EM64T Linux

 Parts of Q-Chem use Armadillo 8.300.2 (Tropical Shenanigans).
 http://arma.sourceforge.net/

 Q-Chem begins on Thu May 28 05:53:38 2020  

Host: n0071.mhg0
0

     Scratch files written to /local/scratch/users/yhljason/C2H_pbe.inp20200528003900//
The previous job contains 0 fragments, simply inherited here
Input Ideriv = 2
Curr. Ideriv = -1
Max.  Ideriv = 2

Checking the input file for inconsistencies... 	...done.

--------------------------------------------------------------
User input:
--------------------------------------------------------------
$molecule
read
$end

$rem

jobtype sp
method pbe
xc_grid 000099000590
basis aug-cc-pcVTZ
max_scf_cycles 200
thresh 14
scf_convergence 8
mem_total 64000
mem_static 1500
symmetry false
sym_ignore true
scf_guess read
unrestricted true
scf_algorithm gdm
$end

$multipole_field
XX 0.0001
$end

--------------------------------------------------------------
 ----------------------------------------------------------------
             Standard Nuclear Orientation (Angstroms)
    I     Atom           X                Y                Z
 ----------------------------------------------------------------
    1      C       0.0000000000     0.0000000000     0.0000000000
    2      C       0.0000000000     0.0000000000    -1.2165000000
    3      H       0.0000000000     0.0000000000     1.0465000000
 ----------------------------------------------------------------
 Nuclear Repulsion Energy =    20.0970073115 hartrees
 There are        7 alpha and        6 beta electrons
 Requested basis set is aug-cc-pCVTZ
 There are 47 shells and 141 basis functions

 Total QAlloc Memory Limit  64000 MB
 Mega-Array Size      1467 MB
 MEM_STATIC part      1500 MB

                       Distance Matrix (Angstroms)
             C (  1)   C (  2)
   C (  2)  1.216500
   H (  3)  1.046500  2.263000
 
 Applying Cartesian multipole field
    Component          Value
    ---------          -----
     (2,0,0)        1.00000E-04
 A cutoff of  1.0D-14 yielded   1123 shell pairs
 There are     10195 function pairs (     13690 Cartesian)
 
 -------------------------------------------------------
 OpenMP Integral Computing Module                       
 Release: version 1.0, May 2013, Q-Chem Inc. Pittsburgh 
 -------------------------------------------------------
 Integral Job Info:
 Integral job number is                      11
 Integral operator is                         1
 short-range coefficients                     0
 long-range coefficients              100000000
 Omega coefficients                           0
 if combine SR and LR in K                    0
 Integral screening is                        0
 Integral computing path is                   2
 max size of driver memory is            800000
 size of driver memory is                776718
 size of scratch memory is              6691272
 max col of scratch BK array              10000
 max len of scratch array in speh3          662
 max len of scratch index in speh4           32
 max int batch size is                      520
 min int batch size is                       52
 fixed nKL is                                52
 max L of basis functions is                  3
 order of int derivative is                   0
 number of shells is                         47
 number of basis is                         163
 number of cartesian basis is               163
 number of contracted shell pairs          1123
 number of primitive shell pairs           3136
 maxK2 (contraction) of shell pair           64
 max number of K2 of shell pair               1
 max number of CS2 of shell pair            169
 max number of PS2 of shell pair            384
 mem total for path MDJ                  555284
 -------------------------------------------------------
 Smallest overlap matrix eigenvalue = 3.43E-05
 Guess MOs from SCF MO coefficient file

 -----------------------------------------------------------------------
  General SCF calculation program by
  Eric Jon Sundstrom, Paul Horn, Yuezhi Mao, Dmitri Zuev, Alec White,
  David Stuck, Shaama M.S., Shane Yost, Joonho Lee, David Small,
  Daniel Levine, Susi Lehtola, Hugh Burton, Evgeny Epifanovsky
 -----------------------------------------------------------------------
 Exchange:  PBE      Correlation:  PBE
 Using Euler-Maclaurin-Lebedev (99,590) quadrature formula
 using 64 threads for integral computing
 -------------------------------------------------------
 OpenMP Integral computing Module                
 Release: version 1.0, May 2013, Q-Chem Inc. Pittsburgh 
 -------------------------------------------------------
 -------------------------------------------------------
 OpenMP BLAS3 based DFT computing Module                
 Release: version 1.0, May 2013, Q-Chem Inc. Pittsburgh 
 -------------------------------------------------------
 A unrestricted SCF calculation will be
 performed using GDM
 SCF converges when RMS gradient is below 1.0e-08
 ---------------------------------------
  Cycle       Energy        RMS Gradient
 ---------------------------------------
    1     -76.5346541418      5.62e-04   Normal BFGS step
    2     -76.5346544880      1.48e-04   Normal BFGS step
    3     -76.5346545782      6.34e-05   Normal BFGS step
    4     -76.5346545935      2.25e-05   Normal BFGS step
    5     -76.5346545921      6.10e-05   Normal BFGS step
    6     -76.5346545943      8.14e-06   Normal BFGS step
    7     -76.5346545945      2.52e-06   Normal BFGS step
    8     -76.5346545946      4.04e-07   Normal BFGS step
    9     -76.5346545946      5.32e-08   Normal BFGS step
   10     -76.5346545946      2.25e-08   Normal BFGS step
   11     -76.5346545946      4.06e-09  Convergence criterion met
 ---------------------------------------
 SCF time:   CPU 437.54s  wall 7.00s 
<S^2> =          0.773086779
 SCF   energy in the final basis set =      -76.5346545946
 Total energy in the final basis set =      -76.5346545946
 
 --------------------------------------------------------------
 
                    Orbital Energies (a.u.)
 --------------------------------------------------------------
 
 Alpha MOs
 -- Occupied --
 -9.961  -9.914  -0.703  -0.510  -0.357  -0.283  -0.283
 -- Virtual --
 -0.030  -0.030  -0.005   0.014   0.041   0.042   0.056   0.086
  0.087   0.087   0.132   0.160   0.186   0.186   0.218   0.219
  0.226   0.283   0.284   0.300   0.300   0.311   0.328   0.353
  0.354   0.414   0.447   0.448   0.531   0.563   0.659   0.660
  0.726   0.726   0.729   0.730   0.748   0.779   0.819   0.819
  0.847   0.847   0.901   0.901   0.904   0.932   0.932   0.985
  1.069   1.069   1.097   1.097   1.179   1.266   1.266   1.357
  1.382   1.383   1.511   1.512   1.537   1.626   1.626   1.700
  1.701   1.748   1.851   2.253   2.253   2.471   2.636   2.713
  2.713   2.753   2.753   2.842   2.896   2.896   2.969   2.969
  3.050   3.050   3.128   3.199   3.199   3.210   3.210   3.289
  3.289   3.465   3.485   3.485   3.613   3.630   3.630   4.089
  4.089   4.270   4.289   4.289   4.382   4.684   4.685   5.120
  5.735   5.735   6.342   6.462  14.611  14.611  15.162  15.353
 15.353  15.955  16.674  17.029  40.136  40.136  40.183  40.183
 40.196  40.196  40.274  40.360  40.360  40.882  79.160  79.160
 79.726  79.726  79.877  80.609  83.419  85.631
 
 Beta MOs
 -- Occupied --
 -9.942  -9.914  -0.688  -0.502  -0.270  -0.270
 -- Virtual --
 -0.233  -0.008  -0.008  -0.004   0.023   0.042   0.044   0.063
  0.088   0.091   0.093   0.141   0.174   0.188   0.188   0.224
  0.225   0.245   0.299   0.300   0.306   0.306   0.313   0.341
  0.357   0.358   0.431   0.453   0.454   0.560   0.588   0.679
  0.679   0.730   0.730   0.733   0.733   0.766   0.784   0.822
  0.822   0.848   0.848   0.928   0.928   0.928   0.966   0.967
  1.013   1.094   1.094   1.105   1.105   1.235   1.276   1.276
  1.377   1.384   1.384   1.536   1.536   1.559   1.640   1.640
  1.725   1.725   1.756   1.853   2.260   2.261   2.494   2.726
  2.726   2.730   2.761   2.761   2.893   2.950   2.950   2.981
  2.981   3.046   3.046   3.194   3.209   3.209   3.286   3.286
  3.303   3.303   3.485   3.572   3.572   3.629   3.638   3.638
  4.100   4.100   4.280   4.306   4.306   4.424   4.704   4.704
  5.142   5.755   5.755   6.379   6.479  14.626  14.626  15.224
 15.359  15.359  15.964  16.692  17.038  40.144  40.144  40.196
 40.196  40.197  40.197  40.294  40.375  40.375  40.897  79.169
 79.169  79.731  79.731  79.897  80.617  83.435  85.636
 --------------------------------------------------------------
 
          Ground-State Mulliken Net Atomic Charges

     Atom                 Charge (a.u.)    Spin (a.u.)
  --------------------------------------------------------
      1 C                    -0.616752      -0.144505
      2 C                     0.069090       1.128912
      3 H                     0.547663       0.015593
  --------------------------------------------------------
  Sum of atomic charges =    -0.000000
  Sum of spin   charges =     1.000000

 -----------------------------------------------------------------
                    Cartesian Multipole Moments
 -----------------------------------------------------------------
    Charge (ESU x 10^10)
                -0.0000
    Dipole Moment (Debye)
         X       0.0000      Y      -0.0000      Z       0.7657
       Tot       0.7657
    Quadrupole Moments (Debye-Ang)
        XX     -12.9132     XY       0.0000     YY     -12.9045
        XZ      -0.0000     YZ       0.0000     ZZ      -9.1591
    Octopole Moments (Debye-Ang^2)
       XXX       0.0000    XXY      -0.0000    XYY       0.0000
       YYY      -0.0000    XXZ       6.7031    XYZ      -0.0000
       YYZ       6.6982    XZZ       0.0000    YZZ      -0.0000
       ZZZ      17.4032
    Hexadecapole Moments (Debye-Ang^3)
      XXXX     -16.4143   XXXY      -0.0000   XXYY      -5.4645
      XYYY      -0.0000   YYYY     -16.3727   XXXZ      -0.0000
      XXYZ       0.0000   XYYZ      -0.0000   YYYZ       0.0000
      XXZZ     -14.1027   XYZZ       0.0000   YYZZ     -14.0901
      XZZZ      -0.0000   YZZZ       0.0000   ZZZZ     -59.5207
 -----------------------------------------------------------------
Archival summary:
1\1\n0071.mhg0\SP\ProcedureUnspecified\BasisUnspecified\21(2)\yhljason\ThuMay2805:53:462020ThuMay2805:53:462020\0\\#,ProcedureUnspecified,BasisUnspecified,\\0,2\C\H,1,1.0465\C,1,1.2165,2,180\\\@

 Total job time:  7.85s(wall), 481.37s(cpu) 
 Thu May 28 05:53:46 2020

        *************************************************************
        *                                                           *
        *  Thank you very much for using Q-Chem.  Have a nice day.  *
        *                                                           *
        *************************************************************


 
User input: 3 of 7 
 
Q-Chem Developer Version!
                  Welcome to Q-Chem
     A Quantum Leap Into The Future Of Chemistry


 Q-Chem 5.1, Q-Chem, Inc., Pleasanton, CA (2018)

 Yihan Shao,  Zhengting Gan,  E. Epifanovsky,  A. T. B. Gilbert,  M. Wormit,  
 J. Kussmann,  A. W. Lange,  A. Behn,  Jia Deng,  Xintian Feng,  D. Ghosh,  
 M. Goldey,  P. R. Horn,  L. D. Jacobson,  I. Kaliman,  T. Kus,  A. Landau,  
 Jie Liu,  E. I. Proynov,  R. M. Richard,  R. P. Steele,  E. J. Sundstrom,  
 H. L. Woodcock III,  P. M. Zimmerman,  D. Zuev,  B. Albrecht,  E. Alguire,  
 S. A. Baeppler,  D. Barton,  Z. Benda,  Y. A. Bernard,  E. J. Berquist,  
 K. B. Bravaya,  H. Burton,  D. Casanova,  Chun-Min Chang,  Yunqing Chen,  
 A. Chien,  K. D. Closser,  M. P. Coons,  S. Coriani,  S. Dasgupta,  
 A. L. Dempwolff,  M. Diedenhofen,  Hainam Do,  R. G. Edgar,  Po-Tung Fang,  
 S. Faraji,  S. Fatehi,  Qingguo Feng,  K. D. Fenk,  J. Fosso-Tande,  
 Qinghui Ge,  A. Ghysels,  G. Gidofalvi,  J. Gomes,  J. Gonthier,  A. Gunina,  
 D. Hait,  M. W. D. Hanson-Heine,  P. H. P. Harbach,  A. W. Hauser,  
 J. E. Herr,  E. G. Hohenstein,  Z. C. Holden,  Kerwin Hui,  B. C. Huynh,  
 T.-C. Jagau,  Hyunjun Ji,  B. Kaduk,  K. Khistyaev,  Jaehoon Kim,  
 P. Klunzinger,  K. Koh,  D. Kosenkov,  L. Koulias,  T. Kowalczyk,  
 C. M. Krauter,  A. Kunitsa,  Ka Un Lao,  A. Laurent,  K. V. Lawler,  
 Joonho Lee,  D. Lefrancois,  S. Lehtola,  D. S. Levine,  Yi-Pei Li,  
 You-Sheng Lin,  Fenglai Liu,  E. Livshits,  A. Luenser,  P. Manohar,  
 E. Mansoor,  S. F. Manzer,  Shan-Ping Mao,  Yuezhi Mao,  N. Mardirossian,  
 A. V. Marenich,  T. Markovich,  L. A. Martinez-Martinez,  S. A. Maurer,  
 N. J. Mayhall,  S. C. McKenzie,  J.-M. Mewes,  A. F. Morrison,  
 J. W. Mullinax,  K. Nanda,  T. S. Nguyen-Beck,  R. Olivares-Amaya,  
 J. A. Parkhill,  T. M. Perrine,  F. Plasser,  P. Pokhilko,  S. Prager,  
 A. Prociuk,  E. Ramos,  D. R. Rehn,  F. Rob,  M. Schneider,  N. Sergueev,  
 S. M. Sharada,  S. Sharma,  D. W. Small,  T. Stauch,  T. Stein,  
 Yu-Chuan Su,  A. J. W. Thom,  A. Tkatchenko,  T. Tsuchimochi,  N. M. Tubman,  
 L. Vogt,  M. L. Vidal,  O. Vydrov,  M. A. Watson,  J. Wenzel,  
 M. de Wergifosse,  T. A. Wesolowski,  A. White,  J. Witte,  A. Yamada,  
 Jun Yang,  K. Yao,  S. Yeganeh,  S. R. Yost,  Zhi-Qiang You,  A. Zech,  
 Igor Ying Zhang,  Xing Zhang,  Yan Zhao,  Ying Zhu,  B. R. Brooks,  
 G. K. L. Chan,  C. J. Cramer,  M. S. Gordon,  W. J. Hehre,  A. Klamt,  
 M. W. Schmidt,  C. D. Sherrill,  D. G. Truhlar,  A. Aspuru-Guzik,  R. Baer,  
 A. T. Bell,  N. A. Besley,  Jeng-Da Chai,  A. E. DePrince, III,  
 R. A. DiStasio Jr.,  A. Dreuw,  B. D. Dunietz,  T. R. Furlani,  
 Chao-Ping Hsu,  Yousung Jung,  Jing Kong,  D. S. Lambrecht,  WanZhen Liang,  
 C. Ochsenfeld,  V. A. Rassolov,  L. V. Slipchenko,  J. E. Subotnik,  
 T. Van Voorhis,  J. M. Herbert,  A. I. Krylov,  P. M. W. Gill,  M. Head-Gordon

 Contributors to earlier versions of Q-Chem not listed above: 
 R. D. Adamson,  B. Austin,  J. Baker,  G. J. O. Beran,  K. Brandhorst,  
 S. T. Brown,  E. F. C. Byrd,  A. K. Chakraborty,  C.-L. Cheng,  
 Siu Hung Chien,  D. M. Chipman,  D. L. Crittenden,  H. Dachsel,  
 R. J. Doerksen,  A. D. Dutoi,  L. Fusti-Molnar,  W. A. Goddard III,  
 A. Golubeva-Zadorozhnaya,  S. R. Gwaltney,  G. Hawkins,  A. Heyden,  
 S. Hirata,  G. Kedziora,  F. J. Keil,  C. Kelley,  Jihan Kim,  R. A. King,  
 R. Z. Khaliullin,  P. P. Korambath,  W. Kurlancheek,  A. M. Lee,  M. S. Lee,  
 S. V. Levchenko,  Ching Yeh Lin,  D. Liotard,  R. C. Lochan,  I. Lotan,  
 P. E. Maslen,  N. Nair,  D. P. O'Neill,  D. Neuhauser,  E. Neuscamman,  
 C. M. Oana,  R. Olson,  B. Peters,  R. Peverati,  P. A. Pieniazek,  
 Y. M. Rhee,  J. Ritchie,  M. A. Rohrdanz,  E. Rosta,  N. J. Russ,  
 H. F. Schaefer III,  N. E. Schultz,  N. Shenvi,  A. C. Simmonett,  A. Sodt,  
 D. Stuck,  K. S. Thanthiriwatte,  V. Vanovschi,  Tao Wang,  A. Warshel,  
 C. F. Williams,  Q. Wu,  X. Xu,  W. Zhang

 Please cite Q-Chem as follows:
 Y. Shao et al., Mol. Phys. 113, 184-215 (2015)
 DOI: 10.1080/00268976.2014.952696

 Q-Chem 5.1.1 for Intel X86 EM64T Linux

 Parts of Q-Chem use Armadillo 8.300.2 (Tropical Shenanigans).
 http://arma.sourceforge.net/

 Q-Chem begins on Thu May 28 05:53:47 2020  

Host: n0071.mhg0
0

     Scratch files written to /local/scratch/users/yhljason/C2H_pbe.inp20200528003900//
The previous job contains 0 fragments, simply inherited here
Input Ideriv = 2
Curr. Ideriv = -1
Max.  Ideriv = 2

Checking the input file for inconsistencies... 	...done.

--------------------------------------------------------------
User input:
--------------------------------------------------------------
$molecule
read
$end

$rem

jobtype sp
method pbe
xc_grid 000099000590
basis aug-cc-pcVTZ
max_scf_cycles 200
thresh 14
scf_convergence 8
mem_total 64000
mem_static 1500
symmetry false
sym_ignore true
scf_guess read
unrestricted true
scf_algorithm gdm
$end

$multipole_field
XX -0.0001
$end



--------------------------------------------------------------
 ----------------------------------------------------------------
             Standard Nuclear Orientation (Angstroms)
    I     Atom           X                Y                Z
 ----------------------------------------------------------------
    1      C       0.0000000000     0.0000000000     0.0000000000
    2      C       0.0000000000     0.0000000000    -1.2165000000
    3      H       0.0000000000     0.0000000000     1.0465000000
 ----------------------------------------------------------------
 Nuclear Repulsion Energy =    20.0970073115 hartrees
 There are        7 alpha and        6 beta electrons
 Requested basis set is aug-cc-pCVTZ
 There are 47 shells and 141 basis functions

 Total QAlloc Memory Limit  64000 MB
 Mega-Array Size      1467 MB
 MEM_STATIC part      1500 MB

                       Distance Matrix (Angstroms)
             C (  1)   C (  2)
   C (  2)  1.216500
   H (  3)  1.046500  2.263000
 
 Applying Cartesian multipole field
    Component          Value
    ---------          -----
     (2,0,0)       -1.00000E-04
 A cutoff of  1.0D-14 yielded   1123 shell pairs
 There are     10195 function pairs (     13690 Cartesian)
 
 -------------------------------------------------------
 OpenMP Integral Computing Module                       
 Release: version 1.0, May 2013, Q-Chem Inc. Pittsburgh 
 -------------------------------------------------------
 Integral Job Info:
 Integral job number is                      11
 Integral operator is                         1
 short-range coefficients                     0
 long-range coefficients              100000000
 Omega coefficients                           0
 if combine SR and LR in K                    0
 Integral screening is                        0
 Integral computing path is                   2
 max size of driver memory is            800000
 size of driver memory is                776718
 size of scratch memory is              6691272
 max col of scratch BK array              10000
 max len of scratch array in speh3          662
 max len of scratch index in speh4           32
 max int batch size is                      520
 min int batch size is                       52
 fixed nKL is                                52
 max L of basis functions is                  3
 order of int derivative is                   0
 number of shells is                         47
 number of basis is                         163
 number of cartesian basis is               163
 number of contracted shell pairs          1123
 number of primitive shell pairs           3136
 maxK2 (contraction) of shell pair           64
 max number of K2 of shell pair               1
 max number of CS2 of shell pair            169
 max number of PS2 of shell pair            384
 mem total for path MDJ                  555284
 -------------------------------------------------------
 Smallest overlap matrix eigenvalue = 3.43E-05
 Guess MOs from SCF MO coefficient file

 -----------------------------------------------------------------------
  General SCF calculation program by
  Eric Jon Sundstrom, Paul Horn, Yuezhi Mao, Dmitri Zuev, Alec White,
  David Stuck, Shaama M.S., Shane Yost, Joonho Lee, David Small,
  Daniel Levine, Susi Lehtola, Hugh Burton, Evgeny Epifanovsky
 -----------------------------------------------------------------------
 Exchange:  PBE      Correlation:  PBE
 Using Euler-Maclaurin-Lebedev (99,590) quadrature formula
 using 64 threads for integral computing
 -------------------------------------------------------
 OpenMP Integral computing Module                
 Release: version 1.0, May 2013, Q-Chem Inc. Pittsburgh 
 -------------------------------------------------------
 -------------------------------------------------------
 OpenMP BLAS3 based DFT computing Module                
 Release: version 1.0, May 2013, Q-Chem Inc. Pittsburgh 
 -------------------------------------------------------
 A unrestricted SCF calculation will be
 performed using GDM
 SCF converges when RMS gradient is below 1.0e-08
 ---------------------------------------
  Cycle       Energy        RMS Gradient
 ---------------------------------------
    1     -76.5327344712      1.13e-03   Normal BFGS step
    2     -76.5327358594      2.95e-04   Normal BFGS step
    3     -76.5327362167      1.27e-04   Normal BFGS step
    4     -76.5327362779      4.52e-05   Normal BFGS step
    5     -76.5327362724      1.23e-04   Normal BFGS step
    6     -76.5327362812      1.60e-05   Normal BFGS step
    7     -76.5327362820      5.00e-06   Normal BFGS step
    8     -76.5327362822      7.82e-07   Normal BFGS step
    9     -76.5327362822      1.04e-07   Normal BFGS step
   10     -76.5327362822      4.58e-08   Normal BFGS step
   11     -76.5327362822      7.35e-09  Convergence criterion met
 ---------------------------------------
 SCF time:   CPU 434.04s  wall 7.00s 
<S^2> =          0.773108000
 SCF   energy in the final basis set =      -76.5327362822
 Total energy in the final basis set =      -76.5327362822
 
 --------------------------------------------------------------
 
                    Orbital Energies (a.u.)
 --------------------------------------------------------------
 
 Alpha MOs
 -- Occupied --
 -9.960  -9.914  -0.702  -0.510  -0.357  -0.282  -0.282
 -- Virtual --
 -0.029  -0.029  -0.002   0.016   0.044   0.046   0.058   0.089
  0.091   0.091   0.135   0.162   0.188   0.188   0.220   0.221
  0.228   0.286   0.287   0.301   0.301   0.313   0.330   0.355
  0.356   0.415   0.448   0.449   0.532   0.565   0.661   0.661
  0.727   0.727   0.730   0.731   0.749   0.780   0.820   0.820
  0.848   0.848   0.902   0.902   0.905   0.933   0.933   0.986
  1.070   1.070   1.098   1.098   1.180   1.267   1.267   1.358
  1.383   1.384   1.512   1.513   1.538   1.627   1.627   1.701
  1.701   1.749   1.852   2.254   2.254   2.472   2.637   2.713
  2.713   2.754   2.754   2.843   2.896   2.896   2.970   2.970
  3.051   3.051   3.128   3.199   3.200   3.211   3.211   3.290
  3.290   3.466   3.486   3.486   3.613   3.631   3.631   4.089
  4.089   4.270   4.289   4.289   4.382   4.685   4.685   5.120
  5.736   5.736   6.342   6.462  14.612  14.612  15.163  15.353
 15.353  15.956  16.675  17.029  40.136  40.136  40.184  40.184
 40.197  40.197  40.274  40.360  40.360  40.882  79.160  79.160
 79.727  79.727  79.878  80.609  83.420  85.632
 
 Beta MOs
 -- Occupied --
 -9.941  -9.914  -0.688  -0.502  -0.269  -0.269
 -- Virtual --
 -0.232  -0.007  -0.007  -0.001   0.025   0.045   0.047   0.065
  0.092   0.094   0.096   0.143   0.176   0.189   0.189   0.226
  0.227   0.246   0.301   0.302   0.307   0.307   0.315   0.342
  0.359   0.360   0.433   0.455   0.455   0.561   0.589   0.680
  0.681   0.731   0.731   0.734   0.734   0.767   0.785   0.823
  0.823   0.849   0.849   0.929   0.929   0.929   0.967   0.967
  1.014   1.094   1.095   1.106   1.106   1.236   1.277   1.277
  1.377   1.385   1.385   1.537   1.537   1.560   1.640   1.640
  1.726   1.726   1.756   1.854   2.261   2.261   2.494   2.726
  2.726   2.731   2.762   2.762   2.894   2.951   2.951   2.981
  2.981   3.047   3.047   3.194   3.210   3.210   3.287   3.287
  3.303   3.303   3.486   3.572   3.572   3.630   3.638   3.638
  4.100   4.100   4.280   4.307   4.307   4.424   4.705   4.705
  5.143   5.755   5.755   6.380   6.480  14.626  14.626  15.224
 15.360  15.360  15.965  16.692  17.038  40.144  40.144  40.197
 40.197  40.198  40.198  40.295  40.375  40.375  40.898  79.169
 79.169  79.732  79.732  79.898  80.618  83.435  85.637
 --------------------------------------------------------------
 
          Ground-State Mulliken Net Atomic Charges

     Atom                 Charge (a.u.)    Spin (a.u.)
  --------------------------------------------------------
      1 C                    -0.615080      -0.145168
      2 C                     0.067895       1.129666
      3 H                     0.547186       0.015502
  --------------------------------------------------------
  Sum of atomic charges =    -0.000000
  Sum of spin   charges =     1.000000

 -----------------------------------------------------------------
                    Cartesian Multipole Moments
 -----------------------------------------------------------------
    Charge (ESU x 10^10)
                -0.0000
    Dipole Moment (Debye)
         X       0.0000      Y      -0.0000      Z       0.7651
       Tot       0.7651
    Quadrupole Moments (Debye-Ang)
        XX     -12.8889     XY       0.0000     YY     -12.8975
        XZ      -0.0000     YZ       0.0000     ZZ      -9.1574
    Octopole Moments (Debye-Ang^2)
       XXX       0.0000    XXY      -0.0000    XYY       0.0000
       YYY      -0.0000    XXZ       6.6894    XYZ      -0.0000
       YYZ       6.6942    XZZ       0.0000    YZZ      -0.0000
       ZZZ      17.3969
    Hexadecapole Moments (Debye-Ang^3)
      XXXX     -16.2921   XXXY       0.0000   XXYY      -5.4375
      XYYY       0.0000   YYYY     -16.3329   XXXZ      -0.0000
      XXYZ       0.0000   XYYZ      -0.0000   YYYZ       0.0000
      XXZZ     -14.0650   XYZZ       0.0000   YYZZ     -14.0775
      XZZZ      -0.0000   YZZZ       0.0000   ZZZZ     -59.4963
 -----------------------------------------------------------------
Archival summary:
1\1\n0071.mhg0\SP\ProcedureUnspecified\BasisUnspecified\21(2)\yhljason\ThuMay2805:53:542020ThuMay2805:53:542020\0\\#,ProcedureUnspecified,BasisUnspecified,\\0,2\C\H,1,1.0465\C,1,1.2165,2,180\\\@

 Total job time:  7.81s(wall), 477.20s(cpu) 
 Thu May 28 05:53:54 2020

        *************************************************************
        *                                                           *
        *  Thank you very much for using Q-Chem.  Have a nice day.  *
        *                                                           *
        *************************************************************


 
User input: 4 of 7 
 
Q-Chem Developer Version!
                  Welcome to Q-Chem
     A Quantum Leap Into The Future Of Chemistry


 Q-Chem 5.1, Q-Chem, Inc., Pleasanton, CA (2018)

 Yihan Shao,  Zhengting Gan,  E. Epifanovsky,  A. T. B. Gilbert,  M. Wormit,  
 J. Kussmann,  A. W. Lange,  A. Behn,  Jia Deng,  Xintian Feng,  D. Ghosh,  
 M. Goldey,  P. R. Horn,  L. D. Jacobson,  I. Kaliman,  T. Kus,  A. Landau,  
 Jie Liu,  E. I. Proynov,  R. M. Richard,  R. P. Steele,  E. J. Sundstrom,  
 H. L. Woodcock III,  P. M. Zimmerman,  D. Zuev,  B. Albrecht,  E. Alguire,  
 S. A. Baeppler,  D. Barton,  Z. Benda,  Y. A. Bernard,  E. J. Berquist,  
 K. B. Bravaya,  H. Burton,  D. Casanova,  Chun-Min Chang,  Yunqing Chen,  
 A. Chien,  K. D. Closser,  M. P. Coons,  S. Coriani,  S. Dasgupta,  
 A. L. Dempwolff,  M. Diedenhofen,  Hainam Do,  R. G. Edgar,  Po-Tung Fang,  
 S. Faraji,  S. Fatehi,  Qingguo Feng,  K. D. Fenk,  J. Fosso-Tande,  
 Qinghui Ge,  A. Ghysels,  G. Gidofalvi,  J. Gomes,  J. Gonthier,  A. Gunina,  
 D. Hait,  M. W. D. Hanson-Heine,  P. H. P. Harbach,  A. W. Hauser,  
 J. E. Herr,  E. G. Hohenstein,  Z. C. Holden,  Kerwin Hui,  B. C. Huynh,  
 T.-C. Jagau,  Hyunjun Ji,  B. Kaduk,  K. Khistyaev,  Jaehoon Kim,  
 P. Klunzinger,  K. Koh,  D. Kosenkov,  L. Koulias,  T. Kowalczyk,  
 C. M. Krauter,  A. Kunitsa,  Ka Un Lao,  A. Laurent,  K. V. Lawler,  
 Joonho Lee,  D. Lefrancois,  S. Lehtola,  D. S. Levine,  Yi-Pei Li,  
 You-Sheng Lin,  Fenglai Liu,  E. Livshits,  A. Luenser,  P. Manohar,  
 E. Mansoor,  S. F. Manzer,  Shan-Ping Mao,  Yuezhi Mao,  N. Mardirossian,  
 A. V. Marenich,  T. Markovich,  L. A. Martinez-Martinez,  S. A. Maurer,  
 N. J. Mayhall,  S. C. McKenzie,  J.-M. Mewes,  A. F. Morrison,  
 J. W. Mullinax,  K. Nanda,  T. S. Nguyen-Beck,  R. Olivares-Amaya,  
 J. A. Parkhill,  T. M. Perrine,  F. Plasser,  P. Pokhilko,  S. Prager,  
 A. Prociuk,  E. Ramos,  D. R. Rehn,  F. Rob,  M. Schneider,  N. Sergueev,  
 S. M. Sharada,  S. Sharma,  D. W. Small,  T. Stauch,  T. Stein,  
 Yu-Chuan Su,  A. J. W. Thom,  A. Tkatchenko,  T. Tsuchimochi,  N. M. Tubman,  
 L. Vogt,  M. L. Vidal,  O. Vydrov,  M. A. Watson,  J. Wenzel,  
 M. de Wergifosse,  T. A. Wesolowski,  A. White,  J. Witte,  A. Yamada,  
 Jun Yang,  K. Yao,  S. Yeganeh,  S. R. Yost,  Zhi-Qiang You,  A. Zech,  
 Igor Ying Zhang,  Xing Zhang,  Yan Zhao,  Ying Zhu,  B. R. Brooks,  
 G. K. L. Chan,  C. J. Cramer,  M. S. Gordon,  W. J. Hehre,  A. Klamt,  
 M. W. Schmidt,  C. D. Sherrill,  D. G. Truhlar,  A. Aspuru-Guzik,  R. Baer,  
 A. T. Bell,  N. A. Besley,  Jeng-Da Chai,  A. E. DePrince, III,  
 R. A. DiStasio Jr.,  A. Dreuw,  B. D. Dunietz,  T. R. Furlani,  
 Chao-Ping Hsu,  Yousung Jung,  Jing Kong,  D. S. Lambrecht,  WanZhen Liang,  
 C. Ochsenfeld,  V. A. Rassolov,  L. V. Slipchenko,  J. E. Subotnik,  
 T. Van Voorhis,  J. M. Herbert,  A. I. Krylov,  P. M. W. Gill,  M. Head-Gordon

 Contributors to earlier versions of Q-Chem not listed above: 
 R. D. Adamson,  B. Austin,  J. Baker,  G. J. O. Beran,  K. Brandhorst,  
 S. T. Brown,  E. F. C. Byrd,  A. K. Chakraborty,  C.-L. Cheng,  
 Siu Hung Chien,  D. M. Chipman,  D. L. Crittenden,  H. Dachsel,  
 R. J. Doerksen,  A. D. Dutoi,  L. Fusti-Molnar,  W. A. Goddard III,  
 A. Golubeva-Zadorozhnaya,  S. R. Gwaltney,  G. Hawkins,  A. Heyden,  
 S. Hirata,  G. Kedziora,  F. J. Keil,  C. Kelley,  Jihan Kim,  R. A. King,  
 R. Z. Khaliullin,  P. P. Korambath,  W. Kurlancheek,  A. M. Lee,  M. S. Lee,  
 S. V. Levchenko,  Ching Yeh Lin,  D. Liotard,  R. C. Lochan,  I. Lotan,  
 P. E. Maslen,  N. Nair,  D. P. O'Neill,  D. Neuhauser,  E. Neuscamman,  
 C. M. Oana,  R. Olson,  B. Peters,  R. Peverati,  P. A. Pieniazek,  
 Y. M. Rhee,  J. Ritchie,  M. A. Rohrdanz,  E. Rosta,  N. J. Russ,  
 H. F. Schaefer III,  N. E. Schultz,  N. Shenvi,  A. C. Simmonett,  A. Sodt,  
 D. Stuck,  K. S. Thanthiriwatte,  V. Vanovschi,  Tao Wang,  A. Warshel,  
 C. F. Williams,  Q. Wu,  X. Xu,  W. Zhang

 Please cite Q-Chem as follows:
 Y. Shao et al., Mol. Phys. 113, 184-215 (2015)
 DOI: 10.1080/00268976.2014.952696

 Q-Chem 5.1.1 for Intel X86 EM64T Linux

 Parts of Q-Chem use Armadillo 8.300.2 (Tropical Shenanigans).
 http://arma.sourceforge.net/

 Q-Chem begins on Thu May 28 05:53:55 2020  

Host: n0071.mhg0
0

     Scratch files written to /local/scratch/users/yhljason/C2H_pbe.inp20200528003900//
The previous job contains 0 fragments, simply inherited here
Input Ideriv = 2
Curr. Ideriv = -1
Max.  Ideriv = 2

Checking the input file for inconsistencies... 	...done.

--------------------------------------------------------------
User input:
--------------------------------------------------------------
$molecule
read
$end

$rem

jobtype sp
method pbe
xc_grid 000099000590
basis aug-cc-pcVTZ
max_scf_cycles 200
thresh 14
scf_convergence 8
CC_E_CONV 8
CC_T_CONV 6
mem_total 64000
mem_static 1500
symmetry false
sym_ignore true
scf_guess read
unrestricted true
scf_algorithm gdm
$end

$multipole_field
YY 0.0001
$end


--------------------------------------------------------------
 ----------------------------------------------------------------
             Standard Nuclear Orientation (Angstroms)
    I     Atom           X                Y                Z
 ----------------------------------------------------------------
    1      C       0.0000000000     0.0000000000     0.0000000000
    2      C       0.0000000000     0.0000000000    -1.2165000000
    3      H       0.0000000000     0.0000000000     1.0465000000
 ----------------------------------------------------------------
 Nuclear Repulsion Energy =    20.0970073115 hartrees
 There are        7 alpha and        6 beta electrons
 Requested basis set is aug-cc-pCVTZ
 There are 47 shells and 141 basis functions

 Total QAlloc Memory Limit  64000 MB
 Mega-Array Size      1467 MB
 MEM_STATIC part      1500 MB

                       Distance Matrix (Angstroms)
             C (  1)   C (  2)
   C (  2)  1.216500
   H (  3)  1.046500  2.263000
 
 Applying Cartesian multipole field
    Component          Value
    ---------          -----
     (0,2,0)        1.00000E-04
 A cutoff of  1.0D-14 yielded   1123 shell pairs
 There are     10195 function pairs (     13690 Cartesian)
 
 -------------------------------------------------------
 OpenMP Integral Computing Module                       
 Release: version 1.0, May 2013, Q-Chem Inc. Pittsburgh 
 -------------------------------------------------------
 Integral Job Info:
 Integral job number is                      11
 Integral operator is                         1
 short-range coefficients                     0
 long-range coefficients              100000000
 Omega coefficients                           0
 if combine SR and LR in K                    0
 Integral screening is                        0
 Integral computing path is                   2
 max size of driver memory is            800000
 size of driver memory is                776718
 size of scratch memory is              6691272
 max col of scratch BK array              10000
 max len of scratch array in speh3          662
 max len of scratch index in speh4           32
 max int batch size is                      520
 min int batch size is                       52
 fixed nKL is                                52
 max L of basis functions is                  3
 order of int derivative is                   0
 number of shells is                         47
 number of basis is                         163
 number of cartesian basis is               163
 number of contracted shell pairs          1123
 number of primitive shell pairs           3136
 maxK2 (contraction) of shell pair           64
 max number of K2 of shell pair               1
 max number of CS2 of shell pair            169
 max number of PS2 of shell pair            384
 mem total for path MDJ                  555284
 -------------------------------------------------------
 Smallest overlap matrix eigenvalue = 3.43E-05
 Guess MOs from SCF MO coefficient file

 -----------------------------------------------------------------------
  General SCF calculation program by
  Eric Jon Sundstrom, Paul Horn, Yuezhi Mao, Dmitri Zuev, Alec White,
  David Stuck, Shaama M.S., Shane Yost, Joonho Lee, David Small,
  Daniel Levine, Susi Lehtola, Hugh Burton, Evgeny Epifanovsky
 -----------------------------------------------------------------------
 Exchange:  PBE      Correlation:  PBE
 Using Euler-Maclaurin-Lebedev (99,590) quadrature formula
 using 64 threads for integral computing
 -------------------------------------------------------
 OpenMP Integral computing Module                
 Release: version 1.0, May 2013, Q-Chem Inc. Pittsburgh 
 -------------------------------------------------------
 -------------------------------------------------------
 OpenMP BLAS3 based DFT computing Module                
 Release: version 1.0, May 2013, Q-Chem Inc. Pittsburgh 
 -------------------------------------------------------
 A unrestricted SCF calculation will be
 performed using GDM
 SCF converges when RMS gradient is below 1.0e-08
 ---------------------------------------
  Cycle       Energy        RMS Gradient
 ---------------------------------------
    1     -76.5346534332      7.49e-04   Normal BFGS step
    2     -76.5346541716      2.81e-04   Normal BFGS step
    3     -76.5346545645      8.98e-05   Normal BFGS step
    4     -76.5346545900      4.52e-05   Normal BFGS step
    5     -76.5346545876      1.02e-04   Normal BFGS step
    6     -76.5346545932      1.82e-05   Normal BFGS step
    7     -76.5346545944      5.65e-06   Normal BFGS step
    8     -76.5346545946      1.24e-06   Normal BFGS step
    9     -76.5346545946      1.21e-07   Normal BFGS step
   10     -76.5346545946      4.08e-08   Normal BFGS step
   11     -76.5346545946      1.41e-08   Normal BFGS step
   12     -76.5346545946      1.33e-09  Convergence criterion met
 ---------------------------------------
 SCF time:   CPU 472.73s  wall 7.00s 
<S^2> =          0.773086779
 SCF   energy in the final basis set =      -76.5346545946
 Total energy in the final basis set =      -76.5346545946
 
 --------------------------------------------------------------
 
                    Orbital Energies (a.u.)
 --------------------------------------------------------------
 
 Alpha MOs
 -- Occupied --
 -9.961  -9.914  -0.703  -0.510  -0.357  -0.283  -0.283
 -- Virtual --
 -0.030  -0.030  -0.005   0.014   0.041   0.042   0.056   0.086
  0.087   0.087   0.132   0.160   0.186   0.186   0.218   0.219
  0.226   0.283   0.284   0.300   0.300   0.311   0.328   0.353
  0.354   0.414   0.447   0.448   0.531   0.563   0.659   0.660
  0.726   0.726   0.729   0.730   0.748   0.779   0.819   0.819
  0.847   0.847   0.901   0.901   0.904   0.932   0.932   0.985
  1.069   1.069   1.097   1.097   1.179   1.266   1.266   1.357
  1.382   1.383   1.511   1.512   1.537   1.626   1.626   1.700
  1.701   1.748   1.851   2.253   2.253   2.471   2.636   2.713
  2.713   2.753   2.753   2.842   2.896   2.896   2.969   2.969
  3.050   3.050   3.128   3.199   3.199   3.210   3.210   3.289
  3.289   3.465   3.485   3.485   3.613   3.630   3.630   4.089
  4.089   4.270   4.289   4.289   4.382   4.684   4.685   5.120
  5.735   5.735   6.342   6.462  14.611  14.611  15.162  15.353
 15.353  15.955  16.674  17.029  40.136  40.136  40.183  40.183
 40.196  40.196  40.274  40.360  40.360  40.882  79.160  79.160
 79.726  79.726  79.877  80.609  83.419  85.631
 
 Beta MOs
 -- Occupied --
 -9.942  -9.914  -0.688  -0.502  -0.270  -0.270
 -- Virtual --
 -0.233  -0.008  -0.008  -0.004   0.023   0.042   0.044   0.063
  0.088   0.091   0.093   0.141   0.174   0.188   0.188   0.224
  0.225   0.245   0.299   0.300   0.306   0.306   0.313   0.341
  0.357   0.358   0.431   0.453   0.454   0.560   0.588   0.679
  0.679   0.730   0.730   0.733   0.733   0.766   0.784   0.822
  0.822   0.848   0.848   0.928   0.928   0.928   0.966   0.967
  1.013   1.094   1.094   1.105   1.105   1.235   1.276   1.276
  1.377   1.384   1.384   1.536   1.536   1.559   1.640   1.640
  1.725   1.725   1.756   1.853   2.260   2.261   2.494   2.726
  2.726   2.730   2.761   2.761   2.893   2.950   2.950   2.981
  2.981   3.046   3.046   3.194   3.209   3.209   3.286   3.286
  3.303   3.303   3.485   3.572   3.572   3.629   3.638   3.638
  4.100   4.100   4.280   4.306   4.306   4.424   4.704   4.704
  5.142   5.755   5.755   6.379   6.479  14.626  14.626  15.224
 15.359  15.359  15.964  16.692  17.038  40.144  40.144  40.196
 40.196  40.197  40.197  40.294  40.375  40.375  40.897  79.169
 79.169  79.731  79.731  79.897  80.617  83.435  85.636
 --------------------------------------------------------------
 
          Ground-State Mulliken Net Atomic Charges

     Atom                 Charge (a.u.)    Spin (a.u.)
  --------------------------------------------------------
      1 C                    -0.616752      -0.144505
      2 C                     0.069090       1.128912
      3 H                     0.547663       0.015593
  --------------------------------------------------------
  Sum of atomic charges =    -0.000000
  Sum of spin   charges =     1.000000

 -----------------------------------------------------------------
                    Cartesian Multipole Moments
 -----------------------------------------------------------------
    Charge (ESU x 10^10)
                -0.0000
    Dipole Moment (Debye)
         X       0.0000      Y      -0.0000      Z       0.7657
       Tot       0.7657
    Quadrupole Moments (Debye-Ang)
        XX     -12.9045     XY       0.0000     YY     -12.9132
        XZ      -0.0000     YZ       0.0000     ZZ      -9.1591
    Octopole Moments (Debye-Ang^2)
       XXX       0.0000    XXY      -0.0000    XYY       0.0000
       YYY      -0.0000    XXZ       6.6982    XYZ      -0.0000
       YYZ       6.7031    XZZ       0.0000    YZZ      -0.0000
       ZZZ      17.4032
    Hexadecapole Moments (Debye-Ang^3)
      XXXX     -16.3727   XXXY       0.0000   XXYY      -5.4645
      XYYY       0.0000   YYYY     -16.4143   XXXZ      -0.0000
      XXYZ       0.0000   XYYZ      -0.0000   YYYZ       0.0000
      XXZZ     -14.0901   XYZZ       0.0000   YYZZ     -14.1027
      XZZZ      -0.0000   YZZZ       0.0000   ZZZZ     -59.5207
 -----------------------------------------------------------------
Archival summary:
1\1\n0071.mhg0\SP\ProcedureUnspecified\BasisUnspecified\21(2)\yhljason\ThuMay2805:54:032020ThuMay2805:54:032020\0\\#,ProcedureUnspecified,BasisUnspecified,\\0,2\C\H,1,1.0465\C,1,1.2165,2,180\\\@

 Total job time:  8.35s(wall), 516.36s(cpu) 
 Thu May 28 05:54:03 2020

        *************************************************************
        *                                                           *
        *  Thank you very much for using Q-Chem.  Have a nice day.  *
        *                                                           *
        *************************************************************


 
User input: 5 of 7 
 
Q-Chem Developer Version!
                  Welcome to Q-Chem
     A Quantum Leap Into The Future Of Chemistry


 Q-Chem 5.1, Q-Chem, Inc., Pleasanton, CA (2018)

 Yihan Shao,  Zhengting Gan,  E. Epifanovsky,  A. T. B. Gilbert,  M. Wormit,  
 J. Kussmann,  A. W. Lange,  A. Behn,  Jia Deng,  Xintian Feng,  D. Ghosh,  
 M. Goldey,  P. R. Horn,  L. D. Jacobson,  I. Kaliman,  T. Kus,  A. Landau,  
 Jie Liu,  E. I. Proynov,  R. M. Richard,  R. P. Steele,  E. J. Sundstrom,  
 H. L. Woodcock III,  P. M. Zimmerman,  D. Zuev,  B. Albrecht,  E. Alguire,  
 S. A. Baeppler,  D. Barton,  Z. Benda,  Y. A. Bernard,  E. J. Berquist,  
 K. B. Bravaya,  H. Burton,  D. Casanova,  Chun-Min Chang,  Yunqing Chen,  
 A. Chien,  K. D. Closser,  M. P. Coons,  S. Coriani,  S. Dasgupta,  
 A. L. Dempwolff,  M. Diedenhofen,  Hainam Do,  R. G. Edgar,  Po-Tung Fang,  
 S. Faraji,  S. Fatehi,  Qingguo Feng,  K. D. Fenk,  J. Fosso-Tande,  
 Qinghui Ge,  A. Ghysels,  G. Gidofalvi,  J. Gomes,  J. Gonthier,  A. Gunina,  
 D. Hait,  M. W. D. Hanson-Heine,  P. H. P. Harbach,  A. W. Hauser,  
 J. E. Herr,  E. G. Hohenstein,  Z. C. Holden,  Kerwin Hui,  B. C. Huynh,  
 T.-C. Jagau,  Hyunjun Ji,  B. Kaduk,  K. Khistyaev,  Jaehoon Kim,  
 P. Klunzinger,  K. Koh,  D. Kosenkov,  L. Koulias,  T. Kowalczyk,  
 C. M. Krauter,  A. Kunitsa,  Ka Un Lao,  A. Laurent,  K. V. Lawler,  
 Joonho Lee,  D. Lefrancois,  S. Lehtola,  D. S. Levine,  Yi-Pei Li,  
 You-Sheng Lin,  Fenglai Liu,  E. Livshits,  A. Luenser,  P. Manohar,  
 E. Mansoor,  S. F. Manzer,  Shan-Ping Mao,  Yuezhi Mao,  N. Mardirossian,  
 A. V. Marenich,  T. Markovich,  L. A. Martinez-Martinez,  S. A. Maurer,  
 N. J. Mayhall,  S. C. McKenzie,  J.-M. Mewes,  A. F. Morrison,  
 J. W. Mullinax,  K. Nanda,  T. S. Nguyen-Beck,  R. Olivares-Amaya,  
 J. A. Parkhill,  T. M. Perrine,  F. Plasser,  P. Pokhilko,  S. Prager,  
 A. Prociuk,  E. Ramos,  D. R. Rehn,  F. Rob,  M. Schneider,  N. Sergueev,  
 S. M. Sharada,  S. Sharma,  D. W. Small,  T. Stauch,  T. Stein,  
 Yu-Chuan Su,  A. J. W. Thom,  A. Tkatchenko,  T. Tsuchimochi,  N. M. Tubman,  
 L. Vogt,  M. L. Vidal,  O. Vydrov,  M. A. Watson,  J. Wenzel,  
 M. de Wergifosse,  T. A. Wesolowski,  A. White,  J. Witte,  A. Yamada,  
 Jun Yang,  K. Yao,  S. Yeganeh,  S. R. Yost,  Zhi-Qiang You,  A. Zech,  
 Igor Ying Zhang,  Xing Zhang,  Yan Zhao,  Ying Zhu,  B. R. Brooks,  
 G. K. L. Chan,  C. J. Cramer,  M. S. Gordon,  W. J. Hehre,  A. Klamt,  
 M. W. Schmidt,  C. D. Sherrill,  D. G. Truhlar,  A. Aspuru-Guzik,  R. Baer,  
 A. T. Bell,  N. A. Besley,  Jeng-Da Chai,  A. E. DePrince, III,  
 R. A. DiStasio Jr.,  A. Dreuw,  B. D. Dunietz,  T. R. Furlani,  
 Chao-Ping Hsu,  Yousung Jung,  Jing Kong,  D. S. Lambrecht,  WanZhen Liang,  
 C. Ochsenfeld,  V. A. Rassolov,  L. V. Slipchenko,  J. E. Subotnik,  
 T. Van Voorhis,  J. M. Herbert,  A. I. Krylov,  P. M. W. Gill,  M. Head-Gordon

 Contributors to earlier versions of Q-Chem not listed above: 
 R. D. Adamson,  B. Austin,  J. Baker,  G. J. O. Beran,  K. Brandhorst,  
 S. T. Brown,  E. F. C. Byrd,  A. K. Chakraborty,  C.-L. Cheng,  
 Siu Hung Chien,  D. M. Chipman,  D. L. Crittenden,  H. Dachsel,  
 R. J. Doerksen,  A. D. Dutoi,  L. Fusti-Molnar,  W. A. Goddard III,  
 A. Golubeva-Zadorozhnaya,  S. R. Gwaltney,  G. Hawkins,  A. Heyden,  
 S. Hirata,  G. Kedziora,  F. J. Keil,  C. Kelley,  Jihan Kim,  R. A. King,  
 R. Z. Khaliullin,  P. P. Korambath,  W. Kurlancheek,  A. M. Lee,  M. S. Lee,  
 S. V. Levchenko,  Ching Yeh Lin,  D. Liotard,  R. C. Lochan,  I. Lotan,  
 P. E. Maslen,  N. Nair,  D. P. O'Neill,  D. Neuhauser,  E. Neuscamman,  
 C. M. Oana,  R. Olson,  B. Peters,  R. Peverati,  P. A. Pieniazek,  
 Y. M. Rhee,  J. Ritchie,  M. A. Rohrdanz,  E. Rosta,  N. J. Russ,  
 H. F. Schaefer III,  N. E. Schultz,  N. Shenvi,  A. C. Simmonett,  A. Sodt,  
 D. Stuck,  K. S. Thanthiriwatte,  V. Vanovschi,  Tao Wang,  A. Warshel,  
 C. F. Williams,  Q. Wu,  X. Xu,  W. Zhang

 Please cite Q-Chem as follows:
 Y. Shao et al., Mol. Phys. 113, 184-215 (2015)
 DOI: 10.1080/00268976.2014.952696

 Q-Chem 5.1.1 for Intel X86 EM64T Linux

 Parts of Q-Chem use Armadillo 8.300.2 (Tropical Shenanigans).
 http://arma.sourceforge.net/

 Q-Chem begins on Thu May 28 05:54:03 2020  

Host: n0071.mhg0
0

     Scratch files written to /local/scratch/users/yhljason/C2H_pbe.inp20200528003900//
The previous job contains 0 fragments, simply inherited here
Input Ideriv = 2
Curr. Ideriv = -1
Max.  Ideriv = 2

Checking the input file for inconsistencies... 	...done.

--------------------------------------------------------------
User input:
--------------------------------------------------------------
$molecule
read
$end

$rem

jobtype sp
method pbe
xc_grid 000099000590
basis aug-cc-pcVTZ
max_scf_cycles 200
thresh 14
scf_convergence 8
mem_total 64000
mem_static 1500
symmetry false
sym_ignore true
scf_guess read
unrestricted true
scf_algorithm gdm
$end

$multipole_field
YY -0.0001
$end
--------------------------------------------------------------
 ----------------------------------------------------------------
             Standard Nuclear Orientation (Angstroms)
    I     Atom           X                Y                Z
 ----------------------------------------------------------------
    1      C       0.0000000000     0.0000000000     0.0000000000
    2      C       0.0000000000     0.0000000000    -1.2165000000
    3      H       0.0000000000     0.0000000000     1.0465000000
 ----------------------------------------------------------------
 Nuclear Repulsion Energy =    20.0970073115 hartrees
 There are        7 alpha and        6 beta electrons
 Requested basis set is aug-cc-pCVTZ
 There are 47 shells and 141 basis functions

 Total QAlloc Memory Limit  64000 MB
 Mega-Array Size      1467 MB
 MEM_STATIC part      1500 MB

                       Distance Matrix (Angstroms)
             C (  1)   C (  2)
   C (  2)  1.216500
   H (  3)  1.046500  2.263000
 
 Applying Cartesian multipole field
    Component          Value
    ---------          -----
     (0,2,0)       -1.00000E-04
 A cutoff of  1.0D-14 yielded   1123 shell pairs
 There are     10195 function pairs (     13690 Cartesian)
 
 -------------------------------------------------------
 OpenMP Integral Computing Module                       
 Release: version 1.0, May 2013, Q-Chem Inc. Pittsburgh 
 -------------------------------------------------------
 Integral Job Info:
 Integral job number is                      11
 Integral operator is                         1
 short-range coefficients                     0
 long-range coefficients              100000000
 Omega coefficients                           0
 if combine SR and LR in K                    0
 Integral screening is                        0
 Integral computing path is                   2
 max size of driver memory is            800000
 size of driver memory is                776718
 size of scratch memory is              6691272
 max col of scratch BK array              10000
 max len of scratch array in speh3          662
 max len of scratch index in speh4           32
 max int batch size is                      520
 min int batch size is                       52
 fixed nKL is                                52
 max L of basis functions is                  3
 order of int derivative is                   0
 number of shells is                         47
 number of basis is                         163
 number of cartesian basis is               163
 number of contracted shell pairs          1123
 number of primitive shell pairs           3136
 maxK2 (contraction) of shell pair           64
 max number of K2 of shell pair               1
 max number of CS2 of shell pair            169
 max number of PS2 of shell pair            384
 mem total for path MDJ                  555284
 -------------------------------------------------------
 Smallest overlap matrix eigenvalue = 3.43E-05
 Guess MOs from SCF MO coefficient file

 -----------------------------------------------------------------------
  General SCF calculation program by
  Eric Jon Sundstrom, Paul Horn, Yuezhi Mao, Dmitri Zuev, Alec White,
  David Stuck, Shaama M.S., Shane Yost, Joonho Lee, David Small,
  Daniel Levine, Susi Lehtola, Hugh Burton, Evgeny Epifanovsky
 -----------------------------------------------------------------------
 Exchange:  PBE      Correlation:  PBE
 Using Euler-Maclaurin-Lebedev (99,590) quadrature formula
 using 64 threads for integral computing
 -------------------------------------------------------
 OpenMP Integral computing Module                
 Release: version 1.0, May 2013, Q-Chem Inc. Pittsburgh 
 -------------------------------------------------------
 -------------------------------------------------------
 OpenMP BLAS3 based DFT computing Module                
 Release: version 1.0, May 2013, Q-Chem Inc. Pittsburgh 
 -------------------------------------------------------
 A unrestricted SCF calculation will be
 performed using GDM
 SCF converges when RMS gradient is below 1.0e-08
 ---------------------------------------
  Cycle       Energy        RMS Gradient
 ---------------------------------------
    1     -76.5327344712      1.13e-03   Normal BFGS step
    2     -76.5327358594      2.95e-04   Normal BFGS step
    3     -76.5327362167      1.27e-04   Normal BFGS step
    4     -76.5327362779      4.52e-05   Normal BFGS step
    5     -76.5327362724      1.23e-04   Normal BFGS step
    6     -76.5327362812      1.60e-05   Normal BFGS step
    7     -76.5327362820      5.00e-06   Normal BFGS step
    8     -76.5327362822      7.82e-07   Normal BFGS step
    9     -76.5327362822      1.04e-07   Normal BFGS step
   10     -76.5327362822      4.58e-08   Normal BFGS step
   11     -76.5327362822      7.36e-09  Convergence criterion met
 ---------------------------------------
 SCF time:   CPU 442.72s  wall 7.00s 
<S^2> =          0.773108000
 SCF   energy in the final basis set =      -76.5327362822
 Total energy in the final basis set =      -76.5327362822
 
 --------------------------------------------------------------
 
                    Orbital Energies (a.u.)
 --------------------------------------------------------------
 
 Alpha MOs
 -- Occupied --
 -9.960  -9.914  -0.702  -0.510  -0.357  -0.282  -0.282
 -- Virtual --
 -0.029  -0.029  -0.002   0.016   0.044   0.046   0.058   0.089
  0.091   0.091   0.135   0.162   0.188   0.188   0.220   0.221
  0.228   0.286   0.287   0.301   0.301   0.313   0.330   0.355
  0.356   0.415   0.448   0.449   0.532   0.565   0.661   0.661
  0.727   0.727   0.730   0.731   0.749   0.780   0.820   0.820
  0.848   0.848   0.902   0.902   0.905   0.933   0.933   0.986
  1.070   1.070   1.098   1.098   1.180   1.267   1.267   1.358
  1.383   1.384   1.512   1.513   1.538   1.627   1.627   1.701
  1.701   1.749   1.852   2.254   2.254   2.472   2.637   2.713
  2.713   2.754   2.754   2.843   2.896   2.896   2.970   2.970
  3.051   3.051   3.128   3.199   3.200   3.211   3.211   3.290
  3.290   3.466   3.486   3.486   3.613   3.631   3.631   4.089
  4.089   4.270   4.289   4.289   4.382   4.685   4.685   5.120
  5.736   5.736   6.342   6.462  14.612  14.612  15.163  15.353
 15.353  15.956  16.675  17.029  40.136  40.136  40.184  40.184
 40.197  40.197  40.274  40.360  40.360  40.882  79.160  79.160
 79.727  79.727  79.878  80.609  83.420  85.632
 
 Beta MOs
 -- Occupied --
 -9.941  -9.914  -0.688  -0.502  -0.269  -0.269
 -- Virtual --
 -0.232  -0.007  -0.007  -0.001   0.025   0.045   0.047   0.065
  0.092   0.094   0.096   0.143   0.176   0.189   0.189   0.226
  0.227   0.246   0.301   0.302   0.307   0.307   0.315   0.342
  0.359   0.360   0.433   0.455   0.455   0.561   0.589   0.680
  0.681   0.731   0.731   0.734   0.734   0.767   0.785   0.823
  0.823   0.849   0.849   0.929   0.929   0.929   0.967   0.967
  1.014   1.094   1.095   1.106   1.106   1.236   1.277   1.277
  1.377   1.385   1.385   1.537   1.537   1.560   1.640   1.640
  1.726   1.726   1.756   1.854   2.261   2.261   2.494   2.726
  2.726   2.731   2.762   2.762   2.894   2.951   2.951   2.981
  2.981   3.047   3.047   3.194   3.210   3.210   3.287   3.287
  3.303   3.303   3.486   3.572   3.572   3.630   3.638   3.638
  4.100   4.100   4.280   4.307   4.307   4.424   4.705   4.705
  5.143   5.755   5.755   6.380   6.480  14.626  14.626  15.224
 15.360  15.360  15.965  16.692  17.038  40.144  40.144  40.197
 40.197  40.198  40.198  40.295  40.375  40.375  40.898  79.169
 79.169  79.732  79.732  79.898  80.618  83.435  85.637
 --------------------------------------------------------------
 
          Ground-State Mulliken Net Atomic Charges

     Atom                 Charge (a.u.)    Spin (a.u.)
  --------------------------------------------------------
      1 C                    -0.615080      -0.145168
      2 C                     0.067895       1.129666
      3 H                     0.547186       0.015502
  --------------------------------------------------------
  Sum of atomic charges =    -0.000000
  Sum of spin   charges =     1.000000

 -----------------------------------------------------------------
                    Cartesian Multipole Moments
 -----------------------------------------------------------------
    Charge (ESU x 10^10)
                -0.0000
    Dipole Moment (Debye)
         X       0.0000      Y      -0.0000      Z       0.7651
       Tot       0.7651
    Quadrupole Moments (Debye-Ang)
        XX     -12.8975     XY       0.0000     YY     -12.8889
        XZ      -0.0000     YZ       0.0000     ZZ      -9.1574
    Octopole Moments (Debye-Ang^2)
       XXX       0.0000    XXY      -0.0000    XYY       0.0000
       YYY      -0.0000    XXZ       6.6942    XYZ      -0.0000
       YYZ       6.6894    XZZ       0.0000    YZZ      -0.0000
       ZZZ      17.3969
    Hexadecapole Moments (Debye-Ang^3)
      XXXX     -16.3329   XXXY      -0.0000   XXYY      -5.4375
      XYYY      -0.0000   YYYY     -16.2921   XXXZ      -0.0000
      XXYZ       0.0000   XYYZ      -0.0000   YYYZ       0.0000
      XXZZ     -14.0775   XYZZ      -0.0000   YYZZ     -14.0650
      XZZZ      -0.0000   YZZZ       0.0000   ZZZZ     -59.4963
 -----------------------------------------------------------------
Archival summary:
1\1\n0071.mhg0\SP\ProcedureUnspecified\BasisUnspecified\21(2)\yhljason\ThuMay2805:54:112020ThuMay2805:54:112020\0\\#,ProcedureUnspecified,BasisUnspecified,\\0,2\C\H,1,1.0465\C,1,1.2165,2,180\\\@

 Total job time:  7.90s(wall), 486.49s(cpu) 
 Thu May 28 05:54:11 2020

        *************************************************************
        *                                                           *
        *  Thank you very much for using Q-Chem.  Have a nice day.  *
        *                                                           *
        *************************************************************


 
User input: 6 of 7 
 
Q-Chem Developer Version!
                  Welcome to Q-Chem
     A Quantum Leap Into The Future Of Chemistry


 Q-Chem 5.1, Q-Chem, Inc., Pleasanton, CA (2018)

 Yihan Shao,  Zhengting Gan,  E. Epifanovsky,  A. T. B. Gilbert,  M. Wormit,  
 J. Kussmann,  A. W. Lange,  A. Behn,  Jia Deng,  Xintian Feng,  D. Ghosh,  
 M. Goldey,  P. R. Horn,  L. D. Jacobson,  I. Kaliman,  T. Kus,  A. Landau,  
 Jie Liu,  E. I. Proynov,  R. M. Richard,  R. P. Steele,  E. J. Sundstrom,  
 H. L. Woodcock III,  P. M. Zimmerman,  D. Zuev,  B. Albrecht,  E. Alguire,  
 S. A. Baeppler,  D. Barton,  Z. Benda,  Y. A. Bernard,  E. J. Berquist,  
 K. B. Bravaya,  H. Burton,  D. Casanova,  Chun-Min Chang,  Yunqing Chen,  
 A. Chien,  K. D. Closser,  M. P. Coons,  S. Coriani,  S. Dasgupta,  
 A. L. Dempwolff,  M. Diedenhofen,  Hainam Do,  R. G. Edgar,  Po-Tung Fang,  
 S. Faraji,  S. Fatehi,  Qingguo Feng,  K. D. Fenk,  J. Fosso-Tande,  
 Qinghui Ge,  A. Ghysels,  G. Gidofalvi,  J. Gomes,  J. Gonthier,  A. Gunina,  
 D. Hait,  M. W. D. Hanson-Heine,  P. H. P. Harbach,  A. W. Hauser,  
 J. E. Herr,  E. G. Hohenstein,  Z. C. Holden,  Kerwin Hui,  B. C. Huynh,  
 T.-C. Jagau,  Hyunjun Ji,  B. Kaduk,  K. Khistyaev,  Jaehoon Kim,  
 P. Klunzinger,  K. Koh,  D. Kosenkov,  L. Koulias,  T. Kowalczyk,  
 C. M. Krauter,  A. Kunitsa,  Ka Un Lao,  A. Laurent,  K. V. Lawler,  
 Joonho Lee,  D. Lefrancois,  S. Lehtola,  D. S. Levine,  Yi-Pei Li,  
 You-Sheng Lin,  Fenglai Liu,  E. Livshits,  A. Luenser,  P. Manohar,  
 E. Mansoor,  S. F. Manzer,  Shan-Ping Mao,  Yuezhi Mao,  N. Mardirossian,  
 A. V. Marenich,  T. Markovich,  L. A. Martinez-Martinez,  S. A. Maurer,  
 N. J. Mayhall,  S. C. McKenzie,  J.-M. Mewes,  A. F. Morrison,  
 J. W. Mullinax,  K. Nanda,  T. S. Nguyen-Beck,  R. Olivares-Amaya,  
 J. A. Parkhill,  T. M. Perrine,  F. Plasser,  P. Pokhilko,  S. Prager,  
 A. Prociuk,  E. Ramos,  D. R. Rehn,  F. Rob,  M. Schneider,  N. Sergueev,  
 S. M. Sharada,  S. Sharma,  D. W. Small,  T. Stauch,  T. Stein,  
 Yu-Chuan Su,  A. J. W. Thom,  A. Tkatchenko,  T. Tsuchimochi,  N. M. Tubman,  
 L. Vogt,  M. L. Vidal,  O. Vydrov,  M. A. Watson,  J. Wenzel,  
 M. de Wergifosse,  T. A. Wesolowski,  A. White,  J. Witte,  A. Yamada,  
 Jun Yang,  K. Yao,  S. Yeganeh,  S. R. Yost,  Zhi-Qiang You,  A. Zech,  
 Igor Ying Zhang,  Xing Zhang,  Yan Zhao,  Ying Zhu,  B. R. Brooks,  
 G. K. L. Chan,  C. J. Cramer,  M. S. Gordon,  W. J. Hehre,  A. Klamt,  
 M. W. Schmidt,  C. D. Sherrill,  D. G. Truhlar,  A. Aspuru-Guzik,  R. Baer,  
 A. T. Bell,  N. A. Besley,  Jeng-Da Chai,  A. E. DePrince, III,  
 R. A. DiStasio Jr.,  A. Dreuw,  B. D. Dunietz,  T. R. Furlani,  
 Chao-Ping Hsu,  Yousung Jung,  Jing Kong,  D. S. Lambrecht,  WanZhen Liang,  
 C. Ochsenfeld,  V. A. Rassolov,  L. V. Slipchenko,  J. E. Subotnik,  
 T. Van Voorhis,  J. M. Herbert,  A. I. Krylov,  P. M. W. Gill,  M. Head-Gordon

 Contributors to earlier versions of Q-Chem not listed above: 
 R. D. Adamson,  B. Austin,  J. Baker,  G. J. O. Beran,  K. Brandhorst,  
 S. T. Brown,  E. F. C. Byrd,  A. K. Chakraborty,  C.-L. Cheng,  
 Siu Hung Chien,  D. M. Chipman,  D. L. Crittenden,  H. Dachsel,  
 R. J. Doerksen,  A. D. Dutoi,  L. Fusti-Molnar,  W. A. Goddard III,  
 A. Golubeva-Zadorozhnaya,  S. R. Gwaltney,  G. Hawkins,  A. Heyden,  
 S. Hirata,  G. Kedziora,  F. J. Keil,  C. Kelley,  Jihan Kim,  R. A. King,  
 R. Z. Khaliullin,  P. P. Korambath,  W. Kurlancheek,  A. M. Lee,  M. S. Lee,  
 S. V. Levchenko,  Ching Yeh Lin,  D. Liotard,  R. C. Lochan,  I. Lotan,  
 P. E. Maslen,  N. Nair,  D. P. O'Neill,  D. Neuhauser,  E. Neuscamman,  
 C. M. Oana,  R. Olson,  B. Peters,  R. Peverati,  P. A. Pieniazek,  
 Y. M. Rhee,  J. Ritchie,  M. A. Rohrdanz,  E. Rosta,  N. J. Russ,  
[...]
 SCF   energy in the final basis set =      -76.5343773077
 Total energy in the final basis set =      -76.5343773077
 
 --------------------------------------------------------------
 
                    Orbital Energies (a.u.)
 --------------------------------------------------------------
 
 Alpha MOs
 -- Occupied --
 -9.961  -9.915  -0.703  -0.511  -0.358  -0.283  -0.283
 -- Virtual --
 -0.030  -0.030  -0.005   0.011   0.042   0.042   0.054   0.086
  0.086   0.086   0.130   0.158   0.186   0.186   0.218   0.218
  0.225   0.283   0.283   0.299   0.299   0.309   0.327   0.354
  0.354   0.412   0.447   0.447   0.529   0.562   0.658   0.658
  0.726   0.726   0.729   0.729   0.748   0.778   0.819   0.819
  0.847   0.847   0.901   0.901   0.903   0.931   0.931   0.983
  1.068   1.068   1.097   1.097   1.178   1.265   1.265   1.356
  1.382   1.382   1.511   1.511   1.537   1.626   1.626   1.700
  1.700   1.748   1.851   2.253   2.253   2.471   2.636   2.712
  2.712   2.753   2.753   2.842   2.895   2.895   2.969   2.969
  3.050   3.050   3.127   3.198   3.198   3.210   3.210   3.289
  3.289   3.465   3.485   3.485   3.612   3.630   3.630   4.088
  4.088   4.269   4.288   4.288   4.381   4.684   4.684   5.119
  5.735   5.735   6.341   6.461  14.611  14.611  15.162  15.352
 15.352  15.955  16.674  17.029  40.135  40.135  40.183  40.183
 40.196  40.196  40.273  40.359  40.359  40.881  79.159  79.159
 79.726  79.726  79.877  80.608  83.419  85.631
 
 Beta MOs
 -- Occupied --
 -9.942  -9.915  -0.688  -0.503  -0.270  -0.270
 -- Virtual --
 -0.234  -0.008  -0.008  -0.004   0.021   0.044   0.044   0.060
  0.087   0.091   0.091   0.140   0.171   0.188   0.188   0.224
  0.224   0.243   0.298   0.298   0.305   0.305   0.311   0.340
  0.358   0.358   0.430   0.453   0.453   0.558   0.587   0.678
  0.678   0.730   0.730   0.733   0.733   0.766   0.783   0.821
  0.821   0.848   0.848   0.927   0.928   0.928   0.966   0.966
  1.012   1.093   1.093   1.105   1.105   1.234   1.276   1.276
  1.376   1.384   1.384   1.535   1.535   1.558   1.639   1.639
  1.724   1.724   1.755   1.853   2.260   2.260   2.493   2.725
  2.725   2.729   2.761   2.761   2.893   2.950   2.950   2.981
  2.981   3.046   3.046   3.193   3.209   3.209   3.286   3.286
  3.302   3.302   3.485   3.571   3.571   3.629   3.638   3.638
  4.100   4.100   4.279   4.306   4.306   4.423   4.704   4.704
  5.142   5.754   5.754   6.379   6.479  14.625  14.625  15.223
 15.359  15.359  15.964  16.691  17.037  40.143  40.143  40.196
 40.196  40.197  40.197  40.294  40.374  40.374  40.897  79.168
 79.168  79.731  79.731  79.897  80.617  83.434  85.636
 --------------------------------------------------------------
 
          Ground-State Mulliken Net Atomic Charges

     Atom                 Charge (a.u.)    Spin (a.u.)
  --------------------------------------------------------
      1 C                    -0.615582      -0.144877
      2 C                     0.068562       1.129372
      3 H                     0.547021       0.015505
  --------------------------------------------------------
  Sum of atomic charges =    -0.000000
  Sum of spin   charges =     1.000000

 -----------------------------------------------------------------
                    Cartesian Multipole Moments
 -----------------------------------------------------------------
    Charge (ESU x 10^10)
                -0.0000
    Dipole Moment (Debye)
         X       0.0000      Y       0.0000      Z       0.7780
       Tot       0.7780
    Quadrupole Moments (Debye-Ang)
        XX     -12.9018     XY       0.0000     YY     -12.9018
        XZ      -0.0000     YZ      -0.0000     ZZ      -9.1967
    Octopole Moments (Debye-Ang^2)
       XXX       0.0000    XXY      -0.0000    XYY       0.0000
       YYY      -0.0000    XXZ       6.7074    XYZ      -0.0000
       YYZ       6.7074    XZZ       0.0000    YZZ       0.0000
       ZZZ      17.4819
    Hexadecapole Moments (Debye-Ang^3)
      XXXX     -16.3572   XXXY       0.0000   XXYY      -5.4524
      XYYY       0.0000   YYYY     -16.3572   XXXZ      -0.0000
      XXYZ       0.0000   XYYZ      -0.0000   YYYZ       0.0000
      XXZZ     -14.1135   XYZZ       0.0000   YYZZ     -14.1135
      XZZZ      -0.0000   YZZZ       0.0000   ZZZZ     -59.7678
 -----------------------------------------------------------------
Archival summary:
1\1\n0071.mhg0\SP\ProcedureUnspecified\BasisUnspecified\21(2)\yhljason\ThuMay2805:54:202020ThuMay2805:54:202020\0\\#,ProcedureUnspecified,BasisUnspecified,\\0,2\C\H,1,1.0465\C,1,1.2165,2,180\\\@

 Total job time:  7.83s(wall), 480.50s(cpu) 
 Thu May 28 05:54:20 2020

        *************************************************************
        *                                                           *
        *  Thank you very much for using Q-Chem.  Have a nice day.  *
        *                                                           *
        *************************************************************


 
User input: 7 of 7 
 
Q-Chem Developer Version!
                  Welcome to Q-Chem
     A Quantum Leap Into The Future Of Chemistry


 Q-Chem 5.1, Q-Chem, Inc., Pleasanton, CA (2018)

 Yihan Shao,  Zhengting Gan,  E. Epifanovsky,  A. T. B. Gilbert,  M. Wormit,  
 J. Kussmann,  A. W. Lange,  A. Behn,  Jia Deng,  Xintian Feng,  D. Ghosh,  
 M. Goldey,  P. R. Horn,  L. D. Jacobson,  I. Kaliman,  T. Kus,  A. Landau,  
 Jie Liu,  E. I. Proynov,  R. M. Richard,  R. P. Steele,  E. J. Sundstrom,  
 H. L. Woodcock III,  P. M. Zimmerman,  D. Zuev,  B. Albrecht,  E. Alguire,  
 S. A. Baeppler,  D. Barton,  Z. Benda,  Y. A. Bernard,  E. J. Berquist,  
 K. B. Bravaya,  H. Burton,  D. Casanova,  Chun-Min Chang,  Yunqing Chen,  
 A. Chien,  K. D. Closser,  M. P. Coons,  S. Coriani,  S. Dasgupta,  
 A. L. Dempwolff,  M. Diedenhofen,  Hainam Do,  R. G. Edgar,  Po-Tung Fang,  
 S. Faraji,  S. Fatehi,  Qingguo Feng,  K. D. Fenk,  J. Fosso-Tande,  
 Qinghui Ge,  A. Ghysels,  G. Gidofalvi,  J. Gomes,  J. Gonthier,  A. Gunina,  
 D. Hait,  M. W. D. Hanson-Heine,  P. H. P. Harbach,  A. W. Hauser,  
 J. E. Herr,  E. G. Hohenstein,  Z. C. Holden,  Kerwin Hui,  B. C. Huynh,  
 T.-C. Jagau,  Hyunjun Ji,  B. Kaduk,  K. Khistyaev,  Jaehoon Kim,  
 P. Klunzinger,  K. Koh,  D. Kosenkov,  L. Koulias,  T. Kowalczyk,  
 C. M. Krauter,  A. Kunitsa,  Ka Un Lao,  A. Laurent,  K. V. Lawler,  
 Joonho Lee,  D. Lefrancois,  S. Lehtola,  D. S. Levine,  Yi-Pei Li,  
 You-Sheng Lin,  Fenglai Liu,  E. Livshits,  A. Luenser,  P. Manohar,  
 E. Mansoor,  S. F. Manzer,  Shan-Ping Mao,  Yuezhi Mao,  N. Mardirossian,  
 A. V. Marenich,  T. Markovich,  L. A. Martinez-Martinez,  S. A. Maurer,  
 N. J. Mayhall,  S. C. McKenzie,  J.-M. Mewes,  A. F. Morrison,  
 J. W. Mullinax,  K. Nanda,  T. S. Nguyen-Beck,  R. Olivares-Amaya,  
 J. A. Parkhill,  T. M. Perrine,  F. Plasser,  P. Pokhilko,  S. Prager,  
 A. Prociuk,  E. Ramos,  D. R. Rehn,  F. Rob,  M. Schneider,  N. Sergueev,  
 S. M. Sharada,  S. Sharma,  D. W. Small,  T. Stauch,  T. Stein,  
 Yu-Chuan Su,  A. J. W. Thom,  A. Tkatchenko,  T. Tsuchimochi,  N. M. Tubman,  
 L. Vogt,  M. L. Vidal,  O. Vydrov,  M. A. Watson,  J. Wenzel,  
 M. de Wergifosse,  T. A. Wesolowski,  A. White,  J. Witte,  A. Yamada,  
 Jun Yang,  K. Yao,  S. Yeganeh,  S. R. Yost,  Zhi-Qiang You,  A. Zech,  
 Igor Ying Zhang,  Xing Zhang,  Yan Zhao,  Ying Zhu,  B. R. Brooks,  
 G. K. L. Chan,  C. J. Cramer,  M. S. Gordon,  W. J. Hehre,  A. Klamt,  
 M. W. Schmidt,  C. D. Sherrill,  D. G. Truhlar,  A. Aspuru-Guzik,  R. Baer,  
 A. T. Bell,  N. A. Besley,  Jeng-Da Chai,  A. E. DePrince, III,  
 R. A. DiStasio Jr.,  A. Dreuw,  B. D. Dunietz,  T. R. Furlani,  
 Chao-Ping Hsu,  Yousung Jung,  Jing Kong,  D. S. Lambrecht,  WanZhen Liang,  
 C. Ochsenfeld,  V. A. Rassolov,  L. V. Slipchenko,  J. E. Subotnik,  
 T. Van Voorhis,  J. M. Herbert,  A. I. Krylov,  P. M. W. Gill,  M. Head-Gordon

 Contributors to earlier versions of Q-Chem not listed above: 
 R. D. Adamson,  B. Austin,  J. Baker,  G. J. O. Beran,  K. Brandhorst,  
 S. T. Brown,  E. F. C. Byrd,  A. K. Chakraborty,  C.-L. Cheng,  
 Siu Hung Chien,  D. M. Chipman,  D. L. Crittenden,  H. Dachsel,  
 R. J. Doerksen,  A. D. Dutoi,  L. Fusti-Molnar,  W. A. Goddard III,  
 A. Golubeva-Zadorozhnaya,  S. R. Gwaltney,  G. Hawkins,  A. Heyden,  
 S. Hirata,  G. Kedziora,  F. J. Keil,  C. Kelley,  Jihan Kim,  R. A. King,  
 R. Z. Khaliullin,  P. P. Korambath,  W. Kurlancheek,  A. M. Lee,  M. S. Lee,  
 S. V. Levchenko,  Ching Yeh Lin,  D. Liotard,  R. C. Lochan,  I. Lotan,  
 P. E. Maslen,  N. Nair,  D. P. O'Neill,  D. Neuhauser,  E. Neuscamman,  
 C. M. Oana,  R. Olson,  B. Peters,  R. Peverati,  P. A. Pieniazek,  
 Y. M. Rhee,  J. Ritchie,  M. A. Rohrdanz,  E. Rosta,  N. J. Russ,  
 H. F. Schaefer III,  N. E. Schultz,  N. Shenvi,  A. C. Simmonett,  A. Sodt,  
 D. Stuck,  K. S. Thanthiriwatte,  V. Vanovschi,  Tao Wang,  A. Warshel,  
 C. F. Williams,  Q. Wu,  X. Xu,  W. Zhang

 Please cite Q-Chem as follows:
 Y. Shao et al., Mol. Phys. 113, 184-215 (2015)
 DOI: 10.1080/00268976.2014.952696

 Q-Chem 5.1.1 for Intel X86 EM64T Linux

 Parts of Q-Chem use Armadillo 8.300.2 (Tropical Shenanigans).
 http://arma.sourceforge.net/

 Q-Chem begins on Thu May 28 05:54:20 2020  

Host: n0071.mhg0
0

     Scratch files written to /local/scratch/users/yhljason/C2H_pbe.inp20200528003900//
The previous job contains 0 fragments, simply inherited here
Input Ideriv = 2
Curr. Ideriv = -1
Max.  Ideriv = 2

Checking the input file for inconsistencies... 	...done.

--------------------------------------------------------------
User input:
--------------------------------------------------------------
$molecule
read
$end

$rem

jobtype sp
method pbe
xc_grid 000099000590
basis aug-cc-pcVTZ
max_scf_cycles 200
thresh 14
scf_convergence 8
mem_total 64000
mem_static 1500
symmetry false
sym_ignore true
scf_guess read
unrestricted true
scf_algorithm gdm
$end

$multipole_field
ZZ -0.0001
$end
--------------------------------------------------------------
 ----------------------------------------------------------------
             Standard Nuclear Orientation (Angstroms)
    I     Atom           X                Y                Z
 ----------------------------------------------------------------
    1      C       0.0000000000     0.0000000000     0.0000000000
    2      C       0.0000000000     0.0000000000    -1.2165000000
    3      H       0.0000000000     0.0000000000     1.0465000000
 ----------------------------------------------------------------
 Nuclear Repulsion Energy =    20.0970073115 hartrees
 There are        7 alpha and        6 beta electrons
 Requested basis set is aug-cc-pCVTZ
 There are 47 shells and 141 basis functions

 Total QAlloc Memory Limit  64000 MB
 Mega-Array Size      1467 MB
 MEM_STATIC part      1500 MB

                       Distance Matrix (Angstroms)
             C (  1)   C (  2)
   C (  2)  1.216500
   H (  3)  1.046500  2.263000
 
 Applying Cartesian multipole field
    Component          Value
    ---------          -----
     (0,0,2)       -1.00000E-04
 Nucleus-field energy     =    -0.0035619214 hartrees
 A cutoff of  1.0D-14 yielded   1123 shell pairs
 There are     10195 function pairs (     13690 Cartesian)
 
 -------------------------------------------------------
 OpenMP Integral Computing Module                       
 Release: version 1.0, May 2013, Q-Chem Inc. Pittsburgh 
 -------------------------------------------------------
 Integral Job Info:
 Integral job number is                      11
 Integral operator is                         1
 short-range coefficients                     0
 long-range coefficients              100000000
 Omega coefficients                           0
 if combine SR and LR in K                    0
 Integral screening is                        0
 Integral computing path is                   2
 max size of driver memory is            800000
 size of driver memory is                776718
 size of scratch memory is              6691272
 max col of scratch BK array              10000
 max len of scratch array in speh3          662
 max len of scratch index in speh4           32
 max int batch size is                      520
 min int batch size is                       52
 fixed nKL is                                52
 max L of basis functions is                  3
 order of int derivative is                   0
 number of shells is                         47
 number of basis is                         163
 number of cartesian basis is               163
 number of contracted shell pairs          1123
 number of primitive shell pairs           3136
 maxK2 (contraction) of shell pair           64
 max number of K2 of shell pair               1
 max number of CS2 of shell pair            169
 max number of PS2 of shell pair            384
 mem total for path MDJ                  555284
 -------------------------------------------------------
 Smallest overlap matrix eigenvalue = 3.43E-05
 Guess MOs from SCF MO coefficient file

 -----------------------------------------------------------------------
  General SCF calculation program by
  Eric Jon Sundstrom, Paul Horn, Yuezhi Mao, Dmitri Zuev, Alec White,
  David Stuck, Shaama M.S., Shane Yost, Joonho Lee, David Small,
  Daniel Levine, Susi Lehtola, Hugh Burton, Evgeny Epifanovsky
 -----------------------------------------------------------------------
 Exchange:  PBE      Correlation:  PBE
 Using Euler-Maclaurin-Lebedev (99,590) quadrature formula
 using 64 threads for integral computing
 -------------------------------------------------------
 OpenMP Integral computing Module                
 Release: version 1.0, May 2013, Q-Chem Inc. Pittsburgh 
 -------------------------------------------------------
 -------------------------------------------------------
 OpenMP BLAS3 based DFT computing Module                
 Release: version 1.0, May 2013, Q-Chem Inc. Pittsburgh 
 -------------------------------------------------------
 A unrestricted SCF calculation will be
 performed using GDM
 SCF converges when RMS gradient is below 1.0e-08
 ---------------------------------------
  Cycle       Energy        RMS Gradient
 ---------------------------------------
    1     -76.5330098026      1.62e-03   Normal BFGS step
    2     -76.5330022165      4.48e-03  Line search: overstep
    3     -76.5330135159      6.40e-04   Normal BFGS step
    4     -76.5330139357      7.58e-04   Normal BFGS step
    5     -76.5330154013      1.46e-04   Normal BFGS step
    6     -76.5330154757      8.09e-05   Normal BFGS step
    7     -76.5330155162      6.72e-06   Normal BFGS step
    8     -76.5330155164      2.13e-06   Normal BFGS step
    9     -76.5330155164      7.76e-07   Normal BFGS step
   10     -76.5330155164      4.72e-08   Normal BFGS step
   11     -76.5330155164      8.50e-09  Convergence criterion met
 ---------------------------------------
 SCF time:   CPU 434.01s  wall 7.00s 
<S^2> =          0.773096725
 SCF   energy in the final basis set =      -76.5330155164
 Total energy in the final basis set =      -76.5330155164
 
 --------------------------------------------------------------
 
                    Orbital Energies (a.u.)
 --------------------------------------------------------------
 
 Alpha MOs
 -- Occupied --
 -9.960  -9.913  -0.702  -0.509  -0.356  -0.282  -0.282
 -- Virtual --
 -0.029  -0.029  -0.001   0.019   0.044   0.044   0.060   0.091
  0.091   0.093   0.136   0.165   0.188   0.188   0.221   0.221
  0.229   0.287   0.287   0.301   0.301   0.314   0.331   0.355
  0.355   0.418   0.449   0.449   0.533   0.566   0.662   0.662
  0.727   0.727   0.731   0.731   0.750   0.781   0.820   0.820
  0.848   0.848   0.902   0.902   0.906   0.933   0.933   0.987
  1.071   1.071   1.098   1.098   1.181   1.267   1.267   1.359
  1.384   1.384   1.513   1.513   1.539   1.627   1.627   1.702
  1.702   1.750   1.852   2.254   2.254   2.472   2.638   2.714
  2.714   2.754   2.754   2.843   2.897   2.897   2.970   2.970
  3.051   3.051   3.129   3.200   3.200   3.211   3.211   3.290
  3.290   3.466   3.486   3.486   3.614   3.631   3.631   4.090
  4.090   4.271   4.290   4.290   4.383   4.685   4.685   5.121
  5.736   5.736   6.343   6.463  14.612  14.612  15.163  15.354
 15.354  15.956  16.675  17.030  40.136  40.136  40.184  40.184
 40.197  40.197  40.275  40.360  40.360  40.883  79.161  79.161
 79.727  79.727  79.878  80.610  83.420  85.632
 
 Beta MOs
 -- Occupied --
 -9.941  -9.913  -0.687  -0.501  -0.269  -0.269
 -- Virtual --
 -0.232  -0.006  -0.006   0.000   0.027   0.046   0.046   0.068
  0.094   0.096   0.096   0.144   0.178   0.189   0.189   0.227
  0.227   0.248   0.303   0.303   0.307   0.307   0.316   0.343
  0.359   0.359   0.435   0.456   0.456   0.563   0.590   0.681
  0.681   0.731   0.731   0.735   0.735   0.768   0.786   0.823
  0.823   0.849   0.849   0.930   0.930   0.930   0.968   0.968
  1.016   1.095   1.095   1.106   1.106   1.237   1.277   1.277
  1.378   1.386   1.386   1.537   1.537   1.561   1.641   1.641
  1.726   1.726   1.757   1.855   2.261   2.261   2.495   2.727
  2.727   2.731   2.762   2.762   2.894   2.951   2.951   2.982
  2.982   3.047   3.047   3.195   3.210   3.210   3.287   3.287
  3.304   3.304   3.486   3.573   3.573   3.630   3.639   3.639
  4.101   4.101   4.281   4.307   4.307   4.425   4.705   4.705
  5.143   5.756   5.756   6.380   6.480  14.627  14.627  15.225
 15.360  15.360  15.965  16.693  17.039  40.145  40.145  40.197
 40.197  40.198  40.198  40.295  40.376  40.376  40.898  79.170
 79.170  79.732  79.732  79.898  80.618  83.436  85.637
 --------------------------------------------------------------
 
          Ground-State Mulliken Net Atomic Charges

     Atom                 Charge (a.u.)    Spin (a.u.)
  --------------------------------------------------------
      1 C                    -0.616312      -0.144798
      2 C                     0.068489       1.129209
      3 H                     0.547822       0.015588
  --------------------------------------------------------
  Sum of atomic charges =    -0.000000
  Sum of spin   charges =     1.000000

 -----------------------------------------------------------------
                    Cartesian Multipole Moments
 -----------------------------------------------------------------
    Charge (ESU x 10^10)
                -0.0000
    Dipole Moment (Debye)
         X       0.0000      Y      -0.0000      Z       0.7529
       Tot       0.7529
    Quadrupole Moments (Debye-Ang)
        XX     -12.9001     XY       0.0000     YY     -12.9001
        XZ      -0.0000     YZ       0.0000     ZZ      -9.1200
    Octopole Moments (Debye-Ang^2)
       XXX       0.0000    XXY      -0.0000    XYY       0.0000
       YYY      -0.0000    XXZ       6.6851    XYZ       0.0000
       YYZ       6.6851    XZZ       0.0000    YZZ      -0.0000
       ZZZ      17.3191
    Hexadecapole Moments (Debye-Ang^3)
      XXXX     -16.3482   XXXY       0.0000   XXYY      -5.4494
      XYYY       0.0000   YYYY     -16.3482   XXXZ      -0.0000
      XXYZ       0.0000   XYYZ      -0.0000   YYYZ       0.0000
      XXZZ     -14.0544   XYZZ       0.0000   YYZZ     -14.0544
      XZZZ      -0.0000   YZZZ       0.0000   ZZZZ     -59.2524
 -----------------------------------------------------------------
Archival summary:
1\1\n0071.mhg0\SP\ProcedureUnspecified\BasisUnspecified\21(2)\yhljason\ThuMay2805:54:282020ThuMay2805:54:282020\0\\#,ProcedureUnspecified,BasisUnspecified,\\0,2\C\H,1,1.0465\C,1,1.2165,2,180\\\@

 Total job time:  7.82s(wall), 475.83s(cpu) 
 Thu May 28 05:54:28 2020

        *************************************************************
        *                                                           *
        *  Thank you very much for using Q-Chem.  Have a nice day.  *
        *                                                           *
        *************************************************************


