Q-Chem Developer Version!
                  Welcome to Q-Chem
     A Quantum Leap Into The Future Of Chemistry


 Q-Chem 5.1, Q-Chem, Inc., Pleasanton, CA (2018)

 Yihan Shao,  Zhengting Gan,  E. Epifanovsky,  A. T. B. Gilbert,  M. Wormit,  
 J. Kussmann,  A. W. Lange,  A. Behn,  Jia Deng,  Xintian Feng,  D. Ghosh,  
 M. Goldey,  P. R. Horn,  L. D. Jacobson,  I. Kaliman,  T. Kus,  A. Landau,  
 Jie Liu,  E. I. Proynov,  R. M. Richard,  R. P. Steele,  E. J. Sundstrom,  
 H. L. Woodcock III,  P. M. Zimmerman,  D. Zuev,  B. Albrecht,  E. Alguire,  
 S. A. Baeppler,  D. Barton,  Z. Benda,  Y. A. Bernard,  E. J. Berquist,  
 K. B. Bravaya,  H. Burton,  D. Casanova,  Chun-Min Chang,  Yunqing Chen,  
 A. Chien,  K. D. Closser,  M. P. Coons,  S. Coriani,  S. Dasgupta,  
 A. L. Dempwolff,  M. Diedenhofen,  Hainam Do,  R. G. Edgar,  Po-Tung Fang,  
 S. Faraji,  S. Fatehi,  Qingguo Feng,  K. D. Fenk,  J. Fosso-Tande,  
 Qinghui Ge,  A. Ghysels,  G. Gidofalvi,  J. Gomes,  J. Gonthier,  A. Gunina,  
 D. Hait,  M. W. D. Hanson-Heine,  P. H. P. Harbach,  A. W. Hauser,  
 J. E. Herr,  E. G. Hohenstein,  Z. C. Holden,  Kerwin Hui,  B. C. Huynh,  
 T.-C. Jagau,  Hyunjun Ji,  B. Kaduk,  K. Khistyaev,  Jaehoon Kim,  
 P. Klunzinger,  K. Koh,  D. Kosenkov,  L. Koulias,  T. Kowalczyk,  
 C. M. Krauter,  A. Kunitsa,  Ka Un Lao,  A. Laurent,  K. V. Lawler,  
 Joonho Lee,  D. Lefrancois,  S. Lehtola,  D. S. Levine,  Yi-Pei Li,  
 You-Sheng Lin,  Fenglai Liu,  E. Livshits,  A. Luenser,  P. Manohar,  
 E. Mansoor,  S. F. Manzer,  Shan-Ping Mao,  Yuezhi Mao,  N. Mardirossian,  
 A. V. Marenich,  T. Markovich,  L. A. Martinez-Martinez,  S. A. Maurer,  
 N. J. Mayhall,  S. C. McKenzie,  J.-M. Mewes,  A. F. Morrison,  
 J. W. Mullinax,  K. Nanda,  T. S. Nguyen-Beck,  R. Olivares-Amaya,  
 J. A. Parkhill,  T. M. Perrine,  F. Plasser,  P. Pokhilko,  S. Prager,  
 A. Prociuk,  E. Ramos,  D. R. Rehn,  F. Rob,  M. Schneider,  N. Sergueev,  
 S. M. Sharada,  S. Sharma,  D. W. Small,  T. Stauch,  T. Stein,  
 Yu-Chuan Su,  A. J. W. Thom,  A. Tkatchenko,  T. Tsuchimochi,  N. M. Tubman,  
 L. Vogt,  M. L. Vidal,  O. Vydrov,  M. A. Watson,  J. Wenzel,  
 M. de Wergifosse,  T. A. Wesolowski,  A. White,  J. Witte,  A. Yamada,  
 Jun Yang,  K. Yao,  S. Yeganeh,  S. R. Yost,  Zhi-Qiang You,  A. Zech,  
 Igor Ying Zhang,  Xing Zhang,  Yan Zhao,  Ying Zhu,  B. R. Brooks,  
 G. K. L. Chan,  C. J. Cramer,  M. S. Gordon,  W. J. Hehre,  A. Klamt,  
 M. W. Schmidt,  C. D. Sherrill,  D. G. Truhlar,  A. Aspuru-Guzik,  R. Baer,  
 A. T. Bell,  N. A. Besley,  Jeng-Da Chai,  A. E. DePrince, III,  
 R. A. DiStasio Jr.,  A. Dreuw,  B. D. Dunietz,  T. R. Furlani,  
 Chao-Ping Hsu,  Yousung Jung,  Jing Kong,  D. S. Lambrecht,  WanZhen Liang,  
 C. Ochsenfeld,  V. A. Rassolov,  L. V. Slipchenko,  J. E. Subotnik,  
 T. Van Voorhis,  J. M. Herbert,  A. I. Krylov,  P. M. W. Gill,  M. Head-Gordon

 Contributors to earlier versions of Q-Chem not listed above: 
 R. D. Adamson,  B. Austin,  J. Baker,  G. J. O. Beran,  K. Brandhorst,  
 S. T. Brown,  E. F. C. Byrd,  A. K. Chakraborty,  C.-L. Cheng,  
 Siu Hung Chien,  D. M. Chipman,  D. L. Crittenden,  H. Dachsel,  
 R. J. Doerksen,  A. D. Dutoi,  L. Fusti-Molnar,  W. A. Goddard III,  
 A. Golubeva-Zadorozhnaya,  S. R. Gwaltney,  G. Hawkins,  A. Heyden,  
 S. Hirata,  G. Kedziora,  F. J. Keil,  C. Kelley,  Jihan Kim,  R. A. King,  
 R. Z. Khaliullin,  P. P. Korambath,  W. Kurlancheek,  A. M. Lee,  M. S. Lee,  
 S. V. Levchenko,  Ching Yeh Lin,  D. Liotard,  R. C. Lochan,  I. Lotan,  
 P. E. Maslen,  N. Nair,  D. P. O'Neill,  D. Neuhauser,  E. Neuscamman,  
 C. M. Oana,  R. Olson,  B. Peters,  R. Peverati,  P. A. Pieniazek,  
 Y. M. Rhee,  J. Ritchie,  M. A. Rohrdanz,  E. Rosta,  N. J. Russ,  
 H. F. Schaefer III,  N. E. Schultz,  N. Shenvi,  A. C. Simmonett,  A. Sodt,  
 D. Stuck,  K. S. Thanthiriwatte,  V. Vanovschi,  Tao Wang,  A. Warshel,  
 C. F. Williams,  Q. Wu,  X. Xu,  W. Zhang

 Please cite Q-Chem as follows:
 Y. Shao et al., Mol. Phys. 113, 184-215 (2015)
 DOI: 10.1080/00268976.2014.952696

 Q-Chem 5.1.1 for Intel X86 EM64T Linux

 Parts of Q-Chem use Armadillo 8.300.2 (Tropical Shenanigans).
 http://arma.sourceforge.net/

 Q-Chem begins on Fri Jun 12 21:07:56 2020  

Host: n0057.mhg0
0

     Scratch files written to /local/scratch/users/yhljason/HO2_pbe.inp20200612201757//
Input Ideriv = 2
Curr. Ideriv = -1
Max.  Ideriv = 2

Checking the input file for inconsistencies... 	...done.

--------------------------------------------------------------
User input:
--------------------------------------------------------------
$molecule
0 2
O1	0.0553	-0.6132	0.0000
O2	0.0553	0.7198	0.0000
H3	-0.8853	-0.8528	0.0000
$end

$rem
jobtype sp
method pbe
xc_grid 000099000590
basis aug-pc-4
max_scf_cycles 200
thresh 14
scf_convergence 8
scf_algorithm gdm
symmetry false
sym_ignore true
unrestricted true
gen_scfman true
internal_stability_iter 15
internal_stability_davidson_iter 200
mem_total 64000
mem_static 1500
n_frozen_core 0
$end


--------------------------------------------------------------
 ----------------------------------------------------------------
             Standard Nuclear Orientation (Angstroms)
    I     Atom           X                Y                Z
 ----------------------------------------------------------------
    1      O       0.0553000000    -0.6132000000     0.0000000000
    2      O       0.0553000000     0.7198000000     0.0000000000
    3      H      -0.8853000000    -0.8528000000     0.0000000000
 ----------------------------------------------------------------
 Nuclear Repulsion Energy =    32.0786164552 hartrees
 There are        9 alpha and        8 beta electrons
 Requested basis set is aug-pc-4
 There are 90 shells and 378 basis functions

 Total QAlloc Memory Limit  64000 MB
 Mega-Array Size      1467 MB
 MEM_STATIC part      1500 MB

                       Distance Matrix (Angstroms)
             O (  1)   O (  2)
   O (  2)  1.333000
   H (  3)  0.970637  1.832430
 
 A cutoff of  1.0D-14 yielded   4064 shell pairs
 There are     72454 function pairs (    136226 Cartesian)
 
 -------------------------------------------------------
 OpenMP Integral Computing Module                       
 Release: version 1.0, May 2013, Q-Chem Inc. Pittsburgh 
 -------------------------------------------------------
 Integral Job Info:
 Integral job number is                      11
 Integral operator is                         1
 short-range coefficients                     0
 long-range coefficients              100000000
 Omega coefficients                           0
 if combine SR and LR in K                    0
 Integral screening is                        0
 Integral computing path is                   2
 max size of driver memory is           6400000
 size of driver memory is               5498286
 size of scratch memory is             29792225
 max col of scratch BK array             194481
 max len of scratch array in speh3         5572
 max len of scratch index in speh4           72
 max int batch size is                      520
 min int batch size is                       52
 fixed nKL is                                25
 max L of basis functions is                  5
 order of int derivative is                   0
 number of shells is                         90
 number of basis is                         517
 number of cartesian basis is               517
 number of contracted shell pairs          4064
 number of primitive shell pairs           8707
 maxK2 (contraction) of shell pair          121
 max number of K2 of shell pair               1
 max number of CS2 of shell pair            444
 max number of PS2 of shell pair            444
 mem total for path MDJ                  998666
 -------------------------------------------------------
 Smallest overlap matrix eigenvalue = 1.78E-06

 Scale SEOQF with 1.000000e-01/1.000000e-01/1.000000e-01

 Standard Electronic Orientation quadrupole field applied
 Nucleus-field energy     =     0.0000000006 hartrees
 Guess from superposition of atomic densities
 Warning:  Energy on first SCF cycle will be non-variational
 SAD guess density has 17.000000 electrons

 -----------------------------------------------------------------------
  General SCF calculation program by
  Eric Jon Sundstrom, Paul Horn, Yuezhi Mao, Dmitri Zuev, Alec White,
  David Stuck, Shaama M.S., Shane Yost, Joonho Lee, David Small,
  Daniel Levine, Susi Lehtola, Hugh Burton, Evgeny Epifanovsky
 -----------------------------------------------------------------------
 Exchange:  PBE      Correlation:  PBE
 Using Euler-Maclaurin-Lebedev (99,590) quadrature formula
Running Object-Oriented UKS (UHF)
performing a single roothaan step with Fock from read density so that orbitals are available to all algorithms
energy of the guess density (C=0) -150.974545354971
We will preform up to 15 macro iterations over saddle points until a stable solution is found
Energy prior to optimization (guess energy) = -150.819429863990
Begin Timing: Total SCF Calculation
Begin Timing: SCF Single Stationary Point Calculation
begin iterations for algorithm: GDM          
the SCF tolerance is set to 1.00e-08
    1    -150.8194298640      1.40e-01     00000  Normal BFGS step
    2    -150.7769318022      6.03e-01     00000 Line search: overstep
    3    -150.8370283266      4.74e-02     00000  Normal BFGS step
    4    -150.8300534497      1.18e-01     00000 Line search: overstep
    5    -150.8406083855      1.60e-02     00000  Normal BFGS step
    6    -150.8410734765      5.66e-03     00000  Normal BFGS step
    7    -150.8414118471      1.30e-03     00000  Normal BFGS step
    8    -150.8414267684      4.34e-04     00000  Normal BFGS step
    9    -150.8414276068      3.90e-05     00000  Normal BFGS step
   10    -150.8414276209      1.36e-05     00000  Normal BFGS step
   11    -150.8414276224      2.45e-06     00000  Normal BFGS step
   12    -150.8414276224      1.04e-06     00000  Normal BFGS step
   13    -150.8414276224      2.67e-07     00000  Normal BFGS step
   14    -150.8414276224      1.81e-07     00000  Normal BFGS step
   15    -150.8414276224      3.98e-07     00000  Normal BFGS step
   16    -150.8414276224      4.12e-08     00000  Normal BFGS step
   17    -150.8414276224      1.43e-08     00000  Normal BFGS step
   18    -150.8414276224      4.22e-09     00000 Convergence criterion met
Timing for Single Stationary Point: 377.00s (wall), 2992.86s (cpu)
Begin Timing: Stability
===================================================
Beginning Test for Internal Stability
===================================================
generating davidson guess vectors based on koopmans excitations
    1      5.06e-01     00000 Davidson Iteration
    2      8.06e-02     00000 Davidson Iteration
    3      3.19e-02     00000 Davidson Iteration
    4      2.36e-03     00000 Davidson Iteration
    5      4.80e-04     00000 Davidson Iteration
    6      4.82e-05     00000 Davidson Iteration
    7      1.21e-02     00000 Davidson Iteration
    8      3.75e-03     00000 Davidson Iteration
    9      1.22e-03     00000 Davidson Iteration
   10      2.88e-04     00000 Davidson Iteration
   11      1.02e-04     00000 Davidson Iteration
   12      3.37e-05     00000 Davidson Converged
converged_eigenvalues
   0.0742
   0.3597
Threshold for negative eigenvalues: -1.0e-05
solution was a local minimum (stable)
===================================================
End Test for Internal Stability
===================================================
Our SCF solution is stable!
Timing for Total SCF: 4870.00s (wall), 38894.69s (cpu)
 Total energy in the final basis set =     -150.8414276224
<S^2> =          0.752336017
    ==================================================
              The end of Object-Oriented SCFman       
    ==================================================
 
 --------------------------------------------------------------
 
                    Orbital Energies (a.u.)
 --------------------------------------------------------------
 
 Alpha MOs
 -- Occupied --
-18.883 -18.833  -1.111  -0.800  -0.517  -0.438  -0.438  -0.254
 -0.247
 -- Virtual --
 -0.040   0.001   0.023   0.027   0.035   0.047   0.058   0.059
  0.061   0.085   0.089   0.112   0.116   0.124   0.143   0.147
  0.161   0.169   0.176   0.181   0.183   0.186   0.188   0.206
  0.215   0.230   0.243   0.247   0.255   0.262   0.279   0.283
  0.299   0.301   0.306   0.346   0.347   0.352   0.361   0.379
  0.397   0.398   0.410   0.413   0.415   0.430   0.440   0.445
  0.452   0.457   0.461   0.469   0.470   0.479   0.508   0.508
  0.522   0.524   0.528   0.541   0.549   0.560   0.581   0.589
  0.602   0.614   0.626   0.630   0.641   0.649   0.654   0.676
  0.694   0.707   0.717   0.722   0.724   0.749   0.761   0.771
  0.774   0.786   0.794   0.800   0.823   0.842   0.852   0.853
  0.858   0.880   0.884   0.891   0.893   0.915   0.921   0.925
  0.946   0.952   0.958   0.962   0.978   0.980   0.996   1.001
  1.005   1.037   1.038   1.044   1.052   1.061   1.067   1.092
  1.097   1.116   1.126   1.127   1.175   1.179   1.202   1.221
  1.232   1.250   1.269   1.281   1.309   1.336   1.378   1.391
  1.409   1.461   1.465   1.529   1.542   1.584   1.650   1.673
  1.691   1.741   1.758   1.781   1.815   1.867   1.868   1.893
  1.920   1.942   1.984   2.058   2.114   2.130   2.154   2.162
  2.208   2.233   2.298   2.298   2.414   2.438   2.473   2.513
  2.583   2.616   2.674   2.812   2.927   3.014   3.141   3.143
  3.203   3.292   3.303   3.426   3.461   3.486   3.587   3.660
  3.755   3.782   3.939   3.941   4.030   4.093   4.115   4.154
  4.171   4.221   4.270   4.319   4.333   4.392   4.420   4.456
  4.533   4.595   4.608   4.644   4.856   4.941   5.012   5.032
  5.117   5.210   5.260   5.271   5.298   5.326   5.460   5.579
  5.604   5.704   5.885   5.919   5.920   5.990   6.056   6.103
  6.115   6.197   6.253   6.543   6.724   6.778   6.892   6.940
  7.103   7.151   7.269   7.389   7.405   7.581   7.768   7.808
  8.373   8.396   8.470   8.743   8.829   8.919   9.137   9.180
  9.279   9.290   9.393   9.394   9.466   9.670   9.891   9.973
 10.082  10.362  10.378  10.701  10.811  10.830  11.001  11.166
 11.166  11.174  11.295  11.378  11.485  11.555  11.689  11.744
 11.776  11.785  11.932  11.998  12.000  12.009  12.027  12.140
 12.251  12.276  12.421  12.528  12.543  12.597  12.626  12.672
 12.689  12.696  12.732  12.825  12.897  12.930  13.028  13.114
 13.171  13.636  13.683  13.696  13.948  14.163  14.251  14.494
 14.638  14.692  15.411  16.231  16.424  16.686  16.704  16.933
 16.935  16.983  17.016  17.052  17.097  17.149  17.238  17.317
 17.419  17.475  17.570  17.692  17.729  17.941  18.165  18.230
 18.272  18.341  18.804  18.909  18.913  19.141  19.297  19.670
 19.891  20.792  20.885  21.326  22.904  22.929  22.950  23.283
 23.480  23.610  23.773  23.906  24.052  24.282  26.389  26.890
 27.877  30.010  30.710  31.674  31.992  32.026  33.112  34.042
 34.847  41.225  66.477  66.506  66.522  66.664  66.782  66.988
 67.009  67.237  68.354  69.641  90.944  91.094  93.403 142.730
143.786
 
 Beta MOs
 -- Occupied --
-18.875 -18.815  -1.091  -0.769  -0.504  -0.425  -0.387  -0.232
 -- Virtual --
 -0.177  -0.037   0.008   0.024   0.030   0.036   0.055   0.058
  0.062   0.062   0.086   0.091   0.115   0.117   0.125   0.144
  0.151   0.165   0.170   0.177   0.182   0.187   0.190   0.190
  0.207   0.216   0.232   0.244   0.248   0.256   0.264   0.281
  0.286   0.301   0.304   0.308   0.348   0.350   0.353   0.363
  0.381   0.399   0.401   0.411   0.417   0.418   0.434   0.441
  0.446   0.456   0.461   0.465   0.471   0.475   0.482   0.510
  0.510   0.523   0.526   0.530   0.543   0.553   0.566   0.583
  0.590   0.605   0.616   0.627   0.633   0.642   0.652   0.655
  0.677   0.695   0.709   0.721   0.725   0.727   0.753   0.765
  0.774   0.778   0.792   0.796   0.802   0.827   0.847   0.856
  0.860   0.861   0.886   0.890   0.893   0.895   0.917   0.927
  0.929   0.951   0.958   0.962   0.966   0.984   0.986   1.003
  1.004   1.009   1.040   1.041   1.046   1.055   1.065   1.072
  1.096   1.100   1.122   1.128   1.131   1.178   1.184   1.207
  1.224   1.237   1.252   1.270   1.281   1.310   1.338   1.387
  1.394   1.414   1.465   1.469   1.533   1.547   1.586   1.658
  1.674   1.703   1.746   1.781   1.785   1.825   1.878   1.901
  1.913   1.930   1.955   1.992   2.071   2.119   2.135   2.167
  2.179   2.226   2.244   2.308   2.322   2.432   2.443   2.476
  2.532   2.592   2.619   2.682   2.814   2.935   3.021   3.144
  3.160   3.211   3.297   3.308   3.430   3.466   3.493   3.588
  3.664   3.762   3.792   3.951   3.952   4.035   4.108   4.140
  4.176   4.205   4.243   4.301   4.344   4.353   4.406   4.444
  4.462   4.538   4.618   4.639   4.654   4.867   4.956   5.020
  5.068   5.134   5.224   5.298   5.300   5.326   5.340   5.475
  5.601   5.625   5.723   5.903   5.948   5.960   6.014   6.078
  6.126   6.147   6.206   6.269   6.550   6.734   6.795   6.903
  6.967   7.113   7.168   7.285   7.404   7.409   7.596   7.781
  7.821   8.379   8.404   8.500   8.760   8.831   8.926   9.139
  9.205   9.306   9.326   9.454   9.454   9.491   9.689   9.937
  9.979  10.087  10.368  10.399  10.731  10.827  10.903  11.017
 11.181  11.195  11.217  11.305  11.396  11.504  11.581  11.718
 11.766  11.793  11.809  11.949  12.034  12.045  12.058  12.059
 12.167  12.263  12.286  12.439  12.544  12.580  12.615  12.657
 12.707  12.741  12.763  12.777  12.862  12.927  12.948  13.063
 13.169  13.179  13.648  13.703  13.705  13.958  14.185  14.279
 14.507  14.647  14.712  15.418  16.237  16.471  16.687  16.704
 17.003  17.011  17.027  17.049  17.057  17.130  17.205  17.253
 17.344  17.440  17.491  17.590  17.711  17.755  17.972  18.191
 18.250  18.318  18.354  18.818  18.918  18.956  19.167  19.304
 19.671  19.893  20.803  20.897  21.326  22.960  23.004  23.031
 23.293  23.503  23.624  23.772  23.923  24.105  24.289  26.406
 26.896  27.890  30.040  30.724  31.748  32.008  32.075  33.129
 34.054  34.864  41.222  66.515  66.557  66.577  66.674  66.809
 67.006  67.049  67.246  68.373  69.653  90.940  91.090  93.399
142.747 143.796
 --------------------------------------------------------------
 
          Ground-State Mulliken Net Atomic Charges

     Atom                 Charge (a.u.)    Spin (a.u.)
  --------------------------------------------------------
      1 O                    -0.023714       0.277293
      2 O                    -0.178499       0.714597
      3 H                     0.202213       0.008110
  --------------------------------------------------------
  Sum of atomic charges =     0.000000
  Sum of spin   charges =     1.000000

 -----------------------------------------------------------------
                    Cartesian Multipole Moments
 -----------------------------------------------------------------
    Charge (ESU x 10^10)
                 0.0000
    Dipole Moment (Debye)
         X      -1.6220      Y      -1.5029      Z      -0.0000
       Tot       2.2112
    Quadrupole Moments (Debye-Ang)
        XX     -10.1910     XY       1.5820     YY     -11.1567
        XZ       0.0000     YZ       0.0000     ZZ     -11.1815
    Octopole Moments (Debye-Ang^2)
       XXX      -2.0098    XXY      -2.1024    XYY      -1.5300
       YYY      -1.7320    XXZ       0.0000    XYZ      -0.0000
       YYZ      -0.0000    XZZ      -0.1351    YZZ      -0.0429
       ZZZ      -0.0000
    Hexadecapole Moments (Debye-Ang^3)
      XXXX     -10.6704   XXXY       0.1216   XXYY      -8.3661
      XYYY       0.3678   YYYY     -38.3108   XXXZ       0.0000
      XXYZ      -0.0000   XYYZ       0.0000   YYYZ      -0.0000
      XXZZ      -3.5457   XYZZ      -0.3222   YYZZ      -8.3889
      XZZZ       0.0000   YZZZ       0.0000   ZZZZ      -9.0821
 -----------------------------------------------------------------
Archival summary:
1\1\n0057.mhg0\SP\ProcedureUnspecified\BasisUnspecified\21(2)\yhljason\FriJun1222:29:422020FriJun1222:29:422020\0\\#,ProcedureUnspecified,BasisUnspecified,\\0,2\O\H,1,0.970637\O,1,1.333,2,104.291\\\@

 Total job time:  4906.16s(wall), 39134.68s(cpu) 
 Fri Jun 12 22:29:42 2020

        *************************************************************
        *                                                           *
        *  Thank you very much for using Q-Chem.  Have a nice day.  *
        *                                                           *
        *************************************************************


 
User input: 2 of 7 
 
Q-Chem Developer Version!
                  Welcome to Q-Chem
     A Quantum Leap Into The Future Of Chemistry


 Q-Chem 5.1, Q-Chem, Inc., Pleasanton, CA (2018)

 Yihan Shao,  Zhengting Gan,  E. Epifanovsky,  A. T. B. Gilbert,  M. Wormit,  
 J. Kussmann,  A. W. Lange,  A. Behn,  Jia Deng,  Xintian Feng,  D. Ghosh,  
 M. Goldey,  P. R. Horn,  L. D. Jacobson,  I. Kaliman,  T. Kus,  A. Landau,  
 Jie Liu,  E. I. Proynov,  R. M. Richard,  R. P. Steele,  E. J. Sundstrom,  
 H. L. Woodcock III,  P. M. Zimmerman,  D. Zuev,  B. Albrecht,  E. Alguire,  
 S. A. Baeppler,  D. Barton,  Z. Benda,  Y. A. Bernard,  E. J. Berquist,  
 K. B. Bravaya,  H. Burton,  D. Casanova,  Chun-Min Chang,  Yunqing Chen,  
 A. Chien,  K. D. Closser,  M. P. Coons,  S. Coriani,  S. Dasgupta,  
 A. L. Dempwolff,  M. Diedenhofen,  Hainam Do,  R. G. Edgar,  Po-Tung Fang,  
 S. Faraji,  S. Fatehi,  Qingguo Feng,  K. D. Fenk,  J. Fosso-Tande,  
 Qinghui Ge,  A. Ghysels,  G. Gidofalvi,  J. Gomes,  J. Gonthier,  A. Gunina,  
 D. Hait,  M. W. D. Hanson-Heine,  P. H. P. Harbach,  A. W. Hauser,  
 J. E. Herr,  E. G. Hohenstein,  Z. C. Holden,  Kerwin Hui,  B. C. Huynh,  
 T.-C. Jagau,  Hyunjun Ji,  B. Kaduk,  K. Khistyaev,  Jaehoon Kim,  
 P. Klunzinger,  K. Koh,  D. Kosenkov,  L. Koulias,  T. Kowalczyk,  
 C. M. Krauter,  A. Kunitsa,  Ka Un Lao,  A. Laurent,  K. V. Lawler,  
 Joonho Lee,  D. Lefrancois,  S. Lehtola,  D. S. Levine,  Yi-Pei Li,  
 You-Sheng Lin,  Fenglai Liu,  E. Livshits,  A. Luenser,  P. Manohar,  
 E. Mansoor,  S. F. Manzer,  Shan-Ping Mao,  Yuezhi Mao,  N. Mardirossian,  
 A. V. Marenich,  T. Markovich,  L. A. Martinez-Martinez,  S. A. Maurer,  
 N. J. Mayhall,  S. C. McKenzie,  J.-M. Mewes,  A. F. Morrison,  
 J. W. Mullinax,  K. Nanda,  T. S. Nguyen-Beck,  R. Olivares-Amaya,  
 J. A. Parkhill,  T. M. Perrine,  F. Plasser,  P. Pokhilko,  S. Prager,  
 A. Prociuk,  E. Ramos,  D. R. Rehn,  F. Rob,  M. Schneider,  N. Sergueev,  
 S. M. Sharada,  S. Sharma,  D. W. Small,  T. Stauch,  T. Stein,  
 Yu-Chuan Su,  A. J. W. Thom,  A. Tkatchenko,  T. Tsuchimochi,  N. M. Tubman,  
 L. Vogt,  M. L. Vidal,  O. Vydrov,  M. A. Watson,  J. Wenzel,  
 M. de Wergifosse,  T. A. Wesolowski,  A. White,  J. Witte,  A. Yamada,  
 Jun Yang,  K. Yao,  S. Yeganeh,  S. R. Yost,  Zhi-Qiang You,  A. Zech,  
 Igor Ying Zhang,  Xing Zhang,  Yan Zhao,  Ying Zhu,  B. R. Brooks,  
 G. K. L. Chan,  C. J. Cramer,  M. S. Gordon,  W. J. Hehre,  A. Klamt,  
 M. W. Schmidt,  C. D. Sherrill,  D. G. Truhlar,  A. Aspuru-Guzik,  R. Baer,  
 A. T. Bell,  N. A. Besley,  Jeng-Da Chai,  A. E. DePrince, III,  
 R. A. DiStasio Jr.,  A. Dreuw,  B. D. Dunietz,  T. R. Furlani,  
 Chao-Ping Hsu,  Yousung Jung,  Jing Kong,  D. S. Lambrecht,  WanZhen Liang,  
 C. Ochsenfeld,  V. A. Rassolov,  L. V. Slipchenko,  J. E. Subotnik,  
 T. Van Voorhis,  J. M. Herbert,  A. I. Krylov,  P. M. W. Gill,  M. Head-Gordon

 Contributors to earlier versions of Q-Chem not listed above: 
 R. D. Adamson,  B. Austin,  J. Baker,  G. J. O. Beran,  K. Brandhorst,  
 S. T. Brown,  E. F. C. Byrd,  A. K. Chakraborty,  C.-L. Cheng,  
 Siu Hung Chien,  D. M. Chipman,  D. L. Crittenden,  H. Dachsel,  
 R. J. Doerksen,  A. D. Dutoi,  L. Fusti-Molnar,  W. A. Goddard III,  
 A. Golubeva-Zadorozhnaya,  S. R. Gwaltney,  G. Hawkins,  A. Heyden,  
 S. Hirata,  G. Kedziora,  F. J. Keil,  C. Kelley,  Jihan Kim,  R. A. King,  
 R. Z. Khaliullin,  P. P. Korambath,  W. Kurlancheek,  A. M. Lee,  M. S. Lee,  
 S. V. Levchenko,  Ching Yeh Lin,  D. Liotard,  R. C. Lochan,  I. Lotan,  
 P. E. Maslen,  N. Nair,  D. P. O'Neill,  D. Neuhauser,  E. Neuscamman,  
 C. M. Oana,  R. Olson,  B. Peters,  R. Peverati,  P. A. Pieniazek,  
 Y. M. Rhee,  J. Ritchie,  M. A. Rohrdanz,  E. Rosta,  N. J. Russ,  
 H. F. Schaefer III,  N. E. Schultz,  N. Shenvi,  A. C. Simmonett,  A. Sodt,  
 D. Stuck,  K. S. Thanthiriwatte,  V. Vanovschi,  Tao Wang,  A. Warshel,  
 C. F. Williams,  Q. Wu,  X. Xu,  W. Zhang

 Please cite Q-Chem as follows:
 Y. Shao et al., Mol. Phys. 113, 184-215 (2015)
 DOI: 10.1080/00268976.2014.952696

 Q-Chem 5.1.1 for Intel X86 EM64T Linux

 Parts of Q-Chem use Armadillo 8.300.2 (Tropical Shenanigans).
 http://arma.sourceforge.net/

 Q-Chem begins on Fri Jun 12 22:29:42 2020  

Host: n0057.mhg0
0

     Scratch files written to /local/scratch/users/yhljason/HO2_pbe.inp20200612201757//
The previous job contains 0 fragments, simply inherited here
Input Ideriv = 2
Curr. Ideriv = -1
Max.  Ideriv = 2

Checking the input file for inconsistencies... 	...done.

--------------------------------------------------------------
User input:
--------------------------------------------------------------
$molecule
read
$end

$rem

jobtype sp
method pbe
xc_grid 000099000590
basis aug-pc-4
max_scf_cycles 200
thresh 14
scf_convergence 8
mem_total 64000
mem_static 1500
symmetry false
sym_ignore true
scf_guess read
unrestricted true
scf_algorithm gdm
$end

$multipole_field
XX 0.0001
$end

--------------------------------------------------------------
 ----------------------------------------------------------------
             Standard Nuclear Orientation (Angstroms)
    I     Atom           X                Y                Z
 ----------------------------------------------------------------
    1      O       0.0553000000    -0.6132000000     0.0000000000
    2      O       0.0553000000     0.7198000000     0.0000000000
    3      H      -0.8853000000    -0.8528000000     0.0000000000
 ----------------------------------------------------------------
 Nuclear Repulsion Energy =    32.0786164552 hartrees
 There are        9 alpha and        8 beta electrons
 Requested basis set is aug-pc-4
 There are 90 shells and 378 basis functions

 Total QAlloc Memory Limit  64000 MB
 Mega-Array Size      1467 MB
 MEM_STATIC part      1500 MB

                       Distance Matrix (Angstroms)
             O (  1)   O (  2)
   O (  2)  1.333000
   H (  3)  0.970637  1.832430
 
 Applying Cartesian multipole field
    Component          Value
    ---------          -----
     (2,0,0)        1.00000E-04
 Nucleus-field energy     =     0.0002973574 hartrees
 A cutoff of  1.0D-14 yielded   4064 shell pairs
 There are     72454 function pairs (    136226 Cartesian)
 
 -------------------------------------------------------
 OpenMP Integral Computing Module                       
 Release: version 1.0, May 2013, Q-Chem Inc. Pittsburgh 
 -------------------------------------------------------
 Integral Job Info:
 Integral job number is                      11
 Integral operator is                         1
 short-range coefficients                     0
 long-range coefficients              100000000
 Omega coefficients                           0
 if combine SR and LR in K                    0
 Integral screening is                        0
 Integral computing path is                   2
 max size of driver memory is           6400000
 size of driver memory is               5498286
 size of scratch memory is             29792225
 max col of scratch BK array             194481
 max len of scratch array in speh3         5572
 max len of scratch index in speh4           72
 max int batch size is                      520
 min int batch size is                       52
 fixed nKL is                                25
 max L of basis functions is                  5
 order of int derivative is                   0
 number of shells is                         90
 number of basis is                         517
 number of cartesian basis is               517
 number of contracted shell pairs          4064
 number of primitive shell pairs           8707
 maxK2 (contraction) of shell pair          121
 max number of K2 of shell pair               1
 max number of CS2 of shell pair            444
 max number of PS2 of shell pair            444
 mem total for path MDJ                  998666
 -------------------------------------------------------
 Smallest overlap matrix eigenvalue = 1.78E-06
 Guess MOs from SCF MO coefficient file

 -----------------------------------------------------------------------
  General SCF calculation program by
  Eric Jon Sundstrom, Paul Horn, Yuezhi Mao, Dmitri Zuev, Alec White,
  David Stuck, Shaama M.S., Shane Yost, Joonho Lee, David Small,
  Daniel Levine, Susi Lehtola, Hugh Burton, Evgeny Epifanovsky
 -----------------------------------------------------------------------
 Exchange:  PBE      Correlation:  PBE
 Using Euler-Maclaurin-Lebedev (99,590) quadrature formula
 using 8 threads for integral computing
 -------------------------------------------------------
 OpenMP Integral computing Module                
 Release: version 1.0, May 2013, Q-Chem Inc. Pittsburgh 
 -------------------------------------------------------
 -------------------------------------------------------
 OpenMP BLAS3 based DFT computing Module                
 Release: version 1.0, May 2013, Q-Chem Inc. Pittsburgh 
 -------------------------------------------------------
 A unrestricted SCF calculation will be
 performed using GDM
 SCF converges when RMS gradient is below 1.0e-08
 ---------------------------------------
  Cycle       Energy        RMS Gradient
 ---------------------------------------
    1    -150.8421853010      2.01e-04   Normal BFGS step
    2    -150.8421854449      1.31e-04   Normal BFGS step
    3    -150.8421855798      6.70e-05   Normal BFGS step
    4    -150.8421855836      1.86e-04   Normal BFGS step
    5    -150.8421855835      1.39e-04   Normal BFGS step
    6    -150.8421855953      7.66e-06   Normal BFGS step
    7    -150.8421855959      6.69e-06   Normal BFGS step
    8    -150.8421855960      4.32e-07   Normal BFGS step
    9    -150.8421855960      4.49e-07   Normal BFGS step
   10    -150.8421855960      2.87e-08   Normal BFGS step
   11    -150.8421855960      2.40e-09  Convergence criterion met
 ---------------------------------------
 SCF time:   CPU 1984.35s  wall 252.00s 
<S^2> =          0.752337996
 SCF   energy in the final basis set =     -150.8421855960
 Total energy in the final basis set =     -150.8421855960
 
 --------------------------------------------------------------
 
                    Orbital Energies (a.u.)
 --------------------------------------------------------------
 
 Alpha MOs
 -- Occupied --
-18.883 -18.833  -1.112  -0.800  -0.517  -0.438  -0.438  -0.254
 -0.247
 -- Virtual --
 -0.041  -0.000   0.020   0.026   0.031   0.045   0.054   0.058
  0.059   0.084   0.086   0.110   0.113   0.121   0.140   0.145
  0.159   0.167   0.173   0.178   0.182   0.185   0.187   0.205
  0.214   0.228   0.241   0.245   0.252   0.260   0.277   0.282
  0.297   0.300   0.305   0.345   0.346   0.350   0.359   0.377
  0.396   0.397   0.408   0.412   0.414   0.429   0.438   0.443
  0.451   0.456   0.460   0.468   0.469   0.478   0.507   0.507
  0.521   0.522   0.527   0.539   0.547   0.559   0.579   0.587
  0.600   0.612   0.624   0.628   0.639   0.648   0.653   0.674
  0.693   0.706   0.716   0.721   0.722   0.748   0.760   0.770
  0.773   0.785   0.793   0.799   0.822   0.841   0.851   0.852
  0.857   0.879   0.883   0.890   0.892   0.914   0.920   0.924
  0.945   0.951   0.957   0.961   0.978   0.979   0.995   1.000
  1.004   1.036   1.037   1.043   1.051   1.060   1.066   1.091
  1.096   1.116   1.125   1.127   1.174   1.179   1.201   1.220
  1.231   1.249   1.268   1.280   1.308   1.335   1.378   1.390
  1.408   1.461   1.464   1.528   1.542   1.583   1.649   1.672
  1.691   1.740   1.757   1.780   1.814   1.866   1.868   1.893
  1.920   1.941   1.983   2.058   2.114   2.130   2.153   2.161
  2.207   2.233   2.298   2.298   2.414   2.437   2.473   2.513
  2.583   2.615   2.674   2.811   2.927   3.013   3.141   3.143
  3.202   3.292   3.303   3.425   3.461   3.486   3.586   3.659
  3.754   3.782   3.938   3.941   4.030   4.093   4.115   4.154
  4.171   4.220   4.270   4.319   4.333   4.391   4.419   4.455
  4.533   4.594   4.607   4.643   4.855   4.941   5.012   5.032
  5.117   5.209   5.260   5.271   5.297   5.326   5.460   5.579
  5.604   5.704   5.884   5.919   5.920   5.989   6.055   6.103
  6.115   6.196   6.253   6.543   6.723   6.778   6.891   6.940
  7.103   7.151   7.269   7.389   7.404   7.580   7.767   7.808
  8.372   8.396   8.470   8.743   8.829   8.918   9.137   9.179
  9.278   9.290   9.393   9.394   9.466   9.670   9.891   9.973
 10.082  10.362  10.378  10.701  10.811  10.830  11.001  11.165
 11.166  11.174  11.294  11.377  11.484  11.555  11.689  11.743
 11.776  11.785  11.931  11.998  11.999  12.009  12.027  12.140
 12.250  12.276  12.421  12.528  12.543  12.596  12.625  12.672
 12.689  12.695  12.732  12.825  12.897  12.929  13.028  13.114
 13.171  13.636  13.683  13.696  13.948  14.163  14.251  14.494
 14.638  14.691  15.410  16.230  16.424  16.686  16.704  16.932
 16.935  16.983  17.016  17.051  17.097  17.148  17.238  17.317
 17.418  17.475  17.570  17.692  17.729  17.941  18.164  18.229
 18.272  18.341  18.804  18.909  18.913  19.141  19.297  19.669
 19.891  20.792  20.885  21.326  22.904  22.929  22.950  23.283
 23.479  23.610  23.773  23.905  24.051  24.281  26.389  26.890
 27.876  30.009  30.710  31.674  31.991  32.026  33.112  34.042
 34.847  41.225  66.477  66.506  66.522  66.664  66.782  66.988
 67.009  67.237  68.353  69.641  90.943  91.094  93.403 142.729
143.785
 
 Beta MOs
 -- Occupied --
-18.875 -18.815  -1.091  -0.769  -0.504  -0.425  -0.388  -0.232
 -- Virtual --
 -0.178  -0.038   0.007   0.021   0.028   0.032   0.053   0.055
  0.060   0.061   0.084   0.088   0.113   0.115   0.122   0.141
  0.150   0.164   0.168   0.174   0.180   0.185   0.189   0.189
  0.206   0.215   0.230   0.242   0.246   0.253   0.263   0.279
  0.284   0.299   0.303   0.306   0.346   0.349   0.351   0.361
  0.379   0.397   0.400   0.410   0.415   0.417   0.433   0.439
  0.444   0.455   0.460   0.464   0.470   0.474   0.480   0.509
  0.509   0.521   0.525   0.528   0.542   0.551   0.564   0.581
  0.589   0.603   0.615   0.626   0.631   0.641   0.651   0.654
  0.675   0.694   0.708   0.720   0.724   0.725   0.753   0.764
  0.773   0.777   0.792   0.794   0.801   0.826   0.846   0.854
  0.858   0.861   0.884   0.889   0.892   0.894   0.916   0.926
  0.928   0.950   0.957   0.960   0.965   0.984   0.985   1.003
  1.003   1.008   1.039   1.040   1.045   1.054   1.064   1.071
  1.095   1.100   1.122   1.127   1.130   1.178   1.184   1.206
  1.223   1.236   1.251   1.270   1.280   1.309   1.336   1.387
  1.393   1.413   1.464   1.468   1.533   1.547   1.585   1.658
  1.673   1.703   1.745   1.781   1.785   1.825   1.877   1.901
  1.912   1.929   1.954   1.992   2.071   2.119   2.134   2.166
  2.179   2.226   2.243   2.307   2.321   2.431   2.442   2.475
  2.532   2.592   2.619   2.681   2.813   2.934   3.021   3.144
  3.160   3.210   3.297   3.308   3.429   3.466   3.492   3.588
  3.664   3.761   3.792   3.950   3.951   4.035   4.107   4.140
  4.175   4.205   4.242   4.301   4.343   4.353   4.406   4.444
  4.462   4.537   4.618   4.638   4.654   4.866   4.955   5.019
  5.067   5.134   5.224   5.298   5.300   5.326   5.339   5.474
  5.601   5.625   5.722   5.903   5.947   5.960   6.014   6.078
  6.126   6.147   6.205   6.269   6.550   6.734   6.794   6.903
  6.967   7.113   7.168   7.285   7.404   7.409   7.596   7.781
  7.820   8.379   8.404   8.499   8.760   8.831   8.926   9.139
  9.205   9.306   9.326   9.454   9.454   9.490   9.689   9.937
  9.978  10.086  10.367  10.399  10.730  10.827  10.903  11.017
 11.181  11.195  11.217  11.305  11.396  11.504  11.581  11.718
 11.766  11.793  11.808  11.948  12.034  12.045  12.058  12.059
 12.166  12.263  12.286  12.439  12.544  12.580  12.614  12.657
 12.707  12.741  12.763  12.777  12.862  12.927  12.948  13.062
 13.168  13.179  13.647  13.703  13.704  13.958  14.184  14.279
 14.507  14.647  14.712  15.417  16.237  16.471  16.686  16.704
 17.003  17.011  17.026  17.049  17.057  17.129  17.205  17.253
 17.343  17.440  17.490  17.590  17.711  17.754  17.972  18.191
 18.250  18.318  18.354  18.818  18.918  18.956  19.166  19.304
 19.671  19.893  20.803  20.896  21.326  22.960  23.004  23.031
 23.292  23.502  23.624  23.772  23.923  24.104  24.289  26.406
 26.896  27.890  30.040  30.724  31.748  32.008  32.075  33.129
 34.054  34.864  41.222  66.515  66.557  66.576  66.674  66.809
 67.006  67.049  67.246  68.373  69.653  90.939  91.089  93.399
142.747 143.796
 --------------------------------------------------------------
 
          Ground-State Mulliken Net Atomic Charges

     Atom                 Charge (a.u.)    Spin (a.u.)
  --------------------------------------------------------
      1 O                    -0.022519       0.277229
      2 O                    -0.178505       0.714607
      3 H                     0.201023       0.008164
  --------------------------------------------------------
  Sum of atomic charges =    -0.000000
  Sum of spin   charges =     1.000000

 -----------------------------------------------------------------
                    Cartesian Multipole Moments
 -----------------------------------------------------------------
    Charge (ESU x 10^10)
                -0.0000
    Dipole Moment (Debye)
         X      -1.6210      Y      -1.5025      Z       0.0000
       Tot       2.2103
    Quadrupole Moments (Debye-Ang)
        XX     -10.1990     XY       1.5802     YY     -11.1583
        XZ       0.0000     YZ      -0.0000     ZZ     -11.1823
    Octopole Moments (Debye-Ang^2)
       XXX      -2.0069    XXY      -2.1021    XYY      -1.5282
       YYY      -1.7319    XXZ       0.0000    XYZ      -0.0000
       YYZ       0.0000    XZZ      -0.1349    YZZ      -0.0431
       ZZZ       0.0000
    Hexadecapole Moments (Debye-Ang^3)
      XXXX     -10.7031   XXXY       0.1153   XXYY      -8.3784
      XYYY       0.3641   YYYY     -38.3198   XXXZ      -0.0000
      XXYZ       0.0000   XYYZ       0.0000   YYYZ      -0.0000
      XXZZ      -3.5508   XYZZ      -0.3230   YYZZ      -8.3908
      XZZZ       0.0000   YZZZ      -0.0000   ZZZZ      -9.0847
 -----------------------------------------------------------------
Archival summary:
1\1\n0057.mhg0\SP\ProcedureUnspecified\BasisUnspecified\21(2)\yhljason\FriJun1222:34:022020FriJun1222:34:022020\0\\#,ProcedureUnspecified,BasisUnspecified,\\0,2\O\H,1,0.970637\O,1,1.333,2,104.291\\\@

 Total job time:  260.33s(wall), 2000.03s(cpu) 
 Fri Jun 12 22:34:02 2020

        *************************************************************
        *                                                           *
        *  Thank you very much for using Q-Chem.  Have a nice day.  *
        *                                                           *
        *************************************************************


 
User input: 3 of 7 
 
Q-Chem Developer Version!
                  Welcome to Q-Chem
     A Quantum Leap Into The Future Of Chemistry


 Q-Chem 5.1, Q-Chem, Inc., Pleasanton, CA (2018)

 Yihan Shao,  Zhengting Gan,  E. Epifanovsky,  A. T. B. Gilbert,  M. Wormit,  
 J. Kussmann,  A. W. Lange,  A. Behn,  Jia Deng,  Xintian Feng,  D. Ghosh,  
 M. Goldey,  P. R. Horn,  L. D. Jacobson,  I. Kaliman,  T. Kus,  A. Landau,  
 Jie Liu,  E. I. Proynov,  R. M. Richard,  R. P. Steele,  E. J. Sundstrom,  
 H. L. Woodcock III,  P. M. Zimmerman,  D. Zuev,  B. Albrecht,  E. Alguire,  
 S. A. Baeppler,  D. Barton,  Z. Benda,  Y. A. Bernard,  E. J. Berquist,  
 K. B. Bravaya,  H. Burton,  D. Casanova,  Chun-Min Chang,  Yunqing Chen,  
 A. Chien,  K. D. Closser,  M. P. Coons,  S. Coriani,  S. Dasgupta,  
 A. L. Dempwolff,  M. Diedenhofen,  Hainam Do,  R. G. Edgar,  Po-Tung Fang,  
 S. Faraji,  S. Fatehi,  Qingguo Feng,  K. D. Fenk,  J. Fosso-Tande,  
 Qinghui Ge,  A. Ghysels,  G. Gidofalvi,  J. Gomes,  J. Gonthier,  A. Gunina,  
 D. Hait,  M. W. D. Hanson-Heine,  P. H. P. Harbach,  A. W. Hauser,  
 J. E. Herr,  E. G. Hohenstein,  Z. C. Holden,  Kerwin Hui,  B. C. Huynh,  
 T.-C. Jagau,  Hyunjun Ji,  B. Kaduk,  K. Khistyaev,  Jaehoon Kim,  
 P. Klunzinger,  K. Koh,  D. Kosenkov,  L. Koulias,  T. Kowalczyk,  
 C. M. Krauter,  A. Kunitsa,  Ka Un Lao,  A. Laurent,  K. V. Lawler,  
 Joonho Lee,  D. Lefrancois,  S. Lehtola,  D. S. Levine,  Yi-Pei Li,  
 You-Sheng Lin,  Fenglai Liu,  E. Livshits,  A. Luenser,  P. Manohar,  
 E. Mansoor,  S. F. Manzer,  Shan-Ping Mao,  Yuezhi Mao,  N. Mardirossian,  
 A. V. Marenich,  T. Markovich,  L. A. Martinez-Martinez,  S. A. Maurer,  
 N. J. Mayhall,  S. C. McKenzie,  J.-M. Mewes,  A. F. Morrison,  
 J. W. Mullinax,  K. Nanda,  T. S. Nguyen-Beck,  R. Olivares-Amaya,  
 J. A. Parkhill,  T. M. Perrine,  F. Plasser,  P. Pokhilko,  S. Prager,  
 A. Prociuk,  E. Ramos,  D. R. Rehn,  F. Rob,  M. Schneider,  N. Sergueev,  
 S. M. Sharada,  S. Sharma,  D. W. Small,  T. Stauch,  T. Stein,  
 Yu-Chuan Su,  A. J. W. Thom,  A. Tkatchenko,  T. Tsuchimochi,  N. M. Tubman,  
 L. Vogt,  M. L. Vidal,  O. Vydrov,  M. A. Watson,  J. Wenzel,  
 M. de Wergifosse,  T. A. Wesolowski,  A. White,  J. Witte,  A. Yamada,  
 Jun Yang,  K. Yao,  S. Yeganeh,  S. R. Yost,  Zhi-Qiang You,  A. Zech,  
 Igor Ying Zhang,  Xing Zhang,  Yan Zhao,  Ying Zhu,  B. R. Brooks,  
 G. K. L. Chan,  C. J. Cramer,  M. S. Gordon,  W. J. Hehre,  A. Klamt,  
 M. W. Schmidt,  C. D. Sherrill,  D. G. Truhlar,  A. Aspuru-Guzik,  R. Baer,  
 A. T. Bell,  N. A. Besley,  Jeng-Da Chai,  A. E. DePrince, III,  
 R. A. DiStasio Jr.,  A. Dreuw,  B. D. Dunietz,  T. R. Furlani,  
 Chao-Ping Hsu,  Yousung Jung,  Jing Kong,  D. S. Lambrecht,  WanZhen Liang,  
 C. Ochsenfeld,  V. A. Rassolov,  L. V. Slipchenko,  J. E. Subotnik,  
 T. Van Voorhis,  J. M. Herbert,  A. I. Krylov,  P. M. W. Gill,  M. Head-Gordon

 Contributors to earlier versions of Q-Chem not listed above: 
 R. D. Adamson,  B. Austin,  J. Baker,  G. J. O. Beran,  K. Brandhorst,  
 S. T. Brown,  E. F. C. Byrd,  A. K. Chakraborty,  C.-L. Cheng,  
 Siu Hung Chien,  D. M. Chipman,  D. L. Crittenden,  H. Dachsel,  
 R. J. Doerksen,  A. D. Dutoi,  L. Fusti-Molnar,  W. A. Goddard III,  
 A. Golubeva-Zadorozhnaya,  S. R. Gwaltney,  G. Hawkins,  A. Heyden,  
 S. Hirata,  G. Kedziora,  F. J. Keil,  C. Kelley,  Jihan Kim,  R. A. King,  
 R. Z. Khaliullin,  P. P. Korambath,  W. Kurlancheek,  A. M. Lee,  M. S. Lee,  
 S. V. Levchenko,  Ching Yeh Lin,  D. Liotard,  R. C. Lochan,  I. Lotan,  
 P. E. Maslen,  N. Nair,  D. P. O'Neill,  D. Neuhauser,  E. Neuscamman,  
 C. M. Oana,  R. Olson,  B. Peters,  R. Peverati,  P. A. Pieniazek,  
 Y. M. Rhee,  J. Ritchie,  M. A. Rohrdanz,  E. Rosta,  N. J. Russ,  
 H. F. Schaefer III,  N. E. Schultz,  N. Shenvi,  A. C. Simmonett,  A. Sodt,  
 D. Stuck,  K. S. Thanthiriwatte,  V. Vanovschi,  Tao Wang,  A. Warshel,  
 C. F. Williams,  Q. Wu,  X. Xu,  W. Zhang

 Please cite Q-Chem as follows:
 Y. Shao et al., Mol. Phys. 113, 184-215 (2015)
 DOI: 10.1080/00268976.2014.952696

 Q-Chem 5.1.1 for Intel X86 EM64T Linux

 Parts of Q-Chem use Armadillo 8.300.2 (Tropical Shenanigans).
 http://arma.sourceforge.net/

 Q-Chem begins on Fri Jun 12 22:34:03 2020  

Host: n0057.mhg0
0

     Scratch files written to /local/scratch/users/yhljason/HO2_pbe.inp20200612201757//
The previous job contains 0 fragments, simply inherited here
Input Ideriv = 2
Curr. Ideriv = -1
Max.  Ideriv = 2

Checking the input file for inconsistencies... 	...done.

--------------------------------------------------------------
User input:
--------------------------------------------------------------
$molecule
read
$end

$rem

jobtype sp
method pbe
xc_grid 000099000590
basis aug-pc-4
max_scf_cycles 200
thresh 14
scf_convergence 8
mem_total 64000
mem_static 1500
symmetry false
sym_ignore true
scf_guess read
unrestricted true
scf_algorithm gdm
$end

$multipole_field
XX -0.0001
$end



--------------------------------------------------------------
 ----------------------------------------------------------------
             Standard Nuclear Orientation (Angstroms)
    I     Atom           X                Y                Z
 ----------------------------------------------------------------
    1      O       0.0553000000    -0.6132000000     0.0000000000
    2      O       0.0553000000     0.7198000000     0.0000000000
    3      H      -0.8853000000    -0.8528000000     0.0000000000
 ----------------------------------------------------------------
 Nuclear Repulsion Energy =    32.0786164552 hartrees
 There are        9 alpha and        8 beta electrons
 Requested basis set is aug-pc-4
 There are 90 shells and 378 basis functions

 Total QAlloc Memory Limit  64000 MB
 Mega-Array Size      1467 MB
 MEM_STATIC part      1500 MB

                       Distance Matrix (Angstroms)
             O (  1)   O (  2)
   O (  2)  1.333000
   H (  3)  0.970637  1.832430
 
 Applying Cartesian multipole field
    Component          Value
    ---------          -----
     (2,0,0)       -1.00000E-04
 Nucleus-field energy     =    -0.0002973574 hartrees
 A cutoff of  1.0D-14 yielded   4064 shell pairs
 There are     72454 function pairs (    136226 Cartesian)
 
 -------------------------------------------------------
 OpenMP Integral Computing Module                       
 Release: version 1.0, May 2013, Q-Chem Inc. Pittsburgh 
 -------------------------------------------------------
 Integral Job Info:
 Integral job number is                      11
 Integral operator is                         1
 short-range coefficients                     0
 long-range coefficients              100000000
 Omega coefficients                           0
 if combine SR and LR in K                    0
 Integral screening is                        0
 Integral computing path is                   2
 max size of driver memory is           6400000
 size of driver memory is               5498286
 size of scratch memory is             29792225
 max col of scratch BK array             194481
 max len of scratch array in speh3         5572
 max len of scratch index in speh4           72
 max int batch size is                      520
 min int batch size is                       52
 fixed nKL is                                25
 max L of basis functions is                  5
 order of int derivative is                   0
 number of shells is                         90
 number of basis is                         517
 number of cartesian basis is               517
 number of contracted shell pairs          4064
 number of primitive shell pairs           8707
 maxK2 (contraction) of shell pair          121
 max number of K2 of shell pair               1
 max number of CS2 of shell pair            444
 max number of PS2 of shell pair            444
 mem total for path MDJ                  998666
 -------------------------------------------------------
 Smallest overlap matrix eigenvalue = 1.78E-06
 Guess MOs from SCF MO coefficient file

 -----------------------------------------------------------------------
  General SCF calculation program by
  Eric Jon Sundstrom, Paul Horn, Yuezhi Mao, Dmitri Zuev, Alec White,
  David Stuck, Shaama M.S., Shane Yost, Joonho Lee, David Small,
  Daniel Levine, Susi Lehtola, Hugh Burton, Evgeny Epifanovsky
 -----------------------------------------------------------------------
 Exchange:  PBE      Correlation:  PBE
 Using Euler-Maclaurin-Lebedev (99,590) quadrature formula
 using 8 threads for integral computing
 -------------------------------------------------------
 OpenMP Integral computing Module                
 Release: version 1.0, May 2013, Q-Chem Inc. Pittsburgh 
 -------------------------------------------------------
 -------------------------------------------------------
 OpenMP BLAS3 based DFT computing Module                
 Release: version 1.0, May 2013, Q-Chem Inc. Pittsburgh 
 -------------------------------------------------------
 A unrestricted SCF calculation will be
 performed using GDM
 SCF converges when RMS gradient is below 1.0e-08
 ---------------------------------------
  Cycle       Energy        RMS Gradient
 ---------------------------------------
    1    -150.8406690574      4.01e-04   Normal BFGS step
    2    -150.8406696363      2.62e-04   Normal BFGS step
    3    -150.8406701718      1.35e-04   Normal BFGS step
    4    -150.8406701872      3.74e-04   Normal BFGS step
    5    -150.8406701870      2.78e-04   Normal BFGS step
    6    -150.8406702347      1.55e-05   Normal BFGS step
    7    -150.8406702371      1.34e-05   Normal BFGS step
    8    -150.8406702374      8.00e-07   Normal BFGS step
    9    -150.8406702374      9.03e-07   Normal BFGS step
   10    -150.8406702374      5.77e-08   Normal BFGS step
   11    -150.8406702374      4.64e-09  Convergence criterion met
 ---------------------------------------
 SCF time:   CPU 1987.52s  wall 250.00s 
<S^2> =          0.752334061
 SCF   energy in the final basis set =     -150.8406702374
 Total energy in the final basis set =     -150.8406702374
 
 --------------------------------------------------------------
 
                    Orbital Energies (a.u.)
 --------------------------------------------------------------
 
 Alpha MOs
 -- Occupied --
-18.883 -18.833  -1.111  -0.799  -0.517  -0.438  -0.437  -0.254
 -0.247
 -- Virtual --
 -0.038   0.002   0.026   0.028   0.038   0.049   0.060   0.061
  0.064   0.087   0.092   0.114   0.119   0.127   0.146   0.148
  0.162   0.171   0.179   0.183   0.184   0.188   0.189   0.207
  0.217   0.232   0.245   0.250   0.258   0.263   0.281   0.285
  0.302   0.302   0.309   0.348   0.348   0.354   0.362   0.381
  0.399   0.399   0.412   0.414   0.417   0.431   0.441   0.446
  0.453   0.459   0.462   0.470   0.471   0.481   0.509   0.509
  0.523   0.525   0.530   0.542   0.550   0.561   0.582   0.591
  0.603   0.615   0.627   0.631   0.643   0.650   0.656   0.677
  0.695   0.709   0.719   0.723   0.725   0.750   0.762   0.772
  0.775   0.787   0.795   0.801   0.824   0.843   0.853   0.854
  0.860   0.881   0.885   0.892   0.894   0.916   0.921   0.926
  0.947   0.953   0.959   0.963   0.979   0.981   0.997   1.002
  1.005   1.038   1.040   1.045   1.053   1.062   1.068   1.093
  1.097   1.117   1.127   1.128   1.175   1.180   1.202   1.222
  1.232   1.251   1.270   1.282   1.310   1.337   1.379   1.391
  1.410   1.462   1.466   1.530   1.543   1.585   1.651   1.674
  1.692   1.742   1.758   1.781   1.815   1.867   1.868   1.894
  1.921   1.942   1.984   2.059   2.115   2.131   2.154   2.162
  2.208   2.233   2.299   2.299   2.414   2.439   2.474   2.513
  2.583   2.616   2.675   2.812   2.928   3.014   3.142   3.143
  3.203   3.293   3.304   3.426   3.462   3.487   3.587   3.660
  3.755   3.783   3.939   3.941   4.031   4.093   4.116   4.154
  4.171   4.221   4.270   4.320   4.334   4.392   4.420   4.456
  4.534   4.595   4.608   4.644   4.856   4.941   5.013   5.032
  5.117   5.210   5.261   5.271   5.298   5.327   5.461   5.579
  5.604   5.705   5.885   5.920   5.920   5.990   6.056   6.103
  6.116   6.197   6.253   6.544   6.724   6.778   6.892   6.940
  7.103   7.152   7.269   7.389   7.405   7.581   7.768   7.808
  8.373   8.396   8.471   8.743   8.829   8.919   9.138   9.180
  9.279   9.291   9.393   9.394   9.466   9.670   9.891   9.973
 10.082  10.363  10.378  10.701  10.811  10.830  11.002  11.166
 11.167  11.175  11.295  11.378  11.485  11.555  11.689  11.744
 11.777  11.785  11.932  11.999  12.000  12.009  12.027  12.140
 12.251  12.276  12.421  12.528  12.543  12.597  12.626  12.672
 12.689  12.696  12.732  12.825  12.898  12.930  13.028  13.114
 13.171  13.637  13.683  13.697  13.948  14.163  14.252  14.494
 14.639  14.692  15.411  16.231  16.425  16.686  16.705  16.933
 16.935  16.983  17.017  17.052  17.097  17.149  17.239  17.317
 17.419  17.476  17.571  17.692  17.730  17.941  18.165  18.230
 18.272  18.342  18.804  18.910  18.913  19.141  19.298  19.670
 19.891  20.792  20.885  21.327  22.904  22.930  22.950  23.283
 23.480  23.610  23.774  23.906  24.052  24.282  26.389  26.890
 27.877  30.010  30.711  31.674  31.992  32.027  33.113  34.042
 34.848  41.225  66.478  66.507  66.522  66.664  66.782  66.988
 67.009  67.237  68.354  69.641  90.944  91.094  93.403 142.730
143.786
 
 Beta MOs
 -- Occupied --
-18.875 -18.815  -1.090  -0.769  -0.503  -0.425  -0.387  -0.232
 -- Virtual --
 -0.177  -0.036   0.010   0.026   0.031   0.040   0.056   0.061
  0.063   0.065   0.088   0.094   0.117   0.120   0.128   0.147
  0.152   0.166   0.172   0.179   0.184   0.189   0.191   0.192
  0.209   0.218   0.234   0.246   0.250   0.259   0.266   0.283
  0.287   0.303   0.305   0.310   0.350   0.351   0.355   0.365
  0.382   0.401   0.402   0.413   0.418   0.420   0.435   0.442
  0.448   0.457   0.463   0.466   0.472   0.476   0.483   0.511
  0.511   0.524   0.528   0.531   0.545   0.554   0.567   0.584
  0.592   0.606   0.618   0.628   0.634   0.644   0.653   0.657
  0.678   0.696   0.711   0.722   0.726   0.728   0.754   0.766
  0.775   0.779   0.793   0.797   0.803   0.828   0.848   0.857
  0.861   0.862   0.887   0.891   0.894   0.897   0.918   0.928
  0.929   0.952   0.959   0.963   0.967   0.985   0.986   1.004
  1.005   1.010   1.042   1.042   1.047   1.056   1.066   1.073
  1.097   1.101   1.123   1.129   1.132   1.179   1.185   1.207
  1.225   1.237   1.253   1.271   1.282   1.311   1.339   1.388
  1.394   1.415   1.466   1.470   1.534   1.548   1.587   1.659
  1.675   1.704   1.747   1.782   1.786   1.825   1.878   1.902
  1.913   1.930   1.955   1.993   2.072   2.120   2.136   2.167
  2.180   2.226   2.244   2.308   2.322   2.432   2.444   2.476
  2.532   2.593   2.620   2.683   2.814   2.935   3.022   3.145
  3.160   3.211   3.298   3.309   3.430   3.466   3.493   3.589
  3.665   3.763   3.792   3.951   3.952   4.035   4.108   4.141
  4.176   4.206   4.243   4.301   4.344   4.354   4.406   4.445
  4.463   4.538   4.619   4.639   4.654   4.867   4.956   5.020
  5.068   5.134   5.224   5.299   5.301   5.327   5.340   5.475
  5.601   5.625   5.723   5.903   5.948   5.960   6.014   6.079
  6.126   6.147   6.206   6.269   6.550   6.735   6.795   6.904
  6.967   7.113   7.168   7.285   7.405   7.410   7.597   7.782
  7.821   8.380   8.404   8.500   8.761   8.831   8.927   9.140
  9.206   9.306   9.327   9.455   9.455   9.491   9.690   9.938
  9.979  10.087  10.368  10.399  10.731  10.828  10.903  11.017
 11.182  11.195  11.217  11.305  11.397  11.504  11.582  11.718
 11.766  11.793  11.809  11.949  12.034  12.045  12.058  12.059
 12.167  12.264  12.286  12.440  12.545  12.580  12.615  12.657
 12.707  12.741  12.764  12.778  12.863  12.928  12.948  13.063
 13.169  13.179  13.648  13.704  13.705  13.958  14.185  14.280
 14.508  14.648  14.712  15.418  16.237  16.472  16.687  16.705
 17.003  17.011  17.027  17.049  17.057  17.130  17.205  17.253
 17.344  17.440  17.491  17.591  17.712  17.755  17.972  18.191
 18.251  18.319  18.354  18.819  18.918  18.956  19.167  19.304
 19.672  19.893  20.803  20.897  21.326  22.960  23.004  23.031
 23.293  23.503  23.624  23.772  23.924  24.105  24.289  26.407
 26.897  27.890  30.040  30.724  31.748  32.008  32.076  33.129
 34.054  34.865  41.222  66.516  66.558  66.577  66.675  66.810
 67.006  67.049  67.246  68.373  69.653  90.940  91.090  93.399
142.748 143.797
 --------------------------------------------------------------
 
          Ground-State Mulliken Net Atomic Charges

     Atom                 Charge (a.u.)    Spin (a.u.)
  --------------------------------------------------------
      1 O                    -0.024913       0.277356
      2 O                    -0.178479       0.714589
      3 H                     0.203392       0.008056
  --------------------------------------------------------
  Sum of atomic charges =    -0.000000
  Sum of spin   charges =     1.000000

 -----------------------------------------------------------------
                    Cartesian Multipole Moments
 -----------------------------------------------------------------
    Charge (ESU x 10^10)
                -0.0000
    Dipole Moment (Debye)
         X      -1.6231      Y      -1.5032      Z      -0.0000
       Tot       2.2122
    Quadrupole Moments (Debye-Ang)
        XX     -10.1832     XY       1.5837     YY     -11.1552
        XZ       0.0000     YZ       0.0000     ZZ     -11.1806
    Octopole Moments (Debye-Ang^2)
       XXX      -2.0127    XXY      -2.1027    XYY      -1.5317
       YYY      -1.7321    XXZ      -0.0000    XYZ      -0.0000
       YYZ      -0.0000    XZZ      -0.1354    YZZ      -0.0427
       ZZZ      -0.0000
    Hexadecapole Moments (Debye-Ang^3)
      XXXX     -10.6383   XXXY       0.1278   XXYY      -8.3539
      XYYY       0.3714   YYYY     -38.3018   XXXZ       0.0000
      XXYZ       0.0000   XYYZ       0.0000   YYYZ       0.0000
      XXZZ      -3.5407   XYZZ      -0.3214   YYZZ      -8.3870
      XZZZ       0.0000   YZZZ       0.0000   ZZZZ      -9.0795
 -----------------------------------------------------------------
Archival summary:
1\1\n0057.mhg0\SP\ProcedureUnspecified\BasisUnspecified\21(2)\yhljason\FriJun1222:38:212020FriJun1222:38:212020\0\\#,ProcedureUnspecified,BasisUnspecified,\\0,2\O\H,1,0.970637\O,1,1.333,2,104.291\\\@

 Total job time:  258.55s(wall), 2004.04s(cpu) 
 Fri Jun 12 22:38:21 2020

        *************************************************************
        *                                                           *
        *  Thank you very much for using Q-Chem.  Have a nice day.  *
        *                                                           *
        *************************************************************


 
User input: 4 of 7 
 
Q-Chem Developer Version!
                  Welcome to Q-Chem
     A Quantum Leap Into The Future Of Chemistry


 Q-Chem 5.1, Q-Chem, Inc., Pleasanton, CA (2018)

 Yihan Shao,  Zhengting Gan,  E. Epifanovsky,  A. T. B. Gilbert,  M. Wormit,  
 J. Kussmann,  A. W. Lange,  A. Behn,  Jia Deng,  Xintian Feng,  D. Ghosh,  
 M. Goldey,  P. R. Horn,  L. D. Jacobson,  I. Kaliman,  T. Kus,  A. Landau,  
 Jie Liu,  E. I. Proynov,  R. M. Richard,  R. P. Steele,  E. J. Sundstrom,  
 H. L. Woodcock III,  P. M. Zimmerman,  D. Zuev,  B. Albrecht,  E. Alguire,  
 S. A. Baeppler,  D. Barton,  Z. Benda,  Y. A. Bernard,  E. J. Berquist,  
 K. B. Bravaya,  H. Burton,  D. Casanova,  Chun-Min Chang,  Yunqing Chen,  
 A. Chien,  K. D. Closser,  M. P. Coons,  S. Coriani,  S. Dasgupta,  
 A. L. Dempwolff,  M. Diedenhofen,  Hainam Do,  R. G. Edgar,  Po-Tung Fang,  
 S. Faraji,  S. Fatehi,  Qingguo Feng,  K. D. Fenk,  J. Fosso-Tande,  
 Qinghui Ge,  A. Ghysels,  G. Gidofalvi,  J. Gomes,  J. Gonthier,  A. Gunina,  
 D. Hait,  M. W. D. Hanson-Heine,  P. H. P. Harbach,  A. W. Hauser,  
 J. E. Herr,  E. G. Hohenstein,  Z. C. Holden,  Kerwin Hui,  B. C. Huynh,  
 T.-C. Jagau,  Hyunjun Ji,  B. Kaduk,  K. Khistyaev,  Jaehoon Kim,  
 P. Klunzinger,  K. Koh,  D. Kosenkov,  L. Koulias,  T. Kowalczyk,  
 C. M. Krauter,  A. Kunitsa,  Ka Un Lao,  A. Laurent,  K. V. Lawler,  
 Joonho Lee,  D. Lefrancois,  S. Lehtola,  D. S. Levine,  Yi-Pei Li,  
 You-Sheng Lin,  Fenglai Liu,  E. Livshits,  A. Luenser,  P. Manohar,  
 E. Mansoor,  S. F. Manzer,  Shan-Ping Mao,  Yuezhi Mao,  N. Mardirossian,  
 A. V. Marenich,  T. Markovich,  L. A. Martinez-Martinez,  S. A. Maurer,  
 N. J. Mayhall,  S. C. McKenzie,  J.-M. Mewes,  A. F. Morrison,  
 J. W. Mullinax,  K. Nanda,  T. S. Nguyen-Beck,  R. Olivares-Amaya,  
 J. A. Parkhill,  T. M. Perrine,  F. Plasser,  P. Pokhilko,  S. Prager,  
 A. Prociuk,  E. Ramos,  D. R. Rehn,  F. Rob,  M. Schneider,  N. Sergueev,  
 S. M. Sharada,  S. Sharma,  D. W. Small,  T. Stauch,  T. Stein,  
 Yu-Chuan Su,  A. J. W. Thom,  A. Tkatchenko,  T. Tsuchimochi,  N. M. Tubman,  
 L. Vogt,  M. L. Vidal,  O. Vydrov,  M. A. Watson,  J. Wenzel,  
 M. de Wergifosse,  T. A. Wesolowski,  A. White,  J. Witte,  A. Yamada,  
 Jun Yang,  K. Yao,  S. Yeganeh,  S. R. Yost,  Zhi-Qiang You,  A. Zech,  
 Igor Ying Zhang,  Xing Zhang,  Yan Zhao,  Ying Zhu,  B. R. Brooks,  
 G. K. L. Chan,  C. J. Cramer,  M. S. Gordon,  W. J. Hehre,  A. Klamt,  
 M. W. Schmidt,  C. D. Sherrill,  D. G. Truhlar,  A. Aspuru-Guzik,  R. Baer,  
 A. T. Bell,  N. A. Besley,  Jeng-Da Chai,  A. E. DePrince, III,  
 R. A. DiStasio Jr.,  A. Dreuw,  B. D. Dunietz,  T. R. Furlani,  
 Chao-Ping Hsu,  Yousung Jung,  Jing Kong,  D. S. Lambrecht,  WanZhen Liang,  
 C. Ochsenfeld,  V. A. Rassolov,  L. V. Slipchenko,  J. E. Subotnik,  
 T. Van Voorhis,  J. M. Herbert,  A. I. Krylov,  P. M. W. Gill,  M. Head-Gordon

 Contributors to earlier versions of Q-Chem not listed above: 
 R. D. Adamson,  B. Austin,  J. Baker,  G. J. O. Beran,  K. Brandhorst,  
 S. T. Brown,  E. F. C. Byrd,  A. K. Chakraborty,  C.-L. Cheng,  
 Siu Hung Chien,  D. M. Chipman,  D. L. Crittenden,  H. Dachsel,  
 R. J. Doerksen,  A. D. Dutoi,  L. Fusti-Molnar,  W. A. Goddard III,  
 A. Golubeva-Zadorozhnaya,  S. R. Gwaltney,  G. Hawkins,  A. Heyden,  
 S. Hirata,  G. Kedziora,  F. J. Keil,  C. Kelley,  Jihan Kim,  R. A. King,  
 R. Z. Khaliullin,  P. P. Korambath,  W. Kurlancheek,  A. M. Lee,  M. S. Lee,  
 S. V. Levchenko,  Ching Yeh Lin,  D. Liotard,  R. C. Lochan,  I. Lotan,  
 P. E. Maslen,  N. Nair,  D. P. O'Neill,  D. Neuhauser,  E. Neuscamman,  
 C. M. Oana,  R. Olson,  B. Peters,  R. Peverati,  P. A. Pieniazek,  
 Y. M. Rhee,  J. Ritchie,  M. A. Rohrdanz,  E. Rosta,  N. J. Russ,  
 H. F. Schaefer III,  N. E. Schultz,  N. Shenvi,  A. C. Simmonett,  A. Sodt,  
 D. Stuck,  K. S. Thanthiriwatte,  V. Vanovschi,  Tao Wang,  A. Warshel,  
 C. F. Williams,  Q. Wu,  X. Xu,  W. Zhang

 Please cite Q-Chem as follows:
 Y. Shao et al., Mol. Phys. 113, 184-215 (2015)
 DOI: 10.1080/00268976.2014.952696

 Q-Chem 5.1.1 for Intel X86 EM64T Linux

 Parts of Q-Chem use Armadillo 8.300.2 (Tropical Shenanigans).
 http://arma.sourceforge.net/

 Q-Chem begins on Fri Jun 12 22:38:21 2020  

Host: n0057.mhg0
0

     Scratch files written to /local/scratch/users/yhljason/HO2_pbe.inp20200612201757//
The previous job contains 0 fragments, simply inherited here
Input Ideriv = 2
Curr. Ideriv = -1
Max.  Ideriv = 2

Checking the input file for inconsistencies... 	...done.

--------------------------------------------------------------
User input:
--------------------------------------------------------------
$molecule
read
$end

$rem

jobtype sp
method pbe
xc_grid 000099000590
basis aug-pc-4
max_scf_cycles 200
thresh 14
scf_convergence 8
CC_E_CONV 8
CC_T_CONV 6
mem_total 64000
mem_static 1500
symmetry false
sym_ignore true
scf_guess read
unrestricted true
scf_algorithm gdm
$end

$multipole_field
YY 0.0001
$end


--------------------------------------------------------------
 ----------------------------------------------------------------
             Standard Nuclear Orientation (Angstroms)
    I     Atom           X                Y                Z
 ----------------------------------------------------------------
    1      O       0.0553000000    -0.6132000000     0.0000000000
    2      O       0.0553000000     0.7198000000     0.0000000000
    3      H      -0.8853000000    -0.8528000000     0.0000000000
 ----------------------------------------------------------------
 Nuclear Repulsion Energy =    32.0786164552 hartrees
 There are        9 alpha and        8 beta electrons
 Requested basis set is aug-pc-4
 There are 90 shells and 378 basis functions

 Total QAlloc Memory Limit  64000 MB
 Mega-Array Size      1467 MB
 MEM_STATIC part      1500 MB

                       Distance Matrix (Angstroms)
             O (  1)   O (  2)
   O (  2)  1.333000
   H (  3)  0.970637  1.832430
 
 Applying Cartesian multipole field
    Component          Value
    ---------          -----
     (0,2,0)        1.00000E-04
 Nucleus-field energy     =     0.0028140984 hartrees
 A cutoff of  1.0D-14 yielded   4064 shell pairs
 There are     72454 function pairs (    136226 Cartesian)
 
 -------------------------------------------------------
 OpenMP Integral Computing Module                       
 Release: version 1.0, May 2013, Q-Chem Inc. Pittsburgh 
 -------------------------------------------------------
 Integral Job Info:
 Integral job number is                      11
 Integral operator is                         1
 short-range coefficients                     0
 long-range coefficients              100000000
 Omega coefficients                           0
 if combine SR and LR in K                    0
 Integral screening is                        0
 Integral computing path is                   2
 max size of driver memory is           6400000
 size of driver memory is               5498286
 size of scratch memory is             29792225
 max col of scratch BK array             194481
 max len of scratch array in speh3         5572
 max len of scratch index in speh4           72
 max int batch size is                      520
 min int batch size is                       52
 fixed nKL is                                25
 max L of basis functions is                  5
 order of int derivative is                   0
 number of shells is                         90
 number of basis is                         517
 number of cartesian basis is               517
 number of contracted shell pairs          4064
 number of primitive shell pairs           8707
 maxK2 (contraction) of shell pair          121
 max number of K2 of shell pair               1
 max number of CS2 of shell pair            444
 max number of PS2 of shell pair            444
 mem total for path MDJ                  998666
 -------------------------------------------------------
 Smallest overlap matrix eigenvalue = 1.78E-06
 Guess MOs from SCF MO coefficient file

 -----------------------------------------------------------------------
  General SCF calculation program by
  Eric Jon Sundstrom, Paul Horn, Yuezhi Mao, Dmitri Zuev, Alec White,
  David Stuck, Shaama M.S., Shane Yost, Joonho Lee, David Small,
  Daniel Levine, Susi Lehtola, Hugh Burton, Evgeny Epifanovsky
 -----------------------------------------------------------------------
 Exchange:  PBE      Correlation:  PBE
 Using Euler-Maclaurin-Lebedev (99,590) quadrature formula
 using 8 threads for integral computing
 -------------------------------------------------------
 OpenMP Integral computing Module                
 Release: version 1.0, May 2013, Q-Chem Inc. Pittsburgh 
 -------------------------------------------------------
 -------------------------------------------------------
 OpenMP BLAS3 based DFT computing Module                
 Release: version 1.0, May 2013, Q-Chem Inc. Pittsburgh 
 -------------------------------------------------------
 A unrestricted SCF calculation will be
 performed using GDM
 SCF converges when RMS gradient is below 1.0e-08
 ---------------------------------------
  Cycle       Energy        RMS Gradient
 ---------------------------------------
    1    -150.8422566890      3.84e-04   Normal BFGS step
    2    -150.8422569016      2.55e-04   Normal BFGS step
    3    -150.8422575486      2.93e-04   Normal BFGS step
    4    -150.8422573940      7.72e-04  Line search: overstep
    5    -150.8422575883      3.81e-05   Normal BFGS step
    6    -150.8422575974      4.27e-05   Normal BFGS step
    7    -150.8422576040      3.75e-06   Normal BFGS step
    8    -150.8422576041      1.40e-06   Normal BFGS step
    9    -150.8422576042      6.72e-08   Normal BFGS step
   10    -150.8422576042      1.48e-08   Normal BFGS step
   11    -150.8422576042      3.16e-09  Convergence criterion met
 ---------------------------------------
 SCF time:   CPU 1987.80s  wall 250.00s 
<S^2> =          0.752336604
 SCF   energy in the final basis set =     -150.8422576042
 Total energy in the final basis set =     -150.8422576042
 
 --------------------------------------------------------------
 
                    Orbital Energies (a.u.)
 --------------------------------------------------------------
 
 Alpha MOs
 -- Occupied --
-18.883 -18.833  -1.112  -0.800  -0.517  -0.439  -0.438  -0.254
 -0.248
 -- Virtual --
 -0.041  -0.001   0.021   0.026   0.030   0.043   0.054   0.055
  0.058   0.084   0.087   0.108   0.113   0.121   0.141   0.145
  0.158   0.166   0.174   0.179   0.181   0.185   0.186   0.205
  0.214   0.229   0.240   0.245   0.253   0.260   0.277   0.281
  0.297   0.299   0.304   0.345   0.345   0.351   0.360   0.377
  0.396   0.396   0.408   0.411   0.414   0.429   0.438   0.443
  0.450   0.456   0.460   0.467   0.468   0.478   0.506   0.506
  0.520   0.522   0.527   0.539   0.548   0.559   0.579   0.587
  0.600   0.613   0.625   0.628   0.640   0.647   0.652   0.674
  0.692   0.706   0.716   0.721   0.722   0.748   0.760   0.770
  0.773   0.785   0.792   0.799   0.822   0.841   0.851   0.851
  0.857   0.879   0.883   0.890   0.892   0.914   0.919   0.924
  0.945   0.951   0.958   0.961   0.977   0.979   0.995   1.000
  1.003   1.036   1.038   1.042   1.051   1.060   1.066   1.091
  1.096   1.115   1.125   1.127   1.173   1.178   1.201   1.220
  1.231   1.248   1.268   1.279   1.307   1.335   1.377   1.390
  1.408   1.461   1.464   1.528   1.541   1.583   1.650   1.672
  1.691   1.740   1.757   1.780   1.814   1.866   1.867   1.893
  1.919   1.941   1.983   2.058   2.114   2.130   2.153   2.161
  2.207   2.232   2.298   2.298   2.413   2.437   2.473   2.513
  2.582   2.615   2.674   2.811   2.927   3.013   3.141   3.142
  3.202   3.292   3.303   3.425   3.461   3.486   3.586   3.659
  3.754   3.782   3.938   3.940   4.030   4.093   4.115   4.153
  4.171   4.220   4.270   4.319   4.333   4.391   4.419   4.455
  4.533   4.594   4.607   4.643   4.855   4.941   5.012   5.031
  5.117   5.209   5.260   5.271   5.297   5.326   5.460   5.578
  5.604   5.704   5.884   5.919   5.920   5.989   6.055   6.103
  6.115   6.196   6.252   6.543   6.723   6.778   6.891   6.940
  7.103   7.151   7.269   7.389   7.404   7.580   7.767   7.807
  8.372   8.396   8.470   8.743   8.829   8.918   9.137   9.179
  9.278   9.290   9.393   9.394   9.466   9.670   9.890   9.973
 10.081  10.362  10.378  10.701  10.811  10.830  11.001  11.165
 11.166  11.174  11.294  11.377  11.484  11.555  11.689  11.743
 11.776  11.785  11.931  11.998  11.999  12.008  12.027  12.140
 12.250  12.276  12.421  12.527  12.542  12.596  12.625  12.671
 12.689  12.695  12.732  12.825  12.897  12.929  13.028  13.113
 13.170  13.636  13.682  13.696  13.948  14.163  14.251  14.494
 14.638  14.691  15.410  16.230  16.424  16.686  16.704  16.932
 16.934  16.983  17.016  17.051  17.097  17.148  17.238  17.317
 17.418  17.475  17.570  17.691  17.729  17.940  18.164  18.229
 18.271  18.341  18.804  18.909  18.912  19.141  19.297  19.669
 19.890  20.792  20.884  21.326  22.903  22.929  22.950  23.283
 23.479  23.610  23.773  23.905  24.051  24.281  26.389  26.890
 27.876  30.009  30.710  31.674  31.991  32.026  33.112  34.042
 34.847  41.225  66.477  66.506  66.522  66.664  66.782  66.987
 67.008  67.237  68.353  69.641  90.943  91.094  93.403 142.729
143.785
 
 Beta MOs
 -- Occupied --
-18.876 -18.816  -1.091  -0.769  -0.504  -0.425  -0.388  -0.232
 -- Virtual --
 -0.178  -0.038   0.006   0.021   0.028   0.032   0.051   0.054
  0.058   0.059   0.085   0.089   0.112   0.115   0.122   0.142
  0.150   0.163   0.168   0.174   0.179   0.186   0.188   0.188
  0.206   0.215   0.231   0.241   0.246   0.254   0.262   0.279
  0.283   0.299   0.302   0.305   0.347   0.348   0.352   0.362
  0.379   0.398   0.400   0.409   0.415   0.417   0.433   0.439
  0.444   0.454   0.460   0.463   0.469   0.473   0.480   0.508
  0.509   0.521   0.525   0.528   0.542   0.552   0.564   0.581
  0.589   0.603   0.616   0.626   0.631   0.641   0.651   0.654
  0.675   0.693   0.708   0.719   0.724   0.725   0.752   0.764
  0.773   0.777   0.791   0.794   0.801   0.826   0.846   0.854
  0.858   0.860   0.884   0.889   0.892   0.894   0.916   0.926
  0.927   0.949   0.957   0.961   0.965   0.983   0.984   1.002
  1.003   1.008   1.040   1.040   1.045   1.054   1.064   1.071
  1.095   1.099   1.121   1.127   1.130   1.177   1.183   1.205
  1.223   1.235   1.251   1.269   1.280   1.309   1.337   1.386
  1.393   1.413   1.464   1.468   1.533   1.546   1.585   1.658
  1.673   1.703   1.745   1.781   1.785   1.824   1.877   1.901
  1.912   1.929   1.954   1.991   2.071   2.118   2.134   2.166
  2.179   2.225   2.243   2.307   2.321   2.431   2.443   2.475
  2.531   2.592   2.618   2.682   2.813   2.934   3.020   3.144
  3.159   3.210   3.297   3.308   3.429   3.465   3.492   3.588
  3.664   3.762   3.791   3.950   3.951   4.035   4.107   4.140
  4.175   4.205   4.242   4.301   4.343   4.353   4.405   4.444
  4.462   4.537   4.618   4.638   4.654   4.866   4.955   5.019
  5.067   5.133   5.223   5.298   5.300   5.326   5.339   5.474
  5.600   5.624   5.722   5.903   5.947   5.959   6.013   6.078
  6.126   6.147   6.205   6.269   6.549   6.734   6.794   6.903
  6.966   7.112   7.168   7.284   7.404   7.409   7.596   7.781
  7.820   8.379   8.404   8.499   8.760   8.831   8.926   9.139
  9.205   9.306   9.326   9.454   9.454   9.490   9.689   9.937
  9.978  10.086  10.367  10.399  10.730  10.827  10.902  11.017
 11.181  11.194  11.217  11.305  11.396  11.504  11.581  11.717
 11.765  11.793  11.808  11.948  12.033  12.045  12.058  12.059
 12.166  12.263  12.286  12.439  12.544  12.579  12.614  12.656
 12.706  12.740  12.763  12.777  12.862  12.927  12.947  13.062
 13.168  13.178  13.647  13.703  13.704  13.958  14.184  14.279
 14.507  14.647  14.712  15.417  16.236  16.471  16.686  16.704
 17.003  17.011  17.026  17.048  17.057  17.129  17.205  17.252
 17.343  17.440  17.490  17.590  17.711  17.754  17.971  18.191
 18.250  18.318  18.353  18.818  18.917  18.955  19.166  19.303
 19.671  19.893  20.802  20.896  21.325  22.959  23.003  23.030
 23.292  23.502  23.623  23.772  23.923  24.104  24.289  26.406
 26.896  27.890  30.040  30.723  31.748  32.007  32.075  33.129
 34.054  34.864  41.222  66.515  66.557  66.576  66.674  66.809
 67.006  67.048  67.245  68.373  69.652  90.939  91.089  93.398
142.747 143.796
 --------------------------------------------------------------
 
          Ground-State Mulliken Net Atomic Charges

     Atom                 Charge (a.u.)    Spin (a.u.)
  --------------------------------------------------------
      1 O                    -0.023647       0.277356
      2 O                    -0.178765       0.714534
      3 H                     0.202412       0.008109
  --------------------------------------------------------
  Sum of atomic charges =    -0.000000
  Sum of spin   charges =     1.000000

 -----------------------------------------------------------------
                    Cartesian Multipole Moments
 -----------------------------------------------------------------
    Charge (ESU x 10^10)
                -0.0000
    Dipole Moment (Debye)
         X      -1.6217      Y      -1.5032      Z       0.0000
       Tot       2.2112
    Quadrupole Moments (Debye-Ang)
        XX     -10.1926     XY       1.5816     YY     -11.1704
        XZ       0.0000     YZ      -0.0000     ZZ     -11.1824
    Octopole Moments (Debye-Ang^2)
       XXX      -2.0089    XXY      -2.1026    XYY      -1.5291
       YYY      -1.7343    XXZ       0.0000    XYZ       0.0000
       YYZ       0.0000    XZZ      -0.1350    YZZ      -0.0430
       ZZZ       0.0000
    Hexadecapole Moments (Debye-Ang^3)
      XXXX     -10.6773   XXXY       0.1202   XXYY      -8.3788
      XYYY       0.3667   YYYY     -38.3750   XXXZ       0.0000
      XXYZ      -0.0000   XYYZ       0.0000   YYYZ      -0.0000
      XXZZ      -3.5473   XYZZ      -0.3223   YYZZ      -8.3980
      XZZZ       0.0000   YZZZ      -0.0000   ZZZZ      -9.0854
 -----------------------------------------------------------------
Archival summary:
1\1\n0057.mhg0\SP\ProcedureUnspecified\BasisUnspecified\21(2)\yhljason\FriJun1222:42:392020FriJun1222:42:392020\0\\#,ProcedureUnspecified,BasisUnspecified,\\0,2\O\H,1,0.970637\O,1,1.333,2,104.291\\\@

 Total job time:  258.05s(wall), 2004.38s(cpu) 
 Fri Jun 12 22:42:39 2020

        *************************************************************
        *                                                           *
        *  Thank you very much for using Q-Chem.  Have a nice day.  *
        *                                                           *
        *************************************************************


 
User input: 5 of 7 
 
Q-Chem Developer Version!
                  Welcome to Q-Chem
     A Quantum Leap Into The Future Of Chemistry


 Q-Chem 5.1, Q-Chem, Inc., Pleasanton, CA (2018)

 Yihan Shao,  Zhengting Gan,  E. Epifanovsky,  A. T. B. Gilbert,  M. Wormit,  
 J. Kussmann,  A. W. Lange,  A. Behn,  Jia Deng,  Xintian Feng,  D. Ghosh,  
 M. Goldey,  P. R. Horn,  L. D. Jacobson,  I. Kaliman,  T. Kus,  A. Landau,  
 Jie Liu,  E. I. Proynov,  R. M. Richard,  R. P. Steele,  E. J. Sundstrom,  
 H. L. Woodcock III,  P. M. Zimmerman,  D. Zuev,  B. Albrecht,  E. Alguire,  
 S. A. Baeppler,  D. Barton,  Z. Benda,  Y. A. Bernard,  E. J. Berquist,  
 K. B. Bravaya,  H. Burton,  D. Casanova,  Chun-Min Chang,  Yunqing Chen,  
 A. Chien,  K. D. Closser,  M. P. Coons,  S. Coriani,  S. Dasgupta,  
 A. L. Dempwolff,  M. Diedenhofen,  Hainam Do,  R. G. Edgar,  Po-Tung Fang,  
 S. Faraji,  S. Fatehi,  Qingguo Feng,  K. D. Fenk,  J. Fosso-Tande,  
 Qinghui Ge,  A. Ghysels,  G. Gidofalvi,  J. Gomes,  J. Gonthier,  A. Gunina,  
 D. Hait,  M. W. D. Hanson-Heine,  P. H. P. Harbach,  A. W. Hauser,  
 J. E. Herr,  E. G. Hohenstein,  Z. C. Holden,  Kerwin Hui,  B. C. Huynh,  
 T.-C. Jagau,  Hyunjun Ji,  B. Kaduk,  K. Khistyaev,  Jaehoon Kim,  
 P. Klunzinger,  K. Koh,  D. Kosenkov,  L. Koulias,  T. Kowalczyk,  
 C. M. Krauter,  A. Kunitsa,  Ka Un Lao,  A. Laurent,  K. V. Lawler,  
 Joonho Lee,  D. Lefrancois,  S. Lehtola,  D. S. Levine,  Yi-Pei Li,  
 You-Sheng Lin,  Fenglai Liu,  E. Livshits,  A. Luenser,  P. Manohar,  
 E. Mansoor,  S. F. Manzer,  Shan-Ping Mao,  Yuezhi Mao,  N. Mardirossian,  
 A. V. Marenich,  T. Markovich,  L. A. Martinez-Martinez,  S. A. Maurer,  
 N. J. Mayhall,  S. C. McKenzie,  J.-M. Mewes,  A. F. Morrison,  
 J. W. Mullinax,  K. Nanda,  T. S. Nguyen-Beck,  R. Olivares-Amaya,  
 J. A. Parkhill,  T. M. Perrine,  F. Plasser,  P. Pokhilko,  S. Prager,  
 A. Prociuk,  E. Ramos,  D. R. Rehn,  F. Rob,  M. Schneider,  N. Sergueev,  
 S. M. Sharada,  S. Sharma,  D. W. Small,  T. Stauch,  T. Stein,  
 Yu-Chuan Su,  A. J. W. Thom,  A. Tkatchenko,  T. Tsuchimochi,  N. M. Tubman,  
 L. Vogt,  M. L. Vidal,  O. Vydrov,  M. A. Watson,  J. Wenzel,  
 M. de Wergifosse,  T. A. Wesolowski,  A. White,  J. Witte,  A. Yamada,  
 Jun Yang,  K. Yao,  S. Yeganeh,  S. R. Yost,  Zhi-Qiang You,  A. Zech,  
 Igor Ying Zhang,  Xing Zhang,  Yan Zhao,  Ying Zhu,  B. R. Brooks,  
 G. K. L. Chan,  C. J. Cramer,  M. S. Gordon,  W. J. Hehre,  A. Klamt,  
 M. W. Schmidt,  C. D. Sherrill,  D. G. Truhlar,  A. Aspuru-Guzik,  R. Baer,  
 A. T. Bell,  N. A. Besley,  Jeng-Da Chai,  A. E. DePrince, III,  
 R. A. DiStasio Jr.,  A. Dreuw,  B. D. Dunietz,  T. R. Furlani,  
 Chao-Ping Hsu,  Yousung Jung,  Jing Kong,  D. S. Lambrecht,  WanZhen Liang,  
 C. Ochsenfeld,  V. A. Rassolov,  L. V. Slipchenko,  J. E. Subotnik,  
 T. Van Voorhis,  J. M. Herbert,  A. I. Krylov,  P. M. W. Gill,  M. Head-Gordon

 Contributors to earlier versions of Q-Chem not listed above: 
 R. D. Adamson,  B. Austin,  J. Baker,  G. J. O. Beran,  K. Brandhorst,  
[...]
       YYY      -1.7322    XXZ       0.0000    XYZ       0.0000
       YYZ       0.0000    XZZ      -0.1351    YZZ      -0.0431
       ZZZ      -0.0000
    Hexadecapole Moments (Debye-Ang^3)
      XXXX     -10.6737   XXXY       0.1219   XXYY      -8.3679
      XYYY       0.3681   YYYY     -38.3168   XXXZ      -0.0000
      XXYZ      -0.0000   XYYZ      -0.0000   YYYZ      -0.0000
      XXZZ      -3.5498   XYZZ      -0.3222   YYZZ      -8.3960
      XZZZ       0.0000   YZZZ       0.0000   ZZZZ      -9.1017
 -----------------------------------------------------------------
Archival summary:
1\1\n0057.mhg0\SP\ProcedureUnspecified\BasisUnspecified\21(2)\yhljason\FriJun1222:51:182020FriJun1222:51:182020\0\\#,ProcedureUnspecified,BasisUnspecified,\\0,2\O\H,1,0.970637\O,1,1.333,2,104.291\\\@

 Total job time:  258.84s(wall), 2004.52s(cpu) 
 Fri Jun 12 22:51:18 2020

        *************************************************************
        *                                                           *
        *  Thank you very much for using Q-Chem.  Have a nice day.  *
        *                                                           *
        *************************************************************


 
User input: 7 of 7 
 
Q-Chem Developer Version!
                  Welcome to Q-Chem
     A Quantum Leap Into The Future Of Chemistry


 Q-Chem 5.1, Q-Chem, Inc., Pleasanton, CA (2018)

 Yihan Shao,  Zhengting Gan,  E. Epifanovsky,  A. T. B. Gilbert,  M. Wormit,  
 J. Kussmann,  A. W. Lange,  A. Behn,  Jia Deng,  Xintian Feng,  D. Ghosh,  
 M. Goldey,  P. R. Horn,  L. D. Jacobson,  I. Kaliman,  T. Kus,  A. Landau,  
 Jie Liu,  E. I. Proynov,  R. M. Richard,  R. P. Steele,  E. J. Sundstrom,  
 H. L. Woodcock III,  P. M. Zimmerman,  D. Zuev,  B. Albrecht,  E. Alguire,  
 S. A. Baeppler,  D. Barton,  Z. Benda,  Y. A. Bernard,  E. J. Berquist,  
 K. B. Bravaya,  H. Burton,  D. Casanova,  Chun-Min Chang,  Yunqing Chen,  
 A. Chien,  K. D. Closser,  M. P. Coons,  S. Coriani,  S. Dasgupta,  
 A. L. Dempwolff,  M. Diedenhofen,  Hainam Do,  R. G. Edgar,  Po-Tung Fang,  
 S. Faraji,  S. Fatehi,  Qingguo Feng,  K. D. Fenk,  J. Fosso-Tande,  
 Qinghui Ge,  A. Ghysels,  G. Gidofalvi,  J. Gomes,  J. Gonthier,  A. Gunina,  
 D. Hait,  M. W. D. Hanson-Heine,  P. H. P. Harbach,  A. W. Hauser,  
 J. E. Herr,  E. G. Hohenstein,  Z. C. Holden,  Kerwin Hui,  B. C. Huynh,  
 T.-C. Jagau,  Hyunjun Ji,  B. Kaduk,  K. Khistyaev,  Jaehoon Kim,  
 P. Klunzinger,  K. Koh,  D. Kosenkov,  L. Koulias,  T. Kowalczyk,  
 C. M. Krauter,  A. Kunitsa,  Ka Un Lao,  A. Laurent,  K. V. Lawler,  
 Joonho Lee,  D. Lefrancois,  S. Lehtola,  D. S. Levine,  Yi-Pei Li,  
 You-Sheng Lin,  Fenglai Liu,  E. Livshits,  A. Luenser,  P. Manohar,  
 E. Mansoor,  S. F. Manzer,  Shan-Ping Mao,  Yuezhi Mao,  N. Mardirossian,  
 A. V. Marenich,  T. Markovich,  L. A. Martinez-Martinez,  S. A. Maurer,  
 N. J. Mayhall,  S. C. McKenzie,  J.-M. Mewes,  A. F. Morrison,  
 J. W. Mullinax,  K. Nanda,  T. S. Nguyen-Beck,  R. Olivares-Amaya,  
 J. A. Parkhill,  T. M. Perrine,  F. Plasser,  P. Pokhilko,  S. Prager,  
 A. Prociuk,  E. Ramos,  D. R. Rehn,  F. Rob,  M. Schneider,  N. Sergueev,  
 S. M. Sharada,  S. Sharma,  D. W. Small,  T. Stauch,  T. Stein,  
 Yu-Chuan Su,  A. J. W. Thom,  A. Tkatchenko,  T. Tsuchimochi,  N. M. Tubman,  
 L. Vogt,  M. L. Vidal,  O. Vydrov,  M. A. Watson,  J. Wenzel,  
 M. de Wergifosse,  T. A. Wesolowski,  A. White,  J. Witte,  A. Yamada,  
 Jun Yang,  K. Yao,  S. Yeganeh,  S. R. Yost,  Zhi-Qiang You,  A. Zech,  
 Igor Ying Zhang,  Xing Zhang,  Yan Zhao,  Ying Zhu,  B. R. Brooks,  
 G. K. L. Chan,  C. J. Cramer,  M. S. Gordon,  W. J. Hehre,  A. Klamt,  
 M. W. Schmidt,  C. D. Sherrill,  D. G. Truhlar,  A. Aspuru-Guzik,  R. Baer,  
 A. T. Bell,  N. A. Besley,  Jeng-Da Chai,  A. E. DePrince, III,  
 R. A. DiStasio Jr.,  A. Dreuw,  B. D. Dunietz,  T. R. Furlani,  
 Chao-Ping Hsu,  Yousung Jung,  Jing Kong,  D. S. Lambrecht,  WanZhen Liang,  
 C. Ochsenfeld,  V. A. Rassolov,  L. V. Slipchenko,  J. E. Subotnik,  
 T. Van Voorhis,  J. M. Herbert,  A. I. Krylov,  P. M. W. Gill,  M. Head-Gordon

 Contributors to earlier versions of Q-Chem not listed above: 
 R. D. Adamson,  B. Austin,  J. Baker,  G. J. O. Beran,  K. Brandhorst,  
 S. T. Brown,  E. F. C. Byrd,  A. K. Chakraborty,  C.-L. Cheng,  
 Siu Hung Chien,  D. M. Chipman,  D. L. Crittenden,  H. Dachsel,  
 R. J. Doerksen,  A. D. Dutoi,  L. Fusti-Molnar,  W. A. Goddard III,  
 A. Golubeva-Zadorozhnaya,  S. R. Gwaltney,  G. Hawkins,  A. Heyden,  
 S. Hirata,  G. Kedziora,  F. J. Keil,  C. Kelley,  Jihan Kim,  R. A. King,  
 R. Z. Khaliullin,  P. P. Korambath,  W. Kurlancheek,  A. M. Lee,  M. S. Lee,  
 S. V. Levchenko,  Ching Yeh Lin,  D. Liotard,  R. C. Lochan,  I. Lotan,  
 P. E. Maslen,  N. Nair,  D. P. O'Neill,  D. Neuhauser,  E. Neuscamman,  
 C. M. Oana,  R. Olson,  B. Peters,  R. Peverati,  P. A. Pieniazek,  
 Y. M. Rhee,  J. Ritchie,  M. A. Rohrdanz,  E. Rosta,  N. J. Russ,  
 H. F. Schaefer III,  N. E. Schultz,  N. Shenvi,  A. C. Simmonett,  A. Sodt,  
 D. Stuck,  K. S. Thanthiriwatte,  V. Vanovschi,  Tao Wang,  A. Warshel,  
 C. F. Williams,  Q. Wu,  X. Xu,  W. Zhang

 Please cite Q-Chem as follows:
 Y. Shao et al., Mol. Phys. 113, 184-215 (2015)
 DOI: 10.1080/00268976.2014.952696

 Q-Chem 5.1.1 for Intel X86 EM64T Linux

 Parts of Q-Chem use Armadillo 8.300.2 (Tropical Shenanigans).
 http://arma.sourceforge.net/

 Q-Chem begins on Fri Jun 12 22:51:18 2020  

Host: n0057.mhg0
0

     Scratch files written to /local/scratch/users/yhljason/HO2_pbe.inp20200612201757//
The previous job contains 0 fragments, simply inherited here
Input Ideriv = 2
Curr. Ideriv = -1
Max.  Ideriv = 2

Checking the input file for inconsistencies... 	...done.

--------------------------------------------------------------
User input:
--------------------------------------------------------------
$molecule
read
$end

$rem

jobtype sp
method pbe
xc_grid 000099000590
basis aug-pc-4
max_scf_cycles 200
thresh 14
scf_convergence 8
mem_total 64000
mem_static 1500
symmetry false
sym_ignore true
scf_guess read
unrestricted true
scf_algorithm gdm
$end

$multipole_field
ZZ -0.0001
$end
--------------------------------------------------------------
 ----------------------------------------------------------------
             Standard Nuclear Orientation (Angstroms)
    I     Atom           X                Y                Z
 ----------------------------------------------------------------
    1      O       0.0553000000    -0.6132000000     0.0000000000
    2      O       0.0553000000     0.7198000000     0.0000000000
    3      H      -0.8853000000    -0.8528000000     0.0000000000
 ----------------------------------------------------------------
 Nuclear Repulsion Energy =    32.0786164552 hartrees
 There are        9 alpha and        8 beta electrons
 Requested basis set is aug-pc-4
 There are 90 shells and 378 basis functions

 Total QAlloc Memory Limit  64000 MB
 Mega-Array Size      1467 MB
 MEM_STATIC part      1500 MB

                       Distance Matrix (Angstroms)
             O (  1)   O (  2)
   O (  2)  1.333000
   H (  3)  0.970637  1.832430
 
 Applying Cartesian multipole field
    Component          Value
    ---------          -----
     (0,0,2)       -1.00000E-04
 A cutoff of  1.0D-14 yielded   4064 shell pairs
 There are     72454 function pairs (    136226 Cartesian)
 
 -------------------------------------------------------
 OpenMP Integral Computing Module                       
 Release: version 1.0, May 2013, Q-Chem Inc. Pittsburgh 
 -------------------------------------------------------
 Integral Job Info:
 Integral job number is                      11
 Integral operator is                         1
 short-range coefficients                     0
 long-range coefficients              100000000
 Omega coefficients                           0
 if combine SR and LR in K                    0
 Integral screening is                        0
 Integral computing path is                   2
 max size of driver memory is           6400000
 size of driver memory is               5498286
 size of scratch memory is             29792225
 max col of scratch BK array             194481
 max len of scratch array in speh3         5572
 max len of scratch index in speh4           72
 max int batch size is                      520
 min int batch size is                       52
 fixed nKL is                                25
 max L of basis functions is                  5
 order of int derivative is                   0
 number of shells is                         90
 number of basis is                         517
 number of cartesian basis is               517
 number of contracted shell pairs          4064
 number of primitive shell pairs           8707
 maxK2 (contraction) of shell pair          121
 max number of K2 of shell pair               1
 max number of CS2 of shell pair            444
 max number of PS2 of shell pair            444
 mem total for path MDJ                  998666
 -------------------------------------------------------
 Smallest overlap matrix eigenvalue = 1.78E-06
 Guess MOs from SCF MO coefficient file

 -----------------------------------------------------------------------
  General SCF calculation program by
  Eric Jon Sundstrom, Paul Horn, Yuezhi Mao, Dmitri Zuev, Alec White,
  David Stuck, Shaama M.S., Shane Yost, Joonho Lee, David Small,
  Daniel Levine, Susi Lehtola, Hugh Burton, Evgeny Epifanovsky
 -----------------------------------------------------------------------
 Exchange:  PBE      Correlation:  PBE
 Using Euler-Maclaurin-Lebedev (99,590) quadrature formula
 using 8 threads for integral computing
 -------------------------------------------------------
 OpenMP Integral computing Module                
 Release: version 1.0, May 2013, Q-Chem Inc. Pittsburgh 
 -------------------------------------------------------
 -------------------------------------------------------
 OpenMP BLAS3 based DFT computing Module                
 Release: version 1.0, May 2013, Q-Chem Inc. Pittsburgh 
 -------------------------------------------------------
 A unrestricted SCF calculation will be
 performed using GDM
 SCF converges when RMS gradient is below 1.0e-08
 ---------------------------------------
  Cycle       Energy        RMS Gradient
 ---------------------------------------
    1    -150.8405957068      4.52e-04   Normal BFGS step
    2    -150.8405962347      1.58e-04   Normal BFGS step
    3    -150.8405964394      1.37e-04   Normal BFGS step
    4    -150.8405964721      3.06e-04   Normal BFGS step
    5    -150.8405964505      3.08e-04   Normal BFGS step
    6    -150.8405965063      8.92e-06   Normal BFGS step
    7    -150.8405965073      6.14e-06   Normal BFGS step
    8    -150.8405965075      8.74e-07   Normal BFGS step
    9    -150.8405965075      4.14e-07   Normal BFGS step
   10    -150.8405965075      1.43e-08   Normal BFGS step
   11    -150.8405965075      9.84e-09  Convergence criterion met
 ---------------------------------------
 SCF time:   CPU 1992.12s  wall 250.00s 
<S^2> =          0.752333853
 SCF   energy in the final basis set =     -150.8405965075
 Total energy in the final basis set =     -150.8405965075
 
 --------------------------------------------------------------
 
                    Orbital Energies (a.u.)
 --------------------------------------------------------------
 
 Alpha MOs
 -- Occupied --
-18.883 -18.833  -1.111  -0.799  -0.517  -0.438  -0.437  -0.254
 -0.247
 -- Virtual --
 -0.039   0.002   0.024   0.030   0.037   0.048   0.059   0.063
  0.064   0.088   0.090   0.114   0.118   0.125   0.145   0.149
  0.163   0.170   0.177   0.182   0.185   0.188   0.190   0.208
  0.217   0.232   0.244   0.249   0.256   0.264   0.280   0.285
  0.301   0.303   0.308   0.348   0.349   0.354   0.362   0.380
  0.398   0.399   0.411   0.414   0.416   0.432   0.441   0.445
  0.453   0.459   0.462   0.470   0.471   0.481   0.509   0.509
  0.523   0.525   0.529   0.542   0.550   0.562   0.582   0.590
  0.603   0.615   0.627   0.631   0.642   0.650   0.655   0.676
  0.695   0.708   0.719   0.723   0.725   0.750   0.762   0.772
  0.775   0.787   0.794   0.801   0.824   0.843   0.853   0.854
  0.859   0.881   0.885   0.892   0.894   0.916   0.921   0.926
  0.947   0.953   0.959   0.963   0.979   0.981   0.997   1.001
  1.005   1.038   1.039   1.044   1.053   1.062   1.068   1.093
  1.098   1.117   1.126   1.128   1.175   1.180   1.203   1.222
  1.233   1.250   1.270   1.281   1.309   1.336   1.379   1.391
  1.410   1.462   1.466   1.530   1.543   1.585   1.651   1.673
  1.692   1.741   1.759   1.781   1.815   1.867   1.869   1.894
  1.921   1.942   1.984   2.059   2.114   2.131   2.154   2.162
  2.208   2.233   2.299   2.299   2.414   2.438   2.474   2.514
  2.583   2.616   2.675   2.812   2.928   3.014   3.142   3.143
  3.203   3.293   3.304   3.426   3.462   3.487   3.587   3.660
  3.755   3.783   3.939   3.941   4.030   4.093   4.116   4.154
  4.171   4.221   4.270   4.320   4.334   4.392   4.420   4.456
  4.534   4.595   4.608   4.644   4.856   4.941   5.013   5.032
  5.117   5.210   5.261   5.271   5.298   5.327   5.461   5.579
  5.604   5.705   5.885   5.919   5.920   5.990   6.056   6.103
  6.116   6.197   6.253   6.544   6.724   6.778   6.892   6.940
  7.103   7.152   7.269   7.389   7.405   7.581   7.768   7.808
  8.373   8.396   8.470   8.743   8.829   8.919   9.137   9.180
  9.279   9.291   9.393   9.394   9.466   9.670   9.891   9.973
 10.082  10.363  10.378  10.701  10.811  10.830  11.001  11.166
 11.167  11.175  11.295  11.378  11.485  11.555  11.689  11.744
 11.777  11.785  11.932  11.999  12.000  12.009  12.027  12.140
 12.251  12.276  12.421  12.528  12.543  12.597  12.626  12.672
 12.689  12.696  12.732  12.825  12.898  12.930  13.028  13.114
 13.171  13.637  13.683  13.696  13.948  14.163  14.252  14.494
 14.638  14.692  15.411  16.231  16.425  16.686  16.704  16.933
 16.935  16.983  17.017  17.052  17.097  17.149  17.238  17.317
 17.419  17.475  17.571  17.692  17.729  17.941  18.165  18.230
 18.272  18.342  18.804  18.910  18.913  19.141  19.298  19.670
 19.891  20.792  20.885  21.327  22.904  22.930  22.950  23.283
 23.480  23.610  23.773  23.906  24.052  24.282  26.389  26.890
 27.877  30.010  30.711  31.674  31.992  32.027  33.113  34.042
 34.848  41.225  66.478  66.507  66.522  66.664  66.782  66.988
 67.009  67.237  68.354  69.641  90.944  91.094  93.403 142.730
143.786
 
 Beta MOs
 -- Occupied --
-18.875 -18.815  -1.090  -0.769  -0.504  -0.425  -0.387  -0.232
 -- Virtual --
 -0.177  -0.036   0.009   0.025   0.033   0.038   0.056   0.059
  0.065   0.066   0.089   0.092   0.117   0.119   0.127   0.146
  0.154   0.167   0.171   0.178   0.183   0.189   0.192   0.192
  0.209   0.219   0.234   0.245   0.250   0.257   0.266   0.282
  0.287   0.303   0.306   0.309   0.350   0.352   0.354   0.365
  0.382   0.400   0.403   0.412   0.418   0.420   0.436   0.442
  0.446   0.457   0.462   0.466   0.472   0.476   0.483   0.511
  0.512   0.524   0.528   0.531   0.544   0.554   0.567   0.584
  0.591   0.606   0.618   0.628   0.634   0.644   0.654   0.656
  0.677   0.696   0.710   0.722   0.726   0.728   0.754   0.766
  0.775   0.779   0.794   0.796   0.803   0.829   0.848   0.856
  0.860   0.863   0.886   0.891   0.894   0.896   0.918   0.928
  0.929   0.951   0.959   0.962   0.966   0.985   0.986   1.004
  1.004   1.009   1.041   1.042   1.047   1.056   1.066   1.073
  1.097   1.101   1.123   1.128   1.132   1.179   1.185   1.208
  1.225   1.238   1.253   1.271   1.281   1.310   1.338   1.388
  1.394   1.414   1.466   1.470   1.534   1.548   1.587   1.659
  1.674   1.704   1.746   1.782   1.786   1.825   1.878   1.902
  1.913   1.930   1.955   1.993   2.072   2.119   2.135   2.167
  2.179   2.226   2.244   2.308   2.322   2.432   2.443   2.476
  2.532   2.593   2.619   2.682   2.814   2.935   3.021   3.145
  3.160   3.211   3.298   3.309   3.430   3.466   3.493   3.589
  3.665   3.762   3.792   3.951   3.952   4.035   4.108   4.141
  4.176   4.206   4.243   4.301   4.344   4.353   4.406   4.445
  4.462   4.538   4.618   4.639   4.654   4.867   4.956   5.020
  5.068   5.134   5.224   5.299   5.301   5.327   5.340   5.475
  5.601   5.625   5.723   5.903   5.948   5.960   6.014   6.078
  6.126   6.147   6.206   6.269   6.550   6.734   6.795   6.903
  6.967   7.113   7.168   7.285   7.405   7.410   7.597   7.782
  7.821   8.379   8.404   8.500   8.761   8.831   8.927   9.139
  9.206   9.306   9.327   9.455   9.455   9.491   9.690   9.938
  9.979  10.087  10.368  10.399  10.731  10.828  10.903  11.017
 11.182  11.195  11.217  11.305  11.397  11.504  11.581  11.718
 11.766  11.793  11.809  11.949  12.034  12.045  12.058  12.059
 12.167  12.264  12.286  12.440  12.545  12.580  12.615  12.657
 12.707  12.741  12.764  12.778  12.862  12.928  12.948  13.063
 13.169  13.179  13.648  13.703  13.705  13.958  14.185  14.280
 14.507  14.648  14.712  15.418  16.237  16.472  16.687  16.705
 17.003  17.011  17.027  17.049  17.057  17.130  17.205  17.253
 17.344  17.440  17.491  17.591  17.711  17.755  17.972  18.191
 18.251  18.319  18.354  18.819  18.918  18.956  19.167  19.304
 19.672  19.893  20.803  20.897  21.326  22.960  23.004  23.031
 23.293  23.503  23.624  23.772  23.923  24.105  24.289  26.406
 26.896  27.890  30.040  30.724  31.748  32.008  32.076  33.129
 34.054  34.865  41.222  66.516  66.558  66.577  66.674  66.810
 67.006  67.049  67.246  68.373  69.653  90.940  91.090  93.399
142.748 143.796
 --------------------------------------------------------------
 
          Ground-State Mulliken Net Atomic Charges

     Atom                 Charge (a.u.)    Spin (a.u.)
  --------------------------------------------------------
      1 O                    -0.023493       0.277273
      2 O                    -0.178384       0.714597
      3 H                     0.201876       0.008131
  --------------------------------------------------------
  Sum of atomic charges =    -0.000000
  Sum of spin   charges =     1.000000

 -----------------------------------------------------------------
                    Cartesian Multipole Moments
 -----------------------------------------------------------------
    Charge (ESU x 10^10)
                -0.0000
    Dipole Moment (Debye)
         X      -1.6219      Y      -1.5027      Z      -0.0000
       Tot       2.2111
    Quadrupole Moments (Debye-Ang)
        XX     -10.1902     XY       1.5818     YY     -11.1558
        XZ       0.0000     YZ      -0.0000     ZZ     -11.1761
    Octopole Moments (Debye-Ang^2)
       XXX      -2.0095    XXY      -2.1019    XYY      -1.5299
       YYY      -1.7318    XXZ      -0.0000    XYZ      -0.0000
       YYZ      -0.0000    XZZ      -0.1352    YZZ      -0.0427
       ZZZ       0.0000
    Hexadecapole Moments (Debye-Ang^3)
      XXXX     -10.6672   XXXY       0.1214   XXYY      -8.3643
      XYYY       0.3675   YYYY     -38.3048   XXXZ      -0.0000
      XXYZ       0.0000   XYYZ       0.0000   YYYZ       0.0000
      XXZZ      -3.5416   XYZZ      -0.3221   YYZZ      -8.3818
      XZZZ       0.0000   YZZZ      -0.0000   ZZZZ      -9.0628
 -----------------------------------------------------------------
Archival summary:
1\1\n0057.mhg0\SP\ProcedureUnspecified\BasisUnspecified\21(2)\yhljason\FriJun1222:55:372020FriJun1222:55:372020\0\\#,ProcedureUnspecified,BasisUnspecified,\\0,2\O\H,1,0.970637\O,1,1.333,2,104.291\\\@

 Total job time:  258.99s(wall), 2009.84s(cpu) 
 Fri Jun 12 22:55:37 2020

        *************************************************************
        *                                                           *
        *  Thank you very much for using Q-Chem.  Have a nice day.  *
        *                                                           *
        *************************************************************


