Q-Chem Developer Version!
                  Welcome to Q-Chem
     A Quantum Leap Into The Future Of Chemistry


 Q-Chem 5.1, Q-Chem, Inc., Pleasanton, CA (2018)

 Yihan Shao,  Zhengting Gan,  E. Epifanovsky,  A. T. B. Gilbert,  M. Wormit,  
 J. Kussmann,  A. W. Lange,  A. Behn,  Jia Deng,  Xintian Feng,  D. Ghosh,  
 M. Goldey,  P. R. Horn,  L. D. Jacobson,  I. Kaliman,  T. Kus,  A. Landau,  
 Jie Liu,  E. I. Proynov,  R. M. Richard,  R. P. Steele,  E. J. Sundstrom,  
 H. L. Woodcock III,  P. M. Zimmerman,  D. Zuev,  B. Albrecht,  E. Alguire,  
 S. A. Baeppler,  D. Barton,  Z. Benda,  Y. A. Bernard,  E. J. Berquist,  
 K. B. Bravaya,  H. Burton,  D. Casanova,  Chun-Min Chang,  Yunqing Chen,  
 A. Chien,  K. D. Closser,  M. P. Coons,  S. Coriani,  S. Dasgupta,  
 A. L. Dempwolff,  M. Diedenhofen,  Hainam Do,  R. G. Edgar,  Po-Tung Fang,  
 S. Faraji,  S. Fatehi,  Qingguo Feng,  K. D. Fenk,  J. Fosso-Tande,  
 Qinghui Ge,  A. Ghysels,  G. Gidofalvi,  J. Gomes,  J. Gonthier,  A. Gunina,  
 D. Hait,  M. W. D. Hanson-Heine,  P. H. P. Harbach,  A. W. Hauser,  
 J. E. Herr,  E. G. Hohenstein,  Z. C. Holden,  Kerwin Hui,  B. C. Huynh,  
 T.-C. Jagau,  Hyunjun Ji,  B. Kaduk,  K. Khistyaev,  Jaehoon Kim,  
 P. Klunzinger,  K. Koh,  D. Kosenkov,  L. Koulias,  T. Kowalczyk,  
 C. M. Krauter,  A. Kunitsa,  Ka Un Lao,  A. Laurent,  K. V. Lawler,  
 Joonho Lee,  D. Lefrancois,  S. Lehtola,  D. S. Levine,  Yi-Pei Li,  
 You-Sheng Lin,  Fenglai Liu,  E. Livshits,  A. Luenser,  P. Manohar,  
 E. Mansoor,  S. F. Manzer,  Shan-Ping Mao,  Yuezhi Mao,  N. Mardirossian,  
 A. V. Marenich,  T. Markovich,  L. A. Martinez-Martinez,  S. A. Maurer,  
 N. J. Mayhall,  S. C. McKenzie,  J.-M. Mewes,  A. F. Morrison,  
 J. W. Mullinax,  K. Nanda,  T. S. Nguyen-Beck,  R. Olivares-Amaya,  
 J. A. Parkhill,  T. M. Perrine,  F. Plasser,  P. Pokhilko,  S. Prager,  
 A. Prociuk,  E. Ramos,  D. R. Rehn,  F. Rob,  M. Schneider,  N. Sergueev,  
 S. M. Sharada,  S. Sharma,  D. W. Small,  T. Stauch,  T. Stein,  
 Yu-Chuan Su,  A. J. W. Thom,  A. Tkatchenko,  T. Tsuchimochi,  N. M. Tubman,  
 L. Vogt,  M. L. Vidal,  O. Vydrov,  M. A. Watson,  J. Wenzel,  
 M. de Wergifosse,  T. A. Wesolowski,  A. White,  J. Witte,  A. Yamada,  
 Jun Yang,  K. Yao,  S. Yeganeh,  S. R. Yost,  Zhi-Qiang You,  A. Zech,  
 Igor Ying Zhang,  Xing Zhang,  Yan Zhao,  Ying Zhu,  B. R. Brooks,  
 G. K. L. Chan,  C. J. Cramer,  M. S. Gordon,  W. J. Hehre,  A. Klamt,  
 M. W. Schmidt,  C. D. Sherrill,  D. G. Truhlar,  A. Aspuru-Guzik,  R. Baer,  
 A. T. Bell,  N. A. Besley,  Jeng-Da Chai,  A. E. DePrince, III,  
 R. A. DiStasio Jr.,  A. Dreuw,  B. D. Dunietz,  T. R. Furlani,  
 Chao-Ping Hsu,  Yousung Jung,  Jing Kong,  D. S. Lambrecht,  WanZhen Liang,  
 C. Ochsenfeld,  V. A. Rassolov,  L. V. Slipchenko,  J. E. Subotnik,  
 T. Van Voorhis,  J. M. Herbert,  A. I. Krylov,  P. M. W. Gill,  M. Head-Gordon

 Contributors to earlier versions of Q-Chem not listed above: 
 R. D. Adamson,  B. Austin,  J. Baker,  G. J. O. Beran,  K. Brandhorst,  
 S. T. Brown,  E. F. C. Byrd,  A. K. Chakraborty,  C.-L. Cheng,  
 Siu Hung Chien,  D. M. Chipman,  D. L. Crittenden,  H. Dachsel,  
 R. J. Doerksen,  A. D. Dutoi,  L. Fusti-Molnar,  W. A. Goddard III,  
 A. Golubeva-Zadorozhnaya,  S. R. Gwaltney,  G. Hawkins,  A. Heyden,  
 S. Hirata,  G. Kedziora,  F. J. Keil,  C. Kelley,  Jihan Kim,  R. A. King,  
 R. Z. Khaliullin,  P. P. Korambath,  W. Kurlancheek,  A. M. Lee,  M. S. Lee,  
 S. V. Levchenko,  Ching Yeh Lin,  D. Liotard,  R. C. Lochan,  I. Lotan,  
 P. E. Maslen,  N. Nair,  D. P. O'Neill,  D. Neuhauser,  E. Neuscamman,  
 C. M. Oana,  R. Olson,  B. Peters,  R. Peverati,  P. A. Pieniazek,  
 Y. M. Rhee,  J. Ritchie,  M. A. Rohrdanz,  E. Rosta,  N. J. Russ,  
 H. F. Schaefer III,  N. E. Schultz,  N. Shenvi,  A. C. Simmonett,  A. Sodt,  
 D. Stuck,  K. S. Thanthiriwatte,  V. Vanovschi,  Tao Wang,  A. Warshel,  
 C. F. Williams,  Q. Wu,  X. Xu,  W. Zhang

 Please cite Q-Chem as follows:
 Y. Shao et al., Mol. Phys. 113, 184-215 (2015)
 DOI: 10.1080/00268976.2014.952696

 Q-Chem 5.1.1 for Intel X86 EM64T Linux

 Parts of Q-Chem use Armadillo 8.300.2 (Tropical Shenanigans).
 http://arma.sourceforge.net/

 Q-Chem begins on Wed Oct 14 14:26:11 2020  

Host: n0087.mhg0
0

     Scratch files written to /local/scratch/users/yhljason/ClCN_XYG3_aug-cc-pcVTZ.inp20201014142608//
Input Ideriv = 2
Curr. Ideriv = -1
Max.  Ideriv = 2

Checking the input file for inconsistencies... 	...done.

--------------------------------------------------------------
User input:
--------------------------------------------------------------
$molecule
0 1
Cl1     0.0000  0.0000  1.6290
C2      0.0000  0.0000  0.0000
N3      0.0000  0.0000  -1.1606
$end

$rem
jobtype sp
exchange XYG3
xc_grid 000099000590
basis aug-cc-pcVTZ
max_scf_cycles 200
thresh 14
scf_convergence 8
scf_algorithm gdm
symmetry false
sym_ignore true
unrestricted false
gen_scfman false
internal_stability_iter 15
internal_stability_davidson_iter 200
mem_total 128000
cc_memory 96000
cc_backend xm
mem_static 1500
n_frozen_core 0
$end



--------------------------------------------------------------
 ----------------------------------------------------------------
             Standard Nuclear Orientation (Angstroms)
    I     Atom           X                Y                Z
 ----------------------------------------------------------------
    1      Cl      0.0000000000     0.0000000000     1.6290000000
    2      C       0.0000000000     0.0000000000     0.0000000000
    3      N       0.0000000000     0.0000000000    -1.1606000000
 ----------------------------------------------------------------
 Nuclear Repulsion Energy =    74.8583213206 hartrees
 There are       15 alpha and       15 beta electrons
 Requested basis set is aug-cc-pCVTZ
 There are 61 shells and 193 basis functions

 Total QAlloc Memory Limit 128000 MB
 Mega-Array Size      1467 MB
 MEM_STATIC part      1500 MB

                       Distance Matrix (Angstroms)
             Cl(  1)   C (  2)
   C (  2)  1.629000
   N (  3)  2.789600  1.160600
 
 A cutoff of  1.0D-14 yielded   1824 shell pairs
 There are     18326 function pairs (     25489 Cartesian)
 
 -------------------------------------------------------
 OpenMP Integral Computing Module                       
 Release: version 1.0, May 2013, Q-Chem Inc. Pittsburgh 
 -------------------------------------------------------
 Integral Job Info:
 Integral job number is                      11
 Integral operator is                         1
 short-range coefficients                     0
 long-range coefficients              100000000
 Omega coefficients                           0
 if combine SR and LR in K                    0
 Integral screening is                        0
 Integral computing path is                   2
 max size of driver memory is            800000
 size of driver memory is                776718
 size of scratch memory is             29531563
 max col of scratch BK array              10000
 max len of scratch array in speh3          662
 max len of scratch index in speh4           32
 max int batch size is                      520
 min int batch size is                       52
 fixed nKL is                                31
 max L of basis functions is                  3
 order of int derivative is                   0
 number of shells is                         61
 number of basis is                         227
 number of cartesian basis is               227
 number of contracted shell pairs          1824
 number of primitive shell pairs           7952
 maxK2 (contraction) of shell pair          169
 max number of K2 of shell pair               1
 max number of CS2 of shell pair            227
 max number of PS2 of shell pair           1014
 mem total for path MDJ                  604144
 -------------------------------------------------------
 Smallest overlap matrix eigenvalue = 1.26E-04

 Scale SEOQF with 1.000000e-01/1.000000e-01/1.000000e-01

 Standard Electronic Orientation quadrupole field applied
 Nucleus-field energy     =    -0.0000000058 hartrees
 Guess from superposition of atomic densities
 Warning:  Energy on first SCF cycle will be non-variational
 SAD guess density has 30.000000 electrons
 A restricted hybrid HF-DFT SCF calculation will be
 performed using Pulay DIIS + Geometric Direct Minimization
 Exchange:     0.2000 Hartree-Fock + 0.0800 Slater + 0.7200 B88
 Correlation:  0.1900 VWN1RPA + 0.8100 LYP
 Using Euler-Maclaurin-Lebedev (99,590) quadrature formula
 SCF converges when RMS gradient is below 1.0E-08
 using 8 threads for integral computing
 -------------------------------------------------------
 OpenMP Integral computing Module                
 Release: version 2.0, May 2017, Q-Chem Inc. Pleasanton 
 -------------------------------------------------------
TIMEINFO->: J/JK contribution 18.35 sec.
 -------------------------------------------------------
 OpenMP BLAS3 based DFT computing Module                
 Release: version 1.0, May 2013, Q-Chem Inc. Pittsburgh 
 -------------------------------------------------------
 ---------------------------------------
  Cycle       Energy        RMS Gradient
 ---------------------------------------
    1    -553.5358268648      2.68E-02 Done DIIS. Switching to GDM
TIMEINFO->: J/JK contribution 39.52 sec.
    2    -552.9971905474      3.01E-01 Descent step
TIMEINFO->: J/JK contribution 43.26 sec.
    3    -552.9031635314      1.57E-01 Line search: overstep
TIMEINFO->: J/JK contribution 43.65 sec.
    4    -553.0829125879      5.27E-02 Normal BFGS step
TIMEINFO->: J/JK contribution 43.43 sec.
    5    -553.0879867252      3.57E-02 Normal BFGS step
TIMEINFO->: J/JK contribution 43.90 sec.
    6    -553.0919310954      1.38E-02 Normal BFGS step
TIMEINFO->: J/JK contribution 43.62 sec.
    7    -553.0923362445      3.07E-03 Normal BFGS step
TIMEINFO->: J/JK contribution 43.02 sec.
    8    -553.0924613205      9.30E-04 Normal BFGS step
TIMEINFO->: J/JK contribution 43.94 sec.
    9    -553.0924633845      2.46E-04 Normal BFGS step
TIMEINFO->: J/JK contribution 43.50 sec.
   10    -553.0924635124      2.76E-05 Normal BFGS step
TIMEINFO->: J/JK contribution 42.01 sec.
   11    -553.0924635168      1.98E-05 Normal BFGS step
TIMEINFO->: J/JK contribution 41.72 sec.
   12    -553.0924635183      1.21E-06 Normal BFGS step
TIMEINFO->: J/JK contribution 40.85 sec.
   13    -553.0924635183      2.69E-07 Normal BFGS step
TIMEINFO->: J/JK contribution 39.61 sec.
   14    -553.0924635183      2.98E-07 Normal BFGS step
TIMEINFO->: J/JK contribution 39.12 sec.
   15    -553.0924635183      1.12E-07 Normal BFGS step
TIMEINFO->: J/JK contribution 43.35 sec.
   GDM::WARNING energy changes are now smaller than effective accuracy.
   GDM::        calculation will continue, but THRESH should be increased
   GDM::        or SCF_CONVERGENCE decreased.
   GDM::        effective_thresh =   3.955513069864303E-010
   16    -553.0924635183      9.99E-09 Convergence criterion met
 ---------------------------------------
 B3LYP orbitals are now ready for the XYG3 calculation.
 XYG3 energy = Exch (0.8033 HF  - 0.0140 Slater + 0.2107 Becke88) + 
               Corr (0.6789 LYP + 0.3211 MP2)
 SCF time:  CPU 751.61 s  wall 94.66 s
 SCF   energy in the final basis set = -552.65675936
 Total energy in the final basis set = -552.65675936
 
 Components of the MP2 correlation energy:
        aaaa  correlation energy  =        -0.1660121528 au
        abab  correlation energy  =        -0.9599056463 au
        bbbb  correlation energy  =        -0.1660121528 au
        singles contribution not yet available for XYG3

 Total  XYG3        total energy  =      -553.0715980668 au

 
 --------------------------------------------------------------
 
                    Orbital Energies (a.u.)
 --------------------------------------------------------------
 
 Alpha MOs
 -- Occupied --
******* -14.350 -10.281  -9.549  -7.311  -7.301  -7.301  -0.971
 -0.913  -0.588  -0.449  -0.449  -0.399  -0.343  -0.343
 -- Virtual --
 -0.038  -0.007  -0.007   0.007   0.031   0.043   0.043   0.073
  0.080   0.080   0.136   0.145   0.145   0.156   0.156   0.160
  0.191   0.274   0.274   0.283   0.297   0.297   0.353   0.353
  0.371   0.374   0.374   0.441   0.480   0.480   0.529   0.529
  0.537   0.553   0.628   0.628   0.648   0.648   0.659   0.682
  0.682   0.727   0.813   0.813   0.840   0.840   0.888   0.923
  0.923   0.935   1.044   1.044   1.050   1.050   1.105   1.115
  1.115   1.190   1.275   1.275   1.321   1.321   1.452   1.452
  1.475   1.478   1.478   1.545   1.604   1.604   1.716   1.788
  1.788   1.852   1.937   1.937   2.042   2.042   2.085   2.179
  2.179   2.183   2.183   2.278   2.395   2.395   2.559   2.559
  2.664   2.664   2.666   2.666   2.722   2.899   2.919   2.919
  3.053   3.053   3.132   3.132   3.168   3.322   3.322   3.346
  3.346   3.526   3.575   3.575   3.599   3.988   4.177   4.177
  4.407   4.590   4.594   4.594   4.813   4.813   5.082   5.082
  5.217   5.217   5.232   5.754   5.861   5.861   7.087   9.641
  9.641   9.737   9.737  10.134  11.980  11.980  12.503  14.993
 14.993  16.263  16.570  17.794  20.435  20.435  20.980  22.519
 35.631  35.631  35.635  35.635  35.641  35.641  35.654  38.165
 38.165  38.263  38.263  38.563  40.334  40.334  40.483  40.483
 40.919  45.059  45.059  45.109  45.109  45.295  53.496  53.496
 54.079  79.696  79.696  80.817  84.711 102.503 107.471 107.471
108.057 115.009
 --------------------------------------------------------------
 
          Ground-State Mulliken Net Atomic Charges

     Atom                 Charge (a.u.)
  ----------------------------------------
      1 Cl                    0.188590
      2 C                     0.183615
      3 N                    -0.372205
  ----------------------------------------
  Sum of atomic charges =    -0.000000

 -----------------------------------------------------------------
                    Cartesian Multipole Moments
 -----------------------------------------------------------------
    Charge (ESU x 10^10)
                -0.0000
    Dipole Moment (Debye)
         X       0.0000      Y       0.0000      Z       3.0021
       Tot       3.0021
    Quadrupole Moments (Debye-Ang)
        XX     -23.0916     XY       0.0000     YY     -23.0916
        XZ      -0.0000     YZ       0.0000     ZZ     -23.2256
    Octopole Moments (Debye-Ang^2)
       XXX      -0.0000    XXY       0.0000    XYY      -0.0000
       YYY       0.0000    XXZ     -12.9088    XYZ       0.0000
       YYZ     -12.9088    XZZ      -0.0000    YZZ       0.0000
       ZZZ     -25.3676
    Hexadecapole Moments (Debye-Ang^3)
      XXXX     -24.6324   XXXY       0.0000   XXYY      -8.2108
      XYYY       0.0000   YYYY     -24.6324   XXXZ      -0.0000
      XXYZ       0.0000   XYYZ      -0.0000   YYYZ       0.0000
      XXZZ     -48.9726   XYZZ      -0.0000   YYZZ     -48.9726
      XZZZ       0.0000   YZZZ       0.0000   ZZZZ    -244.8289
 -----------------------------------------------------------------
Archival summary:
1\1\n0087.mhg0\SP\ProcedureUnspecified\BasisUnspecified\l111\yhljason\WedOct1414:28:482020WedOct1414:28:482020\0\\#,ProcedureUnspecified,BasisUnspecified,\\0,1\Cl\C,1,1.629\N,2,1.1606,1,180\\\@

 Total job time:  156.92s(wall), 1234.76s(cpu) 
 Wed Oct 14 14:28:48 2020

        *************************************************************
        *                                                           *
        *  Thank you very much for using Q-Chem.  Have a nice day.  *
        *                                                           *
        *************************************************************


 
User input: 2 of 7 
 
Q-Chem Developer Version!
                  Welcome to Q-Chem
     A Quantum Leap Into The Future Of Chemistry


 Q-Chem 5.1, Q-Chem, Inc., Pleasanton, CA (2018)

 Yihan Shao,  Zhengting Gan,  E. Epifanovsky,  A. T. B. Gilbert,  M. Wormit,  
 J. Kussmann,  A. W. Lange,  A. Behn,  Jia Deng,  Xintian Feng,  D. Ghosh,  
 M. Goldey,  P. R. Horn,  L. D. Jacobson,  I. Kaliman,  T. Kus,  A. Landau,  
 Jie Liu,  E. I. Proynov,  R. M. Richard,  R. P. Steele,  E. J. Sundstrom,  
 H. L. Woodcock III,  P. M. Zimmerman,  D. Zuev,  B. Albrecht,  E. Alguire,  
 S. A. Baeppler,  D. Barton,  Z. Benda,  Y. A. Bernard,  E. J. Berquist,  
 K. B. Bravaya,  H. Burton,  D. Casanova,  Chun-Min Chang,  Yunqing Chen,  
 A. Chien,  K. D. Closser,  M. P. Coons,  S. Coriani,  S. Dasgupta,  
 A. L. Dempwolff,  M. Diedenhofen,  Hainam Do,  R. G. Edgar,  Po-Tung Fang,  
 S. Faraji,  S. Fatehi,  Qingguo Feng,  K. D. Fenk,  J. Fosso-Tande,  
 Qinghui Ge,  A. Ghysels,  G. Gidofalvi,  J. Gomes,  J. Gonthier,  A. Gunina,  
 D. Hait,  M. W. D. Hanson-Heine,  P. H. P. Harbach,  A. W. Hauser,  
 J. E. Herr,  E. G. Hohenstein,  Z. C. Holden,  Kerwin Hui,  B. C. Huynh,  
 T.-C. Jagau,  Hyunjun Ji,  B. Kaduk,  K. Khistyaev,  Jaehoon Kim,  
 P. Klunzinger,  K. Koh,  D. Kosenkov,  L. Koulias,  T. Kowalczyk,  
 C. M. Krauter,  A. Kunitsa,  Ka Un Lao,  A. Laurent,  K. V. Lawler,  
 Joonho Lee,  D. Lefrancois,  S. Lehtola,  D. S. Levine,  Yi-Pei Li,  
 You-Sheng Lin,  Fenglai Liu,  E. Livshits,  A. Luenser,  P. Manohar,  
 E. Mansoor,  S. F. Manzer,  Shan-Ping Mao,  Yuezhi Mao,  N. Mardirossian,  
 A. V. Marenich,  T. Markovich,  L. A. Martinez-Martinez,  S. A. Maurer,  
 N. J. Mayhall,  S. C. McKenzie,  J.-M. Mewes,  A. F. Morrison,  
 J. W. Mullinax,  K. Nanda,  T. S. Nguyen-Beck,  R. Olivares-Amaya,  
 J. A. Parkhill,  T. M. Perrine,  F. Plasser,  P. Pokhilko,  S. Prager,  
 A. Prociuk,  E. Ramos,  D. R. Rehn,  F. Rob,  M. Schneider,  N. Sergueev,  
 S. M. Sharada,  S. Sharma,  D. W. Small,  T. Stauch,  T. Stein,  
 Yu-Chuan Su,  A. J. W. Thom,  A. Tkatchenko,  T. Tsuchimochi,  N. M. Tubman,  
 L. Vogt,  M. L. Vidal,  O. Vydrov,  M. A. Watson,  J. Wenzel,  
 M. de Wergifosse,  T. A. Wesolowski,  A. White,  J. Witte,  A. Yamada,  
 Jun Yang,  K. Yao,  S. Yeganeh,  S. R. Yost,  Zhi-Qiang You,  A. Zech,  
 Igor Ying Zhang,  Xing Zhang,  Yan Zhao,  Ying Zhu,  B. R. Brooks,  
 G. K. L. Chan,  C. J. Cramer,  M. S. Gordon,  W. J. Hehre,  A. Klamt,  
 M. W. Schmidt,  C. D. Sherrill,  D. G. Truhlar,  A. Aspuru-Guzik,  R. Baer,  
 A. T. Bell,  N. A. Besley,  Jeng-Da Chai,  A. E. DePrince, III,  
 R. A. DiStasio Jr.,  A. Dreuw,  B. D. Dunietz,  T. R. Furlani,  
 Chao-Ping Hsu,  Yousung Jung,  Jing Kong,  D. S. Lambrecht,  WanZhen Liang,  
 C. Ochsenfeld,  V. A. Rassolov,  L. V. Slipchenko,  J. E. Subotnik,  
 T. Van Voorhis,  J. M. Herbert,  A. I. Krylov,  P. M. W. Gill,  M. Head-Gordon

 Contributors to earlier versions of Q-Chem not listed above: 
 R. D. Adamson,  B. Austin,  J. Baker,  G. J. O. Beran,  K. Brandhorst,  
 S. T. Brown,  E. F. C. Byrd,  A. K. Chakraborty,  C.-L. Cheng,  
 Siu Hung Chien,  D. M. Chipman,  D. L. Crittenden,  H. Dachsel,  
 R. J. Doerksen,  A. D. Dutoi,  L. Fusti-Molnar,  W. A. Goddard III,  
 A. Golubeva-Zadorozhnaya,  S. R. Gwaltney,  G. Hawkins,  A. Heyden,  
 S. Hirata,  G. Kedziora,  F. J. Keil,  C. Kelley,  Jihan Kim,  R. A. King,  
 R. Z. Khaliullin,  P. P. Korambath,  W. Kurlancheek,  A. M. Lee,  M. S. Lee,  
 S. V. Levchenko,  Ching Yeh Lin,  D. Liotard,  R. C. Lochan,  I. Lotan,  
 P. E. Maslen,  N. Nair,  D. P. O'Neill,  D. Neuhauser,  E. Neuscamman,  
 C. M. Oana,  R. Olson,  B. Peters,  R. Peverati,  P. A. Pieniazek,  
 Y. M. Rhee,  J. Ritchie,  M. A. Rohrdanz,  E. Rosta,  N. J. Russ,  
 H. F. Schaefer III,  N. E. Schultz,  N. Shenvi,  A. C. Simmonett,  A. Sodt,  
 D. Stuck,  K. S. Thanthiriwatte,  V. Vanovschi,  Tao Wang,  A. Warshel,  
 C. F. Williams,  Q. Wu,  X. Xu,  W. Zhang

 Please cite Q-Chem as follows:
 Y. Shao et al., Mol. Phys. 113, 184-215 (2015)
 DOI: 10.1080/00268976.2014.952696

 Q-Chem 5.1.1 for Intel X86 EM64T Linux

 Parts of Q-Chem use Armadillo 8.300.2 (Tropical Shenanigans).
 http://arma.sourceforge.net/

 Q-Chem begins on Wed Oct 14 14:28:48 2020  

Host: n0087.mhg0
0

     Scratch files written to /local/scratch/users/yhljason/ClCN_XYG3_aug-cc-pcVTZ.inp20201014142608//
The previous job contains 0 fragments, simply inherited here
Input Ideriv = 2
Curr. Ideriv = -1
Max.  Ideriv = 2

Checking the input file for inconsistencies... 	...done.

--------------------------------------------------------------
User input:
--------------------------------------------------------------
$molecule
read
$end

$rem

jobtype sp
exchange XYG3
xc_grid 000099000590
basis aug-cc-pcVTZ
max_scf_cycles 200
thresh 14
scf_convergence 8
mem_total 128000
cc_memory 96000
cc_backend xm
mem_static 1500
symmetry false
sym_ignore true
scf_guess read
unrestricted false
scf_algorithm gdm
n_frozen_core 0
$end

$multipole_field
XX 0.0001
$end


--------------------------------------------------------------
 ----------------------------------------------------------------
             Standard Nuclear Orientation (Angstroms)
    I     Atom           X                Y                Z
 ----------------------------------------------------------------
    1      Cl      0.0000000000     0.0000000000     1.6290000000
    2      C       0.0000000000     0.0000000000     0.0000000000
    3      N       0.0000000000     0.0000000000    -1.1606000000
 ----------------------------------------------------------------
 Nuclear Repulsion Energy =    74.8583213206 hartrees
 There are       15 alpha and       15 beta electrons
 Requested basis set is aug-cc-pCVTZ
 There are 61 shells and 193 basis functions

 Total QAlloc Memory Limit 128000 MB
 Mega-Array Size      1467 MB
 MEM_STATIC part      1500 MB

                       Distance Matrix (Angstroms)
             Cl(  1)   C (  2)
   C (  2)  1.629000
   N (  3)  2.789600  1.160600
 
 Applying Cartesian multipole field
    Component          Value
    ---------          -----
     (2,0,0)        1.00000E-04
 A cutoff of  1.0D-14 yielded   1824 shell pairs
 There are     18326 function pairs (     25489 Cartesian)
 
 -------------------------------------------------------
 OpenMP Integral Computing Module                       
 Release: version 1.0, May 2013, Q-Chem Inc. Pittsburgh 
 -------------------------------------------------------
 Integral Job Info:
 Integral job number is                      11
 Integral operator is                         1
 short-range coefficients                     0
 long-range coefficients              100000000
 Omega coefficients                           0
 if combine SR and LR in K                    0
 Integral screening is                        0
 Integral computing path is                   2
 max size of driver memory is            800000
 size of driver memory is                776718
 size of scratch memory is             29531563
 max col of scratch BK array              10000
 max len of scratch array in speh3          662
 max len of scratch index in speh4           32
 max int batch size is                      520
 min int batch size is                       52
 fixed nKL is                                31
 max L of basis functions is                  3
 order of int derivative is                   0
 number of shells is                         61
 number of basis is                         227
 number of cartesian basis is               227
 number of contracted shell pairs          1824
 number of primitive shell pairs           7952
 maxK2 (contraction) of shell pair          169
 max number of K2 of shell pair               1
 max number of CS2 of shell pair            227
 max number of PS2 of shell pair           1014
 mem total for path MDJ                  604144
 -------------------------------------------------------
 Smallest overlap matrix eigenvalue = 1.26E-04
 Guess MOs from SCF MO coefficient file
 Reading MOs from coefficient file
 Reading MOs from coefficient file
 A restricted hybrid HF-DFT SCF calculation will be
 performed using Geometric Direct Minimization
 Exchange:     0.2000 Hartree-Fock + 0.0800 Slater + 0.7200 B88
 Correlation:  0.1900 VWN1RPA + 0.8100 LYP
 Using Euler-Maclaurin-Lebedev (99,590) quadrature formula
 SCF converges when RMS gradient is below 1.0E-08
Using Q-Chem read-in guess as SCF_GUESS READ specified.

 using 8 threads for integral computing
 -------------------------------------------------------
 OpenMP Integral computing Module                
 Release: version 2.0, May 2017, Q-Chem Inc. Pleasanton 
 -------------------------------------------------------
TIMEINFO->: J/JK contribution 44.35 sec.
 -------------------------------------------------------
 OpenMP BLAS3 based DFT computing Module                
 Release: version 1.0, May 2013, Q-Chem Inc. Pittsburgh 
 -------------------------------------------------------
 ---------------------------------------
  Cycle       Energy        RMS Gradient
 ---------------------------------------
    1    -553.0941803234      3.40E-04 Normal BFGS step
TIMEINFO->: J/JK contribution 45.07 sec.
    2    -553.0941807132      7.83E-05 Normal BFGS step
TIMEINFO->: J/JK contribution 41.85 sec.
    3    -553.0941807613      1.43E-04 Normal BFGS step
TIMEINFO->: J/JK contribution 42.00 sec.
    4    -553.0941807545      1.40E-04 Line search: overstep
TIMEINFO->: J/JK contribution 42.17 sec.
    5    -553.0941807807      2.22E-05 Normal BFGS step
TIMEINFO->: J/JK contribution 41.69 sec.
    6    -553.0941807850      1.77E-05 Normal BFGS step
TIMEINFO->: J/JK contribution 41.36 sec.
    7    -553.0941807863      8.66E-06 Normal BFGS step
TIMEINFO->: J/JK contribution 40.95 sec.
    8    -553.0941807865      3.66E-06 Normal BFGS step
TIMEINFO->: J/JK contribution 41.54 sec.
    9    -553.0941807866      5.08E-07 Normal BFGS step
TIMEINFO->: J/JK contribution 40.81 sec.
   10    -553.0941807866      2.49E-07 Normal BFGS step
TIMEINFO->: J/JK contribution 40.48 sec.
   11    -553.0941807866      1.09E-08 Normal BFGS step
TIMEINFO->: J/JK contribution 36.53 sec.
   GDM::WARNING energy changes are now smaller than effective accuracy.
   GDM::        calculation will continue, but THRESH should be increased
   GDM::        or SCF_CONVERGENCE decreased.
   GDM::        effective_thresh =   1.500000000000000E-010
   12    -553.0941807866      2.21E-09 Convergence criterion met
 ---------------------------------------
 B3LYP orbitals are now ready for the XYG3 calculation.
 XYG3 energy = Exch (0.8033 HF  - 0.0140 Slater + 0.2107 Becke88) + 
               Corr (0.6789 LYP + 0.3211 MP2)
 SCF time:  CPU 575.43 s  wall 72.72 s
 SCF   energy in the final basis set = -552.65848089
 Total energy in the final basis set = -552.65848089
 
 Components of the MP2 correlation energy:
        aaaa  correlation energy  =        -0.1660113262 au
        abab  correlation energy  =        -0.9598902344 au
        bbbb  correlation energy  =        -0.1660113262 au
        singles contribution not yet available for XYG3

 Total  XYG3        total energy  =      -553.0733141126 au

 
 --------------------------------------------------------------
 
                    Orbital Energies (a.u.)
 --------------------------------------------------------------
 
 Alpha MOs
 -- Occupied --
******* -14.351 -10.282  -9.549  -7.311  -7.301  -7.301  -0.972
 -0.913  -0.588  -0.449  -0.449  -0.399  -0.344  -0.343
 -- Virtual --
 -0.039  -0.007  -0.007   0.006   0.030   0.040   0.042   0.072
  0.078   0.079   0.135   0.145   0.145   0.153   0.155   0.158
  0.189   0.273   0.273   0.282   0.296   0.297   0.352   0.353
  0.370   0.372   0.373   0.441   0.479   0.479   0.528   0.529
  0.536   0.552   0.628   0.628   0.648   0.648   0.658   0.681
  0.682   0.726   0.813   0.813   0.840   0.840   0.888   0.922
  0.923   0.935   1.044   1.044   1.050   1.050   1.104   1.115
  1.115   1.189   1.275   1.275   1.320   1.321   1.451   1.451
  1.474   1.477   1.477   1.545   1.604   1.604   1.716   1.788
  1.788   1.852   1.937   1.937   2.041   2.042   2.085   2.178
  2.179   2.182   2.182   2.278   2.394   2.395   2.559   2.559
  2.663   2.663   2.665   2.665   2.722   2.898   2.919   2.919
  3.052   3.052   3.131   3.131   3.167   3.322   3.322   3.345
  3.345   3.526   3.574   3.574   3.598   3.988   4.176   4.177
  4.407   4.590   4.594   4.594   4.813   4.813   5.081   5.081
  5.216   5.216   5.232   5.754   5.861   5.861   7.087   9.641
  9.641   9.736   9.736  10.134  11.980  11.980  12.502  14.992
 14.992  16.262  16.570  17.793  20.435  20.435  20.979  22.519
 35.631  35.631  35.635  35.635  35.641  35.641  35.654  38.165
 38.165  38.262  38.262  38.562  40.334  40.334  40.483  40.483
 40.919  45.058  45.058  45.109  45.109  45.295  53.495  53.495
 54.079  79.696  79.696  80.817  84.711 102.502 107.471 107.471
108.057 115.008
 --------------------------------------------------------------
 
          Ground-State Mulliken Net Atomic Charges

     Atom                 Charge (a.u.)
  ----------------------------------------
      1 Cl                    0.188790
      2 C                     0.182580
      3 N                    -0.371370
  ----------------------------------------
  Sum of atomic charges =    -0.000000

 -----------------------------------------------------------------
                    Cartesian Multipole Moments
 -----------------------------------------------------------------
    Charge (ESU x 10^10)
                -0.0000
    Dipole Moment (Debye)
         X       0.0000      Y      -0.0000      Z       3.0018
       Tot       3.0018
    Quadrupole Moments (Debye-Ang)
        XX     -23.1041     XY      -0.0000     YY     -23.0945
        XZ      -0.0000     YZ       0.0000     ZZ     -23.2273
    Octopole Moments (Debye-Ang^2)
       XXX      -0.0000    XXY       0.0000    XYY      -0.0000
       YYY       0.0000    XXZ     -12.9155    XYZ       0.0000
       YYZ     -12.9100    XZZ       0.0000    YZZ      -0.0000
       ZZZ     -25.3716
    Hexadecapole Moments (Debye-Ang^3)
      XXXX     -24.6804   XXXY       0.0000   XXYY      -8.2210
      XYYY       0.0000   YYYY     -24.6458   XXXZ      -0.0000
      XXYZ       0.0000   XYYZ      -0.0000   YYYZ       0.0000
      XXZZ     -49.0062   XYZZ      -0.0000   YYZZ     -48.9820
      XZZZ       0.0000   YZZZ       0.0000   ZZZZ    -244.8576
 -----------------------------------------------------------------
Archival summary:
1\1\n0087.mhg0\SP\ProcedureUnspecified\BasisUnspecified\l111\yhljason\WedOct1414:31:042020WedOct1414:31:042020\0\\#,ProcedureUnspecified,BasisUnspecified,\\0,1\Cl\C,1,1.629\N,2,1.1606,1,180\\\@

 Total job time:  135.76s(wall), 1065.13s(cpu) 
 Wed Oct 14 14:31:04 2020

        *************************************************************
        *                                                           *
        *  Thank you very much for using Q-Chem.  Have a nice day.  *
        *                                                           *
        *************************************************************


 
User input: 3 of 7 
 
Q-Chem Developer Version!
                  Welcome to Q-Chem
     A Quantum Leap Into The Future Of Chemistry


 Q-Chem 5.1, Q-Chem, Inc., Pleasanton, CA (2018)

 Yihan Shao,  Zhengting Gan,  E. Epifanovsky,  A. T. B. Gilbert,  M. Wormit,  
 J. Kussmann,  A. W. Lange,  A. Behn,  Jia Deng,  Xintian Feng,  D. Ghosh,  
 M. Goldey,  P. R. Horn,  L. D. Jacobson,  I. Kaliman,  T. Kus,  A. Landau,  
 Jie Liu,  E. I. Proynov,  R. M. Richard,  R. P. Steele,  E. J. Sundstrom,  
 H. L. Woodcock III,  P. M. Zimmerman,  D. Zuev,  B. Albrecht,  E. Alguire,  
 S. A. Baeppler,  D. Barton,  Z. Benda,  Y. A. Bernard,  E. J. Berquist,  
 K. B. Bravaya,  H. Burton,  D. Casanova,  Chun-Min Chang,  Yunqing Chen,  
 A. Chien,  K. D. Closser,  M. P. Coons,  S. Coriani,  S. Dasgupta,  
 A. L. Dempwolff,  M. Diedenhofen,  Hainam Do,  R. G. Edgar,  Po-Tung Fang,  
 S. Faraji,  S. Fatehi,  Qingguo Feng,  K. D. Fenk,  J. Fosso-Tande,  
 Qinghui Ge,  A. Ghysels,  G. Gidofalvi,  J. Gomes,  J. Gonthier,  A. Gunina,  
 D. Hait,  M. W. D. Hanson-Heine,  P. H. P. Harbach,  A. W. Hauser,  
 J. E. Herr,  E. G. Hohenstein,  Z. C. Holden,  Kerwin Hui,  B. C. Huynh,  
 T.-C. Jagau,  Hyunjun Ji,  B. Kaduk,  K. Khistyaev,  Jaehoon Kim,  
 P. Klunzinger,  K. Koh,  D. Kosenkov,  L. Koulias,  T. Kowalczyk,  
 C. M. Krauter,  A. Kunitsa,  Ka Un Lao,  A. Laurent,  K. V. Lawler,  
 Joonho Lee,  D. Lefrancois,  S. Lehtola,  D. S. Levine,  Yi-Pei Li,  
 You-Sheng Lin,  Fenglai Liu,  E. Livshits,  A. Luenser,  P. Manohar,  
 E. Mansoor,  S. F. Manzer,  Shan-Ping Mao,  Yuezhi Mao,  N. Mardirossian,  
 A. V. Marenich,  T. Markovich,  L. A. Martinez-Martinez,  S. A. Maurer,  
 N. J. Mayhall,  S. C. McKenzie,  J.-M. Mewes,  A. F. Morrison,  
 J. W. Mullinax,  K. Nanda,  T. S. Nguyen-Beck,  R. Olivares-Amaya,  
 J. A. Parkhill,  T. M. Perrine,  F. Plasser,  P. Pokhilko,  S. Prager,  
 A. Prociuk,  E. Ramos,  D. R. Rehn,  F. Rob,  M. Schneider,  N. Sergueev,  
 S. M. Sharada,  S. Sharma,  D. W. Small,  T. Stauch,  T. Stein,  
 Yu-Chuan Su,  A. J. W. Thom,  A. Tkatchenko,  T. Tsuchimochi,  N. M. Tubman,  
 L. Vogt,  M. L. Vidal,  O. Vydrov,  M. A. Watson,  J. Wenzel,  
 M. de Wergifosse,  T. A. Wesolowski,  A. White,  J. Witte,  A. Yamada,  
 Jun Yang,  K. Yao,  S. Yeganeh,  S. R. Yost,  Zhi-Qiang You,  A. Zech,  
 Igor Ying Zhang,  Xing Zhang,  Yan Zhao,  Ying Zhu,  B. R. Brooks,  
 G. K. L. Chan,  C. J. Cramer,  M. S. Gordon,  W. J. Hehre,  A. Klamt,  
 M. W. Schmidt,  C. D. Sherrill,  D. G. Truhlar,  A. Aspuru-Guzik,  R. Baer,  
 A. T. Bell,  N. A. Besley,  Jeng-Da Chai,  A. E. DePrince, III,  
 R. A. DiStasio Jr.,  A. Dreuw,  B. D. Dunietz,  T. R. Furlani,  
 Chao-Ping Hsu,  Yousung Jung,  Jing Kong,  D. S. Lambrecht,  WanZhen Liang,  
 C. Ochsenfeld,  V. A. Rassolov,  L. V. Slipchenko,  J. E. Subotnik,  
 T. Van Voorhis,  J. M. Herbert,  A. I. Krylov,  P. M. W. Gill,  M. Head-Gordon

 Contributors to earlier versions of Q-Chem not listed above: 
 R. D. Adamson,  B. Austin,  J. Baker,  G. J. O. Beran,  K. Brandhorst,  
 S. T. Brown,  E. F. C. Byrd,  A. K. Chakraborty,  C.-L. Cheng,  
 Siu Hung Chien,  D. M. Chipman,  D. L. Crittenden,  H. Dachsel,  
 R. J. Doerksen,  A. D. Dutoi,  L. Fusti-Molnar,  W. A. Goddard III,  
 A. Golubeva-Zadorozhnaya,  S. R. Gwaltney,  G. Hawkins,  A. Heyden,  
 S. Hirata,  G. Kedziora,  F. J. Keil,  C. Kelley,  Jihan Kim,  R. A. King,  
 R. Z. Khaliullin,  P. P. Korambath,  W. Kurlancheek,  A. M. Lee,  M. S. Lee,  
 S. V. Levchenko,  Ching Yeh Lin,  D. Liotard,  R. C. Lochan,  I. Lotan,  
 P. E. Maslen,  N. Nair,  D. P. O'Neill,  D. Neuhauser,  E. Neuscamman,  
 C. M. Oana,  R. Olson,  B. Peters,  R. Peverati,  P. A. Pieniazek,  
 Y. M. Rhee,  J. Ritchie,  M. A. Rohrdanz,  E. Rosta,  N. J. Russ,  
 H. F. Schaefer III,  N. E. Schultz,  N. Shenvi,  A. C. Simmonett,  A. Sodt,  
 D. Stuck,  K. S. Thanthiriwatte,  V. Vanovschi,  Tao Wang,  A. Warshel,  
 C. F. Williams,  Q. Wu,  X. Xu,  W. Zhang

 Please cite Q-Chem as follows:
 Y. Shao et al., Mol. Phys. 113, 184-215 (2015)
 DOI: 10.1080/00268976.2014.952696

 Q-Chem 5.1.1 for Intel X86 EM64T Linux

 Parts of Q-Chem use Armadillo 8.300.2 (Tropical Shenanigans).
 http://arma.sourceforge.net/

 Q-Chem begins on Wed Oct 14 14:31:04 2020  

Host: n0087.mhg0
0

     Scratch files written to /local/scratch/users/yhljason/ClCN_XYG3_aug-cc-pcVTZ.inp20201014142608//
The previous job contains 0 fragments, simply inherited here
Input Ideriv = 2
Curr. Ideriv = -1
Max.  Ideriv = 2

Checking the input file for inconsistencies... 	...done.

--------------------------------------------------------------
User input:
--------------------------------------------------------------
$molecule
read
$end

$rem

jobtype sp
exchange XYG3
xc_grid 000099000590
basis aug-cc-pcVTZ
max_scf_cycles 200
thresh 14
scf_convergence 8
mem_total 128000
cc_memory 96000
cc_backend xm
mem_static 1500
symmetry false
sym_ignore true
scf_guess read
unrestricted false
scf_algorithm gdm
n_frozen_core 0
$end

$multipole_field
XX -0.0001
$end


--------------------------------------------------------------
 ----------------------------------------------------------------
             Standard Nuclear Orientation (Angstroms)
    I     Atom           X                Y                Z
 ----------------------------------------------------------------
    1      Cl      0.0000000000     0.0000000000     1.6290000000
    2      C       0.0000000000     0.0000000000     0.0000000000
    3      N       0.0000000000     0.0000000000    -1.1606000000
 ----------------------------------------------------------------
 Nuclear Repulsion Energy =    74.8583213206 hartrees
 There are       15 alpha and       15 beta electrons
 Requested basis set is aug-cc-pCVTZ
 There are 61 shells and 193 basis functions

 Total QAlloc Memory Limit 128000 MB
 Mega-Array Size      1467 MB
 MEM_STATIC part      1500 MB

                       Distance Matrix (Angstroms)
             Cl(  1)   C (  2)
   C (  2)  1.629000
   N (  3)  2.789600  1.160600
 
 Applying Cartesian multipole field
    Component          Value
    ---------          -----
     (2,0,0)       -1.00000E-04
 A cutoff of  1.0D-14 yielded   1824 shell pairs
 There are     18326 function pairs (     25489 Cartesian)
 
 -------------------------------------------------------
 OpenMP Integral Computing Module                       
 Release: version 1.0, May 2013, Q-Chem Inc. Pittsburgh 
 -------------------------------------------------------
 Integral Job Info:
 Integral job number is                      11
 Integral operator is                         1
 short-range coefficients                     0
 long-range coefficients              100000000
 Omega coefficients                           0
 if combine SR and LR in K                    0
 Integral screening is                        0
 Integral computing path is                   2
 max size of driver memory is            800000
 size of driver memory is                776718
 size of scratch memory is             29531563
 max col of scratch BK array              10000
 max len of scratch array in speh3          662
 max len of scratch index in speh4           32
 max int batch size is                      520
 min int batch size is                       52
 fixed nKL is                                31
 max L of basis functions is                  3
 order of int derivative is                   0
 number of shells is                         61
 number of basis is                         227
 number of cartesian basis is               227
 number of contracted shell pairs          1824
 number of primitive shell pairs           7952
 maxK2 (contraction) of shell pair          169
 max number of K2 of shell pair               1
 max number of CS2 of shell pair            227
 max number of PS2 of shell pair           1014
 mem total for path MDJ                  604144
 -------------------------------------------------------
 Smallest overlap matrix eigenvalue = 1.26E-04
 Guess MOs from SCF MO coefficient file
 Reading MOs from coefficient file
 Reading MOs from coefficient file
 A restricted hybrid HF-DFT SCF calculation will be
 performed using Geometric Direct Minimization
 Exchange:     0.2000 Hartree-Fock + 0.0800 Slater + 0.7200 B88
 Correlation:  0.1900 VWN1RPA + 0.8100 LYP
 Using Euler-Maclaurin-Lebedev (99,590) quadrature formula
 SCF converges when RMS gradient is below 1.0E-08
Using Q-Chem read-in guess as SCF_GUESS READ specified.

 using 8 threads for integral computing
 -------------------------------------------------------
 OpenMP Integral computing Module                
 Release: version 2.0, May 2017, Q-Chem Inc. Pleasanton 
 -------------------------------------------------------
TIMEINFO->: J/JK contribution 45.54 sec.
 -------------------------------------------------------
 OpenMP BLAS3 based DFT computing Module                
 Release: version 1.0, May 2013, Q-Chem Inc. Pittsburgh 
 -------------------------------------------------------
 ---------------------------------------
  Cycle       Energy        RMS Gradient
 ---------------------------------------
    1    -553.0907453221      6.86E-04 Normal BFGS step
TIMEINFO->: J/JK contribution 43.59 sec.
    2    -553.0907468827      1.56E-04 Normal BFGS step
TIMEINFO->: J/JK contribution 42.57 sec.
    3    -553.0907470737      2.87E-04 Normal BFGS step
TIMEINFO->: J/JK contribution 42.22 sec.
    4    -553.0907470468      2.80E-04 Line search: overstep
TIMEINFO->: J/JK contribution 42.57 sec.
    5    -553.0907471512      4.44E-05 Normal BFGS step
TIMEINFO->: J/JK contribution 43.28 sec.
    6    -553.0907471687      3.60E-05 Normal BFGS step
TIMEINFO->: J/JK contribution 41.52 sec.
    7    -553.0907471739      1.73E-05 Normal BFGS step
TIMEINFO->: J/JK contribution 42.29 sec.
    8    -553.0907471744      7.38E-06 Normal BFGS step
TIMEINFO->: J/JK contribution 42.05 sec.
    9    -553.0907471749      1.01E-06 Normal BFGS step
TIMEINFO->: J/JK contribution 40.99 sec.
   10    -553.0907471749      4.98E-07 Normal BFGS step
TIMEINFO->: J/JK contribution 42.00 sec.
   11    -553.0907471749      2.14E-08 Normal BFGS step
TIMEINFO->: J/JK contribution 37.48 sec.
   GDM::WARNING energy changes are now smaller than effective accuracy.
   GDM::        calculation will continue, but THRESH should be increased
   GDM::        or SCF_CONVERGENCE decreased.
   GDM::        effective_thresh =   1.500000000000000E-010
   12    -553.0907471749      4.37E-09 Convergence criterion met
 ---------------------------------------
 B3LYP orbitals are now ready for the XYG3 calculation.
 XYG3 energy = Exch (0.8033 HF  - 0.0140 Slater + 0.2107 Becke88) + 
               Corr (0.6789 LYP + 0.3211 MP2)
 SCF time:  CPU 583.31 s  wall 73.61 s
 SCF   energy in the final basis set = -552.65503868
 Total energy in the final basis set = -552.65503868
 
 Components of the MP2 correlation energy:
        aaaa  correlation energy  =        -0.1660129993 au
        abab  correlation energy  =        -0.9599211181 au
        bbbb  correlation energy  =        -0.1660129993 au
        singles contribution not yet available for XYG3

 Total  XYG3        total energy  =      -553.0698828907 au

 
 --------------------------------------------------------------
 
                    Orbital Energies (a.u.)
 --------------------------------------------------------------
 
 Alpha MOs
 -- Occupied --
******* -14.350 -10.281  -9.548  -7.310  -7.301  -7.301  -0.971
 -0.913  -0.587  -0.449  -0.449  -0.399  -0.343  -0.343
 -- Virtual --
 -0.038  -0.007  -0.006   0.008   0.032   0.044   0.045   0.074
  0.081   0.082   0.137   0.146   0.146   0.157   0.159   0.162
  0.192   0.275   0.275   0.283   0.297   0.298   0.354   0.355
  0.371   0.374   0.375   0.442   0.481   0.481   0.529   0.530
  0.538   0.554   0.629   0.629   0.649   0.649   0.660   0.683
  0.683   0.727   0.814   0.814   0.841   0.841   0.889   0.923
  0.924   0.935   1.045   1.045   1.051   1.051   1.105   1.115
  1.116   1.190   1.276   1.276   1.321   1.322   1.452   1.452
  1.475   1.478   1.478   1.546   1.605   1.605   1.717   1.789
  1.789   1.852   1.937   1.937   2.042   2.042   2.086   2.179
  2.179   2.183   2.183   2.278   2.395   2.395   2.560   2.560
  2.664   2.664   2.666   2.666   2.723   2.899   2.920   2.920
  3.053   3.053   3.132   3.132   3.168   3.323   3.323   3.346
  3.346   3.527   3.575   3.575   3.599   3.988   4.177   4.177
  4.408   4.590   4.594   4.594   4.813   4.813   5.082   5.082
  5.217   5.217   5.232   5.754   5.861   5.861   7.087   9.641
  9.641   9.737   9.737  10.134  11.981  11.981  12.503  14.993
 14.993  16.263  16.570  17.794  20.436  20.436  20.980  22.519
 35.632  35.632  35.635  35.635  35.641  35.641  35.654  38.166
 38.166  38.263  38.263  38.563  40.334  40.334  40.484  40.484
 40.919  45.059  45.059  45.109  45.109  45.295  53.496  53.496
 54.080  79.697  79.697  80.817  84.711 102.503 107.472 107.472
108.058 115.009
 --------------------------------------------------------------
 
          Ground-State Mulliken Net Atomic Charges

     Atom                 Charge (a.u.)
  ----------------------------------------
      1 Cl                    0.188387
      2 C                     0.184647
      3 N                    -0.373034
  ----------------------------------------
  Sum of atomic charges =    -0.000000

 -----------------------------------------------------------------
                    Cartesian Multipole Moments
 -----------------------------------------------------------------
    Charge (ESU x 10^10)
                -0.0000
    Dipole Moment (Debye)
         X      -0.0000      Y      -0.0000      Z       3.0025
       Tot       3.0025
    Quadrupole Moments (Debye-Ang)
        XX     -23.0792     XY       0.0000     YY     -23.0887
        XZ      -0.0000     YZ       0.0000     ZZ     -23.2239
    Octopole Moments (Debye-Ang^2)
       XXX      -0.0000    XXY       0.0000    XYY      -0.0000
       YYY       0.0000    XXZ     -12.9021    XYZ       0.0000
       YYZ     -12.9075    XZZ      -0.0000    YZZ      -0.0000
       ZZZ     -25.3636
    Hexadecapole Moments (Debye-Ang^3)
      XXXX     -24.5848   XXXY       0.0000   XXYY      -8.2006
      XYYY       0.0000   YYYY     -24.6190   XXXZ      -0.0000
      XXYZ       0.0000   XYYZ      -0.0000   YYYZ       0.0000
      XXZZ     -48.9393   XYZZ       0.0000   YYZZ     -48.9633
      XZZZ       0.0000   YZZZ       0.0000   ZZZZ    -244.8005
 -----------------------------------------------------------------
Archival summary:
1\1\n0087.mhg0\SP\ProcedureUnspecified\BasisUnspecified\l111\yhljason\WedOct1414:33:202020WedOct1414:33:202020\0\\#,ProcedureUnspecified,BasisUnspecified,\\0,1\Cl\C,1,1.629\N,2,1.1606,1,180\\\@

 Total job time:  136.20s(wall), 1068.83s(cpu) 
 Wed Oct 14 14:33:20 2020

        *************************************************************
        *                                                           *
        *  Thank you very much for using Q-Chem.  Have a nice day.  *
        *                                                           *
        *************************************************************


 
User input: 4 of 7 
 
Q-Chem Developer Version!
                  Welcome to Q-Chem
     A Quantum Leap Into The Future Of Chemistry


 Q-Chem 5.1, Q-Chem, Inc., Pleasanton, CA (2018)

 Yihan Shao,  Zhengting Gan,  E. Epifanovsky,  A. T. B. Gilbert,  M. Wormit,  
 J. Kussmann,  A. W. Lange,  A. Behn,  Jia Deng,  Xintian Feng,  D. Ghosh,  
 M. Goldey,  P. R. Horn,  L. D. Jacobson,  I. Kaliman,  T. Kus,  A. Landau,  
 Jie Liu,  E. I. Proynov,  R. M. Richard,  R. P. Steele,  E. J. Sundstrom,  
 H. L. Woodcock III,  P. M. Zimmerman,  D. Zuev,  B. Albrecht,  E. Alguire,  
 S. A. Baeppler,  D. Barton,  Z. Benda,  Y. A. Bernard,  E. J. Berquist,  
 K. B. Bravaya,  H. Burton,  D. Casanova,  Chun-Min Chang,  Yunqing Chen,  
 A. Chien,  K. D. Closser,  M. P. Coons,  S. Coriani,  S. Dasgupta,  
 A. L. Dempwolff,  M. Diedenhofen,  Hainam Do,  R. G. Edgar,  Po-Tung Fang,  
 S. Faraji,  S. Fatehi,  Qingguo Feng,  K. D. Fenk,  J. Fosso-Tande,  
 Qinghui Ge,  A. Ghysels,  G. Gidofalvi,  J. Gomes,  J. Gonthier,  A. Gunina,  
 D. Hait,  M. W. D. Hanson-Heine,  P. H. P. Harbach,  A. W. Hauser,  
 J. E. Herr,  E. G. Hohenstein,  Z. C. Holden,  Kerwin Hui,  B. C. Huynh,  
 T.-C. Jagau,  Hyunjun Ji,  B. Kaduk,  K. Khistyaev,  Jaehoon Kim,  
 P. Klunzinger,  K. Koh,  D. Kosenkov,  L. Koulias,  T. Kowalczyk,  
 C. M. Krauter,  A. Kunitsa,  Ka Un Lao,  A. Laurent,  K. V. Lawler,  
 Joonho Lee,  D. Lefrancois,  S. Lehtola,  D. S. Levine,  Yi-Pei Li,  
 You-Sheng Lin,  Fenglai Liu,  E. Livshits,  A. Luenser,  P. Manohar,  
 E. Mansoor,  S. F. Manzer,  Shan-Ping Mao,  Yuezhi Mao,  N. Mardirossian,  
 A. V. Marenich,  T. Markovich,  L. A. Martinez-Martinez,  S. A. Maurer,  
 N. J. Mayhall,  S. C. McKenzie,  J.-M. Mewes,  A. F. Morrison,  
 J. W. Mullinax,  K. Nanda,  T. S. Nguyen-Beck,  R. Olivares-Amaya,  
 J. A. Parkhill,  T. M. Perrine,  F. Plasser,  P. Pokhilko,  S. Prager,  
 A. Prociuk,  E. Ramos,  D. R. Rehn,  F. Rob,  M. Schneider,  N. Sergueev,  
 S. M. Sharada,  S. Sharma,  D. W. Small,  T. Stauch,  T. Stein,  
 Yu-Chuan Su,  A. J. W. Thom,  A. Tkatchenko,  T. Tsuchimochi,  N. M. Tubman,  
 L. Vogt,  M. L. Vidal,  O. Vydrov,  M. A. Watson,  J. Wenzel,  
 M. de Wergifosse,  T. A. Wesolowski,  A. White,  J. Witte,  A. Yamada,  
 Jun Yang,  K. Yao,  S. Yeganeh,  S. R. Yost,  Zhi-Qiang You,  A. Zech,  
 Igor Ying Zhang,  Xing Zhang,  Yan Zhao,  Ying Zhu,  B. R. Brooks,  
 G. K. L. Chan,  C. J. Cramer,  M. S. Gordon,  W. J. Hehre,  A. Klamt,  
 M. W. Schmidt,  C. D. Sherrill,  D. G. Truhlar,  A. Aspuru-Guzik,  R. Baer,  
 A. T. Bell,  N. A. Besley,  Jeng-Da Chai,  A. E. DePrince, III,  
 R. A. DiStasio Jr.,  A. Dreuw,  B. D. Dunietz,  T. R. Furlani,  
 Chao-Ping Hsu,  Yousung Jung,  Jing Kong,  D. S. Lambrecht,  WanZhen Liang,  
 C. Ochsenfeld,  V. A. Rassolov,  L. V. Slipchenko,  J. E. Subotnik,  
 T. Van Voorhis,  J. M. Herbert,  A. I. Krylov,  P. M. W. Gill,  M. Head-Gordon

 Contributors to earlier versions of Q-Chem not listed above: 
 R. D. Adamson,  B. Austin,  J. Baker,  G. J. O. Beran,  K. Brandhorst,  
 S. T. Brown,  E. F. C. Byrd,  A. K. Chakraborty,  C.-L. Cheng,  
 Siu Hung Chien,  D. M. Chipman,  D. L. Crittenden,  H. Dachsel,  
 R. J. Doerksen,  A. D. Dutoi,  L. Fusti-Molnar,  W. A. Goddard III,  
 A. Golubeva-Zadorozhnaya,  S. R. Gwaltney,  G. Hawkins,  A. Heyden,  
 S. Hirata,  G. Kedziora,  F. J. Keil,  C. Kelley,  Jihan Kim,  R. A. King,  
 R. Z. Khaliullin,  P. P. Korambath,  W. Kurlancheek,  A. M. Lee,  M. S. Lee,  
 S. V. Levchenko,  Ching Yeh Lin,  D. Liotard,  R. C. Lochan,  I. Lotan,  
 P. E. Maslen,  N. Nair,  D. P. O'Neill,  D. Neuhauser,  E. Neuscamman,  
 C. M. Oana,  R. Olson,  B. Peters,  R. Peverati,  P. A. Pieniazek,  
 Y. M. Rhee,  J. Ritchie,  M. A. Rohrdanz,  E. Rosta,  N. J. Russ,  
 H. F. Schaefer III,  N. E. Schultz,  N. Shenvi,  A. C. Simmonett,  A. Sodt,  
 D. Stuck,  K. S. Thanthiriwatte,  V. Vanovschi,  Tao Wang,  A. Warshel,  
 C. F. Williams,  Q. Wu,  X. Xu,  W. Zhang

 Please cite Q-Chem as follows:
 Y. Shao et al., Mol. Phys. 113, 184-215 (2015)
 DOI: 10.1080/00268976.2014.952696

 Q-Chem 5.1.1 for Intel X86 EM64T Linux

 Parts of Q-Chem use Armadillo 8.300.2 (Tropical Shenanigans).
 http://arma.sourceforge.net/

 Q-Chem begins on Wed Oct 14 14:33:20 2020  

Host: n0087.mhg0
0

     Scratch files written to /local/scratch/users/yhljason/ClCN_XYG3_aug-cc-pcVTZ.inp20201014142608//
The previous job contains 0 fragments, simply inherited here
Input Ideriv = 2
Curr. Ideriv = -1
Max.  Ideriv = 2

Checking the input file for inconsistencies... 	...done.

--------------------------------------------------------------
User input:
--------------------------------------------------------------
$molecule
read
$end

$rem

jobtype sp
exchange XYG3
xc_grid 000099000590
basis aug-cc-pcVTZ
max_scf_cycles 200
thresh 14
scf_convergence 8
mem_total 128000
cc_memory 96000
cc_backend xm
mem_static 1500
symmetry false
sym_ignore true
scf_guess read
unrestricted false
scf_algorithm gdm
n_frozen_core 0
$end

$multipole_field
YY 0.0001
$end


--------------------------------------------------------------
 ----------------------------------------------------------------
             Standard Nuclear Orientation (Angstroms)
    I     Atom           X                Y                Z
 ----------------------------------------------------------------
    1      Cl      0.0000000000     0.0000000000     1.6290000000
    2      C       0.0000000000     0.0000000000     0.0000000000
    3      N       0.0000000000     0.0000000000    -1.1606000000
 ----------------------------------------------------------------
 Nuclear Repulsion Energy =    74.8583213206 hartrees
 There are       15 alpha and       15 beta electrons
 Requested basis set is aug-cc-pCVTZ
 There are 61 shells and 193 basis functions

 Total QAlloc Memory Limit 128000 MB
 Mega-Array Size      1467 MB
 MEM_STATIC part      1500 MB

                       Distance Matrix (Angstroms)
             Cl(  1)   C (  2)
   C (  2)  1.629000
   N (  3)  2.789600  1.160600
 
 Applying Cartesian multipole field
    Component          Value
    ---------          -----
     (0,2,0)        1.00000E-04
 A cutoff of  1.0D-14 yielded   1824 shell pairs
 There are     18326 function pairs (     25489 Cartesian)
 
 -------------------------------------------------------
 OpenMP Integral Computing Module                       
 Release: version 1.0, May 2013, Q-Chem Inc. Pittsburgh 
 -------------------------------------------------------
 Integral Job Info:
 Integral job number is                      11
 Integral operator is                         1
 short-range coefficients                     0
 long-range coefficients              100000000
 Omega coefficients                           0
 if combine SR and LR in K                    0
 Integral screening is                        0
 Integral computing path is                   2
 max size of driver memory is            800000
 size of driver memory is                776718
 size of scratch memory is             29531563
 max col of scratch BK array              10000
 max len of scratch array in speh3          662
 max len of scratch index in speh4           32
 max int batch size is                      520
 min int batch size is                       52
 fixed nKL is                                31
 max L of basis functions is                  3
 order of int derivative is                   0
 number of shells is                         61
 number of basis is                         227
 number of cartesian basis is               227
 number of contracted shell pairs          1824
 number of primitive shell pairs           7952
 maxK2 (contraction) of shell pair          169
 max number of K2 of shell pair               1
 max number of CS2 of shell pair            227
 max number of PS2 of shell pair           1014
 mem total for path MDJ                  604144
 -------------------------------------------------------
 Smallest overlap matrix eigenvalue = 1.26E-04
 Guess MOs from SCF MO coefficient file
 Reading MOs from coefficient file
 Reading MOs from coefficient file
 A restricted hybrid HF-DFT SCF calculation will be
 performed using Geometric Direct Minimization
 Exchange:     0.2000 Hartree-Fock + 0.0800 Slater + 0.7200 B88
 Correlation:  0.1900 VWN1RPA + 0.8100 LYP
 Using Euler-Maclaurin-Lebedev (99,590) quadrature formula
 SCF converges when RMS gradient is below 1.0E-08
Using Q-Chem read-in guess as SCF_GUESS READ specified.

 using 8 threads for integral computing
 -------------------------------------------------------
 OpenMP Integral computing Module                
 Release: version 2.0, May 2017, Q-Chem Inc. Pleasanton 
 -------------------------------------------------------
TIMEINFO->: J/JK contribution 43.63 sec.
 -------------------------------------------------------
 OpenMP BLAS3 based DFT computing Module                
 Release: version 1.0, May 2013, Q-Chem Inc. Pittsburgh 
 -------------------------------------------------------
 ---------------------------------------
  Cycle       Energy        RMS Gradient
 ---------------------------------------
    1    -553.0941796482      4.53E-04 Normal BFGS step
TIMEINFO->: J/JK contribution 43.50 sec.
    2    -553.0941805003      1.51E-04 Normal BFGS step
TIMEINFO->: J/JK contribution 42.13 sec.
    3    -553.0941807209      2.41E-04 Normal BFGS step
TIMEINFO->: J/JK contribution 42.09 sec.
    4    -553.0941806534      2.76E-04 Line search: overstep
TIMEINFO->: J/JK contribution 41.88 sec.
    5    -553.0941807729      6.74E-05 Normal BFGS step
TIMEINFO->: J/JK contribution 41.81 sec.
    6    -553.0941807844      2.41E-05 Normal BFGS step
TIMEINFO->: J/JK contribution 41.58 sec.
    7    -553.0941807858      1.70E-05 Normal BFGS step
TIMEINFO->: J/JK contribution 41.70 sec.
    8    -553.0941807865      3.33E-06 Normal BFGS step
TIMEINFO->: J/JK contribution 40.82 sec.
    9    -553.0941807866      1.17E-06 Normal BFGS step
TIMEINFO->: J/JK contribution 40.56 sec.
   10    -553.0941807866      2.13E-07 Normal BFGS step
TIMEINFO->: J/JK contribution 40.06 sec.
   11    -553.0941807866      3.43E-08 Normal BFGS step
TIMEINFO->: J/JK contribution 39.80 sec.
   GDM::WARNING energy changes are now smaller than effective accuracy.
   GDM::        calculation will continue, but THRESH should be increased
   GDM::        or SCF_CONVERGENCE decreased.
   GDM::        effective_thresh =   1.500000000000000E-010
   12    -553.0941807866      5.80E-09 Convergence criterion met
 ---------------------------------------
 B3LYP orbitals are now ready for the XYG3 calculation.
 XYG3 energy = Exch (0.8033 HF  - 0.0140 Slater + 0.2107 Becke88) + 
               Corr (0.6789 LYP + 0.3211 MP2)
 SCF time:  CPU 576.34 s  wall 72.72 s
 SCF   energy in the final basis set = -552.65848089
 Total energy in the final basis set = -552.65848089
 
 Components of the MP2 correlation energy:
        aaaa  correlation energy  =        -0.1660113262 au
        abab  correlation energy  =        -0.9598902341 au
        bbbb  correlation energy  =        -0.1660113262 au
        singles contribution not yet available for XYG3

 Total  XYG3        total energy  =      -553.0733141107 au

 
 --------------------------------------------------------------
 
                    Orbital Energies (a.u.)
 --------------------------------------------------------------
 
 Alpha MOs
 -- Occupied --
******* -14.351 -10.282  -9.549  -7.311  -7.301  -7.301  -0.972
 -0.913  -0.588  -0.449  -0.449  -0.399  -0.344  -0.343
 -- Virtual --
 -0.039  -0.007  -0.007   0.006   0.030   0.040   0.042   0.072
  0.078   0.079   0.135   0.145   0.145   0.153   0.155   0.158
  0.189   0.273   0.273   0.282   0.296   0.297   0.352   0.353
  0.370   0.372   0.373   0.441   0.479   0.479   0.528   0.529
  0.536   0.552   0.628   0.628   0.648   0.648   0.658   0.681
  0.682   0.726   0.813   0.813   0.840   0.840   0.888   0.922
  0.923   0.935   1.044   1.044   1.050   1.050   1.104   1.115
  1.115   1.189   1.275   1.275   1.320   1.321   1.451   1.451
  1.474   1.477   1.477   1.545   1.604   1.604   1.716   1.788
  1.788   1.852   1.937   1.937   2.041   2.042   2.085   2.178
  2.179   2.182   2.182   2.278   2.394   2.395   2.559   2.559
  2.663   2.663   2.665   2.665   2.722   2.898   2.919   2.919
  3.052   3.052   3.131   3.131   3.167   3.322   3.322   3.345
  3.345   3.526   3.574   3.574   3.598   3.988   4.176   4.177
  4.407   4.590   4.594   4.594   4.813   4.813   5.081   5.081
  5.216   5.216   5.232   5.754   5.861   5.861   7.087   9.641
  9.641   9.736   9.736  10.134  11.980  11.980  12.502  14.992
 14.992  16.262  16.570  17.793  20.435  20.435  20.979  22.519
 35.631  35.631  35.635  35.635  35.641  35.641  35.654  38.165
 38.165  38.262  38.262  38.562  40.334  40.334  40.483  40.483
 40.919  45.058  45.058  45.109  45.109  45.295  53.495  53.495
 54.079  79.696  79.696  80.817  84.711 102.502 107.471 107.471
108.057 115.008
 --------------------------------------------------------------
 
          Ground-State Mulliken Net Atomic Charges

     Atom                 Charge (a.u.)
  ----------------------------------------
      1 Cl                    0.188790
      2 C                     0.182580
      3 N                    -0.371370
  ----------------------------------------
  Sum of atomic charges =    -0.000000

 -----------------------------------------------------------------
                    Cartesian Multipole Moments
 -----------------------------------------------------------------
    Charge (ESU x 10^10)
                -0.0000
    Dipole Moment (Debye)
         X      -0.0000      Y       0.0000      Z       3.0018
       Tot       3.0018
    Quadrupole Moments (Debye-Ang)
        XX     -23.0945     XY       0.0000     YY     -23.1041
        XZ       0.0000     YZ      -0.0000     ZZ     -23.2273
    Octopole Moments (Debye-Ang^2)
       XXX      -0.0000    XXY       0.0000    XYY      -0.0000
       YYY       0.0000    XXZ     -12.9100    XYZ       0.0000
       YYZ     -12.9155    XZZ       0.0000    YZZ      -0.0000
       ZZZ     -25.3716
    Hexadecapole Moments (Debye-Ang^3)
      XXXX     -24.6458   XXXY       0.0000   XXYY      -8.2210
      XYYY       0.0000   YYYY     -24.6804   XXXZ      -0.0000
      XXYZ       0.0000   XYYZ      -0.0000   YYYZ       0.0000
      XXZZ     -48.9820   XYZZ      -0.0000   YYZZ     -49.0062
      XZZZ       0.0000   YZZZ       0.0000   ZZZZ    -244.8576
 -----------------------------------------------------------------
Archival summary:
1\1\n0087.mhg0\SP\ProcedureUnspecified\BasisUnspecified\l111\yhljason\WedOct1414:35:362020WedOct1414:35:362020\0\\#,ProcedureUnspecified,BasisUnspecified,\\0,1\Cl\C,1,1.629\N,2,1.1606,1,180\\\@

 Total job time:  135.14s(wall), 1061.25s(cpu) 
 Wed Oct 14 14:35:36 2020

        *************************************************************
        *                                                           *
        *  Thank you very much for using Q-Chem.  Have a nice day.  *
        *                                                           *
        *************************************************************


 
User input: 5 of 7 
 
Q-Chem Developer Version!
                  Welcome to Q-Chem
     A Quantum Leap Into The Future Of Chemistry


 Q-Chem 5.1, Q-Chem, Inc., Pleasanton, CA (2018)

 Yihan Shao,  Zhengting Gan,  E. Epifanovsky,  A. T. B. Gilbert,  M. Wormit,  
 J. Kussmann,  A. W. Lange,  A. Behn,  Jia Deng,  Xintian Feng,  D. Ghosh,  
 M. Goldey,  P. R. Horn,  L. D. Jacobson,  I. Kaliman,  T. Kus,  A. Landau,  
 Jie Liu,  E. I. Proynov,  R. M. Richard,  R. P. Steele,  E. J. Sundstrom,  
 H. L. Woodcock III,  P. M. Zimmerman,  D. Zuev,  B. Albrecht,  E. Alguire,  
 S. A. Baeppler,  D. Barton,  Z. Benda,  Y. A. Bernard,  E. J. Berquist,  
 K. B. Bravaya,  H. Burton,  D. Casanova,  Chun-Min Chang,  Yunqing Chen,  
 A. Chien,  K. D. Closser,  M. P. Coons,  S. Coriani,  S. Dasgupta,  
 A. L. Dempwolff,  M. Diedenhofen,  Hainam Do,  R. G. Edgar,  Po-Tung Fang,  
 S. Faraji,  S. Fatehi,  Qingguo Feng,  K. D. Fenk,  J. Fosso-Tande,  
 Qinghui Ge,  A. Ghysels,  G. Gidofalvi,  J. Gomes,  J. Gonthier,  A. Gunina,  
 D. Hait,  M. W. D. Hanson-Heine,  P. H. P. Harbach,  A. W. Hauser,  
 J. E. Herr,  E. G. Hohenstein,  Z. C. Holden,  Kerwin Hui,  B. C. Huynh,  
 T.-C. Jagau,  Hyunjun Ji,  B. Kaduk,  K. Khistyaev,  Jaehoon Kim,  
 P. Klunzinger,  K. Koh,  D. Kosenkov,  L. Koulias,  T. Kowalczyk,  
 C. M. Krauter,  A. Kunitsa,  Ka Un Lao,  A. Laurent,  K. V. Lawler,  
 Joonho Lee,  D. Lefrancois,  S. Lehtola,  D. S. Levine,  Yi-Pei Li,  
 You-Sheng Lin,  Fenglai Liu,  E. Livshits,  A. Luenser,  P. Manohar,  
 E. Mansoor,  S. F. Manzer,  Shan-Ping Mao,  Yuezhi Mao,  N. Mardirossian,  
 A. V. Marenich,  T. Markovich,  L. A. Martinez-Martinez,  S. A. Maurer,  
 N. J. Mayhall,  S. C. McKenzie,  J.-M. Mewes,  A. F. Morrison,  
 J. W. Mullinax,  K. Nanda,  T. S. Nguyen-Beck,  R. Olivares-Amaya,  
 J. A. Parkhill,  T. M. Perrine,  F. Plasser,  P. Pokhilko,  S. Prager,  
 A. Prociuk,  E. Ramos,  D. R. Rehn,  F. Rob,  M. Schneider,  N. Sergueev,  
 S. M. Sharada,  S. Sharma,  D. W. Small,  T. Stauch,  T. Stein,  
 Yu-Chuan Su,  A. J. W. Thom,  A. Tkatchenko,  T. Tsuchimochi,  N. M. Tubman,  
 L. Vogt,  M. L. Vidal,  O. Vydrov,  M. A. Watson,  J. Wenzel,  
 M. de Wergifosse,  T. A. Wesolowski,  A. White,  J. Witte,  A. Yamada,  
 Jun Yang,  K. Yao,  S. Yeganeh,  S. R. Yost,  Zhi-Qiang You,  A. Zech,  
 Igor Ying Zhang,  Xing Zhang,  Yan Zhao,  Ying Zhu,  B. R. Brooks,  
 G. K. L. Chan,  C. J. Cramer,  M. S. Gordon,  W. J. Hehre,  A. Klamt,  
 M. W. Schmidt,  C. D. Sherrill,  D. G. Truhlar,  A. Aspuru-Guzik,  R. Baer,  
 A. T. Bell,  N. A. Besley,  Jeng-Da Chai,  A. E. DePrince, III,  
 R. A. DiStasio Jr.,  A. Dreuw,  B. D. Dunietz,  T. R. Furlani,  
 Chao-Ping Hsu,  Yousung Jung,  Jing Kong,  D. S. Lambrecht,  WanZhen Liang,  
 C. Ochsenfeld,  V. A. Rassolov,  L. V. Slipchenko,  J. E. Subotnik,  
 T. Van Voorhis,  J. M. Herbert,  A. I. Krylov,  P. M. W. Gill,  M. Head-Gordon

 Contributors to earlier versions of Q-Chem not listed above: 
 R. D. Adamson,  B. Austin,  J. Baker,  G. J. O. Beran,  K. Brandhorst,  
 S. T. Brown,  E. F. C. Byrd,  A. K. Chakraborty,  C.-L. Cheng,  
 Siu Hung Chien,  D. M. Chipman,  D. L. Crittenden,  H. Dachsel,  
 R. J. Doerksen,  A. D. Dutoi,  L. Fusti-Molnar,  W. A. Goddard III,  
 A. Golubeva-Zadorozhnaya,  S. R. Gwaltney,  G. Hawkins,  A. Heyden,  
 S. Hirata,  G. Kedziora,  F. J. Keil,  C. Kelley,  Jihan Kim,  R. A. King,  
 R. Z. Khaliullin,  P. P. Korambath,  W. Kurlancheek,  A. M. Lee,  M. S. Lee,  
 S. V. Levchenko,  Ching Yeh Lin,  D. Liotard,  R. C. Lochan,  I. Lotan,  
 P. E. Maslen,  N. Nair,  D. P. O'Neill,  D. Neuhauser,  E. Neuscamman,  
 C. M. Oana,  R. Olson,  B. Peters,  R. Peverati,  P. A. Pieniazek,  
 Y. M. Rhee,  J. Ritchie,  M. A. Rohrdanz,  E. Rosta,  N. J. Russ,  
 H. F. Schaefer III,  N. E. Schultz,  N. Shenvi,  A. C. Simmonett,  A. Sodt,  
 D. Stuck,  K. S. Thanthiriwatte,  V. Vanovschi,  Tao Wang,  A. Warshel,  
 C. F. Williams,  Q. Wu,  X. Xu,  W. Zhang

 Please cite Q-Chem as follows:
 Y. Shao et al., Mol. Phys. 113, 184-215 (2015)
 DOI: 10.1080/00268976.2014.952696

 Q-Chem 5.1.1 for Intel X86 EM64T Linux

 Parts of Q-Chem use Armadillo 8.300.2 (Tropical Shenanigans).
 http://arma.sourceforge.net/

 Q-Chem begins on Wed Oct 14 14:35:36 2020  

Host: n0087.mhg0
0

     Scratch files written to /local/scratch/users/yhljason/ClCN_XYG3_aug-cc-pcVTZ.inp20201014142608//
The previous job contains 0 fragments, simply inherited here
Input Ideriv = 2
Curr. Ideriv = -1
Max.  Ideriv = 2

Checking the input file for inconsistencies... 	...done.

--------------------------------------------------------------
User input:
--------------------------------------------------------------
$molecule
read
$end

$rem

jobtype sp
exchange XYG3
xc_grid 000099000590
basis aug-cc-pcVTZ
max_scf_cycles 200
thresh 14
scf_convergence 8
mem_total 128000
cc_memory 96000
cc_backend xm
mem_static 1500
symmetry false
sym_ignore true
scf_guess read
unrestricted false
scf_algorithm gdm
n_frozen_core 0
$end

$multipole_field
YY -0.0001
$end


--------------------------------------------------------------
 ----------------------------------------------------------------
             Standard Nuclear Orientation (Angstroms)
    I     Atom           X                Y                Z
 ----------------------------------------------------------------
    1      Cl      0.0000000000     0.0000000000     1.6290000000
    2      C       0.0000000000     0.0000000000     0.0000000000
    3      N       0.0000000000     0.0000000000    -1.1606000000
 ----------------------------------------------------------------
 Nuclear Repulsion Energy =    74.8583213206 hartrees
 There are       15 alpha and       15 beta electrons
 Requested basis set is aug-cc-pCVTZ
 There are 61 shells and 193 basis functions

 Total QAlloc Memory Limit 128000 MB
 Mega-Array Size      1467 MB
 MEM_STATIC part      1500 MB

                       Distance Matrix (Angstroms)
             Cl(  1)   C (  2)
   C (  2)  1.629000
   N (  3)  2.789600  1.160600
 
 Applying Cartesian multipole field
    Component          Value
    ---------          -----
     (0,2,0)       -1.00000E-04
 A cutoff of  1.0D-14 yielded   1824 shell pairs
 There are     18326 function pairs (     25489 Cartesian)
 
 -------------------------------------------------------
 OpenMP Integral Computing Module                       
 Release: version 1.0, May 2013, Q-Chem Inc. Pittsburgh 
 -------------------------------------------------------
 Integral Job Info:
 Integral job number is                      11
 Integral operator is                         1
 short-range coefficients                     0
 long-range coefficients              100000000
 Omega coefficients                           0
 if combine SR and LR in K                    0
 Integral screening is                        0
 Integral computing path is                   2
 max size of driver memory is            800000
 size of driver memory is                776718
 size of scratch memory is             29531563
 max col of scratch BK array              10000
 max len of scratch array in speh3          662
 max len of scratch index in speh4           32
 max int batch size is                      520
 min int batch size is                       52
 fixed nKL is                                31
 max L of basis functions is                  3
 order of int derivative is                   0
 number of shells is                         61
 number of basis is                         227
 number of cartesian basis is               227
 number of contracted shell pairs          1824
 number of primitive shell pairs           7952
 maxK2 (contraction) of shell pair          169
 max number of K2 of shell pair               1
 max number of CS2 of shell pair            227
 max number of PS2 of shell pair           1014
 mem total for path MDJ                  604144
 -------------------------------------------------------
 Smallest overlap matrix eigenvalue = 1.26E-04
 Guess MOs from SCF MO coefficient file
 Reading MOs from coefficient file
 Reading MOs from coefficient file
 A restricted hybrid HF-DFT SCF calculation will be
 performed using Geometric Direct Minimization
 Exchange:     0.2000 Hartree-Fock + 0.0800 Slater + 0.7200 B88
 Correlation:  0.1900 VWN1RPA + 0.8100 LYP
 Using Euler-Maclaurin-Lebedev (99,590) quadrature formula
 SCF converges when RMS gradient is below 1.0E-08
Using Q-Chem read-in guess as SCF_GUESS READ specified.

 using 8 threads for integral computing
 -------------------------------------------------------
 OpenMP Integral computing Module                
 Release: version 2.0, May 2017, Q-Chem Inc. Pleasanton 
 -------------------------------------------------------
TIMEINFO->: J/JK contribution 44.20 sec.
 -------------------------------------------------------
 OpenMP BLAS3 based DFT computing Module                
 Release: version 1.0, May 2013, Q-Chem Inc. Pittsburgh 
 -------------------------------------------------------
 ---------------------------------------
  Cycle       Energy        RMS Gradient
 ---------------------------------------
    1    -553.0907453221      6.86E-04 Normal BFGS step
TIMEINFO->: J/JK contribution 44.55 sec.
    2    -553.0907468827      1.56E-04 Normal BFGS step
TIMEINFO->: J/JK contribution 43.90 sec.
    3    -553.0907470737      2.87E-04 Normal BFGS step
TIMEINFO->: J/JK contribution 41.91 sec.
    4    -553.0907470468      2.80E-04 Line search: overstep
TIMEINFO->: J/JK contribution 42.34 sec.
    5    -553.0907471512      4.44E-05 Normal BFGS step
TIMEINFO->: J/JK contribution 43.91 sec.
    6    -553.0907471687      3.60E-05 Normal BFGS step
TIMEINFO->: J/JK contribution 42.44 sec.
    7    -553.0907471739      1.73E-05 Normal BFGS step
TIMEINFO->: J/JK contribution 44.37 sec.
    8    -553.0907471744      7.38E-06 Normal BFGS step
TIMEINFO->: J/JK contribution 41.07 sec.
    9    -553.0907471749      1.01E-06 Normal BFGS step
TIMEINFO->: J/JK contribution 40.55 sec.
   10    -553.0907471749      4.98E-07 Normal BFGS step
TIMEINFO->: J/JK contribution 41.33 sec.
   11    -553.0907471749      2.14E-08 Normal BFGS step
TIMEINFO->: J/JK contribution 38.11 sec.
   GDM::WARNING energy changes are now smaller than effective accuracy.
   GDM::        calculation will continue, but THRESH should be increased
   GDM::        or SCF_CONVERGENCE decreased.
   GDM::        effective_thresh =   1.500000000000000E-010
   12    -553.0907471749      4.37E-09 Convergence criterion met
 ---------------------------------------
 B3LYP orbitals are now ready for the XYG3 calculation.
 XYG3 energy = Exch (0.8033 HF  - 0.0140 Slater + 0.2107 Becke88) + 
               Corr (0.6789 LYP + 0.3211 MP2)
 SCF time:  CPU 585.98 s  wall 73.89 s
 SCF   energy in the final basis set = -552.65503868
 Total energy in the final basis set = -552.65503868
 
 Components of the MP2 correlation energy:
        aaaa  correlation energy  =        -0.1660129993 au
        abab  correlation energy  =        -0.9599211181 au
        bbbb  correlation energy  =        -0.1660129993 au
        singles contribution not yet available for XYG3

 Total  XYG3        total energy  =      -553.0698828907 au

 
 --------------------------------------------------------------
 
                    Orbital Energies (a.u.)
 --------------------------------------------------------------
 
 Alpha MOs
 -- Occupied --
******* -14.350 -10.281  -9.548  -7.310  -7.301  -7.301  -0.971
 -0.913  -0.587  -0.449  -0.449  -0.399  -0.343  -0.343
 -- Virtual --
 -0.038  -0.007  -0.006   0.008   0.032   0.044   0.045   0.074
  0.081   0.082   0.137   0.146   0.146   0.157   0.159   0.162
  0.192   0.275   0.275   0.283   0.297   0.298   0.354   0.355
  0.371   0.374   0.375   0.442   0.481   0.481   0.529   0.530
  0.538   0.554   0.629   0.629   0.649   0.649   0.660   0.683
  0.683   0.727   0.814   0.814   0.841   0.841   0.889   0.923
  0.924   0.935   1.045   1.045   1.051   1.051   1.105   1.115
  1.116   1.190   1.276   1.276   1.321   1.322   1.452   1.452
  1.475   1.478   1.478   1.546   1.605   1.605   1.717   1.789
  1.789   1.852   1.937   1.937   2.042   2.042   2.086   2.179
  2.179   2.183   2.183   2.278   2.395   2.395   2.560   2.560
  2.664   2.664   2.666   2.666   2.723   2.899   2.920   2.920
  3.053   3.053   3.132   3.132   3.168   3.323   3.323   3.346
  3.346   3.527   3.575   3.575   3.599   3.988   4.177   4.177
  4.408   4.590   4.594   4.594   4.813   4.813   5.082   5.082
  5.217   5.217   5.232   5.754   5.861   5.861   7.087   9.641
  9.641   9.737   9.737  10.134  11.981  11.981  12.503  14.993
 14.993  16.263  16.570  17.794  20.436  20.436  20.980  22.519
 35.632  35.632  35.635  35.635  35.641  35.641  35.654  38.166
 38.166  38.263  38.263  38.563  40.334  40.334  40.484  40.484
 40.919  45.059  45.059  45.109  45.109  45.295  53.496  53.496
 54.080  79.697  79.697  80.817  84.711 102.503 107.472 107.472
108.058 115.009
 --------------------------------------------------------------
 
          Ground-State Mulliken Net Atomic Charges

     Atom                 Charge (a.u.)
  ----------------------------------------
      1 Cl                    0.188387
      2 C                     0.184647
      3 N                    -0.373034
  ----------------------------------------
  Sum of atomic charges =    -0.000000

 -----------------------------------------------------------------
                    Cartesian Multipole Moments
 -----------------------------------------------------------------
    Charge (ESU x 10^10)
                -0.0000
    Dipole Moment (Debye)
         X       0.0000      Y      -0.0000      Z       3.0025
       Tot       3.0025
    Quadrupole Moments (Debye-Ang)
        XX     -23.0887     XY       0.0000     YY     -23.0792
        XZ       0.0000     YZ      -0.0000     ZZ     -23.2239
    Octopole Moments (Debye-Ang^2)
       XXX      -0.0000    XXY       0.0000    XYY      -0.0000
       YYY       0.0000    XXZ     -12.9075    XYZ       0.0000
       YYZ     -12.9021    XZZ       0.0000    YZZ      -0.0000
       ZZZ     -25.3636
    Hexadecapole Moments (Debye-Ang^3)
      XXXX     -24.6190   XXXY       0.0000   XXYY      -8.2006
      XYYY       0.0000   YYYY     -24.5848   XXXZ      -0.0000
      XXYZ      -0.0000   XYYZ      -0.0000   YYYZ       0.0000
      XXZZ     -48.9633   XYZZ      -0.0000   YYZZ     -48.9393
      XZZZ       0.0000   YZZZ       0.0000   ZZZZ    -244.8005
 -----------------------------------------------------------------
Archival summary:
1\1\n0087.mhg0\SP\ProcedureUnspecified\BasisUnspecified\l111\yhljason\WedOct1414:37:522020WedOct1414:37:522020\0\\#,ProcedureUnspecified,BasisUnspecified,\\0,1\Cl\C,1,1.629\N,2,1.1606,1,180\\\@

 Total job time:  136.48s(wall), 1071.63s(cpu) 
 Wed Oct 14 14:37:52 2020

        *************************************************************
        *                                                           *
        *  Thank you very much for using Q-Chem.  Have a nice day.  *
        *                                                           *
        *************************************************************


 
User input: 6 of 7 
 
Q-Chem Developer Version!
                  Welcome to Q-Chem
     A Quantum Leap Into The Future Of Chemistry


 Q-Chem 5.1, Q-Chem, Inc., Pleasanton, CA (2018)

 Yihan Shao,  Zhengting Gan,  E. Epifanovsky,  A. T. B. Gilbert,  M. Wormit,  
 J. Kussmann,  A. W. Lange,  A. Behn,  Jia Deng,  Xintian Feng,  D. Ghosh,  
 M. Goldey,  P. R. Horn,  L. D. Jacobson,  I. Kaliman,  T. Kus,  A. Landau,  
 Jie Liu,  E. I. Proynov,  R. M. Richard,  R. P. Steele,  E. J. Sundstrom,  
 H. L. Woodcock III,  P. M. Zimmerman,  D. Zuev,  B. Albrecht,  E. Alguire,  
 S. A. Baeppler,  D. Barton,  Z. Benda,  Y. A. Bernard,  E. J. Berquist,  
 K. B. Bravaya,  H. Burton,  D. Casanova,  Chun-Min Chang,  Yunqing Chen,  
 A. Chien,  K. D. Closser,  M. P. Coons,  S. Coriani,  S. Dasgupta,  
 A. L. Dempwolff,  M. Diedenhofen,  Hainam Do,  R. G. Edgar,  Po-Tung Fang,  
 S. Faraji,  S. Fatehi,  Qingguo Feng,  K. D. Fenk,  J. Fosso-Tande,  
 Qinghui Ge,  A. Ghysels,  G. Gidofalvi,  J. Gomes,  J. Gonthier,  A. Gunina,  
 D. Hait,  M. W. D. Hanson-Heine,  P. H. P. Harbach,  A. W. Hauser,  
 J. E. Herr,  E. G. Hohenstein,  Z. C. Holden,  Kerwin Hui,  B. C. Huynh,  
 T.-C. Jagau,  Hyunjun Ji,  B. Kaduk,  K. Khistyaev,  Jaehoon Kim,  
 P. Klunzinger,  K. Koh,  D. Kosenkov,  L. Koulias,  T. Kowalczyk,  
 C. M. Krauter,  A. Kunitsa,  Ka Un Lao,  A. Laurent,  K. V. Lawler,  
 Joonho Lee,  D. Lefrancois,  S. Lehtola,  D. S. Levine,  Yi-Pei Li,  
 You-Sheng Lin,  Fenglai Liu,  E. Livshits,  A. Luenser,  P. Manohar,  
 E. Mansoor,  S. F. Manzer,  Shan-Ping Mao,  Yuezhi Mao,  N. Mardirossian,  
 A. V. Marenich,  T. Markovich,  L. A. Martinez-Martinez,  S. A. Maurer,  
 N. J. Mayhall,  S. C. McKenzie,  J.-M. Mewes,  A. F. Morrison,  
 J. W. Mullinax,  K. Nanda,  T. S. Nguyen-Beck,  R. Olivares-Amaya,  
 J. A. Parkhill,  T. M. Perrine,  F. Plasser,  P. Pokhilko,  S. Prager,  
 A. Prociuk,  E. Ramos,  D. R. Rehn,  F. Rob,  M. Schneider,  N. Sergueev,  
 S. M. Sharada,  S. Sharma,  D. W. Small,  T. Stauch,  T. Stein,  
 Yu-Chuan Su,  A. J. W. Thom,  A. Tkatchenko,  T. Tsuchimochi,  N. M. Tubman,  
 L. Vogt,  M. L. Vidal,  O. Vydrov,  M. A. Watson,  J. Wenzel,  
 M. de Wergifosse,  T. A. Wesolowski,  A. White,  J. Witte,  A. Yamada,  
 Jun Yang,  K. Yao,  S. Yeganeh,  S. R. Yost,  Zhi-Qiang You,  A. Zech,  
 Igor Ying Zhang,  Xing Zhang,  Yan Zhao,  Ying Zhu,  B. R. Brooks,  
 G. K. L. Chan,  C. J. Cramer,  M. S. Gordon,  W. J. Hehre,  A. Klamt,  
 M. W. Schmidt,  C. D. Sherrill,  D. G. Truhlar,  A. Aspuru-Guzik,  R. Baer,  
 A. T. Bell,  N. A. Besley,  Jeng-Da Chai,  A. E. DePrince, III,  
 R. A. DiStasio Jr.,  A. Dreuw,  B. D. Dunietz,  T. R. Furlani,  
 Chao-Ping Hsu,  Yousung Jung,  Jing Kong,  D. S. Lambrecht,  WanZhen Liang,  
 C. Ochsenfeld,  V. A. Rassolov,  L. V. Slipchenko,  J. E. Subotnik,  
 T. Van Voorhis,  J. M. Herbert,  A. I. Krylov,  P. M. W. Gill,  M. Head-Gordon

 Contributors to earlier versions of Q-Chem not listed above: 
 R. D. Adamson,  B. Austin,  J. Baker,  G. J. O. Beran,  K. Brandhorst,  
 S. T. Brown,  E. F. C. Byrd,  A. K. Chakraborty,  C.-L. Cheng,  
 Siu Hung Chien,  D. M. Chipman,  D. L. Crittenden,  H. Dachsel,  
 R. J. Doerksen,  A. D. Dutoi,  L. Fusti-Molnar,  W. A. Goddard III,  
 A. Golubeva-Zadorozhnaya,  S. R. Gwaltney,  G. Hawkins,  A. Heyden,  
[...]
 XYG3 energy = Exch (0.8033 HF  - 0.0140 Slater + 0.2107 Becke88) + 
               Corr (0.6789 LYP + 0.3211 MP2)
 SCF time:  CPU 575.30 s  wall 72.51 s
 SCF   energy in the final basis set = -552.65848468
 Total energy in the final basis set = -552.65848468
 
 Components of the MP2 correlation energy:
        aaaa  correlation energy  =        -0.1660114428 au
        abab  correlation energy  =        -0.9599267263 au
        bbbb  correlation energy  =        -0.1660114428 au
        singles contribution not yet available for XYG3

 Total  XYG3        total energy  =      -553.0733296935 au

 
 --------------------------------------------------------------
 
                    Orbital Energies (a.u.)
 --------------------------------------------------------------
 
 Alpha MOs
 -- Occupied --
******* -14.351 -10.282  -9.550  -7.312  -7.302  -7.302  -0.972
 -0.914  -0.589  -0.450  -0.450  -0.400  -0.344  -0.344
 -- Virtual --
 -0.041  -0.008  -0.008   0.006   0.027   0.042   0.042   0.069
  0.078   0.078   0.133   0.145   0.145   0.154   0.154   0.158
  0.188   0.273   0.273   0.279   0.295   0.295   0.352   0.352
  0.368   0.372   0.372   0.440   0.479   0.479   0.527   0.527
  0.534   0.551   0.627   0.627   0.647   0.647   0.657   0.681
  0.681   0.725   0.813   0.813   0.839   0.839   0.886   0.922
  0.922   0.934   1.043   1.043   1.049   1.049   1.104   1.114
  1.114   1.189   1.274   1.274   1.320   1.320   1.451   1.451
  1.473   1.477   1.477   1.544   1.603   1.603   1.715   1.787
  1.787   1.850   1.936   1.936   2.041   2.041   2.084   2.178
  2.178   2.182   2.182   2.277   2.394   2.394   2.558   2.558
  2.663   2.663   2.664   2.664   2.721   2.897   2.919   2.919
  3.052   3.052   3.131   3.131   3.167   3.322   3.322   3.345
  3.345   3.525   3.574   3.574   3.598   3.987   4.176   4.176
  4.406   4.589   4.593   4.593   4.812   4.812   5.081   5.081
  5.216   5.216   5.231   5.753   5.860   5.860   7.086   9.640
  9.640   9.736   9.736  10.133  11.979  11.979  12.502  14.992
 14.992  16.262  16.569  17.793  20.434  20.434  20.979  22.518
 35.630  35.630  35.634  35.634  35.640  35.640  35.653  38.164
 38.164  38.262  38.262  38.562  40.333  40.333  40.482  40.482
 40.918  45.058  45.058  45.108  45.108  45.294  53.495  53.495
 54.078  79.695  79.695  80.816  84.710 102.501 107.470 107.470
108.056 115.008
 --------------------------------------------------------------
 
          Ground-State Mulliken Net Atomic Charges

     Atom                 Charge (a.u.)
  ----------------------------------------
      1 Cl                    0.187635
      2 C                     0.185933
      3 N                    -0.373568
  ----------------------------------------
  Sum of atomic charges =    -0.000000

 -----------------------------------------------------------------
                    Cartesian Multipole Moments
 -----------------------------------------------------------------
    Charge (ESU x 10^10)
                -0.0000
    Dipole Moment (Debye)
         X      -0.0000      Y       0.0000      Z       2.9869
       Tot       2.9869
    Quadrupole Moments (Debye-Ang)
        XX     -23.0934     XY       0.0000     YY     -23.0934
        XZ       0.0000     YZ       0.0000     ZZ     -23.3171
    Octopole Moments (Debye-Ang^2)
       XXX      -0.0000    XXY       0.0000    XYY      -0.0000
       YYY       0.0000    XXZ     -12.9209    XYZ       0.0000
       YYZ     -12.9209    XZZ      -0.0000    YZZ      -0.0000
       ZZZ     -25.5231
    Hexadecapole Moments (Debye-Ang^3)
      XXXX     -24.6424   XXXY       0.0000   XXYY      -8.2141
      XYYY       0.0000   YYYY     -24.6424   XXXZ      -0.0000
      XXYZ       0.0000   XYYZ      -0.0000   YYYZ       0.0000
      XXZZ     -49.0383   XYZZ      -0.0000   YYZZ     -49.0383
      XZZZ       0.0000   YZZZ       0.0000   ZZZZ    -245.6024
 -----------------------------------------------------------------
Archival summary:
1\1\n0087.mhg0\SP\ProcedureUnspecified\BasisUnspecified\l111\yhljason\WedOct1414:40:072020WedOct1414:40:072020\0\\#,ProcedureUnspecified,BasisUnspecified,\\0,1\Cl\C,1,1.629\N,2,1.1606,1,180\\\@

 Total job time:  134.63s(wall), 1057.53s(cpu) 
 Wed Oct 14 14:40:07 2020

        *************************************************************
        *                                                           *
        *  Thank you very much for using Q-Chem.  Have a nice day.  *
        *                                                           *
        *************************************************************


 
User input: 7 of 7 
 
Q-Chem Developer Version!
                  Welcome to Q-Chem
     A Quantum Leap Into The Future Of Chemistry


 Q-Chem 5.1, Q-Chem, Inc., Pleasanton, CA (2018)

 Yihan Shao,  Zhengting Gan,  E. Epifanovsky,  A. T. B. Gilbert,  M. Wormit,  
 J. Kussmann,  A. W. Lange,  A. Behn,  Jia Deng,  Xintian Feng,  D. Ghosh,  
 M. Goldey,  P. R. Horn,  L. D. Jacobson,  I. Kaliman,  T. Kus,  A. Landau,  
 Jie Liu,  E. I. Proynov,  R. M. Richard,  R. P. Steele,  E. J. Sundstrom,  
 H. L. Woodcock III,  P. M. Zimmerman,  D. Zuev,  B. Albrecht,  E. Alguire,  
 S. A. Baeppler,  D. Barton,  Z. Benda,  Y. A. Bernard,  E. J. Berquist,  
 K. B. Bravaya,  H. Burton,  D. Casanova,  Chun-Min Chang,  Yunqing Chen,  
 A. Chien,  K. D. Closser,  M. P. Coons,  S. Coriani,  S. Dasgupta,  
 A. L. Dempwolff,  M. Diedenhofen,  Hainam Do,  R. G. Edgar,  Po-Tung Fang,  
 S. Faraji,  S. Fatehi,  Qingguo Feng,  K. D. Fenk,  J. Fosso-Tande,  
 Qinghui Ge,  A. Ghysels,  G. Gidofalvi,  J. Gomes,  J. Gonthier,  A. Gunina,  
 D. Hait,  M. W. D. Hanson-Heine,  P. H. P. Harbach,  A. W. Hauser,  
 J. E. Herr,  E. G. Hohenstein,  Z. C. Holden,  Kerwin Hui,  B. C. Huynh,  
 T.-C. Jagau,  Hyunjun Ji,  B. Kaduk,  K. Khistyaev,  Jaehoon Kim,  
 P. Klunzinger,  K. Koh,  D. Kosenkov,  L. Koulias,  T. Kowalczyk,  
 C. M. Krauter,  A. Kunitsa,  Ka Un Lao,  A. Laurent,  K. V. Lawler,  
 Joonho Lee,  D. Lefrancois,  S. Lehtola,  D. S. Levine,  Yi-Pei Li,  
 You-Sheng Lin,  Fenglai Liu,  E. Livshits,  A. Luenser,  P. Manohar,  
 E. Mansoor,  S. F. Manzer,  Shan-Ping Mao,  Yuezhi Mao,  N. Mardirossian,  
 A. V. Marenich,  T. Markovich,  L. A. Martinez-Martinez,  S. A. Maurer,  
 N. J. Mayhall,  S. C. McKenzie,  J.-M. Mewes,  A. F. Morrison,  
 J. W. Mullinax,  K. Nanda,  T. S. Nguyen-Beck,  R. Olivares-Amaya,  
 J. A. Parkhill,  T. M. Perrine,  F. Plasser,  P. Pokhilko,  S. Prager,  
 A. Prociuk,  E. Ramos,  D. R. Rehn,  F. Rob,  M. Schneider,  N. Sergueev,  
 S. M. Sharada,  S. Sharma,  D. W. Small,  T. Stauch,  T. Stein,  
 Yu-Chuan Su,  A. J. W. Thom,  A. Tkatchenko,  T. Tsuchimochi,  N. M. Tubman,  
 L. Vogt,  M. L. Vidal,  O. Vydrov,  M. A. Watson,  J. Wenzel,  
 M. de Wergifosse,  T. A. Wesolowski,  A. White,  J. Witte,  A. Yamada,  
 Jun Yang,  K. Yao,  S. Yeganeh,  S. R. Yost,  Zhi-Qiang You,  A. Zech,  
 Igor Ying Zhang,  Xing Zhang,  Yan Zhao,  Ying Zhu,  B. R. Brooks,  
 G. K. L. Chan,  C. J. Cramer,  M. S. Gordon,  W. J. Hehre,  A. Klamt,  
 M. W. Schmidt,  C. D. Sherrill,  D. G. Truhlar,  A. Aspuru-Guzik,  R. Baer,  
 A. T. Bell,  N. A. Besley,  Jeng-Da Chai,  A. E. DePrince, III,  
 R. A. DiStasio Jr.,  A. Dreuw,  B. D. Dunietz,  T. R. Furlani,  
 Chao-Ping Hsu,  Yousung Jung,  Jing Kong,  D. S. Lambrecht,  WanZhen Liang,  
 C. Ochsenfeld,  V. A. Rassolov,  L. V. Slipchenko,  J. E. Subotnik,  
 T. Van Voorhis,  J. M. Herbert,  A. I. Krylov,  P. M. W. Gill,  M. Head-Gordon

 Contributors to earlier versions of Q-Chem not listed above: 
 R. D. Adamson,  B. Austin,  J. Baker,  G. J. O. Beran,  K. Brandhorst,  
 S. T. Brown,  E. F. C. Byrd,  A. K. Chakraborty,  C.-L. Cheng,  
 Siu Hung Chien,  D. M. Chipman,  D. L. Crittenden,  H. Dachsel,  
 R. J. Doerksen,  A. D. Dutoi,  L. Fusti-Molnar,  W. A. Goddard III,  
 A. Golubeva-Zadorozhnaya,  S. R. Gwaltney,  G. Hawkins,  A. Heyden,  
 S. Hirata,  G. Kedziora,  F. J. Keil,  C. Kelley,  Jihan Kim,  R. A. King,  
 R. Z. Khaliullin,  P. P. Korambath,  W. Kurlancheek,  A. M. Lee,  M. S. Lee,  
 S. V. Levchenko,  Ching Yeh Lin,  D. Liotard,  R. C. Lochan,  I. Lotan,  
 P. E. Maslen,  N. Nair,  D. P. O'Neill,  D. Neuhauser,  E. Neuscamman,  
 C. M. Oana,  R. Olson,  B. Peters,  R. Peverati,  P. A. Pieniazek,  
 Y. M. Rhee,  J. Ritchie,  M. A. Rohrdanz,  E. Rosta,  N. J. Russ,  
 H. F. Schaefer III,  N. E. Schultz,  N. Shenvi,  A. C. Simmonett,  A. Sodt,  
 D. Stuck,  K. S. Thanthiriwatte,  V. Vanovschi,  Tao Wang,  A. Warshel,  
 C. F. Williams,  Q. Wu,  X. Xu,  W. Zhang

 Please cite Q-Chem as follows:
 Y. Shao et al., Mol. Phys. 113, 184-215 (2015)
 DOI: 10.1080/00268976.2014.952696

 Q-Chem 5.1.1 for Intel X86 EM64T Linux

 Parts of Q-Chem use Armadillo 8.300.2 (Tropical Shenanigans).
 http://arma.sourceforge.net/

 Q-Chem begins on Wed Oct 14 14:40:07 2020  

Host: n0087.mhg0
0

     Scratch files written to /local/scratch/users/yhljason/ClCN_XYG3_aug-cc-pcVTZ.inp20201014142608//
The previous job contains 0 fragments, simply inherited here
Input Ideriv = 2
Curr. Ideriv = -1
Max.  Ideriv = 2

Checking the input file for inconsistencies... 	...done.

--------------------------------------------------------------
User input:
--------------------------------------------------------------
$molecule
read
$end

$rem

jobtype sp
exchange XYG3
xc_grid 000099000590
basis aug-cc-pcVTZ
max_scf_cycles 200
thresh 14
scf_convergence 8
mem_total 128000
cc_memory 96000
cc_backend xm
mem_static 1500
symmetry false
sym_ignore true
scf_guess read
unrestricted false
scf_algorithm gdm
n_frozen_core 0
$end

$multipole_field
ZZ -0.0001
$end

--------------------------------------------------------------
 ----------------------------------------------------------------
             Standard Nuclear Orientation (Angstroms)
    I     Atom           X                Y                Z
 ----------------------------------------------------------------
    1      Cl      0.0000000000     0.0000000000     1.6290000000
    2      C       0.0000000000     0.0000000000     0.0000000000
    3      N       0.0000000000     0.0000000000    -1.1606000000
 ----------------------------------------------------------------
 Nuclear Repulsion Energy =    74.8583213206 hartrees
 There are       15 alpha and       15 beta electrons
 Requested basis set is aug-cc-pCVTZ
 There are 61 shells and 193 basis functions

 Total QAlloc Memory Limit 128000 MB
 Mega-Array Size      1467 MB
 MEM_STATIC part      1500 MB

                       Distance Matrix (Angstroms)
             Cl(  1)   C (  2)
   C (  2)  1.629000
   N (  3)  2.789600  1.160600
 
 Applying Cartesian multipole field
    Component          Value
    ---------          -----
     (0,0,2)       -1.00000E-04
 Nucleus-field energy     =    -0.0194768888 hartrees
 A cutoff of  1.0D-14 yielded   1824 shell pairs
 There are     18326 function pairs (     25489 Cartesian)
 
 -------------------------------------------------------
 OpenMP Integral Computing Module                       
 Release: version 1.0, May 2013, Q-Chem Inc. Pittsburgh 
 -------------------------------------------------------
 Integral Job Info:
 Integral job number is                      11
 Integral operator is                         1
 short-range coefficients                     0
 long-range coefficients              100000000
 Omega coefficients                           0
 if combine SR and LR in K                    0
 Integral screening is                        0
 Integral computing path is                   2
 max size of driver memory is            800000
 size of driver memory is                776718
 size of scratch memory is             29531563
 max col of scratch BK array              10000
 max len of scratch array in speh3          662
 max len of scratch index in speh4           32
 max int batch size is                      520
 min int batch size is                       52
 fixed nKL is                                31
 max L of basis functions is                  3
 order of int derivative is                   0
 number of shells is                         61
 number of basis is                         227
 number of cartesian basis is               227
 number of contracted shell pairs          1824
 number of primitive shell pairs           7952
 maxK2 (contraction) of shell pair          169
 max number of K2 of shell pair               1
 max number of CS2 of shell pair            227
 max number of PS2 of shell pair           1014
 mem total for path MDJ                  604144
 -------------------------------------------------------
 Smallest overlap matrix eigenvalue = 1.26E-04
 Guess MOs from SCF MO coefficient file
 Reading MOs from coefficient file
 Reading MOs from coefficient file
 A restricted hybrid HF-DFT SCF calculation will be
 performed using Geometric Direct Minimization
 Exchange:     0.2000 Hartree-Fock + 0.0800 Slater + 0.7200 B88
 Correlation:  0.1900 VWN1RPA + 0.8100 LYP
 Using Euler-Maclaurin-Lebedev (99,590) quadrature formula
 SCF converges when RMS gradient is below 1.0E-08
Using Q-Chem read-in guess as SCF_GUESS READ specified.

 using 8 threads for integral computing
 -------------------------------------------------------
 OpenMP Integral computing Module                
 Release: version 2.0, May 2017, Q-Chem Inc. Pleasanton 
 -------------------------------------------------------
TIMEINFO->: J/JK contribution 43.84 sec.
 -------------------------------------------------------
 OpenMP BLAS3 based DFT computing Module                
 Release: version 1.0, May 2013, Q-Chem Inc. Pittsburgh 
 -------------------------------------------------------
 ---------------------------------------
  Cycle       Energy        RMS Gradient
 ---------------------------------------
    1    -553.0907265400      2.20E-03 Normal BFGS step
TIMEINFO->: J/JK contribution 44.54 sec.
    2    -553.0907278731      2.32E-03 Normal BFGS step
TIMEINFO->: J/JK contribution 42.97 sec.
    3    -553.0907384115      1.13E-03 Normal BFGS step
TIMEINFO->: J/JK contribution 42.14 sec.
    4    -553.0907361143      2.40E-03 Line search: overstep
TIMEINFO->: J/JK contribution 42.22 sec.
    5    -553.0907397915      3.27E-04 Normal BFGS step
TIMEINFO->: J/JK contribution 42.25 sec.
    6    -553.0907400553      9.01E-05 Normal BFGS step
TIMEINFO->: J/JK contribution 43.99 sec.
    7    -553.0907401352      3.58E-05 Normal BFGS step
TIMEINFO->: J/JK contribution 43.17 sec.
    8    -553.0907401434      6.60E-06 Normal BFGS step
TIMEINFO->: J/JK contribution 41.61 sec.
    9    -553.0907401439      5.59E-07 Normal BFGS step
TIMEINFO->: J/JK contribution 40.40 sec.
   10    -553.0907401440      1.79E-07 Normal BFGS step
TIMEINFO->: J/JK contribution 39.86 sec.
   11    -553.0907401440      3.18E-08 Normal BFGS step
TIMEINFO->: J/JK contribution 38.80 sec.
   GDM::WARNING energy changes are now smaller than effective accuracy.
   GDM::        calculation will continue, but THRESH should be increased
   GDM::        or SCF_CONVERGENCE decreased.
   GDM::        effective_thresh =   3.799921138164519E-009
   12    -553.0907401440      1.35E-08 Normal BFGS step
TIMEINFO->: J/JK contribution 37.31 sec.
   13    -553.0907401440      2.99E-09 Convergence criterion met
 ---------------------------------------
 B3LYP orbitals are now ready for the XYG3 calculation.
 XYG3 energy = Exch (0.8033 HF  - 0.0140 Slater + 0.2107 Becke88) + 
               Corr (0.6789 LYP + 0.3211 MP2)
 SCF time:  CPU 625.91 s  wall 79.56 s
 SCF   energy in the final basis set = -552.65504034
 Total energy in the final basis set = -552.65504034
 
 Components of the MP2 correlation energy:
        aaaa  correlation energy  =        -0.1660130359 au
        abab  correlation energy  =        -0.9598852849 au
        bbbb  correlation energy  =        -0.1660130359 au
        singles contribution not yet available for XYG3

 Total  XYG3        total energy  =      -553.0698730736 au

 
 --------------------------------------------------------------
 
                    Orbital Energies (a.u.)
 --------------------------------------------------------------
 
 Alpha MOs
 -- Occupied --
******* -14.349 -10.280  -9.548  -7.310  -7.300  -7.300  -0.970
 -0.912  -0.586  -0.448  -0.448  -0.398  -0.342  -0.342
 -- Virtual --
 -0.036  -0.006  -0.006   0.008   0.035   0.044   0.044   0.077
  0.083   0.083   0.140   0.146   0.146   0.158   0.158   0.162
  0.193   0.275   0.275   0.286   0.299   0.299   0.355   0.355
  0.373   0.375   0.375   0.443   0.481   0.481   0.531   0.531
  0.539   0.555   0.630   0.630   0.650   0.650   0.661   0.684
  0.684   0.729   0.814   0.814   0.841   0.841   0.890   0.924
  0.924   0.936   1.045   1.045   1.051   1.051   1.106   1.116
  1.116   1.191   1.276   1.276   1.322   1.322   1.453   1.453
  1.476   1.479   1.479   1.546   1.605   1.605   1.718   1.790
  1.790   1.854   1.938   1.938   2.043   2.043   2.086   2.180
  2.180   2.184   2.184   2.279   2.396   2.396   2.561   2.561
  2.665   2.665   2.667   2.667   2.723   2.900   2.920   2.920
  3.053   3.053   3.133   3.133   3.169   3.323   3.323   3.347
  3.347   3.528   3.576   3.576   3.600   3.989   4.178   4.178
  4.409   4.591   4.595   4.595   4.814   4.814   5.083   5.083
  5.218   5.218   5.233   5.755   5.862   5.862   7.088   9.642
  9.642   9.738   9.738  10.135  11.982  11.982  12.504  14.994
 14.994  16.264  16.571  17.795  20.436  20.436  20.981  22.520
 35.633  35.633  35.636  35.636  35.642  35.642  35.655  38.166
 38.166  38.264  38.264  38.564  40.335  40.335  40.484  40.484
 40.920  45.060  45.060  45.110  45.110  45.296  53.497  53.497
 54.081  79.697  79.697  80.818  84.712 102.504 107.472 107.472
108.058 115.010
 --------------------------------------------------------------
 
          Ground-State Mulliken Net Atomic Charges

     Atom                 Charge (a.u.)
  ----------------------------------------
      1 Cl                    0.189549
      2 C                     0.181291
      3 N                    -0.370840
  ----------------------------------------
  Sum of atomic charges =    -0.000000

 -----------------------------------------------------------------
                    Cartesian Multipole Moments
 -----------------------------------------------------------------
    Charge (ESU x 10^10)
                -0.0000
    Dipole Moment (Debye)
         X      -0.0000      Y       0.0000      Z       3.0174
       Tot       3.0174
    Quadrupole Moments (Debye-Ang)
        XX     -23.0899     XY       0.0000     YY     -23.0899
        XZ      -0.0000     YZ       0.0000     ZZ     -23.1344
    Octopole Moments (Debye-Ang^2)
       XXX      -0.0000    XXY       0.0000    XYY      -0.0000
       YYY       0.0000    XXZ     -12.8967    XYZ       0.0000
       YYZ     -12.8967    XZZ       0.0000    YZZ      -0.0000
       ZZZ     -25.2127
    Hexadecapole Moments (Debye-Ang^3)
      XXXX     -24.6226   XXXY       0.0000   XXYY      -8.2075
      XYYY       0.0000   YYYY     -24.6226   XXXZ      -0.0000
      XXYZ       0.0000   XYYZ      -0.0000   YYYZ       0.0000
      XXZZ     -48.9075   XYZZ       0.0000   YYZZ     -48.9075
      XZZZ       0.0000   YZZZ       0.0000   ZZZZ    -244.0611
 -----------------------------------------------------------------
Archival summary:
1\1\n0087.mhg0\SP\ProcedureUnspecified\BasisUnspecified\l111\yhljason\WedOct1414:42:312020WedOct1414:42:312020\0\\#,ProcedureUnspecified,BasisUnspecified,\\0,1\Cl\C,1,1.629\N,2,1.1606,1,180\\\@

 Total job time:  143.45s(wall), 1121.16s(cpu) 
 Wed Oct 14 14:42:31 2020

        *************************************************************
        *                                                           *
        *  Thank you very much for using Q-Chem.  Have a nice day.  *
        *                                                           *
        *************************************************************


