Q-Chem Developer Version!
                  Welcome to Q-Chem
     A Quantum Leap Into The Future Of Chemistry


 Q-Chem 5.1, Q-Chem, Inc., Pleasanton, CA (2018)

 Yihan Shao,  Zhengting Gan,  E. Epifanovsky,  A. T. B. Gilbert,  M. Wormit,  
 J. Kussmann,  A. W. Lange,  A. Behn,  Jia Deng,  Xintian Feng,  D. Ghosh,  
 M. Goldey,  P. R. Horn,  L. D. Jacobson,  I. Kaliman,  T. Kus,  A. Landau,  
 Jie Liu,  E. I. Proynov,  R. M. Richard,  R. P. Steele,  E. J. Sundstrom,  
 H. L. Woodcock III,  P. M. Zimmerman,  D. Zuev,  B. Albrecht,  E. Alguire,  
 S. A. Baeppler,  D. Barton,  Z. Benda,  Y. A. Bernard,  E. J. Berquist,  
 K. B. Bravaya,  H. Burton,  D. Casanova,  Chun-Min Chang,  Yunqing Chen,  
 A. Chien,  K. D. Closser,  M. P. Coons,  S. Coriani,  S. Dasgupta,  
 A. L. Dempwolff,  M. Diedenhofen,  Hainam Do,  R. G. Edgar,  Po-Tung Fang,  
 S. Faraji,  S. Fatehi,  Qingguo Feng,  K. D. Fenk,  J. Fosso-Tande,  
 Qinghui Ge,  A. Ghysels,  G. Gidofalvi,  J. Gomes,  J. Gonthier,  A. Gunina,  
 D. Hait,  M. W. D. Hanson-Heine,  P. H. P. Harbach,  A. W. Hauser,  
 J. E. Herr,  E. G. Hohenstein,  Z. C. Holden,  Kerwin Hui,  B. C. Huynh,  
 T.-C. Jagau,  Hyunjun Ji,  B. Kaduk,  K. Khistyaev,  Jaehoon Kim,  
 P. Klunzinger,  K. Koh,  D. Kosenkov,  L. Koulias,  T. Kowalczyk,  
 C. M. Krauter,  A. Kunitsa,  Ka Un Lao,  A. Laurent,  K. V. Lawler,  
 Joonho Lee,  D. Lefrancois,  S. Lehtola,  D. S. Levine,  Yi-Pei Li,  
 You-Sheng Lin,  Fenglai Liu,  E. Livshits,  A. Luenser,  P. Manohar,  
 E. Mansoor,  S. F. Manzer,  Shan-Ping Mao,  Yuezhi Mao,  N. Mardirossian,  
 A. V. Marenich,  T. Markovich,  L. A. Martinez-Martinez,  S. A. Maurer,  
 N. J. Mayhall,  S. C. McKenzie,  J.-M. Mewes,  A. F. Morrison,  
 J. W. Mullinax,  K. Nanda,  T. S. Nguyen-Beck,  R. Olivares-Amaya,  
 J. A. Parkhill,  T. M. Perrine,  F. Plasser,  P. Pokhilko,  S. Prager,  
 A. Prociuk,  E. Ramos,  D. R. Rehn,  F. Rob,  M. Schneider,  N. Sergueev,  
 S. M. Sharada,  S. Sharma,  D. W. Small,  T. Stauch,  T. Stein,  
 Yu-Chuan Su,  A. J. W. Thom,  A. Tkatchenko,  T. Tsuchimochi,  N. M. Tubman,  
 L. Vogt,  M. L. Vidal,  O. Vydrov,  M. A. Watson,  J. Wenzel,  
 M. de Wergifosse,  T. A. Wesolowski,  A. White,  J. Witte,  A. Yamada,  
 Jun Yang,  K. Yao,  S. Yeganeh,  S. R. Yost,  Zhi-Qiang You,  A. Zech,  
 Igor Ying Zhang,  Xing Zhang,  Yan Zhao,  Ying Zhu,  B. R. Brooks,  
 G. K. L. Chan,  C. J. Cramer,  M. S. Gordon,  W. J. Hehre,  A. Klamt,  
 M. W. Schmidt,  C. D. Sherrill,  D. G. Truhlar,  A. Aspuru-Guzik,  R. Baer,  
 A. T. Bell,  N. A. Besley,  Jeng-Da Chai,  A. E. DePrince, III,  
 R. A. DiStasio Jr.,  A. Dreuw,  B. D. Dunietz,  T. R. Furlani,  
 Chao-Ping Hsu,  Yousung Jung,  Jing Kong,  D. S. Lambrecht,  WanZhen Liang,  
 C. Ochsenfeld,  V. A. Rassolov,  L. V. Slipchenko,  J. E. Subotnik,  
 T. Van Voorhis,  J. M. Herbert,  A. I. Krylov,  P. M. W. Gill,  M. Head-Gordon

 Contributors to earlier versions of Q-Chem not listed above: 
 R. D. Adamson,  B. Austin,  J. Baker,  G. J. O. Beran,  K. Brandhorst,  
 S. T. Brown,  E. F. C. Byrd,  A. K. Chakraborty,  C.-L. Cheng,  
 Siu Hung Chien,  D. M. Chipman,  D. L. Crittenden,  H. Dachsel,  
 R. J. Doerksen,  A. D. Dutoi,  L. Fusti-Molnar,  W. A. Goddard III,  
 A. Golubeva-Zadorozhnaya,  S. R. Gwaltney,  G. Hawkins,  A. Heyden,  
 S. Hirata,  G. Kedziora,  F. J. Keil,  C. Kelley,  Jihan Kim,  R. A. King,  
 R. Z. Khaliullin,  P. P. Korambath,  W. Kurlancheek,  A. M. Lee,  M. S. Lee,  
 S. V. Levchenko,  Ching Yeh Lin,  D. Liotard,  R. C. Lochan,  I. Lotan,  
 P. E. Maslen,  N. Nair,  D. P. O'Neill,  D. Neuhauser,  E. Neuscamman,  
 C. M. Oana,  R. Olson,  B. Peters,  R. Peverati,  P. A. Pieniazek,  
 Y. M. Rhee,  J. Ritchie,  M. A. Rohrdanz,  E. Rosta,  N. J. Russ,  
 H. F. Schaefer III,  N. E. Schultz,  N. Shenvi,  A. C. Simmonett,  A. Sodt,  
 D. Stuck,  K. S. Thanthiriwatte,  V. Vanovschi,  Tao Wang,  A. Warshel,  
 C. F. Williams,  Q. Wu,  X. Xu,  W. Zhang

 Please cite Q-Chem as follows:
 Y. Shao et al., Mol. Phys. 113, 184-215 (2015)
 DOI: 10.1080/00268976.2014.952696

 Q-Chem 5.1.1 for Intel X86 EM64T Linux

 Parts of Q-Chem use Armadillo 8.300.2 (Tropical Shenanigans).
 http://arma.sourceforge.net/

 Q-Chem begins on Wed Oct 14 14:26:07 2020  

Host: n0073.mhg0
0

     Scratch files written to /local/scratch/users/yhljason/CO2_XYG3_aug-cc-pcVQZ.inp20201014142605//
Input Ideriv = 2
Curr. Ideriv = -1
Max.  Ideriv = 2

Checking the input file for inconsistencies... 	...done.

--------------------------------------------------------------
User input:
--------------------------------------------------------------
$molecule
0 1
C1	0.0000	0.0000	0.0000
O2	0.0000	0.0000	1.1621
O3	0.0000	0.0000	-1.1621
$end

$rem
jobtype sp
exchange XYG3
xc_grid 000099000590
basis aug-cc-pcVQZ
max_scf_cycles 200
thresh 14
scf_convergence 8
scf_algorithm gdm
symmetry false
sym_ignore true
unrestricted false
gen_scfman false
internal_stability_iter 15
internal_stability_davidson_iter 200
mem_total 128000
cc_memory 96000
cc_backend xm
mem_static 1500
n_frozen_core 0
$end



--------------------------------------------------------------
 ----------------------------------------------------------------
             Standard Nuclear Orientation (Angstroms)
    I     Atom           X                Y                Z
 ----------------------------------------------------------------
    1      C       0.0000000000     0.0000000000     0.0000000000
    2      O       0.0000000000     0.0000000000     1.1621000000
    3      O       0.0000000000     0.0000000000    -1.1621000000
 ----------------------------------------------------------------
 Nuclear Repulsion Energy =    58.2864495159 hartrees
 There are       11 alpha and       11 beta electrons
 Requested basis set is aug-cc-pCVQZ
 There are 87 shells and 327 basis functions

 Total QAlloc Memory Limit 128000 MB
 Mega-Array Size      1467 MB
 MEM_STATIC part      1500 MB

                       Distance Matrix (Angstroms)
             C (  1)   O (  2)
   O (  2)  1.162100
   O (  3)  1.162100  2.324200
 
 A cutoff of  1.0D-14 yielded   3538 shell pairs
 There are     51370 function pairs (     84504 Cartesian)
 
 -------------------------------------------------------
 OpenMP Integral Computing Module                       
 Release: version 1.0, May 2013, Q-Chem Inc. Pittsburgh 
 -------------------------------------------------------
 Integral Job Info:
 Integral job number is                      11
 Integral operator is                         1
 short-range coefficients                     0
 long-range coefficients              100000000
 Omega coefficients                           0
 if combine SR and LR in K                    0
 Integral screening is                        0
 Integral computing path is                   2
 max size of driver memory is           3200000
 size of driver memory is               1704330
 size of scratch memory is             18511652
 max col of scratch BK array              50625
 max len of scratch array in speh3         2114
 max len of scratch index in speh4           50
 max int batch size is                      520
 min int batch size is                       52
 fixed nKL is                                52
 max L of basis functions is                  4
 order of int derivative is                   0
 number of shells is                         87
 number of basis is                         417
 number of cartesian basis is               417
 number of contracted shell pairs          3538
 number of primitive shell pairs           8022
 maxK2 (contraction) of shell pair           81
 max number of K2 of shell pair               1
 max number of CS2 of shell pair            407
 max number of PS2 of shell pair            810
 mem total for path MDJ                  811216
 -------------------------------------------------------
 Smallest overlap matrix eigenvalue = 4.61E-05

 Scale SEOQF with 1.000000e-01/1.000000e-01/1.000000e-01

 Standard Electronic Orientation quadrupole field applied
 Nucleus-field energy     =    -0.0000000023 hartrees
 Guess from superposition of atomic densities
 Warning:  Energy on first SCF cycle will be non-variational
 SAD guess density has 22.000000 electrons
 A restricted hybrid HF-DFT SCF calculation will be
 performed using Pulay DIIS + Geometric Direct Minimization
 Exchange:     0.2000 Hartree-Fock + 0.0800 Slater + 0.7200 B88
 Correlation:  0.1900 VWN1RPA + 0.8100 LYP
 Using Euler-Maclaurin-Lebedev (99,590) quadrature formula
 SCF converges when RMS gradient is below 1.0E-08
 using 8 threads for integral computing
 -------------------------------------------------------
 OpenMP Integral computing Module                
 Release: version 2.0, May 2017, Q-Chem Inc. Pleasanton 
 -------------------------------------------------------
TIMEINFO->: J/JK contribution 83.67 sec.
 -------------------------------------------------------
 OpenMP BLAS3 based DFT computing Module                
 Release: version 1.0, May 2013, Q-Chem Inc. Pittsburgh 
 -------------------------------------------------------
 ---------------------------------------
  Cycle       Energy        RMS Gradient
 ---------------------------------------
    1    -189.1557810889      1.85E-02 Done DIIS. Switching to GDM
TIMEINFO->: J/JK contribution 292.35 sec.
    2    -188.6010022760      2.23E-01 Descent step
TIMEINFO->: J/JK contribution 304.59 sec.
    3    -188.5933294084      2.44E-01 Line search: overstep
TIMEINFO->: J/JK contribution 287.31 sec.
    4    -188.6783672489      9.31E-03 Normal BFGS step
TIMEINFO->: J/JK contribution 270.07 sec.
    5    -188.6791409653      4.05E-03 Normal BFGS step
TIMEINFO->: J/JK contribution 268.60 sec.
    6    -188.6793746819      7.78E-04 Normal BFGS step
TIMEINFO->: J/JK contribution 269.91 sec.
    7    -188.6793804007      1.45E-04 Normal BFGS step
TIMEINFO->: J/JK contribution 264.91 sec.
    8    -188.6793806863      1.26E-05 Normal BFGS step
TIMEINFO->: J/JK contribution 265.35 sec.
    9    -188.6793806875      1.80E-06 Normal BFGS step
TIMEINFO->: J/JK contribution 259.94 sec.
   10    -188.6793806875      4.50E-08 Normal BFGS step
TIMEINFO->: J/JK contribution 246.99 sec.
   GDM::WARNING energy changes are now smaller than effective accuracy.
   GDM::        calculation will continue, but THRESH should be increased
   GDM::        or SCF_CONVERGENCE decreased.
   GDM::        effective_thresh =   1.100000000000000E-010
   11    -188.6793806875      1.47E-08 Normal BFGS step
TIMEINFO->: J/JK contribution 212.00 sec.
   GDM::WARNING energy changes are now smaller than effective accuracy.
   GDM::        calculation will continue, but THRESH should be increased
   GDM::        or SCF_CONVERGENCE decreased.
   GDM::        effective_thresh =   1.100000000000000E-010
   12    -188.6793806875      3.03E-09 Convergence criterion met
 ---------------------------------------
 B3LYP orbitals are now ready for the XYG3 calculation.
 XYG3 energy = Exch (0.8033 HF  - 0.0140 Slater + 0.2107 Becke88) + 
               Corr (0.6789 LYP + 0.3211 MP2)
 SCF time:  CPU 3241.60 s  wall 412.05 s
 SCF   energy in the final basis set = -188.29412164
 Total energy in the final basis set = -188.29412164
 
 Components of the MP2 correlation energy:
        aaaa  correlation energy  =        -0.1381698979 au
        abab  correlation energy  =        -0.8549913267 au
        bbbb  correlation energy  =        -0.1381698979 au
        singles contribution not yet available for XYG3

 Total  XYG3        total energy  =      -188.6573920602 au

 
 --------------------------------------------------------------
 
                    Orbital Energies (a.u.)
 --------------------------------------------------------------
 
 Alpha MOs
 -- Occupied --
-19.216 -19.216 -10.370  -1.171  -1.132  -0.574  -0.532  -0.528
 -0.528  -0.385  -0.385
 -- Virtual --
 -0.022   0.018   0.018   0.035   0.035   0.035   0.082   0.096
  0.096   0.106   0.149   0.149   0.153   0.153   0.155   0.185
  0.252   0.272   0.272   0.301   0.303   0.303   0.366   0.366
  0.403   0.463   0.470   0.470   0.495   0.495   0.517   0.517
  0.546   0.574   0.616   0.616   0.660   0.660   0.708   0.722
  0.722   0.763   0.775   0.775   0.829   0.829   0.883   0.929
  0.981   0.981   0.998   0.998   1.158   1.167   1.167   1.318
  1.323   1.323   1.373   1.373   1.381   1.381   1.410   1.410
  1.470   1.470   1.488   1.490   1.490   1.490   1.521   1.702
  1.721   1.721   1.724   1.724   1.735   1.735   1.752   1.895
  1.895   1.990   1.990   2.006   2.006   2.019   2.019   2.280
  2.280   2.307   2.307   2.406   2.406   2.416   2.529   2.665
  2.665   2.770   2.919   2.919   2.922   2.922   3.161   3.197
  3.345   3.345   3.400   3.400   3.553   3.553   3.608   3.671
  3.690   3.690   3.724   3.724   3.796   3.796   3.814   3.814
  3.903   3.903   3.905   3.905   3.924   3.924   4.007   4.015
  4.015   4.188   4.232   4.232   4.260   4.260   4.299   4.299
  4.336   4.449   4.449   4.493   4.555   4.555   4.593   4.593
  5.132   5.132   5.227   5.227   5.268   5.436   5.539   5.539
  5.601   5.601   5.682   5.682   5.686   5.854   5.872   5.872
  6.022   6.022   6.275   6.275   6.528   6.588   6.588   6.795
  6.795   7.231   7.534   7.534   7.944   7.944   8.510   8.740
  8.740   9.116   9.543   9.543   9.848   9.848  10.080  10.080
 10.163  10.163  10.281  10.281  10.492  10.577  10.577  10.597
 10.597  10.628  10.785  10.785  10.855  10.855  10.911  10.980
 10.980  11.091  11.322  11.322  11.325  11.325  11.577  11.815
 11.815  11.841  11.841  11.905  11.905  12.378  12.378  12.427
 12.427  12.442  12.442  12.785  13.342  13.475  13.475  14.656
 15.300  15.300  15.908  17.356  18.328  18.912  18.912  21.131
 25.965  25.965  26.557  26.557  28.216  32.807  32.807  33.120
 33.120  34.040  34.467  37.513  46.079  46.079  46.123  46.123
 46.481  46.481  47.349  47.493  47.493  47.834  63.002  63.447
 65.694  65.694  67.283  97.325  97.325  97.342  97.342  97.420
 97.420  97.541 101.951 101.951 101.952 101.952 101.997 101.998
102.001 102.001 102.011 102.011 102.049 102.049 102.089 102.137
113.667 113.667 113.988 113.988 114.809 115.270 115.270 115.525
115.525 116.210 116.813 122.518 196.475 196.475 196.500 196.500
196.685 196.685 197.115 197.229 197.229 197.416 214.335 214.675
223.129 223.129 224.483 392.505 392.505 392.725 392.725 393.261
393.808 507.064 891.207 891.555
 --------------------------------------------------------------
 
          Ground-State Mulliken Net Atomic Charges

     Atom                 Charge (a.u.)
  ----------------------------------------
      1 C                     0.749706
      2 O                    -0.374853
      3 O                    -0.374853
  ----------------------------------------
  Sum of atomic charges =     0.000000

 -----------------------------------------------------------------
                    Cartesian Multipole Moments
 -----------------------------------------------------------------
    Charge (ESU x 10^10)
                 0.0000
    Dipole Moment (Debye)
         X       0.0000      Y      -0.0000      Z      -0.0000
       Tot       0.0000
    Quadrupole Moments (Debye-Ang)
        XX     -14.8799     XY      -0.0000     YY     -14.8799
        XZ      -0.0000     YZ      -0.0000     ZZ     -19.3500
    Octopole Moments (Debye-Ang^2)
       XXX      -0.0000    XXY      -0.0000    XYY       0.0000
       YYY      -0.0000    XXZ       0.0000    XYZ      -0.0000
       YYZ       0.0000    XZZ       0.0000    YZZ      -0.0000
       ZZZ      -0.0000
    Hexadecapole Moments (Debye-Ang^3)
      XXXX     -12.1943   XXXY      -0.0000   XXYY      -4.0648
      XYYY      -0.0000   YYYY     -12.1943   XXXZ       0.0000
      XXYZ      -0.0000   XYYZ       0.0000   YYYZ      -0.0000
      XXZZ     -19.1474   XYZZ      -0.0000   YYZZ     -19.1474
      XZZZ      -0.0000   YZZZ      -0.0000   ZZZZ    -103.9809
 -----------------------------------------------------------------
Archival summary:
1\1\n0073.mhg0\SP\ProcedureUnspecified\BasisUnspecified\21\yhljason\WedOct1414:41:242020WedOct1414:41:242020\0\\#,ProcedureUnspecified,BasisUnspecified,\\0,1\C\O,1,1.1621\O,1,1.1621,2,180\\\@

 Total job time:  916.77s(wall), 7171.45s(cpu) 
 Wed Oct 14 14:41:24 2020

        *************************************************************
        *                                                           *
        *  Thank you very much for using Q-Chem.  Have a nice day.  *
        *                                                           *
        *************************************************************


 
User input: 2 of 7 
 
Q-Chem Developer Version!
                  Welcome to Q-Chem
     A Quantum Leap Into The Future Of Chemistry


 Q-Chem 5.1, Q-Chem, Inc., Pleasanton, CA (2018)

 Yihan Shao,  Zhengting Gan,  E. Epifanovsky,  A. T. B. Gilbert,  M. Wormit,  
 J. Kussmann,  A. W. Lange,  A. Behn,  Jia Deng,  Xintian Feng,  D. Ghosh,  
 M. Goldey,  P. R. Horn,  L. D. Jacobson,  I. Kaliman,  T. Kus,  A. Landau,  
 Jie Liu,  E. I. Proynov,  R. M. Richard,  R. P. Steele,  E. J. Sundstrom,  
 H. L. Woodcock III,  P. M. Zimmerman,  D. Zuev,  B. Albrecht,  E. Alguire,  
 S. A. Baeppler,  D. Barton,  Z. Benda,  Y. A. Bernard,  E. J. Berquist,  
 K. B. Bravaya,  H. Burton,  D. Casanova,  Chun-Min Chang,  Yunqing Chen,  
 A. Chien,  K. D. Closser,  M. P. Coons,  S. Coriani,  S. Dasgupta,  
 A. L. Dempwolff,  M. Diedenhofen,  Hainam Do,  R. G. Edgar,  Po-Tung Fang,  
 S. Faraji,  S. Fatehi,  Qingguo Feng,  K. D. Fenk,  J. Fosso-Tande,  
 Qinghui Ge,  A. Ghysels,  G. Gidofalvi,  J. Gomes,  J. Gonthier,  A. Gunina,  
 D. Hait,  M. W. D. Hanson-Heine,  P. H. P. Harbach,  A. W. Hauser,  
 J. E. Herr,  E. G. Hohenstein,  Z. C. Holden,  Kerwin Hui,  B. C. Huynh,  
 T.-C. Jagau,  Hyunjun Ji,  B. Kaduk,  K. Khistyaev,  Jaehoon Kim,  
 P. Klunzinger,  K. Koh,  D. Kosenkov,  L. Koulias,  T. Kowalczyk,  
 C. M. Krauter,  A. Kunitsa,  Ka Un Lao,  A. Laurent,  K. V. Lawler,  
 Joonho Lee,  D. Lefrancois,  S. Lehtola,  D. S. Levine,  Yi-Pei Li,  
 You-Sheng Lin,  Fenglai Liu,  E. Livshits,  A. Luenser,  P. Manohar,  
 E. Mansoor,  S. F. Manzer,  Shan-Ping Mao,  Yuezhi Mao,  N. Mardirossian,  
 A. V. Marenich,  T. Markovich,  L. A. Martinez-Martinez,  S. A. Maurer,  
 N. J. Mayhall,  S. C. McKenzie,  J.-M. Mewes,  A. F. Morrison,  
 J. W. Mullinax,  K. Nanda,  T. S. Nguyen-Beck,  R. Olivares-Amaya,  
 J. A. Parkhill,  T. M. Perrine,  F. Plasser,  P. Pokhilko,  S. Prager,  
 A. Prociuk,  E. Ramos,  D. R. Rehn,  F. Rob,  M. Schneider,  N. Sergueev,  
 S. M. Sharada,  S. Sharma,  D. W. Small,  T. Stauch,  T. Stein,  
 Yu-Chuan Su,  A. J. W. Thom,  A. Tkatchenko,  T. Tsuchimochi,  N. M. Tubman,  
 L. Vogt,  M. L. Vidal,  O. Vydrov,  M. A. Watson,  J. Wenzel,  
 M. de Wergifosse,  T. A. Wesolowski,  A. White,  J. Witte,  A. Yamada,  
 Jun Yang,  K. Yao,  S. Yeganeh,  S. R. Yost,  Zhi-Qiang You,  A. Zech,  
 Igor Ying Zhang,  Xing Zhang,  Yan Zhao,  Ying Zhu,  B. R. Brooks,  
 G. K. L. Chan,  C. J. Cramer,  M. S. Gordon,  W. J. Hehre,  A. Klamt,  
 M. W. Schmidt,  C. D. Sherrill,  D. G. Truhlar,  A. Aspuru-Guzik,  R. Baer,  
 A. T. Bell,  N. A. Besley,  Jeng-Da Chai,  A. E. DePrince, III,  
 R. A. DiStasio Jr.,  A. Dreuw,  B. D. Dunietz,  T. R. Furlani,  
 Chao-Ping Hsu,  Yousung Jung,  Jing Kong,  D. S. Lambrecht,  WanZhen Liang,  
 C. Ochsenfeld,  V. A. Rassolov,  L. V. Slipchenko,  J. E. Subotnik,  
 T. Van Voorhis,  J. M. Herbert,  A. I. Krylov,  P. M. W. Gill,  M. Head-Gordon

 Contributors to earlier versions of Q-Chem not listed above: 
 R. D. Adamson,  B. Austin,  J. Baker,  G. J. O. Beran,  K. Brandhorst,  
 S. T. Brown,  E. F. C. Byrd,  A. K. Chakraborty,  C.-L. Cheng,  
 Siu Hung Chien,  D. M. Chipman,  D. L. Crittenden,  H. Dachsel,  
 R. J. Doerksen,  A. D. Dutoi,  L. Fusti-Molnar,  W. A. Goddard III,  
 A. Golubeva-Zadorozhnaya,  S. R. Gwaltney,  G. Hawkins,  A. Heyden,  
 S. Hirata,  G. Kedziora,  F. J. Keil,  C. Kelley,  Jihan Kim,  R. A. King,  
 R. Z. Khaliullin,  P. P. Korambath,  W. Kurlancheek,  A. M. Lee,  M. S. Lee,  
 S. V. Levchenko,  Ching Yeh Lin,  D. Liotard,  R. C. Lochan,  I. Lotan,  
 P. E. Maslen,  N. Nair,  D. P. O'Neill,  D. Neuhauser,  E. Neuscamman,  
 C. M. Oana,  R. Olson,  B. Peters,  R. Peverati,  P. A. Pieniazek,  
 Y. M. Rhee,  J. Ritchie,  M. A. Rohrdanz,  E. Rosta,  N. J. Russ,  
 H. F. Schaefer III,  N. E. Schultz,  N. Shenvi,  A. C. Simmonett,  A. Sodt,  
 D. Stuck,  K. S. Thanthiriwatte,  V. Vanovschi,  Tao Wang,  A. Warshel,  
 C. F. Williams,  Q. Wu,  X. Xu,  W. Zhang

 Please cite Q-Chem as follows:
 Y. Shao et al., Mol. Phys. 113, 184-215 (2015)
 DOI: 10.1080/00268976.2014.952696

 Q-Chem 5.1.1 for Intel X86 EM64T Linux

 Parts of Q-Chem use Armadillo 8.300.2 (Tropical Shenanigans).
 http://arma.sourceforge.net/

 Q-Chem begins on Wed Oct 14 14:41:24 2020  

Host: n0073.mhg0
0

     Scratch files written to /local/scratch/users/yhljason/CO2_XYG3_aug-cc-pcVQZ.inp20201014142605//
The previous job contains 0 fragments, simply inherited here
Input Ideriv = 2
Curr. Ideriv = -1
Max.  Ideriv = 2

Checking the input file for inconsistencies... 	...done.

--------------------------------------------------------------
User input:
--------------------------------------------------------------
$molecule
read
$end

$rem

jobtype sp
exchange XYG3
xc_grid 000099000590
basis aug-cc-pcVQZ
max_scf_cycles 200
thresh 14
scf_convergence 8
mem_total 128000
cc_memory 96000
cc_backend xm
mem_static 1500
symmetry false
sym_ignore true
scf_guess read
unrestricted false
scf_algorithm gdm
n_frozen_core 0
$end

$multipole_field
XX 0.0001
$end


--------------------------------------------------------------
 ----------------------------------------------------------------
             Standard Nuclear Orientation (Angstroms)
    I     Atom           X                Y                Z
 ----------------------------------------------------------------
    1      C       0.0000000000     0.0000000000     0.0000000000
    2      O       0.0000000000     0.0000000000     1.1621000000
    3      O       0.0000000000     0.0000000000    -1.1621000000
 ----------------------------------------------------------------
 Nuclear Repulsion Energy =    58.2864495159 hartrees
 There are       11 alpha and       11 beta electrons
 Requested basis set is aug-cc-pCVQZ
 There are 87 shells and 327 basis functions

 Total QAlloc Memory Limit 128000 MB
 Mega-Array Size      1467 MB
 MEM_STATIC part      1500 MB

                       Distance Matrix (Angstroms)
             C (  1)   O (  2)
   O (  2)  1.162100
   O (  3)  1.162100  2.324200
 
 Applying Cartesian multipole field
    Component          Value
    ---------          -----
     (2,0,0)        1.00000E-04
 A cutoff of  1.0D-14 yielded   3538 shell pairs
 There are     51370 function pairs (     84504 Cartesian)
 
 -------------------------------------------------------
 OpenMP Integral Computing Module                       
 Release: version 1.0, May 2013, Q-Chem Inc. Pittsburgh 
 -------------------------------------------------------
 Integral Job Info:
 Integral job number is                      11
 Integral operator is                         1
 short-range coefficients                     0
 long-range coefficients              100000000
 Omega coefficients                           0
 if combine SR and LR in K                    0
 Integral screening is                        0
 Integral computing path is                   2
 max size of driver memory is           3200000
 size of driver memory is               1704330
 size of scratch memory is             18511652
 max col of scratch BK array              50625
 max len of scratch array in speh3         2114
 max len of scratch index in speh4           50
 max int batch size is                      520
 min int batch size is                       52
 fixed nKL is                                52
 max L of basis functions is                  4
 order of int derivative is                   0
 number of shells is                         87
 number of basis is                         417
 number of cartesian basis is               417
 number of contracted shell pairs          3538
 number of primitive shell pairs           8022
 maxK2 (contraction) of shell pair           81
 max number of K2 of shell pair               1
 max number of CS2 of shell pair            407
 max number of PS2 of shell pair            810
 mem total for path MDJ                  811216
 -------------------------------------------------------
 Smallest overlap matrix eigenvalue = 4.61E-05
 Guess MOs from SCF MO coefficient file
 Reading MOs from coefficient file
 Reading MOs from coefficient file
 A restricted hybrid HF-DFT SCF calculation will be
 performed using Geometric Direct Minimization
 Exchange:     0.2000 Hartree-Fock + 0.0800 Slater + 0.7200 B88
 Correlation:  0.1900 VWN1RPA + 0.8100 LYP
 Using Euler-Maclaurin-Lebedev (99,590) quadrature formula
 SCF converges when RMS gradient is below 1.0E-08
Using Q-Chem read-in guess as SCF_GUESS READ specified.

 using 8 threads for integral computing
 -------------------------------------------------------
 OpenMP Integral computing Module                
 Release: version 2.0, May 2017, Q-Chem Inc. Pleasanton 
 -------------------------------------------------------
TIMEINFO->: J/JK contribution 309.59 sec.
 -------------------------------------------------------
 OpenMP BLAS3 based DFT computing Module                
 Release: version 1.0, May 2013, Q-Chem Inc. Pittsburgh 
 -------------------------------------------------------
 ---------------------------------------
  Cycle       Energy        RMS Gradient
 ---------------------------------------
    1    -188.6804869690      1.88E-04 Normal BFGS step
TIMEINFO->: J/JK contribution 314.04 sec.
    2    -188.6804871357      1.11E-04 Normal BFGS step
TIMEINFO->: J/JK contribution 274.04 sec.
    3    -188.6804871665      1.06E-04 Normal BFGS step
TIMEINFO->: J/JK contribution 275.12 sec.
    4    -188.6804871832      3.40E-05 Normal BFGS step
TIMEINFO->: J/JK contribution 278.10 sec.
    5    -188.6804871878      7.23E-06 Normal BFGS step
TIMEINFO->: J/JK contribution 266.44 sec.
    6    -188.6804871883      1.25E-06 Normal BFGS step
TIMEINFO->: J/JK contribution 251.39 sec.
    7    -188.6804871883      9.44E-08 Normal BFGS step
TIMEINFO->: J/JK contribution 235.94 sec.
   GDM::WARNING energy changes are now smaller than effective accuracy.
   GDM::        calculation will continue, but THRESH should be increased
   GDM::        or SCF_CONVERGENCE decreased.
   GDM::        effective_thresh =   1.100000000000000E-010
    8    -188.6804871883      8.90E-09 Convergence criterion met
 ---------------------------------------
 B3LYP orbitals are now ready for the XYG3 calculation.
 XYG3 energy = Exch (0.8033 HF  - 0.0140 Slater + 0.2107 Becke88) + 
               Corr (0.6789 LYP + 0.3211 MP2)
 SCF time:  CPU 2355.40 s  wall 298.24 s
 SCF   energy in the final basis set = -188.29522076
 Total energy in the final basis set = -188.29522076
 
 Components of the MP2 correlation energy:
        aaaa  correlation energy  =        -0.1381744514 au
        abab  correlation energy  =        -0.8550053122 au
        bbbb  correlation energy  =        -0.1381744514 au
        singles contribution not yet available for XYG3

 Total  XYG3        total energy  =      -188.6584985912 au

 
 --------------------------------------------------------------
 
                    Orbital Energies (a.u.)
 --------------------------------------------------------------
 
 Alpha MOs
 -- Occupied --
-19.216 -19.216 -10.370  -1.171  -1.132  -0.575  -0.532  -0.528
 -0.528  -0.385  -0.385
 -- Virtual --
 -0.023   0.018   0.018   0.032   0.034   0.034   0.081   0.094
  0.096   0.105   0.148   0.148   0.150   0.152   0.154   0.184
  0.251   0.271   0.272   0.300   0.302   0.303   0.365   0.365
  0.402   0.462   0.469   0.469   0.495   0.495   0.516   0.517
  0.545   0.573   0.616   0.616   0.660   0.660   0.708   0.721
  0.721   0.762   0.773   0.774   0.829   0.829   0.883   0.929
  0.980   0.980   0.997   0.997   1.157   1.166   1.166   1.318
  1.322   1.322   1.372   1.373   1.380   1.380   1.410   1.410
  1.469   1.469   1.487   1.489   1.489   1.490   1.520   1.702
  1.720   1.720   1.724   1.724   1.734   1.734   1.751   1.895
  1.895   1.990   1.990   2.005   2.005   2.018   2.018   2.280
  2.280   2.307   2.307   2.406   2.406   2.416   2.529   2.665
  2.665   2.770   2.919   2.919   2.922   2.922   3.161   3.196
  3.345   3.345   3.400   3.400   3.553   3.553   3.608   3.671
  3.690   3.690   3.724   3.724   3.796   3.796   3.814   3.814
  3.903   3.903   3.904   3.905   3.924   3.924   4.007   4.015
  4.015   4.188   4.232   4.232   4.260   4.260   4.299   4.299
  4.336   4.448   4.448   4.493   4.555   4.555   4.593   4.593
  5.132   5.132   5.227   5.227   5.268   5.435   5.539   5.539
  5.601   5.601   5.681   5.681   5.686   5.854   5.872   5.872
  6.022   6.022   6.275   6.275   6.527   6.587   6.587   6.795
  6.795   7.230   7.534   7.534   7.944   7.944   8.510   8.740
  8.740   9.116   9.543   9.543   9.848   9.848  10.080  10.080
 10.163  10.163  10.280  10.280  10.492  10.577  10.577  10.597
 10.597  10.628  10.785  10.785  10.855  10.855  10.911  10.980
 10.980  11.091  11.322  11.322  11.325  11.325  11.577  11.815
 11.815  11.840  11.840  11.905  11.905  12.378  12.378  12.426
 12.426  12.442  12.442  12.785  13.342  13.474  13.474  14.656
 15.299  15.299  15.908  17.356  18.328  18.912  18.912  21.131
 25.964  25.964  26.557  26.557  28.216  32.807  32.807  33.120
 33.120  34.040  34.467  37.512  46.079  46.079  46.123  46.123
 46.481  46.481  47.348  47.492  47.492  47.834  63.002  63.447
 65.694  65.694  67.283  97.325  97.325  97.341  97.341  97.420
 97.420  97.541 101.950 101.950 101.952 101.952 101.997 101.997
102.001 102.001 102.011 102.011 102.049 102.049 102.089 102.137
113.667 113.667 113.987 113.987 114.809 115.270 115.270 115.525
115.525 116.209 116.813 122.518 196.475 196.475 196.500 196.500
196.685 196.685 197.115 197.228 197.228 197.415 214.335 214.675
223.128 223.128 224.483 392.504 392.504 392.725 392.725 393.261
393.807 507.064 891.207 891.555
 --------------------------------------------------------------
 
          Ground-State Mulliken Net Atomic Charges

     Atom                 Charge (a.u.)
  ----------------------------------------
      1 C                     0.749958
      2 O                    -0.374979
      3 O                    -0.374979
  ----------------------------------------
  Sum of atomic charges =    -0.000000

 -----------------------------------------------------------------
                    Cartesian Multipole Moments
 -----------------------------------------------------------------
    Charge (ESU x 10^10)
                -0.0000
    Dipole Moment (Debye)
         X      -0.0000      Y      -0.0000      Z      -0.0000
       Tot       0.0000
    Quadrupole Moments (Debye-Ang)
        XX     -14.8858     XY       0.0000     YY     -14.8811
        XZ       0.0000     YZ      -0.0000     ZZ     -19.3506
    Octopole Moments (Debye-Ang^2)
       XXX      -0.0000    XXY      -0.0000    XYY       0.0000
       YYY      -0.0000    XXZ       0.0000    XYZ      -0.0000
       YYZ       0.0000    XZZ       0.0000    YZZ      -0.0000
       ZZZ      -0.0000
    Hexadecapole Moments (Debye-Ang^3)
      XXXX     -12.2127   XXXY      -0.0000   XXYY      -4.0685
      XYYY      -0.0000   YYYY     -12.1984   XXXZ       0.0000
      XXYZ       0.0000   XYYZ       0.0000   YYYZ      -0.0000
      XXZZ     -19.1573   XYZZ       0.0000   YYZZ     -19.1501
      XZZZ       0.0000   YZZZ      -0.0000   ZZZZ    -103.9882
 -----------------------------------------------------------------
Archival summary:
1\1\n0073.mhg0\SP\ProcedureUnspecified\BasisUnspecified\21\yhljason\WedOct1414:54:282020WedOct1414:54:282020\0\\#,ProcedureUnspecified,BasisUnspecified,\\0,1\C\O,1,1.1621\O,1,1.1621,2,180\\\@

 Total job time:  784.05s(wall), 6176.79s(cpu) 
 Wed Oct 14 14:54:28 2020

        *************************************************************
        *                                                           *
        *  Thank you very much for using Q-Chem.  Have a nice day.  *
        *                                                           *
        *************************************************************


 
User input: 3 of 7 
 
Q-Chem Developer Version!
                  Welcome to Q-Chem
     A Quantum Leap Into The Future Of Chemistry


 Q-Chem 5.1, Q-Chem, Inc., Pleasanton, CA (2018)

 Yihan Shao,  Zhengting Gan,  E. Epifanovsky,  A. T. B. Gilbert,  M. Wormit,  
 J. Kussmann,  A. W. Lange,  A. Behn,  Jia Deng,  Xintian Feng,  D. Ghosh,  
 M. Goldey,  P. R. Horn,  L. D. Jacobson,  I. Kaliman,  T. Kus,  A. Landau,  
 Jie Liu,  E. I. Proynov,  R. M. Richard,  R. P. Steele,  E. J. Sundstrom,  
 H. L. Woodcock III,  P. M. Zimmerman,  D. Zuev,  B. Albrecht,  E. Alguire,  
 S. A. Baeppler,  D. Barton,  Z. Benda,  Y. A. Bernard,  E. J. Berquist,  
 K. B. Bravaya,  H. Burton,  D. Casanova,  Chun-Min Chang,  Yunqing Chen,  
 A. Chien,  K. D. Closser,  M. P. Coons,  S. Coriani,  S. Dasgupta,  
 A. L. Dempwolff,  M. Diedenhofen,  Hainam Do,  R. G. Edgar,  Po-Tung Fang,  
 S. Faraji,  S. Fatehi,  Qingguo Feng,  K. D. Fenk,  J. Fosso-Tande,  
 Qinghui Ge,  A. Ghysels,  G. Gidofalvi,  J. Gomes,  J. Gonthier,  A. Gunina,  
 D. Hait,  M. W. D. Hanson-Heine,  P. H. P. Harbach,  A. W. Hauser,  
 J. E. Herr,  E. G. Hohenstein,  Z. C. Holden,  Kerwin Hui,  B. C. Huynh,  
 T.-C. Jagau,  Hyunjun Ji,  B. Kaduk,  K. Khistyaev,  Jaehoon Kim,  
 P. Klunzinger,  K. Koh,  D. Kosenkov,  L. Koulias,  T. Kowalczyk,  
 C. M. Krauter,  A. Kunitsa,  Ka Un Lao,  A. Laurent,  K. V. Lawler,  
 Joonho Lee,  D. Lefrancois,  S. Lehtola,  D. S. Levine,  Yi-Pei Li,  
 You-Sheng Lin,  Fenglai Liu,  E. Livshits,  A. Luenser,  P. Manohar,  
 E. Mansoor,  S. F. Manzer,  Shan-Ping Mao,  Yuezhi Mao,  N. Mardirossian,  
 A. V. Marenich,  T. Markovich,  L. A. Martinez-Martinez,  S. A. Maurer,  
 N. J. Mayhall,  S. C. McKenzie,  J.-M. Mewes,  A. F. Morrison,  
 J. W. Mullinax,  K. Nanda,  T. S. Nguyen-Beck,  R. Olivares-Amaya,  
 J. A. Parkhill,  T. M. Perrine,  F. Plasser,  P. Pokhilko,  S. Prager,  
 A. Prociuk,  E. Ramos,  D. R. Rehn,  F. Rob,  M. Schneider,  N. Sergueev,  
 S. M. Sharada,  S. Sharma,  D. W. Small,  T. Stauch,  T. Stein,  
 Yu-Chuan Su,  A. J. W. Thom,  A. Tkatchenko,  T. Tsuchimochi,  N. M. Tubman,  
 L. Vogt,  M. L. Vidal,  O. Vydrov,  M. A. Watson,  J. Wenzel,  
 M. de Wergifosse,  T. A. Wesolowski,  A. White,  J. Witte,  A. Yamada,  
 Jun Yang,  K. Yao,  S. Yeganeh,  S. R. Yost,  Zhi-Qiang You,  A. Zech,  
 Igor Ying Zhang,  Xing Zhang,  Yan Zhao,  Ying Zhu,  B. R. Brooks,  
 G. K. L. Chan,  C. J. Cramer,  M. S. Gordon,  W. J. Hehre,  A. Klamt,  
 M. W. Schmidt,  C. D. Sherrill,  D. G. Truhlar,  A. Aspuru-Guzik,  R. Baer,  
 A. T. Bell,  N. A. Besley,  Jeng-Da Chai,  A. E. DePrince, III,  
 R. A. DiStasio Jr.,  A. Dreuw,  B. D. Dunietz,  T. R. Furlani,  
 Chao-Ping Hsu,  Yousung Jung,  Jing Kong,  D. S. Lambrecht,  WanZhen Liang,  
 C. Ochsenfeld,  V. A. Rassolov,  L. V. Slipchenko,  J. E. Subotnik,  
 T. Van Voorhis,  J. M. Herbert,  A. I. Krylov,  P. M. W. Gill,  M. Head-Gordon

 Contributors to earlier versions of Q-Chem not listed above: 
 R. D. Adamson,  B. Austin,  J. Baker,  G. J. O. Beran,  K. Brandhorst,  
 S. T. Brown,  E. F. C. Byrd,  A. K. Chakraborty,  C.-L. Cheng,  
 Siu Hung Chien,  D. M. Chipman,  D. L. Crittenden,  H. Dachsel,  
 R. J. Doerksen,  A. D. Dutoi,  L. Fusti-Molnar,  W. A. Goddard III,  
 A. Golubeva-Zadorozhnaya,  S. R. Gwaltney,  G. Hawkins,  A. Heyden,  
 S. Hirata,  G. Kedziora,  F. J. Keil,  C. Kelley,  Jihan Kim,  R. A. King,  
 R. Z. Khaliullin,  P. P. Korambath,  W. Kurlancheek,  A. M. Lee,  M. S. Lee,  
 S. V. Levchenko,  Ching Yeh Lin,  D. Liotard,  R. C. Lochan,  I. Lotan,  
 P. E. Maslen,  N. Nair,  D. P. O'Neill,  D. Neuhauser,  E. Neuscamman,  
 C. M. Oana,  R. Olson,  B. Peters,  R. Peverati,  P. A. Pieniazek,  
 Y. M. Rhee,  J. Ritchie,  M. A. Rohrdanz,  E. Rosta,  N. J. Russ,  
 H. F. Schaefer III,  N. E. Schultz,  N. Shenvi,  A. C. Simmonett,  A. Sodt,  
 D. Stuck,  K. S. Thanthiriwatte,  V. Vanovschi,  Tao Wang,  A. Warshel,  
 C. F. Williams,  Q. Wu,  X. Xu,  W. Zhang

 Please cite Q-Chem as follows:
 Y. Shao et al., Mol. Phys. 113, 184-215 (2015)
 DOI: 10.1080/00268976.2014.952696

 Q-Chem 5.1.1 for Intel X86 EM64T Linux

 Parts of Q-Chem use Armadillo 8.300.2 (Tropical Shenanigans).
 http://arma.sourceforge.net/

 Q-Chem begins on Wed Oct 14 14:54:28 2020  

Host: n0073.mhg0
0

     Scratch files written to /local/scratch/users/yhljason/CO2_XYG3_aug-cc-pcVQZ.inp20201014142605//
The previous job contains 0 fragments, simply inherited here
Input Ideriv = 2
Curr. Ideriv = -1
Max.  Ideriv = 2

Checking the input file for inconsistencies... 	...done.

--------------------------------------------------------------
User input:
--------------------------------------------------------------
$molecule
read
$end

$rem

jobtype sp
exchange XYG3
xc_grid 000099000590
basis aug-cc-pcVQZ
max_scf_cycles 200
thresh 14
scf_convergence 8
mem_total 128000
cc_memory 96000
cc_backend xm
mem_static 1500
symmetry false
sym_ignore true
scf_guess read
unrestricted false
scf_algorithm gdm
n_frozen_core 0
$end

$multipole_field
XX -0.0001
$end


--------------------------------------------------------------
 ----------------------------------------------------------------
             Standard Nuclear Orientation (Angstroms)
    I     Atom           X                Y                Z
 ----------------------------------------------------------------
    1      C       0.0000000000     0.0000000000     0.0000000000
    2      O       0.0000000000     0.0000000000     1.1621000000
    3      O       0.0000000000     0.0000000000    -1.1621000000
 ----------------------------------------------------------------
 Nuclear Repulsion Energy =    58.2864495159 hartrees
 There are       11 alpha and       11 beta electrons
 Requested basis set is aug-cc-pCVQZ
 There are 87 shells and 327 basis functions

 Total QAlloc Memory Limit 128000 MB
 Mega-Array Size      1467 MB
 MEM_STATIC part      1500 MB

                       Distance Matrix (Angstroms)
             C (  1)   O (  2)
   O (  2)  1.162100
   O (  3)  1.162100  2.324200
 
 Applying Cartesian multipole field
    Component          Value
    ---------          -----
     (2,0,0)       -1.00000E-04
 A cutoff of  1.0D-14 yielded   3538 shell pairs
 There are     51370 function pairs (     84504 Cartesian)
 
 -------------------------------------------------------
 OpenMP Integral Computing Module                       
 Release: version 1.0, May 2013, Q-Chem Inc. Pittsburgh 
 -------------------------------------------------------
 Integral Job Info:
 Integral job number is                      11
 Integral operator is                         1
 short-range coefficients                     0
 long-range coefficients              100000000
 Omega coefficients                           0
 if combine SR and LR in K                    0
 Integral screening is                        0
 Integral computing path is                   2
 max size of driver memory is           3200000
 size of driver memory is               1704330
 size of scratch memory is             18511652
 max col of scratch BK array              50625
 max len of scratch array in speh3         2114
 max len of scratch index in speh4           50
 max int batch size is                      520
 min int batch size is                       52
 fixed nKL is                                52
 max L of basis functions is                  4
 order of int derivative is                   0
 number of shells is                         87
 number of basis is                         417
 number of cartesian basis is               417
 number of contracted shell pairs          3538
 number of primitive shell pairs           8022
 maxK2 (contraction) of shell pair           81
 max number of K2 of shell pair               1
 max number of CS2 of shell pair            407
 max number of PS2 of shell pair            810
 mem total for path MDJ                  811216
 -------------------------------------------------------
 Smallest overlap matrix eigenvalue = 4.61E-05
 Guess MOs from SCF MO coefficient file
 Reading MOs from coefficient file
 Reading MOs from coefficient file
 A restricted hybrid HF-DFT SCF calculation will be
 performed using Geometric Direct Minimization
 Exchange:     0.2000 Hartree-Fock + 0.0800 Slater + 0.7200 B88
 Correlation:  0.1900 VWN1RPA + 0.8100 LYP
 Using Euler-Maclaurin-Lebedev (99,590) quadrature formula
 SCF converges when RMS gradient is below 1.0E-08
Using Q-Chem read-in guess as SCF_GUESS READ specified.

 using 8 threads for integral computing
 -------------------------------------------------------
 OpenMP Integral computing Module                
 Release: version 2.0, May 2017, Q-Chem Inc. Pleasanton 
 -------------------------------------------------------
TIMEINFO->: J/JK contribution 325.31 sec.
 -------------------------------------------------------
 OpenMP BLAS3 based DFT computing Module                
 Release: version 1.0, May 2013, Q-Chem Inc. Pittsburgh 
 -------------------------------------------------------
 ---------------------------------------
  Cycle       Energy        RMS Gradient
 ---------------------------------------
    1    -188.6782737480      3.78E-04 Normal BFGS step
TIMEINFO->: J/JK contribution 290.77 sec.
    2    -188.6782744150      2.21E-04 Normal BFGS step
TIMEINFO->: J/JK contribution 266.64 sec.
    3    -188.6782745378      2.15E-04 Normal BFGS step
TIMEINFO->: J/JK contribution 267.59 sec.
    4    -188.6782746048      7.03E-05 Normal BFGS step
TIMEINFO->: J/JK contribution 287.87 sec.
    5    -188.6782746229      1.45E-05 Normal BFGS step
TIMEINFO->: J/JK contribution 264.26 sec.
    6    -188.6782746248      2.52E-06 Normal BFGS step
TIMEINFO->: J/JK contribution 272.53 sec.
    7    -188.6782746249      2.23E-07 Normal BFGS step
TIMEINFO->: J/JK contribution 273.09 sec.
    8    -188.6782746249      5.26E-07 Normal BFGS step
TIMEINFO->: J/JK contribution 247.91 sec.
   GDM::WARNING energy changes are now smaller than effective accuracy.
   GDM::        calculation will continue, but THRESH should be increased
   GDM::        or SCF_CONVERGENCE decreased.
   GDM::        effective_thresh =   1.100000000000000E-010
    9    -188.6782746249      2.69E-07 Normal BFGS step
TIMEINFO->: J/JK contribution 241.72 sec.
   10    -188.6782746249      1.99E-08 Normal BFGS step
TIMEINFO->: J/JK contribution 226.34 sec.
   GDM::WARNING energy changes are now smaller than effective accuracy.
   GDM::        calculation will continue, but THRESH should be increased
   GDM::        or SCF_CONVERGENCE decreased.
   GDM::        effective_thresh =   1.100000000000000E-010
   11    -188.6782746249      8.68E-09 Convergence criterion met
 ---------------------------------------
 B3LYP orbitals are now ready for the XYG3 calculation.
 XYG3 energy = Exch (0.8033 HF  - 0.0140 Slater + 0.2107 Becke88) + 
               Corr (0.6789 LYP + 0.3211 MP2)
 SCF time:  CPU 3179.22 s  wall 402.19 s
 SCF   energy in the final basis set = -188.29302291
 Total energy in the final basis set = -188.29302291
 
 Components of the MP2 correlation energy:
        aaaa  correlation energy  =        -0.1381653669 au
        abab  correlation energy  =        -0.8549774281 au
        bbbb  correlation energy  =        -0.1381653669 au
        singles contribution not yet available for XYG3

 Total  XYG3        total energy  =      -188.6562859577 au

 
 --------------------------------------------------------------
 
                    Orbital Energies (a.u.)
 --------------------------------------------------------------
 
 Alpha MOs
 -- Occupied --
-19.216 -19.216 -10.369  -1.171  -1.131  -0.574  -0.532  -0.528
 -0.527  -0.384  -0.384
 -- Virtual --
 -0.021   0.019   0.019   0.036   0.036   0.038   0.082   0.097
  0.099   0.108   0.150   0.150   0.154   0.156   0.156   0.186
  0.253   0.273   0.274   0.302   0.304   0.305   0.366   0.366
  0.403   0.464   0.471   0.471   0.496   0.496   0.518   0.519
  0.546   0.574   0.617   0.617   0.661   0.661   0.709   0.722
  0.723   0.763   0.775   0.776   0.830   0.830   0.884   0.930
  0.981   0.981   0.998   0.998   1.159   1.167   1.167   1.319
  1.323   1.323   1.373   1.373   1.381   1.381   1.410   1.410
  1.470   1.470   1.488   1.490   1.490   1.490   1.521   1.702
  1.721   1.721   1.725   1.725   1.735   1.735   1.752   1.896
  1.896   1.991   1.991   2.006   2.006   2.019   2.019   2.281
  2.281   2.307   2.307   2.406   2.406   2.416   2.529   2.666
  2.666   2.770   2.919   2.919   2.922   2.922   3.161   3.197
  3.345   3.345   3.400   3.401   3.553   3.553   3.608   3.671
  3.690   3.690   3.724   3.724   3.796   3.796   3.814   3.814
  3.904   3.904   3.905   3.905   3.924   3.924   4.008   4.016
  4.016   4.188   4.233   4.233   4.260   4.260   4.299   4.299
  4.336   4.449   4.449   4.494   4.556   4.556   4.593   4.593
  5.133   5.133   5.227   5.227   5.268   5.436   5.540   5.540
  5.601   5.601   5.682   5.682   5.687   5.854   5.872   5.872
  6.023   6.023   6.275   6.275   6.528   6.588   6.588   6.796
  6.796   7.231   7.534   7.534   7.944   7.944   8.510   8.741
  8.741   9.116   9.543   9.544   9.848   9.848  10.080  10.080
 10.163  10.163  10.281  10.281  10.492  10.577  10.577  10.597
 10.597  10.628  10.785  10.785  10.856  10.856  10.911  10.980
 10.980  11.092  11.322  11.322  11.325  11.325  11.577  11.815
 11.815  11.841  11.841  11.905  11.905  12.378  12.378  12.427
 12.427  12.442  12.442  12.786  13.342  13.475  13.475  14.656
 15.300  15.300  15.908  17.356  18.328  18.912  18.912  21.131
 25.965  25.965  26.558  26.558  28.216  32.807  32.807  33.120
 33.120  34.040  34.467  37.513  46.079  46.079  46.123  46.123
 46.481  46.481  47.349  47.493  47.493  47.834  63.003  63.448
 65.694  65.694  67.283  97.325  97.325  97.342  97.342  97.420
 97.420  97.541 101.951 101.951 101.952 101.952 101.998 101.998
102.002 102.002 102.012 102.012 102.049 102.049 102.090 102.137
113.667 113.667 113.988 113.988 114.809 115.270 115.270 115.526
115.526 116.210 116.813 122.519 196.475 196.475 196.501 196.501
196.685 196.685 197.115 197.229 197.229 197.416 214.335 214.675
223.129 223.129 224.483 392.505 392.505 392.725 392.725 393.262
393.808 507.065 891.207 891.555
 --------------------------------------------------------------
 
          Ground-State Mulliken Net Atomic Charges

     Atom                 Charge (a.u.)
  ----------------------------------------
      1 C                     0.749454
      2 O                    -0.374727
      3 O                    -0.374727
  ----------------------------------------
  Sum of atomic charges =     0.000000

 -----------------------------------------------------------------
                    Cartesian Multipole Moments
 -----------------------------------------------------------------
    Charge (ESU x 10^10)
                 0.0000
    Dipole Moment (Debye)
         X       0.0000      Y      -0.0000      Z      -0.0000
       Tot       0.0000
    Quadrupole Moments (Debye-Ang)
        XX     -14.8740     XY      -0.0000     YY     -14.8787
        XZ       0.0000     YZ      -0.0000     ZZ     -19.3493
    Octopole Moments (Debye-Ang^2)
       XXX       0.0000    XXY      -0.0000    XYY       0.0000
       YYY      -0.0000    XXZ       0.0000    XYZ      -0.0000
       YYZ       0.0000    XZZ       0.0000    YZZ      -0.0000
       ZZZ      -0.0000
    Hexadecapole Moments (Debye-Ang^3)
      XXXX     -12.1760   XXXY      -0.0000   XXYY      -4.0610
      XYYY      -0.0000   YYYY     -12.1902   XXXZ       0.0000
      XXYZ      -0.0000   XYYZ       0.0000   YYYZ      -0.0000
      XXZZ     -19.1375   XYZZ      -0.0000   YYZZ     -19.1447
      XZZZ      -0.0000   YZZZ      -0.0000   ZZZZ    -103.9737
 -----------------------------------------------------------------
Archival summary:
1\1\n0073.mhg0\SP\ProcedureUnspecified\BasisUnspecified\21\yhljason\WedOct1415:09:182020WedOct1415:09:182020\0\\#,ProcedureUnspecified,BasisUnspecified,\\0,1\C\O,1,1.1621\O,1,1.1621,2,180\\\@

 Total job time:  889.50s(wall), 7012.02s(cpu) 
 Wed Oct 14 15:09:18 2020

        *************************************************************
        *                                                           *
        *  Thank you very much for using Q-Chem.  Have a nice day.  *
        *                                                           *
        *************************************************************


 
User input: 4 of 7 
 
Q-Chem Developer Version!
                  Welcome to Q-Chem
     A Quantum Leap Into The Future Of Chemistry


 Q-Chem 5.1, Q-Chem, Inc., Pleasanton, CA (2018)

 Yihan Shao,  Zhengting Gan,  E. Epifanovsky,  A. T. B. Gilbert,  M. Wormit,  
 J. Kussmann,  A. W. Lange,  A. Behn,  Jia Deng,  Xintian Feng,  D. Ghosh,  
 M. Goldey,  P. R. Horn,  L. D. Jacobson,  I. Kaliman,  T. Kus,  A. Landau,  
 Jie Liu,  E. I. Proynov,  R. M. Richard,  R. P. Steele,  E. J. Sundstrom,  
 H. L. Woodcock III,  P. M. Zimmerman,  D. Zuev,  B. Albrecht,  E. Alguire,  
 S. A. Baeppler,  D. Barton,  Z. Benda,  Y. A. Bernard,  E. J. Berquist,  
 K. B. Bravaya,  H. Burton,  D. Casanova,  Chun-Min Chang,  Yunqing Chen,  
 A. Chien,  K. D. Closser,  M. P. Coons,  S. Coriani,  S. Dasgupta,  
 A. L. Dempwolff,  M. Diedenhofen,  Hainam Do,  R. G. Edgar,  Po-Tung Fang,  
 S. Faraji,  S. Fatehi,  Qingguo Feng,  K. D. Fenk,  J. Fosso-Tande,  
 Qinghui Ge,  A. Ghysels,  G. Gidofalvi,  J. Gomes,  J. Gonthier,  A. Gunina,  
 D. Hait,  M. W. D. Hanson-Heine,  P. H. P. Harbach,  A. W. Hauser,  
 J. E. Herr,  E. G. Hohenstein,  Z. C. Holden,  Kerwin Hui,  B. C. Huynh,  
 T.-C. Jagau,  Hyunjun Ji,  B. Kaduk,  K. Khistyaev,  Jaehoon Kim,  
 P. Klunzinger,  K. Koh,  D. Kosenkov,  L. Koulias,  T. Kowalczyk,  
 C. M. Krauter,  A. Kunitsa,  Ka Un Lao,  A. Laurent,  K. V. Lawler,  
 Joonho Lee,  D. Lefrancois,  S. Lehtola,  D. S. Levine,  Yi-Pei Li,  
 You-Sheng Lin,  Fenglai Liu,  E. Livshits,  A. Luenser,  P. Manohar,  
 E. Mansoor,  S. F. Manzer,  Shan-Ping Mao,  Yuezhi Mao,  N. Mardirossian,  
 A. V. Marenich,  T. Markovich,  L. A. Martinez-Martinez,  S. A. Maurer,  
 N. J. Mayhall,  S. C. McKenzie,  J.-M. Mewes,  A. F. Morrison,  
 J. W. Mullinax,  K. Nanda,  T. S. Nguyen-Beck,  R. Olivares-Amaya,  
 J. A. Parkhill,  T. M. Perrine,  F. Plasser,  P. Pokhilko,  S. Prager,  
 A. Prociuk,  E. Ramos,  D. R. Rehn,  F. Rob,  M. Schneider,  N. Sergueev,  
 S. M. Sharada,  S. Sharma,  D. W. Small,  T. Stauch,  T. Stein,  
 Yu-Chuan Su,  A. J. W. Thom,  A. Tkatchenko,  T. Tsuchimochi,  N. M. Tubman,  
 L. Vogt,  M. L. Vidal,  O. Vydrov,  M. A. Watson,  J. Wenzel,  
 M. de Wergifosse,  T. A. Wesolowski,  A. White,  J. Witte,  A. Yamada,  
 Jun Yang,  K. Yao,  S. Yeganeh,  S. R. Yost,  Zhi-Qiang You,  A. Zech,  
 Igor Ying Zhang,  Xing Zhang,  Yan Zhao,  Ying Zhu,  B. R. Brooks,  
 G. K. L. Chan,  C. J. Cramer,  M. S. Gordon,  W. J. Hehre,  A. Klamt,  
 M. W. Schmidt,  C. D. Sherrill,  D. G. Truhlar,  A. Aspuru-Guzik,  R. Baer,  
 A. T. Bell,  N. A. Besley,  Jeng-Da Chai,  A. E. DePrince, III,  
 R. A. DiStasio Jr.,  A. Dreuw,  B. D. Dunietz,  T. R. Furlani,  
 Chao-Ping Hsu,  Yousung Jung,  Jing Kong,  D. S. Lambrecht,  WanZhen Liang,  
 C. Ochsenfeld,  V. A. Rassolov,  L. V. Slipchenko,  J. E. Subotnik,  
 T. Van Voorhis,  J. M. Herbert,  A. I. Krylov,  P. M. W. Gill,  M. Head-Gordon

 Contributors to earlier versions of Q-Chem not listed above: 
 R. D. Adamson,  B. Austin,  J. Baker,  G. J. O. Beran,  K. Brandhorst,  
 S. T. Brown,  E. F. C. Byrd,  A. K. Chakraborty,  C.-L. Cheng,  
 Siu Hung Chien,  D. M. Chipman,  D. L. Crittenden,  H. Dachsel,  
 R. J. Doerksen,  A. D. Dutoi,  L. Fusti-Molnar,  W. A. Goddard III,  
 A. Golubeva-Zadorozhnaya,  S. R. Gwaltney,  G. Hawkins,  A. Heyden,  
 S. Hirata,  G. Kedziora,  F. J. Keil,  C. Kelley,  Jihan Kim,  R. A. King,  
 R. Z. Khaliullin,  P. P. Korambath,  W. Kurlancheek,  A. M. Lee,  M. S. Lee,  
 S. V. Levchenko,  Ching Yeh Lin,  D. Liotard,  R. C. Lochan,  I. Lotan,  
 P. E. Maslen,  N. Nair,  D. P. O'Neill,  D. Neuhauser,  E. Neuscamman,  
 C. M. Oana,  R. Olson,  B. Peters,  R. Peverati,  P. A. Pieniazek,  
 Y. M. Rhee,  J. Ritchie,  M. A. Rohrdanz,  E. Rosta,  N. J. Russ,  
 H. F. Schaefer III,  N. E. Schultz,  N. Shenvi,  A. C. Simmonett,  A. Sodt,  
 D. Stuck,  K. S. Thanthiriwatte,  V. Vanovschi,  Tao Wang,  A. Warshel,  
 C. F. Williams,  Q. Wu,  X. Xu,  W. Zhang

 Please cite Q-Chem as follows:
 Y. Shao et al., Mol. Phys. 113, 184-215 (2015)
 DOI: 10.1080/00268976.2014.952696

 Q-Chem 5.1.1 for Intel X86 EM64T Linux

 Parts of Q-Chem use Armadillo 8.300.2 (Tropical Shenanigans).
 http://arma.sourceforge.net/

 Q-Chem begins on Wed Oct 14 15:09:18 2020  

Host: n0073.mhg0
0

     Scratch files written to /local/scratch/users/yhljason/CO2_XYG3_aug-cc-pcVQZ.inp20201014142605//
The previous job contains 0 fragments, simply inherited here
Input Ideriv = 2
Curr. Ideriv = -1
Max.  Ideriv = 2

Checking the input file for inconsistencies... 	...done.

--------------------------------------------------------------
User input:
--------------------------------------------------------------
$molecule
read
$end

$rem

jobtype sp
exchange XYG3
xc_grid 000099000590
basis aug-cc-pcVQZ
max_scf_cycles 200
thresh 14
scf_convergence 8
mem_total 128000
cc_memory 96000
cc_backend xm
mem_static 1500
symmetry false
sym_ignore true
scf_guess read
unrestricted false
scf_algorithm gdm
n_frozen_core 0
$end

$multipole_field
YY 0.0001
$end


--------------------------------------------------------------
 ----------------------------------------------------------------
             Standard Nuclear Orientation (Angstroms)
    I     Atom           X                Y                Z
 ----------------------------------------------------------------
    1      C       0.0000000000     0.0000000000     0.0000000000
    2      O       0.0000000000     0.0000000000     1.1621000000
    3      O       0.0000000000     0.0000000000    -1.1621000000
 ----------------------------------------------------------------
 Nuclear Repulsion Energy =    58.2864495159 hartrees
 There are       11 alpha and       11 beta electrons
 Requested basis set is aug-cc-pCVQZ
 There are 87 shells and 327 basis functions

 Total QAlloc Memory Limit 128000 MB
 Mega-Array Size      1467 MB
 MEM_STATIC part      1500 MB

                       Distance Matrix (Angstroms)
             C (  1)   O (  2)
   O (  2)  1.162100
   O (  3)  1.162100  2.324200
 
 Applying Cartesian multipole field
    Component          Value
    ---------          -----
     (0,2,0)        1.00000E-04
 A cutoff of  1.0D-14 yielded   3538 shell pairs
 There are     51370 function pairs (     84504 Cartesian)
 
 -------------------------------------------------------
 OpenMP Integral Computing Module                       
 Release: version 1.0, May 2013, Q-Chem Inc. Pittsburgh 
 -------------------------------------------------------
 Integral Job Info:
 Integral job number is                      11
 Integral operator is                         1
 short-range coefficients                     0
 long-range coefficients              100000000
 Omega coefficients                           0
 if combine SR and LR in K                    0
 Integral screening is                        0
 Integral computing path is                   2
 max size of driver memory is           3200000
 size of driver memory is               1704330
 size of scratch memory is             18511652
 max col of scratch BK array              50625
 max len of scratch array in speh3         2114
 max len of scratch index in speh4           50
 max int batch size is                      520
 min int batch size is                       52
 fixed nKL is                                52
 max L of basis functions is                  4
 order of int derivative is                   0
 number of shells is                         87
 number of basis is                         417
 number of cartesian basis is               417
 number of contracted shell pairs          3538
 number of primitive shell pairs           8022
 maxK2 (contraction) of shell pair           81
 max number of K2 of shell pair               1
 max number of CS2 of shell pair            407
 max number of PS2 of shell pair            810
 mem total for path MDJ                  811216
 -------------------------------------------------------
 Smallest overlap matrix eigenvalue = 4.61E-05
 Guess MOs from SCF MO coefficient file
 Reading MOs from coefficient file
 Reading MOs from coefficient file
 A restricted hybrid HF-DFT SCF calculation will be
 performed using Geometric Direct Minimization
 Exchange:     0.2000 Hartree-Fock + 0.0800 Slater + 0.7200 B88
 Correlation:  0.1900 VWN1RPA + 0.8100 LYP
 Using Euler-Maclaurin-Lebedev (99,590) quadrature formula
 SCF converges when RMS gradient is below 1.0E-08
Using Q-Chem read-in guess as SCF_GUESS READ specified.

 using 8 threads for integral computing
 -------------------------------------------------------
 OpenMP Integral computing Module                
 Release: version 2.0, May 2017, Q-Chem Inc. Pleasanton 
 -------------------------------------------------------
TIMEINFO->: J/JK contribution 303.44 sec.
 -------------------------------------------------------
 OpenMP BLAS3 based DFT computing Module                
 Release: version 1.0, May 2013, Q-Chem Inc. Pittsburgh 
 -------------------------------------------------------
 ---------------------------------------
  Cycle       Energy        RMS Gradient
 ---------------------------------------
    1    -188.6804866619      2.51E-04 Normal BFGS step
TIMEINFO->: J/JK contribution 288.85 sec.
    2    -188.6804869808      2.12E-04 Normal BFGS step
TIMEINFO->: J/JK contribution 293.15 sec.
    3    -188.6804871403      1.54E-04 Normal BFGS step
TIMEINFO->: J/JK contribution 305.36 sec.
    4    -188.6804871650      7.09E-05 Normal BFGS step
TIMEINFO->: J/JK contribution 279.73 sec.
    5    -188.6804871879      5.84E-06 Normal BFGS step
TIMEINFO->: J/JK contribution 265.57 sec.
    6    -188.6804871882      1.10E-06 Normal BFGS step
TIMEINFO->: J/JK contribution 254.29 sec.
    7    -188.6804871883      6.59E-08 Normal BFGS step
TIMEINFO->: J/JK contribution 251.88 sec.
    8    -188.6804871883      1.34E-08 Normal BFGS step
TIMEINFO->: J/JK contribution 212.50 sec.
   GDM::WARNING energy changes are now smaller than effective accuracy.
   GDM::        calculation will continue, but THRESH should be increased
   GDM::        or SCF_CONVERGENCE decreased.
   GDM::        effective_thresh =   1.100000000000000E-010
    9    -188.6804871883      2.46E-08 Normal BFGS step
TIMEINFO->: J/JK contribution 214.44 sec.
   10    -188.6804871883      3.01E-08 Normal BFGS step
TIMEINFO->: J/JK contribution 217.36 sec.
   GDM::WARNING energy changes are now smaller than effective accuracy.
   GDM::        calculation will continue, but THRESH should be increased
   GDM::        or SCF_CONVERGENCE decreased.
   GDM::        effective_thresh =   1.305175134636016E-010
   11    -188.6804871883      3.43E-10 Convergence criterion met
 ---------------------------------------
 B3LYP orbitals are now ready for the XYG3 calculation.
 XYG3 energy = Exch (0.8033 HF  - 0.0140 Slater + 0.2107 Becke88) + 
               Corr (0.6789 LYP + 0.3211 MP2)
 SCF time:  CPU 3101.65 s  wall 392.17 s
 SCF   energy in the final basis set = -188.29522075
 Total energy in the final basis set = -188.29522075
 
 Components of the MP2 correlation energy:
        aaaa  correlation energy  =        -0.1381744515 au
        abab  correlation energy  =        -0.8550053124 au
        bbbb  correlation energy  =        -0.1381744515 au
        singles contribution not yet available for XYG3

 Total  XYG3        total energy  =      -188.6584985822 au

 
 --------------------------------------------------------------
 
                    Orbital Energies (a.u.)
 --------------------------------------------------------------
 
 Alpha MOs
 -- Occupied --
-19.216 -19.216 -10.370  -1.171  -1.132  -0.575  -0.532  -0.528
 -0.528  -0.385  -0.385
 -- Virtual --
 -0.023   0.018   0.018   0.032   0.034   0.034   0.081   0.094
  0.096   0.105   0.148   0.148   0.150   0.152   0.154   0.184
  0.251   0.271   0.272   0.300   0.302   0.303   0.365   0.365
  0.402   0.462   0.469   0.469   0.495   0.495   0.516   0.517
  0.545   0.573   0.616   0.616   0.660   0.660   0.708   0.721
  0.721   0.762   0.773   0.774   0.829   0.829   0.883   0.929
  0.980   0.980   0.997   0.997   1.157   1.166   1.166   1.318
  1.322   1.322   1.372   1.373   1.380   1.380   1.410   1.410
  1.469   1.469   1.487   1.489   1.489   1.490   1.520   1.702
  1.720   1.720   1.724   1.724   1.734   1.734   1.751   1.895
  1.895   1.990   1.990   2.005   2.005   2.018   2.018   2.280
  2.280   2.307   2.307   2.406   2.406   2.416   2.529   2.665
  2.665   2.770   2.919   2.919   2.922   2.922   3.161   3.196
  3.345   3.345   3.400   3.400   3.553   3.553   3.608   3.671
  3.690   3.690   3.724   3.724   3.796   3.796   3.814   3.814
  3.903   3.903   3.904   3.905   3.924   3.924   4.007   4.015
  4.015   4.188   4.232   4.232   4.260   4.260   4.299   4.299
  4.336   4.448   4.448   4.493   4.555   4.555   4.593   4.593
  5.132   5.132   5.227   5.227   5.268   5.435   5.539   5.539
  5.601   5.601   5.681   5.681   5.686   5.854   5.872   5.872
  6.022   6.022   6.275   6.275   6.527   6.587   6.587   6.795
  6.795   7.230   7.534   7.534   7.944   7.944   8.510   8.740
  8.740   9.116   9.543   9.543   9.848   9.848  10.080  10.080
 10.163  10.163  10.280  10.280  10.492  10.577  10.577  10.597
 10.597  10.628  10.785  10.785  10.855  10.855  10.911  10.980
 10.980  11.091  11.322  11.322  11.325  11.325  11.577  11.815
 11.815  11.840  11.840  11.905  11.905  12.378  12.378  12.426
 12.426  12.442  12.442  12.785  13.342  13.474  13.474  14.656
 15.299  15.299  15.908  17.356  18.328  18.912  18.912  21.131
 25.964  25.964  26.557  26.557  28.216  32.807  32.807  33.120
 33.120  34.040  34.467  37.512  46.079  46.079  46.123  46.123
 46.481  46.481  47.348  47.492  47.492  47.834  63.002  63.447
 65.694  65.694  67.283  97.325  97.325  97.341  97.341  97.420
 97.420  97.541 101.950 101.950 101.952 101.952 101.997 101.997
102.001 102.001 102.011 102.011 102.049 102.049 102.089 102.137
113.667 113.667 113.987 113.987 114.809 115.270 115.270 115.525
115.525 116.209 116.813 122.518 196.475 196.475 196.500 196.500
196.685 196.685 197.115 197.228 197.228 197.415 214.335 214.675
223.128 223.128 224.483 392.504 392.504 392.725 392.725 393.261
393.807 507.064 891.207 891.555
 --------------------------------------------------------------
 
          Ground-State Mulliken Net Atomic Charges

     Atom                 Charge (a.u.)
  ----------------------------------------
      1 C                     0.749958
      2 O                    -0.374979
      3 O                    -0.374979
  ----------------------------------------
  Sum of atomic charges =     0.000000

 -----------------------------------------------------------------
                    Cartesian Multipole Moments
 -----------------------------------------------------------------
    Charge (ESU x 10^10)
                 0.0000
    Dipole Moment (Debye)
         X      -0.0000      Y       0.0000      Z      -0.0000
       Tot       0.0000
    Quadrupole Moments (Debye-Ang)
        XX     -14.8811     XY      -0.0000     YY     -14.8858
        XZ      -0.0000     YZ      -0.0000     ZZ     -19.3506
    Octopole Moments (Debye-Ang^2)
       XXX      -0.0000    XXY      -0.0000    XYY       0.0000
       YYY      -0.0000    XXZ       0.0000    XYZ       0.0000
       YYZ       0.0000    XZZ       0.0000    YZZ       0.0000
       ZZZ      -0.0000
    Hexadecapole Moments (Debye-Ang^3)
      XXXX     -12.1984   XXXY      -0.0000   XXYY      -4.0685
      XYYY      -0.0000   YYYY     -12.2127   XXXZ       0.0000
      XXYZ      -0.0000   XYYZ      -0.0000   YYYZ      -0.0000
      XXZZ     -19.1501   XYZZ      -0.0000   YYZZ     -19.1573
      XZZZ      -0.0000   YZZZ      -0.0000   ZZZZ    -103.9882
 -----------------------------------------------------------------
Archival summary:
1\1\n0073.mhg0\SP\ProcedureUnspecified\BasisUnspecified\21\yhljason\WedOct1415:23:462020WedOct1415:23:462020\0\\#,ProcedureUnspecified,BasisUnspecified,\\0,1\C\O,1,1.1621\O,1,1.1621,2,180\\\@

 Total job time:  868.49s(wall), 6857.53s(cpu) 
 Wed Oct 14 15:23:47 2020

        *************************************************************
        *                                                           *
        *  Thank you very much for using Q-Chem.  Have a nice day.  *
        *                                                           *
        *************************************************************


 
User input: 5 of 7 
 
Q-Chem Developer Version!
                  Welcome to Q-Chem
     A Quantum Leap Into The Future Of Chemistry


 Q-Chem 5.1, Q-Chem, Inc., Pleasanton, CA (2018)

 Yihan Shao,  Zhengting Gan,  E. Epifanovsky,  A. T. B. Gilbert,  M. Wormit,  
 J. Kussmann,  A. W. Lange,  A. Behn,  Jia Deng,  Xintian Feng,  D. Ghosh,  
 M. Goldey,  P. R. Horn,  L. D. Jacobson,  I. Kaliman,  T. Kus,  A. Landau,  
 Jie Liu,  E. I. Proynov,  R. M. Richard,  R. P. Steele,  E. J. Sundstrom,  
 H. L. Woodcock III,  P. M. Zimmerman,  D. Zuev,  B. Albrecht,  E. Alguire,  
 S. A. Baeppler,  D. Barton,  Z. Benda,  Y. A. Bernard,  E. J. Berquist,  
 K. B. Bravaya,  H. Burton,  D. Casanova,  Chun-Min Chang,  Yunqing Chen,  
 A. Chien,  K. D. Closser,  M. P. Coons,  S. Coriani,  S. Dasgupta,  
 A. L. Dempwolff,  M. Diedenhofen,  Hainam Do,  R. G. Edgar,  Po-Tung Fang,  
 S. Faraji,  S. Fatehi,  Qingguo Feng,  K. D. Fenk,  J. Fosso-Tande,  
 Qinghui Ge,  A. Ghysels,  G. Gidofalvi,  J. Gomes,  J. Gonthier,  A. Gunina,  
 D. Hait,  M. W. D. Hanson-Heine,  P. H. P. Harbach,  A. W. Hauser,  
 J. E. Herr,  E. G. Hohenstein,  Z. C. Holden,  Kerwin Hui,  B. C. Huynh,  
 T.-C. Jagau,  Hyunjun Ji,  B. Kaduk,  K. Khistyaev,  Jaehoon Kim,  
 P. Klunzinger,  K. Koh,  D. Kosenkov,  L. Koulias,  T. Kowalczyk,  
 C. M. Krauter,  A. Kunitsa,  Ka Un Lao,  A. Laurent,  K. V. Lawler,  
 Joonho Lee,  D. Lefrancois,  S. Lehtola,  D. S. Levine,  Yi-Pei Li,  
 You-Sheng Lin,  Fenglai Liu,  E. Livshits,  A. Luenser,  P. Manohar,  
 E. Mansoor,  S. F. Manzer,  Shan-Ping Mao,  Yuezhi Mao,  N. Mardirossian,  
 A. V. Marenich,  T. Markovich,  L. A. Martinez-Martinez,  S. A. Maurer,  
 N. J. Mayhall,  S. C. McKenzie,  J.-M. Mewes,  A. F. Morrison,  
 J. W. Mullinax,  K. Nanda,  T. S. Nguyen-Beck,  R. Olivares-Amaya,  
 J. A. Parkhill,  T. M. Perrine,  F. Plasser,  P. Pokhilko,  S. Prager,  
 A. Prociuk,  E. Ramos,  D. R. Rehn,  F. Rob,  M. Schneider,  N. Sergueev,  
 S. M. Sharada,  S. Sharma,  D. W. Small,  T. Stauch,  T. Stein,  
 Yu-Chuan Su,  A. J. W. Thom,  A. Tkatchenko,  T. Tsuchimochi,  N. M. Tubman,  
 L. Vogt,  M. L. Vidal,  O. Vydrov,  M. A. Watson,  J. Wenzel,  
 M. de Wergifosse,  T. A. Wesolowski,  A. White,  J. Witte,  A. Yamada,  
 Jun Yang,  K. Yao,  S. Yeganeh,  S. R. Yost,  Zhi-Qiang You,  A. Zech,  
 Igor Ying Zhang,  Xing Zhang,  Yan Zhao,  Ying Zhu,  B. R. Brooks,  
 G. K. L. Chan,  C. J. Cramer,  M. S. Gordon,  W. J. Hehre,  A. Klamt,  
 M. W. Schmidt,  C. D. Sherrill,  D. G. Truhlar,  A. Aspuru-Guzik,  R. Baer,  
 A. T. Bell,  N. A. Besley,  Jeng-Da Chai,  A. E. DePrince, III,  
 R. A. DiStasio Jr.,  A. Dreuw,  B. D. Dunietz,  T. R. Furlani,  
 Chao-Ping Hsu,  Yousung Jung,  Jing Kong,  D. S. Lambrecht,  WanZhen Liang,  
 C. Ochsenfeld,  V. A. Rassolov,  L. V. Slipchenko,  J. E. Subotnik,  
 T. Van Voorhis,  J. M. Herbert,  A. I. Krylov,  P. M. W. Gill,  M. Head-Gordon

 Contributors to earlier versions of Q-Chem not listed above: 
 R. D. Adamson,  B. Austin,  J. Baker,  G. J. O. Beran,  K. Brandhorst,  
 S. T. Brown,  E. F. C. Byrd,  A. K. Chakraborty,  C.-L. Cheng,  
 Siu Hung Chien,  D. M. Chipman,  D. L. Crittenden,  H. Dachsel,  
 R. J. Doerksen,  A. D. Dutoi,  L. Fusti-Molnar,  W. A. Goddard III,  
 A. Golubeva-Zadorozhnaya,  S. R. Gwaltney,  G. Hawkins,  A. Heyden,  
 S. Hirata,  G. Kedziora,  F. J. Keil,  C. Kelley,  Jihan Kim,  R. A. King,  
 R. Z. Khaliullin,  P. P. Korambath,  W. Kurlancheek,  A. M. Lee,  M. S. Lee,  
 S. V. Levchenko,  Ching Yeh Lin,  D. Liotard,  R. C. Lochan,  I. Lotan,  
 P. E. Maslen,  N. Nair,  D. P. O'Neill,  D. Neuhauser,  E. Neuscamman,  
 C. M. Oana,  R. Olson,  B. Peters,  R. Peverati,  P. A. Pieniazek,  
 Y. M. Rhee,  J. Ritchie,  M. A. Rohrdanz,  E. Rosta,  N. J. Russ,  
 H. F. Schaefer III,  N. E. Schultz,  N. Shenvi,  A. C. Simmonett,  A. Sodt,  
 D. Stuck,  K. S. Thanthiriwatte,  V. Vanovschi,  Tao Wang,  A. Warshel,  
 C. F. Williams,  Q. Wu,  X. Xu,  W. Zhang

 Please cite Q-Chem as follows:
 Y. Shao et al., Mol. Phys. 113, 184-215 (2015)
 DOI: 10.1080/00268976.2014.952696

 Q-Chem 5.1.1 for Intel X86 EM64T Linux

 Parts of Q-Chem use Armadillo 8.300.2 (Tropical Shenanigans).
 http://arma.sourceforge.net/

 Q-Chem begins on Wed Oct 14 15:23:47 2020  

Host: n0073.mhg0
0

     Scratch files written to /local/scratch/users/yhljason/CO2_XYG3_aug-cc-pcVQZ.inp20201014142605//
The previous job contains 0 fragments, simply inherited here
Input Ideriv = 2
Curr. Ideriv = -1
Max.  Ideriv = 2

Checking the input file for inconsistencies... 	...done.

--------------------------------------------------------------
User input:
--------------------------------------------------------------
$molecule
read
$end

$rem

jobtype sp
exchange XYG3
xc_grid 000099000590
basis aug-cc-pcVQZ
max_scf_cycles 200
thresh 14
scf_convergence 8
mem_total 128000
cc_memory 96000
cc_backend xm
mem_static 1500
symmetry false
sym_ignore true
scf_guess read
unrestricted false
scf_algorithm gdm
n_frozen_core 0
$end

$multipole_field
YY -0.0001
$end


--------------------------------------------------------------
 ----------------------------------------------------------------
             Standard Nuclear Orientation (Angstroms)
    I     Atom           X                Y                Z
 ----------------------------------------------------------------
    1      C       0.0000000000     0.0000000000     0.0000000000
    2      O       0.0000000000     0.0000000000     1.1621000000
    3      O       0.0000000000     0.0000000000    -1.1621000000
 ----------------------------------------------------------------
 Nuclear Repulsion Energy =    58.2864495159 hartrees
 There are       11 alpha and       11 beta electrons
 Requested basis set is aug-cc-pCVQZ
 There are 87 shells and 327 basis functions

 Total QAlloc Memory Limit 128000 MB
 Mega-Array Size      1467 MB
 MEM_STATIC part      1500 MB

                       Distance Matrix (Angstroms)
             C (  1)   O (  2)
   O (  2)  1.162100
   O (  3)  1.162100  2.324200
 
 Applying Cartesian multipole field
    Component          Value
    ---------          -----
     (0,2,0)       -1.00000E-04
 A cutoff of  1.0D-14 yielded   3538 shell pairs
 There are     51370 function pairs (     84504 Cartesian)
 
 -------------------------------------------------------
 OpenMP Integral Computing Module                       
 Release: version 1.0, May 2013, Q-Chem Inc. Pittsburgh 
 -------------------------------------------------------
 Integral Job Info:
 Integral job number is                      11
 Integral operator is                         1
 short-range coefficients                     0
 long-range coefficients              100000000
 Omega coefficients                           0
 if combine SR and LR in K                    0
 Integral screening is                        0
 Integral computing path is                   2
 max size of driver memory is           3200000
 size of driver memory is               1704330
 size of scratch memory is             18511652
 max col of scratch BK array              50625
 max len of scratch array in speh3         2114
 max len of scratch index in speh4           50
 max int batch size is                      520
 min int batch size is                       52
 fixed nKL is                                52
 max L of basis functions is                  4
 order of int derivative is                   0
 number of shells is                         87
 number of basis is                         417
 number of cartesian basis is               417
 number of contracted shell pairs          3538
 number of primitive shell pairs           8022
 maxK2 (contraction) of shell pair           81
 max number of K2 of shell pair               1
 max number of CS2 of shell pair            407
 max number of PS2 of shell pair            810
 mem total for path MDJ                  811216
 -------------------------------------------------------
 Smallest overlap matrix eigenvalue = 4.61E-05
 Guess MOs from SCF MO coefficient file
 Reading MOs from coefficient file
 Reading MOs from coefficient file
 A restricted hybrid HF-DFT SCF calculation will be
 performed using Geometric Direct Minimization
 Exchange:     0.2000 Hartree-Fock + 0.0800 Slater + 0.7200 B88
 Correlation:  0.1900 VWN1RPA + 0.8100 LYP
 Using Euler-Maclaurin-Lebedev (99,590) quadrature formula
 SCF converges when RMS gradient is below 1.0E-08
Using Q-Chem read-in guess as SCF_GUESS READ specified.

 using 8 threads for integral computing
 -------------------------------------------------------
 OpenMP Integral computing Module                
 Release: version 2.0, May 2017, Q-Chem Inc. Pleasanton 
 -------------------------------------------------------
TIMEINFO->: J/JK contribution 292.47 sec.
 -------------------------------------------------------
 OpenMP BLAS3 based DFT computing Module                
 Release: version 1.0, May 2013, Q-Chem Inc. Pittsburgh 
 -------------------------------------------------------
 ---------------------------------------
  Cycle       Energy        RMS Gradient
 ---------------------------------------
    1    -188.6782737480      3.78E-04 Normal BFGS step
TIMEINFO->: J/JK contribution 296.09 sec.
    2    -188.6782744150      2.21E-04 Normal BFGS step
TIMEINFO->: J/JK contribution 264.12 sec.
    3    -188.6782745378      2.15E-04 Normal BFGS step
TIMEINFO->: J/JK contribution 280.36 sec.
    4    -188.6782746048      7.03E-05 Normal BFGS step
TIMEINFO->: J/JK contribution 270.40 sec.
    5    -188.6782746229      1.45E-05 Normal BFGS step
TIMEINFO->: J/JK contribution 257.12 sec.
    6    -188.6782746248      2.52E-06 Normal BFGS step
TIMEINFO->: J/JK contribution 295.85 sec.
    7    -188.6782746249      1.93E-07 Normal BFGS step
TIMEINFO->: J/JK contribution 243.31 sec.
    8    -188.6782746249      1.78E-08 Normal BFGS step
TIMEINFO->: J/JK contribution 251.95 sec.
   GDM::WARNING energy changes are now smaller than effective accuracy.
   GDM::        calculation will continue, but THRESH should be increased
   GDM::        or SCF_CONVERGENCE decreased.
   GDM::        effective_thresh =   1.100000000000000E-010
    9    -188.6782746249      5.97E-09 Convergence criterion met
 ---------------------------------------
 B3LYP orbitals are now ready for the XYG3 calculation.
 XYG3 energy = Exch (0.8033 HF  - 0.0140 Slater + 0.2107 Becke88) + 
               Corr (0.6789 LYP + 0.3211 MP2)
 SCF time:  CPU 2626.73 s  wall 340.55 s
 SCF   energy in the final basis set = -188.29302291
 Total energy in the final basis set = -188.29302291
 
 Components of the MP2 correlation energy:
        aaaa  correlation energy  =        -0.1381653668 au
        abab  correlation energy  =        -0.8549774278 au
        bbbb  correlation energy  =        -0.1381653668 au
        singles contribution not yet available for XYG3

 Total  XYG3        total energy  =      -188.6562859597 au

 
 --------------------------------------------------------------
 
                    Orbital Energies (a.u.)
 --------------------------------------------------------------
 
 Alpha MOs
 -- Occupied --
-19.216 -19.216 -10.369  -1.171  -1.131  -0.574  -0.532  -0.528
 -0.527  -0.384  -0.384
 -- Virtual --
 -0.021   0.019   0.019   0.036   0.036   0.038   0.082   0.097
  0.099   0.108   0.150   0.150   0.154   0.156   0.156   0.186
  0.253   0.273   0.274   0.302   0.304   0.305   0.366   0.366
  0.403   0.464   0.471   0.471   0.496   0.496   0.518   0.519
  0.546   0.574   0.617   0.617   0.661   0.661   0.709   0.722
  0.723   0.763   0.775   0.776   0.830   0.830   0.884   0.930
  0.981   0.981   0.998   0.998   1.159   1.167   1.167   1.319
  1.323   1.323   1.373   1.373   1.381   1.381   1.410   1.410
  1.470   1.470   1.488   1.490   1.490   1.490   1.521   1.702
  1.721   1.721   1.725   1.725   1.735   1.735   1.752   1.896
  1.896   1.991   1.991   2.006   2.006   2.019   2.019   2.281
  2.281   2.307   2.307   2.406   2.406   2.416   2.529   2.666
  2.666   2.770   2.919   2.919   2.922   2.922   3.161   3.197
  3.345   3.345   3.400   3.401   3.553   3.553   3.608   3.671
  3.690   3.690   3.724   3.724   3.796   3.796   3.814   3.814
  3.904   3.904   3.905   3.905   3.924   3.924   4.008   4.016
  4.016   4.188   4.233   4.233   4.260   4.260   4.299   4.299
  4.336   4.449   4.449   4.494   4.556   4.556   4.593   4.593
  5.133   5.133   5.227   5.227   5.268   5.436   5.540   5.540
  5.601   5.601   5.682   5.682   5.687   5.854   5.872   5.872
  6.023   6.023   6.275   6.275   6.528   6.588   6.588   6.796
  6.796   7.231   7.534   7.534   7.944   7.944   8.510   8.741
  8.741   9.116   9.543   9.544   9.848   9.848  10.080  10.080
 10.163  10.163  10.281  10.281  10.492  10.577  10.577  10.597
 10.597  10.628  10.785  10.785  10.856  10.856  10.911  10.980
 10.980  11.092  11.322  11.322  11.325  11.325  11.577  11.815
 11.815  11.841  11.841  11.905  11.905  12.378  12.378  12.427
 12.427  12.442  12.442  12.786  13.342  13.475  13.475  14.656
 15.300  15.300  15.908  17.356  18.328  18.912  18.912  21.131
 25.965  25.965  26.558  26.558  28.216  32.807  32.807  33.120
 33.120  34.040  34.467  37.513  46.079  46.079  46.123  46.123
 46.481  46.481  47.349  47.493  47.493  47.834  63.003  63.448
 65.694  65.694  67.283  97.325  97.325  97.342  97.342  97.420
 97.420  97.541 101.951 101.951 101.952 101.952 101.998 101.998
102.002 102.002 102.012 102.012 102.049 102.049 102.090 102.137
113.667 113.667 113.988 113.988 114.809 115.270 115.270 115.526
115.526 116.210 116.813 122.519 196.475 196.475 196.501 196.501
196.685 196.685 197.115 197.229 197.229 197.416 214.335 214.675
223.129 223.129 224.483 392.505 392.505 392.725 392.725 393.262
393.808 507.065 891.207 891.555
 --------------------------------------------------------------
 
          Ground-State Mulliken Net Atomic Charges

     Atom                 Charge (a.u.)
  ----------------------------------------
      1 C                     0.749454
      2 O                    -0.374727
      3 O                    -0.374727
  ----------------------------------------
  Sum of atomic charges =     0.000000

 -----------------------------------------------------------------
                    Cartesian Multipole Moments
 -----------------------------------------------------------------
    Charge (ESU x 10^10)
                 0.0000
    Dipole Moment (Debye)
         X      -0.0000      Y      -0.0000      Z       0.0000
[...]
  3.345   3.345   3.399   3.399   3.552   3.552   3.607   3.670
  3.689   3.689   3.723   3.723   3.795   3.795   3.814   3.814
  3.903   3.903   3.904   3.904   3.923   3.923   4.006   4.014
  4.014   4.187   4.232   4.232   4.259   4.259   4.298   4.298
  4.335   4.448   4.448   4.493   4.555   4.555   4.593   4.593
  5.132   5.132   5.226   5.226   5.267   5.435   5.539   5.539
  5.600   5.600   5.681   5.681   5.685   5.853   5.871   5.871
  6.022   6.022   6.274   6.274   6.527   6.587   6.587   6.795
  6.795   7.230   7.533   7.533   7.943   7.943   8.509   8.740
  8.740   9.115   9.543   9.543   9.847   9.847  10.079  10.079
 10.162  10.162  10.280  10.280  10.491  10.576  10.576  10.596
 10.596  10.627  10.784  10.784  10.855  10.855  10.910  10.980
 10.980  11.091  11.321  11.321  11.325  11.325  11.576  11.815
 11.815  11.840  11.840  11.904  11.904  12.377  12.377  12.426
 12.426  12.441  12.441  12.785  13.341  13.474  13.474  14.655
 15.299  15.299  15.907  17.355  18.327  18.911  18.911  21.130
 25.964  25.964  26.557  26.557  28.215  32.806  32.806  33.119
 33.119  34.039  34.466  37.512  46.078  46.078  46.122  46.122
 46.480  46.480  47.348  47.492  47.492  47.833  63.002  63.447
 65.694  65.694  67.283  97.324  97.324  97.341  97.341  97.419
 97.419  97.541 101.950 101.950 101.951 101.951 101.997 101.997
102.001 102.001 102.011 102.011 102.048 102.048 102.089 102.137
113.666 113.666 113.987 113.987 114.808 115.269 115.269 115.525
115.525 116.209 116.812 122.518 196.474 196.474 196.500 196.500
196.685 196.685 197.114 197.228 197.228 197.415 214.334 214.674
223.128 223.128 224.482 392.504 392.504 392.724 392.724 393.261
393.807 507.064 891.206 891.555
 --------------------------------------------------------------
 
          Ground-State Mulliken Net Atomic Charges

     Atom                 Charge (a.u.)
  ----------------------------------------
      1 C                     0.751141
      2 O                    -0.375571
      3 O                    -0.375571
  ----------------------------------------
  Sum of atomic charges =     0.000000

 -----------------------------------------------------------------
                    Cartesian Multipole Moments
 -----------------------------------------------------------------
    Charge (ESU x 10^10)
                 0.0000
    Dipole Moment (Debye)
         X      -0.0000      Y       0.0000      Z       0.0000
       Tot       0.0000
    Quadrupole Moments (Debye-Ang)
        XX     -14.8805     XY      -0.0000     YY     -14.8805
        XZ       0.0000     YZ      -0.0000     ZZ     -19.3813
    Octopole Moments (Debye-Ang^2)
       XXX      -0.0000    XXY      -0.0000    XYY      -0.0000
       YYY      -0.0000    XXZ      -0.0000    XYZ      -0.0000
       YYZ      -0.0000    XZZ      -0.0000    YZZ       0.0000
       ZZZ       0.0000
    Hexadecapole Moments (Debye-Ang^3)
      XXXX     -12.1973   XXXY      -0.0000   XXYY      -4.0658
      XYYY      -0.0000   YYYY     -12.1973   XXXZ       0.0000
      XXYZ      -0.0000   XYYZ       0.0000   YYYZ      -0.0000
      XXZZ     -19.1648   XYZZ      -0.0000   YYZZ     -19.1648
      XZZZ      -0.0000   YZZZ      -0.0000   ZZZZ    -104.1597
 -----------------------------------------------------------------
Archival summary:
1\1\n0073.mhg0\SP\ProcedureUnspecified\BasisUnspecified\21\yhljason\WedOct1415:51:142020WedOct1415:51:142020\0\\#,ProcedureUnspecified,BasisUnspecified,\\0,1\C\O,1,1.1621\O,1,1.1621,2,180\\\@

 Total job time:  821.00s(wall), 6447.02s(cpu) 
 Wed Oct 14 15:51:14 2020

        *************************************************************
        *                                                           *
        *  Thank you very much for using Q-Chem.  Have a nice day.  *
        *                                                           *
        *************************************************************


 
User input: 7 of 7 
 
Q-Chem Developer Version!
                  Welcome to Q-Chem
     A Quantum Leap Into The Future Of Chemistry


 Q-Chem 5.1, Q-Chem, Inc., Pleasanton, CA (2018)

 Yihan Shao,  Zhengting Gan,  E. Epifanovsky,  A. T. B. Gilbert,  M. Wormit,  
 J. Kussmann,  A. W. Lange,  A. Behn,  Jia Deng,  Xintian Feng,  D. Ghosh,  
 M. Goldey,  P. R. Horn,  L. D. Jacobson,  I. Kaliman,  T. Kus,  A. Landau,  
 Jie Liu,  E. I. Proynov,  R. M. Richard,  R. P. Steele,  E. J. Sundstrom,  
 H. L. Woodcock III,  P. M. Zimmerman,  D. Zuev,  B. Albrecht,  E. Alguire,  
 S. A. Baeppler,  D. Barton,  Z. Benda,  Y. A. Bernard,  E. J. Berquist,  
 K. B. Bravaya,  H. Burton,  D. Casanova,  Chun-Min Chang,  Yunqing Chen,  
 A. Chien,  K. D. Closser,  M. P. Coons,  S. Coriani,  S. Dasgupta,  
 A. L. Dempwolff,  M. Diedenhofen,  Hainam Do,  R. G. Edgar,  Po-Tung Fang,  
 S. Faraji,  S. Fatehi,  Qingguo Feng,  K. D. Fenk,  J. Fosso-Tande,  
 Qinghui Ge,  A. Ghysels,  G. Gidofalvi,  J. Gomes,  J. Gonthier,  A. Gunina,  
 D. Hait,  M. W. D. Hanson-Heine,  P. H. P. Harbach,  A. W. Hauser,  
 J. E. Herr,  E. G. Hohenstein,  Z. C. Holden,  Kerwin Hui,  B. C. Huynh,  
 T.-C. Jagau,  Hyunjun Ji,  B. Kaduk,  K. Khistyaev,  Jaehoon Kim,  
 P. Klunzinger,  K. Koh,  D. Kosenkov,  L. Koulias,  T. Kowalczyk,  
 C. M. Krauter,  A. Kunitsa,  Ka Un Lao,  A. Laurent,  K. V. Lawler,  
 Joonho Lee,  D. Lefrancois,  S. Lehtola,  D. S. Levine,  Yi-Pei Li,  
 You-Sheng Lin,  Fenglai Liu,  E. Livshits,  A. Luenser,  P. Manohar,  
 E. Mansoor,  S. F. Manzer,  Shan-Ping Mao,  Yuezhi Mao,  N. Mardirossian,  
 A. V. Marenich,  T. Markovich,  L. A. Martinez-Martinez,  S. A. Maurer,  
 N. J. Mayhall,  S. C. McKenzie,  J.-M. Mewes,  A. F. Morrison,  
 J. W. Mullinax,  K. Nanda,  T. S. Nguyen-Beck,  R. Olivares-Amaya,  
 J. A. Parkhill,  T. M. Perrine,  F. Plasser,  P. Pokhilko,  S. Prager,  
 A. Prociuk,  E. Ramos,  D. R. Rehn,  F. Rob,  M. Schneider,  N. Sergueev,  
 S. M. Sharada,  S. Sharma,  D. W. Small,  T. Stauch,  T. Stein,  
 Yu-Chuan Su,  A. J. W. Thom,  A. Tkatchenko,  T. Tsuchimochi,  N. M. Tubman,  
 L. Vogt,  M. L. Vidal,  O. Vydrov,  M. A. Watson,  J. Wenzel,  
 M. de Wergifosse,  T. A. Wesolowski,  A. White,  J. Witte,  A. Yamada,  
 Jun Yang,  K. Yao,  S. Yeganeh,  S. R. Yost,  Zhi-Qiang You,  A. Zech,  
 Igor Ying Zhang,  Xing Zhang,  Yan Zhao,  Ying Zhu,  B. R. Brooks,  
 G. K. L. Chan,  C. J. Cramer,  M. S. Gordon,  W. J. Hehre,  A. Klamt,  
 M. W. Schmidt,  C. D. Sherrill,  D. G. Truhlar,  A. Aspuru-Guzik,  R. Baer,  
 A. T. Bell,  N. A. Besley,  Jeng-Da Chai,  A. E. DePrince, III,  
 R. A. DiStasio Jr.,  A. Dreuw,  B. D. Dunietz,  T. R. Furlani,  
 Chao-Ping Hsu,  Yousung Jung,  Jing Kong,  D. S. Lambrecht,  WanZhen Liang,  
 C. Ochsenfeld,  V. A. Rassolov,  L. V. Slipchenko,  J. E. Subotnik,  
 T. Van Voorhis,  J. M. Herbert,  A. I. Krylov,  P. M. W. Gill,  M. Head-Gordon

 Contributors to earlier versions of Q-Chem not listed above: 
 R. D. Adamson,  B. Austin,  J. Baker,  G. J. O. Beran,  K. Brandhorst,  
 S. T. Brown,  E. F. C. Byrd,  A. K. Chakraborty,  C.-L. Cheng,  
 Siu Hung Chien,  D. M. Chipman,  D. L. Crittenden,  H. Dachsel,  
 R. J. Doerksen,  A. D. Dutoi,  L. Fusti-Molnar,  W. A. Goddard III,  
 A. Golubeva-Zadorozhnaya,  S. R. Gwaltney,  G. Hawkins,  A. Heyden,  
 S. Hirata,  G. Kedziora,  F. J. Keil,  C. Kelley,  Jihan Kim,  R. A. King,  
 R. Z. Khaliullin,  P. P. Korambath,  W. Kurlancheek,  A. M. Lee,  M. S. Lee,  
 S. V. Levchenko,  Ching Yeh Lin,  D. Liotard,  R. C. Lochan,  I. Lotan,  
 P. E. Maslen,  N. Nair,  D. P. O'Neill,  D. Neuhauser,  E. Neuscamman,  
 C. M. Oana,  R. Olson,  B. Peters,  R. Peverati,  P. A. Pieniazek,  
 Y. M. Rhee,  J. Ritchie,  M. A. Rohrdanz,  E. Rosta,  N. J. Russ,  
 H. F. Schaefer III,  N. E. Schultz,  N. Shenvi,  A. C. Simmonett,  A. Sodt,  
 D. Stuck,  K. S. Thanthiriwatte,  V. Vanovschi,  Tao Wang,  A. Warshel,  
 C. F. Williams,  Q. Wu,  X. Xu,  W. Zhang

 Please cite Q-Chem as follows:
 Y. Shao et al., Mol. Phys. 113, 184-215 (2015)
 DOI: 10.1080/00268976.2014.952696

 Q-Chem 5.1.1 for Intel X86 EM64T Linux

 Parts of Q-Chem use Armadillo 8.300.2 (Tropical Shenanigans).
 http://arma.sourceforge.net/

 Q-Chem begins on Wed Oct 14 15:51:14 2020  

Host: n0073.mhg0
0

     Scratch files written to /local/scratch/users/yhljason/CO2_XYG3_aug-cc-pcVQZ.inp20201014142605//
The previous job contains 0 fragments, simply inherited here
Input Ideriv = 2
Curr. Ideriv = -1
Max.  Ideriv = 2

Checking the input file for inconsistencies... 	...done.

--------------------------------------------------------------
User input:
--------------------------------------------------------------
$molecule
read
$end

$rem

jobtype sp
exchange XYG3
xc_grid 000099000590
basis aug-cc-pcVQZ
max_scf_cycles 200
thresh 14
scf_convergence 8
mem_total 128000
cc_memory 96000
cc_backend xm
mem_static 1500
symmetry false
sym_ignore true
scf_guess read
unrestricted false
scf_algorithm gdm
n_frozen_core 0
$end

$multipole_field
ZZ -0.0001
$end

--------------------------------------------------------------
 ----------------------------------------------------------------
             Standard Nuclear Orientation (Angstroms)
    I     Atom           X                Y                Z
 ----------------------------------------------------------------
    1      C       0.0000000000     0.0000000000     0.0000000000
    2      O       0.0000000000     0.0000000000     1.1621000000
    3      O       0.0000000000     0.0000000000    -1.1621000000
 ----------------------------------------------------------------
 Nuclear Repulsion Energy =    58.2864495159 hartrees
 There are       11 alpha and       11 beta electrons
 Requested basis set is aug-cc-pCVQZ
 There are 87 shells and 327 basis functions

 Total QAlloc Memory Limit 128000 MB
 Mega-Array Size      1467 MB
 MEM_STATIC part      1500 MB

                       Distance Matrix (Angstroms)
             C (  1)   O (  2)
   O (  2)  1.162100
   O (  3)  1.162100  2.324200
 
 Applying Cartesian multipole field
    Component          Value
    ---------          -----
     (0,0,2)       -1.00000E-04
 Nucleus-field energy     =    -0.0077162221 hartrees
 A cutoff of  1.0D-14 yielded   3538 shell pairs
 There are     51370 function pairs (     84504 Cartesian)
 
 -------------------------------------------------------
 OpenMP Integral Computing Module                       
 Release: version 1.0, May 2013, Q-Chem Inc. Pittsburgh 
 -------------------------------------------------------
 Integral Job Info:
 Integral job number is                      11
 Integral operator is                         1
 short-range coefficients                     0
 long-range coefficients              100000000
 Omega coefficients                           0
 if combine SR and LR in K                    0
 Integral screening is                        0
 Integral computing path is                   2
 max size of driver memory is           3200000
 size of driver memory is               1704330
 size of scratch memory is             18511652
 max col of scratch BK array              50625
 max len of scratch array in speh3         2114
 max len of scratch index in speh4           50
 max int batch size is                      520
 min int batch size is                       52
 fixed nKL is                                52
 max L of basis functions is                  4
 order of int derivative is                   0
 number of shells is                         87
 number of basis is                         417
 number of cartesian basis is               417
 number of contracted shell pairs          3538
 number of primitive shell pairs           8022
 maxK2 (contraction) of shell pair           81
 max number of K2 of shell pair               1
 max number of CS2 of shell pair            407
 max number of PS2 of shell pair            810
 mem total for path MDJ                  811216
 -------------------------------------------------------
 Smallest overlap matrix eigenvalue = 4.61E-05
 Guess MOs from SCF MO coefficient file
 Reading MOs from coefficient file
 Reading MOs from coefficient file
 A restricted hybrid HF-DFT SCF calculation will be
 performed using Geometric Direct Minimization
 Exchange:     0.2000 Hartree-Fock + 0.0800 Slater + 0.7200 B88
 Correlation:  0.1900 VWN1RPA + 0.8100 LYP
 Using Euler-Maclaurin-Lebedev (99,590) quadrature formula
 SCF converges when RMS gradient is below 1.0E-08
Using Q-Chem read-in guess as SCF_GUESS READ specified.

 using 8 threads for integral computing
 -------------------------------------------------------
 OpenMP Integral computing Module                
 Release: version 2.0, May 2017, Q-Chem Inc. Pleasanton 
 -------------------------------------------------------
TIMEINFO->: J/JK contribution 262.32 sec.
 -------------------------------------------------------
 OpenMP BLAS3 based DFT computing Module                
 Release: version 1.0, May 2013, Q-Chem Inc. Pittsburgh 
 -------------------------------------------------------
 ---------------------------------------
  Cycle       Energy        RMS Gradient
 ---------------------------------------
    1    -188.6779385704      9.54E-04 Normal BFGS step
TIMEINFO->: J/JK contribution 277.38 sec.
    2    -188.6779406535      1.20E-03 Normal BFGS step
TIMEINFO->: J/JK contribution 267.00 sec.
    3    -188.6779427288      3.62E-04 Normal BFGS step
TIMEINFO->: J/JK contribution 263.04 sec.
    4    -188.6779430385      1.37E-04 Normal BFGS step
TIMEINFO->: J/JK contribution 271.15 sec.
    5    -188.6779432219      1.69E-05 Normal BFGS step
TIMEINFO->: J/JK contribution 274.96 sec.
    6    -188.6779432249      2.89E-06 Normal BFGS step
TIMEINFO->: J/JK contribution 256.63 sec.
    7    -188.6779432250      2.48E-07 Normal BFGS step
TIMEINFO->: J/JK contribution 255.45 sec.
    8    -188.6779432250      4.20E-08 Normal BFGS step
TIMEINFO->: J/JK contribution 218.55 sec.
   GDM::WARNING energy changes are now smaller than effective accuracy.
   GDM::        calculation will continue, but THRESH should be increased
   GDM::        or SCF_CONVERGENCE decreased.
   GDM::        effective_thresh =   1.272885685743574E-010
    9    -188.6779432250      7.94E-09 Convergence criterion met
 ---------------------------------------
 B3LYP orbitals are now ready for the XYG3 calculation.
 XYG3 energy = Exch (0.8033 HF  - 0.0140 Slater + 0.2107 Becke88) + 
               Corr (0.6789 LYP + 0.3211 MP2)
 SCF time:  CPU 2510.89 s  wall 321.60 s
 SCF   energy in the final basis set = -188.29265494
 Total energy in the final basis set = -188.29265494
 
 Components of the MP2 correlation energy:
        aaaa  correlation energy  =        -0.1381929552 au
        abab  correlation energy  =        -0.8550879641 au
        bbbb  correlation energy  =        -0.1381929552 au
        singles contribution not yet available for XYG3

 Total  XYG3        total energy  =      -188.6559711957 au

 
 --------------------------------------------------------------
 
                    Orbital Energies (a.u.)
 --------------------------------------------------------------
 
 Alpha MOs
 -- Occupied --
-19.215 -19.215 -10.369  -1.171  -1.131  -0.574  -0.531  -0.527
 -0.527  -0.384  -0.384
 -- Virtual --
 -0.021   0.019   0.019   0.036   0.036   0.038   0.085   0.099
  0.099   0.108   0.150   0.150   0.154   0.154   0.159   0.188
  0.254   0.274   0.274   0.304   0.305   0.305   0.367   0.367
  0.405   0.464   0.471   0.471   0.497   0.497   0.519   0.519
  0.548   0.575   0.617   0.617   0.661   0.661   0.710   0.723
  0.723   0.765   0.776   0.776   0.830   0.830   0.884   0.930
  0.982   0.982   0.999   0.999   1.159   1.168   1.168   1.319
  1.324   1.324   1.374   1.374   1.381   1.381   1.411   1.411
  1.471   1.471   1.489   1.491   1.491   1.491   1.522   1.704
  1.722   1.722   1.725   1.725   1.735   1.735   1.753   1.896
  1.896   1.991   1.991   2.006   2.006   2.020   2.020   2.281
  2.281   2.308   2.308   2.407   2.407   2.417   2.530   2.666
  2.666   2.771   2.920   2.920   2.923   2.923   3.162   3.197
  3.346   3.346   3.401   3.401   3.554   3.554   3.609   3.672
  3.691   3.691   3.725   3.725   3.797   3.797   3.815   3.815
  3.904   3.904   3.905   3.905   3.925   3.925   4.008   4.017
  4.017   4.189   4.233   4.233   4.261   4.261   4.300   4.300
  4.337   4.449   4.449   4.494   4.556   4.556   4.594   4.594
  5.133   5.133   5.228   5.228   5.269   5.436   5.540   5.540
  5.602   5.602   5.682   5.682   5.687   5.855   5.872   5.872
  6.023   6.023   6.275   6.275   6.528   6.588   6.588   6.796
  6.796   7.231   7.535   7.535   7.945   7.945   8.511   8.741
  8.741   9.117   9.544   9.544   9.849   9.849  10.080  10.080
 10.164  10.164  10.281  10.281  10.493  10.578  10.578  10.598
 10.598  10.629  10.785  10.785  10.856  10.856  10.912  10.981
 10.981  11.092  11.323  11.323  11.326  11.326  11.577  11.816
 11.816  11.841  11.841  11.906  11.906  12.379  12.379  12.427
 12.427  12.443  12.443  12.786  13.343  13.475  13.475  14.657
 15.300  15.300  15.908  17.357  18.329  18.912  18.912  21.132
 25.965  25.965  26.558  26.558  28.217  32.808  32.808  33.121
 33.121  34.041  34.468  37.513  46.080  46.080  46.123  46.123
 46.482  46.482  47.349  47.493  47.493  47.834  63.003  63.448
 65.695  65.695  67.284  97.326  97.326  97.342  97.342  97.420
 97.420  97.542 101.951 101.951 101.953 101.953 101.998 101.998
102.002 102.002 102.012 102.012 102.049 102.049 102.090 102.138
113.667 113.667 113.988 113.988 114.810 115.271 115.271 115.526
115.526 116.210 116.814 122.519 196.476 196.476 196.501 196.501
196.686 196.686 197.116 197.229 197.229 197.416 214.336 214.676
223.129 223.129 224.484 392.505 392.505 392.726 392.726 393.262
393.808 507.065 891.208 891.556
 --------------------------------------------------------------
 
          Ground-State Mulliken Net Atomic Charges

     Atom                 Charge (a.u.)
  ----------------------------------------
      1 C                     0.748261
      2 O                    -0.374130
      3 O                    -0.374130
  ----------------------------------------
  Sum of atomic charges =     0.000000

 -----------------------------------------------------------------
                    Cartesian Multipole Moments
 -----------------------------------------------------------------
    Charge (ESU x 10^10)
                 0.0000
    Dipole Moment (Debye)
         X      -0.0000      Y      -0.0000      Z      -0.0000
       Tot       0.0000
    Quadrupole Moments (Debye-Ang)
        XX     -14.8792     XY      -0.0000     YY     -14.8792
        XZ      -0.0000     YZ      -0.0000     ZZ     -19.3188
    Octopole Moments (Debye-Ang^2)
       XXX      -0.0000    XXY      -0.0000    XYY       0.0000
       YYY      -0.0000    XXZ       0.0000    XYZ       0.0000
       YYZ       0.0000    XZZ      -0.0000    YZZ      -0.0000
       ZZZ      -0.0000
    Hexadecapole Moments (Debye-Ang^3)
      XXXX     -12.1913   XXXY      -0.0000   XXYY      -4.0638
      XYYY      -0.0000   YYYY     -12.1913   XXXZ       0.0000
      XXYZ      -0.0000   XYYZ      -0.0000   YYYZ      -0.0000
      XXZZ     -19.1300   XYZZ      -0.0000   YYZZ     -19.1300
      XZZZ      -0.0000   YZZZ      -0.0000   ZZZZ    -103.8033
 -----------------------------------------------------------------
Archival summary:
1\1\n0073.mhg0\SP\ProcedureUnspecified\BasisUnspecified\21\yhljason\WedOct1416:04:472020WedOct1416:04:472020\0\\#,ProcedureUnspecified,BasisUnspecified,\\0,1\C\O,1,1.1621\O,1,1.1621,2,180\\\@

 Total job time:  813.15s(wall), 6383.92s(cpu) 
 Wed Oct 14 16:04:47 2020

        *************************************************************
        *                                                           *
        *  Thank you very much for using Q-Chem.  Have a nice day.  *
        *                                                           *
        *************************************************************


