Q-Chem Developer Version!
                  Welcome to Q-Chem
     A Quantum Leap Into The Future Of Chemistry


 Q-Chem 5.1, Q-Chem, Inc., Pleasanton, CA (2018)

 Yihan Shao,  Zhengting Gan,  E. Epifanovsky,  A. T. B. Gilbert,  M. Wormit,  
 J. Kussmann,  A. W. Lange,  A. Behn,  Jia Deng,  Xintian Feng,  D. Ghosh,  
 M. Goldey,  P. R. Horn,  L. D. Jacobson,  I. Kaliman,  T. Kus,  A. Landau,  
 Jie Liu,  E. I. Proynov,  R. M. Richard,  R. P. Steele,  E. J. Sundstrom,  
 H. L. Woodcock III,  P. M. Zimmerman,  D. Zuev,  B. Albrecht,  E. Alguire,  
 S. A. Baeppler,  D. Barton,  Z. Benda,  Y. A. Bernard,  E. J. Berquist,  
 K. B. Bravaya,  H. Burton,  D. Casanova,  Chun-Min Chang,  Yunqing Chen,  
 A. Chien,  K. D. Closser,  M. P. Coons,  S. Coriani,  S. Dasgupta,  
 A. L. Dempwolff,  M. Diedenhofen,  Hainam Do,  R. G. Edgar,  Po-Tung Fang,  
 S. Faraji,  S. Fatehi,  Qingguo Feng,  K. D. Fenk,  J. Fosso-Tande,  
 Qinghui Ge,  A. Ghysels,  G. Gidofalvi,  J. Gomes,  J. Gonthier,  A. Gunina,  
 D. Hait,  M. W. D. Hanson-Heine,  P. H. P. Harbach,  A. W. Hauser,  
 J. E. Herr,  E. G. Hohenstein,  Z. C. Holden,  Kerwin Hui,  B. C. Huynh,  
 T.-C. Jagau,  Hyunjun Ji,  B. Kaduk,  K. Khistyaev,  Jaehoon Kim,  
 P. Klunzinger,  K. Koh,  D. Kosenkov,  L. Koulias,  T. Kowalczyk,  
 C. M. Krauter,  A. Kunitsa,  Ka Un Lao,  A. Laurent,  K. V. Lawler,  
 Joonho Lee,  D. Lefrancois,  S. Lehtola,  D. S. Levine,  Yi-Pei Li,  
 You-Sheng Lin,  Fenglai Liu,  E. Livshits,  A. Luenser,  P. Manohar,  
 E. Mansoor,  S. F. Manzer,  Shan-Ping Mao,  Yuezhi Mao,  N. Mardirossian,  
 A. V. Marenich,  T. Markovich,  L. A. Martinez-Martinez,  S. A. Maurer,  
 N. J. Mayhall,  S. C. McKenzie,  J.-M. Mewes,  A. F. Morrison,  
 J. W. Mullinax,  K. Nanda,  T. S. Nguyen-Beck,  R. Olivares-Amaya,  
 J. A. Parkhill,  T. M. Perrine,  F. Plasser,  P. Pokhilko,  S. Prager,  
 A. Prociuk,  E. Ramos,  D. R. Rehn,  F. Rob,  M. Schneider,  N. Sergueev,  
 S. M. Sharada,  S. Sharma,  D. W. Small,  T. Stauch,  T. Stein,  
 Yu-Chuan Su,  A. J. W. Thom,  A. Tkatchenko,  T. Tsuchimochi,  N. M. Tubman,  
 L. Vogt,  M. L. Vidal,  O. Vydrov,  M. A. Watson,  J. Wenzel,  
 M. de Wergifosse,  T. A. Wesolowski,  A. White,  J. Witte,  A. Yamada,  
 Jun Yang,  K. Yao,  S. Yeganeh,  S. R. Yost,  Zhi-Qiang You,  A. Zech,  
 Igor Ying Zhang,  Xing Zhang,  Yan Zhao,  Ying Zhu,  B. R. Brooks,  
 G. K. L. Chan,  C. J. Cramer,  M. S. Gordon,  W. J. Hehre,  A. Klamt,  
 M. W. Schmidt,  C. D. Sherrill,  D. G. Truhlar,  A. Aspuru-Guzik,  R. Baer,  
 A. T. Bell,  N. A. Besley,  Jeng-Da Chai,  A. E. DePrince, III,  
 R. A. DiStasio Jr.,  A. Dreuw,  B. D. Dunietz,  T. R. Furlani,  
 Chao-Ping Hsu,  Yousung Jung,  Jing Kong,  D. S. Lambrecht,  WanZhen Liang,  
 C. Ochsenfeld,  V. A. Rassolov,  L. V. Slipchenko,  J. E. Subotnik,  
 T. Van Voorhis,  J. M. Herbert,  A. I. Krylov,  P. M. W. Gill,  M. Head-Gordon

 Contributors to earlier versions of Q-Chem not listed above: 
 R. D. Adamson,  B. Austin,  J. Baker,  G. J. O. Beran,  K. Brandhorst,  
 S. T. Brown,  E. F. C. Byrd,  A. K. Chakraborty,  C.-L. Cheng,  
 Siu Hung Chien,  D. M. Chipman,  D. L. Crittenden,  H. Dachsel,  
 R. J. Doerksen,  A. D. Dutoi,  L. Fusti-Molnar,  W. A. Goddard III,  
 A. Golubeva-Zadorozhnaya,  S. R. Gwaltney,  G. Hawkins,  A. Heyden,  
 S. Hirata,  G. Kedziora,  F. J. Keil,  C. Kelley,  Jihan Kim,  R. A. King,  
 R. Z. Khaliullin,  P. P. Korambath,  W. Kurlancheek,  A. M. Lee,  M. S. Lee,  
 S. V. Levchenko,  Ching Yeh Lin,  D. Liotard,  R. C. Lochan,  I. Lotan,  
 P. E. Maslen,  N. Nair,  D. P. O'Neill,  D. Neuhauser,  E. Neuscamman,  
 C. M. Oana,  R. Olson,  B. Peters,  R. Peverati,  P. A. Pieniazek,  
 Y. M. Rhee,  J. Ritchie,  M. A. Rohrdanz,  E. Rosta,  N. J. Russ,  
 H. F. Schaefer III,  N. E. Schultz,  N. Shenvi,  A. C. Simmonett,  A. Sodt,  
 D. Stuck,  K. S. Thanthiriwatte,  V. Vanovschi,  Tao Wang,  A. Warshel,  
 C. F. Williams,  Q. Wu,  X. Xu,  W. Zhang

 Please cite Q-Chem as follows:
 Y. Shao et al., Mol. Phys. 113, 184-215 (2015)
 DOI: 10.1080/00268976.2014.952696

 Q-Chem 5.1.1 for Intel X86 EM64T Linux

 Parts of Q-Chem use Armadillo 8.300.2 (Tropical Shenanigans).
 http://arma.sourceforge.net/

 Q-Chem begins on Wed Oct 14 14:26:14 2020  

Host: n0100.mhg0
0

     Scratch files written to /local/scratch/users/yhljason/HCCF_XYG3_aug-cc-pcVTZ.inp20201014142612//
Input Ideriv = 2
Curr. Ideriv = -1
Max.  Ideriv = 2

Checking the input file for inconsistencies... 	...done.

--------------------------------------------------------------
User input:
--------------------------------------------------------------
$molecule
0 1
        C       0.0000000000     0.0000000000    -0.0942000000
        C       0.0000000000     0.0000000000    -1.2922000000
         F       0.0000000000     0.0000000000     1.1848000000
         H       0.0000000000     0.0000000000    -2.3452000000
$end

$rem
jobtype sp
exchange XYG3
xc_grid 000099000590
basis aug-cc-pcVTZ
max_scf_cycles 200
thresh 14
scf_convergence 8
scf_algorithm gdm
symmetry false
sym_ignore true
unrestricted false
gen_scfman false
internal_stability_iter 15
internal_stability_davidson_iter 200
mem_total 128000
cc_memory 96000
cc_backend xm
mem_static 1500
n_frozen_core 0
$end



--------------------------------------------------------------
 ----------------------------------------------------------------
             Standard Nuclear Orientation (Angstroms)
    I     Atom           X                Y                Z
 ----------------------------------------------------------------
    1      C       0.0000000000     0.0000000000    -0.0942000000
    2      C       0.0000000000     0.0000000000    -1.2922000000
    3      F       0.0000000000     0.0000000000     1.1848000000
    4      H       0.0000000000     0.0000000000    -2.3452000000
 ----------------------------------------------------------------
 Nuclear Repulsion Energy =    55.5552441247 hartrees
 There are       11 alpha and       11 beta electrons
 Requested basis set is aug-cc-pCVTZ
 There are 66 shells and 200 basis functions

 Total QAlloc Memory Limit 128000 MB
 Mega-Array Size      1467 MB
 MEM_STATIC part      1500 MB

                       Distance Matrix (Angstroms)
             C (  1)   C (  2)   F (  3)
   C (  2)  1.198000
   F (  3)  1.279000  2.477000
   H (  4)  2.251000  1.053000  3.530000
 
 A cutoff of  1.0D-14 yielded   2127 shell pairs
 There are     19759 function pairs (     26772 Cartesian)
 
 -------------------------------------------------------
 OpenMP Integral Computing Module                       
 Release: version 1.0, May 2013, Q-Chem Inc. Pittsburgh 
 -------------------------------------------------------
 Integral Job Info:
 Integral job number is                      11
 Integral operator is                         1
 short-range coefficients                     0
 long-range coefficients              100000000
 Omega coefficients                           0
 if combine SR and LR in K                    0
 Integral screening is                        0
 Integral computing path is                   2
 max size of driver memory is            800000
 size of driver memory is                776718
 size of scratch memory is              6691272
 max col of scratch BK array              10000
 max len of scratch array in speh3          662
 max len of scratch index in speh4           32
 max int batch size is                      520
 min int batch size is                       52
 fixed nKL is                                52
 max L of basis functions is                  3
 order of int derivative is                   0
 number of shells is                         66
 number of basis is                         232
 number of cartesian basis is               232
 number of contracted shell pairs          2127
 number of primitive shell pairs           5689
 maxK2 (contraction) of shell pair           64
 max number of K2 of shell pair               1
 max number of CS2 of shell pair            321
 max number of PS2 of shell pair            704
 mem total for path MDJ                  600000
 -------------------------------------------------------
 Smallest overlap matrix eigenvalue = 1.17E-05

 Scale SEOQF with 1.000000e-01/1.000000e-01/1.000000e-01

 Standard Electronic Orientation quadrupole field applied
 Nucleus-field energy     =    -0.0000000030 hartrees
 Guess from superposition of atomic densities
 Warning:  Energy on first SCF cycle will be non-variational
 SAD guess density has 22.000000 electrons
 A restricted hybrid HF-DFT SCF calculation will be
 performed using Pulay DIIS + Geometric Direct Minimization
 Exchange:     0.2000 Hartree-Fock + 0.0800 Slater + 0.7200 B88
 Correlation:  0.1900 VWN1RPA + 0.8100 LYP
 Using Euler-Maclaurin-Lebedev (99,590) quadrature formula
 SCF converges when RMS gradient is below 1.0E-08
 using 8 threads for integral computing
 -------------------------------------------------------
 OpenMP Integral computing Module                
 Release: version 2.0, May 2017, Q-Chem Inc. Pleasanton 
 -------------------------------------------------------
TIMEINFO->: J/JK contribution 12.77 sec.
 -------------------------------------------------------
 OpenMP BLAS3 based DFT computing Module                
 Release: version 1.0, May 2013, Q-Chem Inc. Pittsburgh 
 -------------------------------------------------------
 ---------------------------------------
  Cycle       Energy        RMS Gradient
 ---------------------------------------
    1    -177.0808808736      2.68E-02 Done DIIS. Switching to GDM
TIMEINFO->: J/JK contribution 30.08 sec.
    2    -176.5394081890      1.59E-01 Descent step
TIMEINFO->: J/JK contribution 29.88 sec.
    3    -176.5191838142      3.13E-02 Line search: overstep
TIMEINFO->: J/JK contribution 29.51 sec.
    4    -176.6108184343      4.30E-02 Descent step
TIMEINFO->: J/JK contribution 29.35 sec.
    5    -176.6145783683      6.31E-02 Normal BFGS step
TIMEINFO->: J/JK contribution 29.28 sec.
    6    -176.6199226452      1.73E-03 Normal BFGS step
TIMEINFO->: J/JK contribution 29.50 sec.
    7    -176.6199461810      1.70E-03 Normal BFGS step
TIMEINFO->: J/JK contribution 29.35 sec.
    8    -176.6199609024      5.64E-04 Normal BFGS step
TIMEINFO->: J/JK contribution 29.18 sec.
    9    -176.6199639790      2.31E-04 Normal BFGS step
TIMEINFO->: J/JK contribution 29.18 sec.
   10    -176.6199648011      2.63E-05 Normal BFGS step
TIMEINFO->: J/JK contribution 28.49 sec.
   11    -176.6199648063      2.88E-06 Normal BFGS step
TIMEINFO->: J/JK contribution 27.78 sec.
   12    -176.6199648064      2.50E-07 Normal BFGS step
TIMEINFO->: J/JK contribution 26.94 sec.
   13    -176.6199648064      3.98E-08 Normal BFGS step
TIMEINFO->: J/JK contribution 25.96 sec.
   GDM::WARNING energy changes are now smaller than effective accuracy.
   GDM::        calculation will continue, but THRESH should be increased
   GDM::        or SCF_CONVERGENCE decreased.
   GDM::        effective_thresh =   1.580966614567192E-009
   14    -176.6199648064      1.25E-08 Normal BFGS step
TIMEINFO->: J/JK contribution 25.10 sec.
   GDM::WARNING energy changes are now smaller than effective accuracy.
   GDM::        calculation will continue, but THRESH should be increased
   GDM::        or SCF_CONVERGENCE decreased.
   GDM::        effective_thresh =   1.580966614567192E-009
   15    -176.6199648064      2.90E-08 Normal BFGS step
TIMEINFO->: J/JK contribution 29.41 sec.
   16    -176.6199648064      7.45E-09 Convergence criterion met
 ---------------------------------------
 B3LYP orbitals are now ready for the XYG3 calculation.
 XYG3 energy = Exch (0.8033 HF  - 0.0140 Slater + 0.2107 Becke88) + 
               Corr (0.6789 LYP + 0.3211 MP2)
 SCF time:  CPU 565.52 s  wall 70.85 s
 SCF   energy in the final basis set = -176.26690482
 Total energy in the final basis set = -176.26690482
 
 Components of the MP2 correlation energy:
        aaaa  correlation energy  =        -0.1147221512 au
        abab  correlation energy  =        -0.7481655498 au
        bbbb  correlation energy  =        -0.1147221512 au
        singles contribution not yet available for XYG3

 Total  XYG3        total energy  =      -176.5808153397 au

 
 --------------------------------------------------------------
 
                    Orbital Energies (a.u.)
 --------------------------------------------------------------
 
 Alpha MOs
 -- Occupied --
-24.771 -10.275 -10.191  -1.310  -0.778  -0.646  -0.542  -0.532
 -0.532  -0.298  -0.298
 -- Virtual --
 -0.015   0.014   0.029   0.029   0.052   0.052   0.059   0.063
  0.094   0.094   0.112   0.148   0.175   0.194   0.194   0.194
  0.194   0.210   0.271   0.271   0.297   0.304   0.304   0.322
  0.322   0.324   0.371   0.371   0.384   0.398   0.496   0.497
  0.497   0.643   0.701   0.701   0.734   0.734   0.756   0.786
  0.809   0.809   0.812   0.812   0.854   0.866   0.866   0.869
  0.869   0.895   0.895   0.972   1.015   1.015   1.038   1.054
  1.054   1.119   1.119   1.124   1.124   1.137   1.241   1.258
  1.258   1.367   1.423   1.423   1.524   1.524   1.658   1.658
  1.662   1.781   1.784   1.784   1.882   1.980   1.980   2.063
  2.403   2.403   2.502   2.502   2.506   2.524   2.661   2.661
  2.695   2.695   2.837   2.837   2.910   2.957   2.957   2.977
  2.977   3.033   3.033   3.038   3.077   3.092   3.092   3.231
  3.231   3.353   3.353   3.368   3.368   3.453   3.474   3.474
  3.590   3.590   3.617   3.791   3.791   3.931   4.172   4.219
  4.219   4.306   4.306   4.438   4.438   4.619   4.655   4.655
  4.866   5.400   5.400   5.417   6.318   6.318   6.398   6.662
  6.917   7.931   8.249   8.249   8.546   8.546   8.697   8.697
  8.839   8.839   9.126   9.126   9.193   9.373  14.998  14.998
 15.716  15.716  16.117  16.258  17.660  17.788  31.067  31.067
 32.628  34.914  40.358  40.358  40.448  40.448  40.460  40.460
 40.660  40.663  40.663  41.292  51.863  51.863  52.013  52.013
 52.131  79.695  79.695  80.251  80.251  80.580  81.610  84.503
 87.052 168.207 168.207 169.431 181.302
 --------------------------------------------------------------
 
          Ground-State Mulliken Net Atomic Charges

     Atom                 Charge (a.u.)
  ----------------------------------------
      1 C                     0.379471
      2 C                    -0.619305
      3 F                    -0.219248
      4 H                     0.459082
  ----------------------------------------
  Sum of atomic charges =    -0.000000

 -----------------------------------------------------------------
                    Cartesian Multipole Moments
 -----------------------------------------------------------------
    Charge (ESU x 10^10)
                -0.0000
    Dipole Moment (Debye)
         X      -0.0000      Y       0.0000      Z      -0.6309
       Tot       0.6309
    Quadrupole Moments (Debye-Ang)
        XX     -17.1453     XY      -0.0000     YY     -17.1453
        XZ       0.0000     YZ       0.0000     ZZ     -13.1383
    Octopole Moments (Debye-Ang^2)
       XXX      -0.0000    XXY      -0.0000    XYY      -0.0000
       YYY      -0.0000    XXZ       5.0599    XYZ       0.0000
       YYZ       5.0599    XZZ      -0.0000    YZZ      -0.0000
       ZZZ      -1.0712
    Hexadecapole Moments (Debye-Ang^3)
      XXXX     -18.2512   XXXY      -0.0000   XXYY      -6.0837
      XYYY      -0.0000   YYYY     -18.2512   XXXZ       0.0000
      XXYZ       0.0000   XYYZ       0.0000   YYYZ       0.0000
      XXZZ     -26.3520   XYZZ      -0.0000   YYZZ     -26.3520
      XZZZ       0.0000   YZZZ       0.0000   ZZZZ     -99.7132
 -----------------------------------------------------------------
Archival summary:
1\1\n0100.mhg0\SP\ProcedureUnspecified\BasisUnspecified\121\yhljason\WedOct1414:28:102020WedOct1414:28:102020\0\\#,ProcedureUnspecified,BasisUnspecified,\\0,1\C\C,1,1.198\H,2,1.053,1,180\F,1,1.279,2,180,3,0,0\\\@

 Total job time:  115.62s(wall), 915.85s(cpu) 
 Wed Oct 14 14:28:10 2020

        *************************************************************
        *                                                           *
        *  Thank you very much for using Q-Chem.  Have a nice day.  *
        *                                                           *
        *************************************************************


 
User input: 2 of 7 
 
Q-Chem Developer Version!
                  Welcome to Q-Chem
     A Quantum Leap Into The Future Of Chemistry


 Q-Chem 5.1, Q-Chem, Inc., Pleasanton, CA (2018)

 Yihan Shao,  Zhengting Gan,  E. Epifanovsky,  A. T. B. Gilbert,  M. Wormit,  
 J. Kussmann,  A. W. Lange,  A. Behn,  Jia Deng,  Xintian Feng,  D. Ghosh,  
 M. Goldey,  P. R. Horn,  L. D. Jacobson,  I. Kaliman,  T. Kus,  A. Landau,  
 Jie Liu,  E. I. Proynov,  R. M. Richard,  R. P. Steele,  E. J. Sundstrom,  
 H. L. Woodcock III,  P. M. Zimmerman,  D. Zuev,  B. Albrecht,  E. Alguire,  
 S. A. Baeppler,  D. Barton,  Z. Benda,  Y. A. Bernard,  E. J. Berquist,  
 K. B. Bravaya,  H. Burton,  D. Casanova,  Chun-Min Chang,  Yunqing Chen,  
 A. Chien,  K. D. Closser,  M. P. Coons,  S. Coriani,  S. Dasgupta,  
 A. L. Dempwolff,  M. Diedenhofen,  Hainam Do,  R. G. Edgar,  Po-Tung Fang,  
 S. Faraji,  S. Fatehi,  Qingguo Feng,  K. D. Fenk,  J. Fosso-Tande,  
 Qinghui Ge,  A. Ghysels,  G. Gidofalvi,  J. Gomes,  J. Gonthier,  A. Gunina,  
 D. Hait,  M. W. D. Hanson-Heine,  P. H. P. Harbach,  A. W. Hauser,  
 J. E. Herr,  E. G. Hohenstein,  Z. C. Holden,  Kerwin Hui,  B. C. Huynh,  
 T.-C. Jagau,  Hyunjun Ji,  B. Kaduk,  K. Khistyaev,  Jaehoon Kim,  
 P. Klunzinger,  K. Koh,  D. Kosenkov,  L. Koulias,  T. Kowalczyk,  
 C. M. Krauter,  A. Kunitsa,  Ka Un Lao,  A. Laurent,  K. V. Lawler,  
 Joonho Lee,  D. Lefrancois,  S. Lehtola,  D. S. Levine,  Yi-Pei Li,  
 You-Sheng Lin,  Fenglai Liu,  E. Livshits,  A. Luenser,  P. Manohar,  
 E. Mansoor,  S. F. Manzer,  Shan-Ping Mao,  Yuezhi Mao,  N. Mardirossian,  
 A. V. Marenich,  T. Markovich,  L. A. Martinez-Martinez,  S. A. Maurer,  
 N. J. Mayhall,  S. C. McKenzie,  J.-M. Mewes,  A. F. Morrison,  
 J. W. Mullinax,  K. Nanda,  T. S. Nguyen-Beck,  R. Olivares-Amaya,  
 J. A. Parkhill,  T. M. Perrine,  F. Plasser,  P. Pokhilko,  S. Prager,  
 A. Prociuk,  E. Ramos,  D. R. Rehn,  F. Rob,  M. Schneider,  N. Sergueev,  
 S. M. Sharada,  S. Sharma,  D. W. Small,  T. Stauch,  T. Stein,  
 Yu-Chuan Su,  A. J. W. Thom,  A. Tkatchenko,  T. Tsuchimochi,  N. M. Tubman,  
 L. Vogt,  M. L. Vidal,  O. Vydrov,  M. A. Watson,  J. Wenzel,  
 M. de Wergifosse,  T. A. Wesolowski,  A. White,  J. Witte,  A. Yamada,  
 Jun Yang,  K. Yao,  S. Yeganeh,  S. R. Yost,  Zhi-Qiang You,  A. Zech,  
 Igor Ying Zhang,  Xing Zhang,  Yan Zhao,  Ying Zhu,  B. R. Brooks,  
 G. K. L. Chan,  C. J. Cramer,  M. S. Gordon,  W. J. Hehre,  A. Klamt,  
 M. W. Schmidt,  C. D. Sherrill,  D. G. Truhlar,  A. Aspuru-Guzik,  R. Baer,  
 A. T. Bell,  N. A. Besley,  Jeng-Da Chai,  A. E. DePrince, III,  
 R. A. DiStasio Jr.,  A. Dreuw,  B. D. Dunietz,  T. R. Furlani,  
 Chao-Ping Hsu,  Yousung Jung,  Jing Kong,  D. S. Lambrecht,  WanZhen Liang,  
 C. Ochsenfeld,  V. A. Rassolov,  L. V. Slipchenko,  J. E. Subotnik,  
 T. Van Voorhis,  J. M. Herbert,  A. I. Krylov,  P. M. W. Gill,  M. Head-Gordon

 Contributors to earlier versions of Q-Chem not listed above: 
 R. D. Adamson,  B. Austin,  J. Baker,  G. J. O. Beran,  K. Brandhorst,  
 S. T. Brown,  E. F. C. Byrd,  A. K. Chakraborty,  C.-L. Cheng,  
 Siu Hung Chien,  D. M. Chipman,  D. L. Crittenden,  H. Dachsel,  
 R. J. Doerksen,  A. D. Dutoi,  L. Fusti-Molnar,  W. A. Goddard III,  
 A. Golubeva-Zadorozhnaya,  S. R. Gwaltney,  G. Hawkins,  A. Heyden,  
 S. Hirata,  G. Kedziora,  F. J. Keil,  C. Kelley,  Jihan Kim,  R. A. King,  
 R. Z. Khaliullin,  P. P. Korambath,  W. Kurlancheek,  A. M. Lee,  M. S. Lee,  
 S. V. Levchenko,  Ching Yeh Lin,  D. Liotard,  R. C. Lochan,  I. Lotan,  
 P. E. Maslen,  N. Nair,  D. P. O'Neill,  D. Neuhauser,  E. Neuscamman,  
 C. M. Oana,  R. Olson,  B. Peters,  R. Peverati,  P. A. Pieniazek,  
 Y. M. Rhee,  J. Ritchie,  M. A. Rohrdanz,  E. Rosta,  N. J. Russ,  
 H. F. Schaefer III,  N. E. Schultz,  N. Shenvi,  A. C. Simmonett,  A. Sodt,  
 D. Stuck,  K. S. Thanthiriwatte,  V. Vanovschi,  Tao Wang,  A. Warshel,  
 C. F. Williams,  Q. Wu,  X. Xu,  W. Zhang

 Please cite Q-Chem as follows:
 Y. Shao et al., Mol. Phys. 113, 184-215 (2015)
 DOI: 10.1080/00268976.2014.952696

 Q-Chem 5.1.1 for Intel X86 EM64T Linux

 Parts of Q-Chem use Armadillo 8.300.2 (Tropical Shenanigans).
 http://arma.sourceforge.net/

 Q-Chem begins on Wed Oct 14 14:28:10 2020  

Host: n0100.mhg0
0

     Scratch files written to /local/scratch/users/yhljason/HCCF_XYG3_aug-cc-pcVTZ.inp20201014142612//
The previous job contains 0 fragments, simply inherited here
Input Ideriv = 2
Curr. Ideriv = -1
Max.  Ideriv = 2

Checking the input file for inconsistencies... 	...done.

--------------------------------------------------------------
User input:
--------------------------------------------------------------
$molecule
read
$end

$rem

jobtype sp
exchange XYG3
xc_grid 000099000590
basis aug-cc-pcVTZ
max_scf_cycles 200
thresh 14
scf_convergence 8
mem_total 128000
cc_memory 96000
cc_backend xm
mem_static 1500
symmetry false
sym_ignore true
scf_guess read
unrestricted false
scf_algorithm gdm
n_frozen_core 0
$end

$multipole_field
XX 0.0001
$end


--------------------------------------------------------------
 ----------------------------------------------------------------
             Standard Nuclear Orientation (Angstroms)
    I     Atom           X                Y                Z
 ----------------------------------------------------------------
    1      C       0.0000000000     0.0000000000    -0.0942000000
    2      C       0.0000000000     0.0000000000    -1.2922000000
    3      F       0.0000000000     0.0000000000     1.1848000000
    4      H       0.0000000000     0.0000000000    -2.3452000000
 ----------------------------------------------------------------
 Nuclear Repulsion Energy =    55.5552441247 hartrees
 There are       11 alpha and       11 beta electrons
 Requested basis set is aug-cc-pCVTZ
 There are 66 shells and 200 basis functions

 Total QAlloc Memory Limit 128000 MB
 Mega-Array Size      1467 MB
 MEM_STATIC part      1500 MB

                       Distance Matrix (Angstroms)
             C (  1)   C (  2)   F (  3)
   C (  2)  1.198000
   F (  3)  1.279000  2.477000
   H (  4)  2.251000  1.053000  3.530000
 
 Applying Cartesian multipole field
    Component          Value
    ---------          -----
     (2,0,0)        1.00000E-04
 A cutoff of  1.0D-14 yielded   2127 shell pairs
 There are     19759 function pairs (     26772 Cartesian)
 
 -------------------------------------------------------
 OpenMP Integral Computing Module                       
 Release: version 1.0, May 2013, Q-Chem Inc. Pittsburgh 
 -------------------------------------------------------
 Integral Job Info:
 Integral job number is                      11
 Integral operator is                         1
 short-range coefficients                     0
 long-range coefficients              100000000
 Omega coefficients                           0
 if combine SR and LR in K                    0
 Integral screening is                        0
 Integral computing path is                   2
 max size of driver memory is            800000
 size of driver memory is                776718
 size of scratch memory is              6691272
 max col of scratch BK array              10000
 max len of scratch array in speh3          662
 max len of scratch index in speh4           32
 max int batch size is                      520
 min int batch size is                       52
 fixed nKL is                                52
 max L of basis functions is                  3
 order of int derivative is                   0
 number of shells is                         66
 number of basis is                         232
 number of cartesian basis is               232
 number of contracted shell pairs          2127
 number of primitive shell pairs           5689
 maxK2 (contraction) of shell pair           64
 max number of K2 of shell pair               1
 max number of CS2 of shell pair            321
 max number of PS2 of shell pair            704
 mem total for path MDJ                  600000
 -------------------------------------------------------
 Smallest overlap matrix eigenvalue = 1.17E-05
 Guess MOs from SCF MO coefficient file
 Reading MOs from coefficient file
 Reading MOs from coefficient file
 A restricted hybrid HF-DFT SCF calculation will be
 performed using Geometric Direct Minimization
 Exchange:     0.2000 Hartree-Fock + 0.0800 Slater + 0.7200 B88
 Correlation:  0.1900 VWN1RPA + 0.8100 LYP
 Using Euler-Maclaurin-Lebedev (99,590) quadrature formula
 SCF converges when RMS gradient is below 1.0E-08
Using Q-Chem read-in guess as SCF_GUESS READ specified.

 using 8 threads for integral computing
 -------------------------------------------------------
 OpenMP Integral computing Module                
 Release: version 2.0, May 2017, Q-Chem Inc. Pleasanton 
 -------------------------------------------------------
TIMEINFO->: J/JK contribution 29.89 sec.
 -------------------------------------------------------
 OpenMP BLAS3 based DFT computing Module                
 Release: version 1.0, May 2013, Q-Chem Inc. Pittsburgh 
 -------------------------------------------------------
 ---------------------------------------
  Cycle       Energy        RMS Gradient
 ---------------------------------------
    1    -176.6212395159      3.26E-04 Normal BFGS step
TIMEINFO->: J/JK contribution 29.72 sec.
    2    -176.6212398884      1.12E-04 Normal BFGS step
TIMEINFO->: J/JK contribution 29.02 sec.
    3    -176.6212399481      7.38E-05 Normal BFGS step
TIMEINFO->: J/JK contribution 28.91 sec.
    4    -176.6212399517      6.86E-05 Normal BFGS step
TIMEINFO->: J/JK contribution 28.66 sec.
    5    -176.6212399620      1.49E-05 Normal BFGS step
TIMEINFO->: J/JK contribution 28.63 sec.
    6    -176.6212399640      6.24E-06 Normal BFGS step
TIMEINFO->: J/JK contribution 28.24 sec.
    7    -176.6212399641      5.55E-06 Normal BFGS step
TIMEINFO->: J/JK contribution 28.34 sec.
    8    -176.6212399643      1.29E-06 Normal BFGS step
TIMEINFO->: J/JK contribution 27.75 sec.
    9    -176.6212399643      2.83E-07 Normal BFGS step
TIMEINFO->: J/JK contribution 27.01 sec.
   10    -176.6212399643      1.47E-08 Normal BFGS step
TIMEINFO->: J/JK contribution 25.65 sec.
   GDM::WARNING energy changes are now smaller than effective accuracy.
   GDM::        calculation will continue, but THRESH should be increased
   GDM::        or SCF_CONVERGENCE decreased.
   GDM::        effective_thresh =   1.100000000000000E-010
   11    -176.6212399643      2.02E-09 Convergence criterion met
 ---------------------------------------
 B3LYP orbitals are now ready for the XYG3 calculation.
 XYG3 energy = Exch (0.8033 HF  - 0.0140 Slater + 0.2107 Becke88) + 
               Corr (0.6789 LYP + 0.3211 MP2)
 SCF time:  CPU 399.67 s  wall 49.98 s
 SCF   energy in the final basis set = -176.26817725
 Total energy in the final basis set = -176.26817725
 
 Components of the MP2 correlation energy:
        aaaa  correlation energy  =        -0.1147241306 au
        abab  correlation energy  =        -0.7481500113 au
        bbbb  correlation energy  =        -0.1147241306 au
        singles contribution not yet available for XYG3

 Total  XYG3        total energy  =      -176.5820840515 au

 
 --------------------------------------------------------------
 
                    Orbital Energies (a.u.)
 --------------------------------------------------------------
 
 Alpha MOs
 -- Occupied --
-24.771 -10.276 -10.191  -1.311  -0.778  -0.646  -0.542  -0.532
 -0.532  -0.298  -0.298
 -- Virtual --
 -0.016   0.013   0.027   0.028   0.049   0.051   0.057   0.062
  0.092   0.093   0.110   0.147   0.174   0.192   0.193   0.193
  0.193   0.209   0.269   0.270   0.296   0.303   0.303   0.321
  0.322   0.323   0.370   0.371   0.383   0.397   0.495   0.496
  0.497   0.642   0.700   0.701   0.733   0.733   0.755   0.785
  0.809   0.809   0.811   0.812   0.854   0.865   0.865   0.869
  0.869   0.895   0.895   0.971   1.015   1.015   1.037   1.054
  1.054   1.118   1.118   1.124   1.124   1.137   1.240   1.258
  1.258   1.367   1.423   1.423   1.524   1.524   1.658   1.658
  1.662   1.781   1.784   1.784   1.881   1.980   1.980   2.063
  2.402   2.403   2.501   2.501   2.506   2.523   2.661   2.661
  2.695   2.695   2.837   2.837   2.910   2.957   2.957   2.976
  2.976   3.033   3.033   3.038   3.077   3.092   3.092   3.231
  3.231   3.353   3.353   3.368   3.368   3.453   3.473   3.474
  3.589   3.589   3.617   3.791   3.791   3.931   4.172   4.218
  4.218   4.306   4.306   4.437   4.438   4.618   4.655   4.655
  4.866   5.400   5.400   5.417   6.318   6.318   6.398   6.662
  6.917   7.930   8.249   8.249   8.546   8.546   8.696   8.696
  8.839   8.839   9.126   9.126   9.193   9.373  14.997  14.997
 15.716  15.716  16.117  16.258  17.659  17.788  31.066  31.066
 32.627  34.914  40.358  40.358  40.448  40.448  40.459  40.459
 40.659  40.662  40.662  41.291  51.862  51.862  52.013  52.013
 52.130  79.694  79.695  80.250  80.250  80.580  81.609  84.502
 87.052 168.207 168.207 169.431 181.302
 --------------------------------------------------------------
 
          Ground-State Mulliken Net Atomic Charges

     Atom                 Charge (a.u.)
  ----------------------------------------
      1 C                     0.379360
      2 C                    -0.619700
      3 F                    -0.218953
      4 H                     0.459292
  ----------------------------------------
  Sum of atomic charges =    -0.000000

 -----------------------------------------------------------------
                    Cartesian Multipole Moments
 -----------------------------------------------------------------
    Charge (ESU x 10^10)
                -0.0000
    Dipole Moment (Debye)
         X      -0.0000      Y       0.0000      Z      -0.6298
       Tot       0.6298
    Quadrupole Moments (Debye-Ang)
        XX     -17.1574     XY      -0.0000     YY     -17.1489
        XZ      -0.0000     YZ      -0.0000     ZZ     -13.1386
    Octopole Moments (Debye-Ang^2)
       XXX      -0.0000    XXY      -0.0000    XYY      -0.0000
       YYY      -0.0000    XXZ       5.0702    XYZ      -0.0000
       YYZ       5.0633    XZZ      -0.0000    YZZ      -0.0000
       ZZZ      -1.0682
    Hexadecapole Moments (Debye-Ang^3)
      XXXX     -18.3102   XXXY      -0.0000   XXYY      -6.0968
      XYYY      -0.0000   YYYY     -18.2707   XXXZ       0.0000
      XXYZ       0.0000   XYYZ       0.0000   YYYZ       0.0000
      XXZZ     -26.3759   XYZZ       0.0000   YYZZ     -26.3597
      XZZZ       0.0000   YZZZ       0.0000   ZZZZ     -99.7185
 -----------------------------------------------------------------
Archival summary:
1\1\n0100.mhg0\SP\ProcedureUnspecified\BasisUnspecified\121\yhljason\WedOct1414:29:452020WedOct1414:29:452020\0\\#,ProcedureUnspecified,BasisUnspecified,\\0,1\C\C,1,1.198\H,2,1.053,1,180\F,1,1.279,2,180,3,0,0\\\@

 Total job time:  94.92s(wall), 751.90s(cpu) 
 Wed Oct 14 14:29:45 2020

        *************************************************************
        *                                                           *
        *  Thank you very much for using Q-Chem.  Have a nice day.  *
        *                                                           *
        *************************************************************


 
User input: 3 of 7 
 
Q-Chem Developer Version!
                  Welcome to Q-Chem
     A Quantum Leap Into The Future Of Chemistry


 Q-Chem 5.1, Q-Chem, Inc., Pleasanton, CA (2018)

 Yihan Shao,  Zhengting Gan,  E. Epifanovsky,  A. T. B. Gilbert,  M. Wormit,  
 J. Kussmann,  A. W. Lange,  A. Behn,  Jia Deng,  Xintian Feng,  D. Ghosh,  
 M. Goldey,  P. R. Horn,  L. D. Jacobson,  I. Kaliman,  T. Kus,  A. Landau,  
 Jie Liu,  E. I. Proynov,  R. M. Richard,  R. P. Steele,  E. J. Sundstrom,  
 H. L. Woodcock III,  P. M. Zimmerman,  D. Zuev,  B. Albrecht,  E. Alguire,  
 S. A. Baeppler,  D. Barton,  Z. Benda,  Y. A. Bernard,  E. J. Berquist,  
 K. B. Bravaya,  H. Burton,  D. Casanova,  Chun-Min Chang,  Yunqing Chen,  
 A. Chien,  K. D. Closser,  M. P. Coons,  S. Coriani,  S. Dasgupta,  
 A. L. Dempwolff,  M. Diedenhofen,  Hainam Do,  R. G. Edgar,  Po-Tung Fang,  
 S. Faraji,  S. Fatehi,  Qingguo Feng,  K. D. Fenk,  J. Fosso-Tande,  
 Qinghui Ge,  A. Ghysels,  G. Gidofalvi,  J. Gomes,  J. Gonthier,  A. Gunina,  
 D. Hait,  M. W. D. Hanson-Heine,  P. H. P. Harbach,  A. W. Hauser,  
 J. E. Herr,  E. G. Hohenstein,  Z. C. Holden,  Kerwin Hui,  B. C. Huynh,  
 T.-C. Jagau,  Hyunjun Ji,  B. Kaduk,  K. Khistyaev,  Jaehoon Kim,  
 P. Klunzinger,  K. Koh,  D. Kosenkov,  L. Koulias,  T. Kowalczyk,  
 C. M. Krauter,  A. Kunitsa,  Ka Un Lao,  A. Laurent,  K. V. Lawler,  
 Joonho Lee,  D. Lefrancois,  S. Lehtola,  D. S. Levine,  Yi-Pei Li,  
 You-Sheng Lin,  Fenglai Liu,  E. Livshits,  A. Luenser,  P. Manohar,  
 E. Mansoor,  S. F. Manzer,  Shan-Ping Mao,  Yuezhi Mao,  N. Mardirossian,  
 A. V. Marenich,  T. Markovich,  L. A. Martinez-Martinez,  S. A. Maurer,  
 N. J. Mayhall,  S. C. McKenzie,  J.-M. Mewes,  A. F. Morrison,  
 J. W. Mullinax,  K. Nanda,  T. S. Nguyen-Beck,  R. Olivares-Amaya,  
 J. A. Parkhill,  T. M. Perrine,  F. Plasser,  P. Pokhilko,  S. Prager,  
 A. Prociuk,  E. Ramos,  D. R. Rehn,  F. Rob,  M. Schneider,  N. Sergueev,  
 S. M. Sharada,  S. Sharma,  D. W. Small,  T. Stauch,  T. Stein,  
 Yu-Chuan Su,  A. J. W. Thom,  A. Tkatchenko,  T. Tsuchimochi,  N. M. Tubman,  
 L. Vogt,  M. L. Vidal,  O. Vydrov,  M. A. Watson,  J. Wenzel,  
 M. de Wergifosse,  T. A. Wesolowski,  A. White,  J. Witte,  A. Yamada,  
 Jun Yang,  K. Yao,  S. Yeganeh,  S. R. Yost,  Zhi-Qiang You,  A. Zech,  
 Igor Ying Zhang,  Xing Zhang,  Yan Zhao,  Ying Zhu,  B. R. Brooks,  
 G. K. L. Chan,  C. J. Cramer,  M. S. Gordon,  W. J. Hehre,  A. Klamt,  
 M. W. Schmidt,  C. D. Sherrill,  D. G. Truhlar,  A. Aspuru-Guzik,  R. Baer,  
 A. T. Bell,  N. A. Besley,  Jeng-Da Chai,  A. E. DePrince, III,  
 R. A. DiStasio Jr.,  A. Dreuw,  B. D. Dunietz,  T. R. Furlani,  
 Chao-Ping Hsu,  Yousung Jung,  Jing Kong,  D. S. Lambrecht,  WanZhen Liang,  
 C. Ochsenfeld,  V. A. Rassolov,  L. V. Slipchenko,  J. E. Subotnik,  
 T. Van Voorhis,  J. M. Herbert,  A. I. Krylov,  P. M. W. Gill,  M. Head-Gordon

 Contributors to earlier versions of Q-Chem not listed above: 
 R. D. Adamson,  B. Austin,  J. Baker,  G. J. O. Beran,  K. Brandhorst,  
 S. T. Brown,  E. F. C. Byrd,  A. K. Chakraborty,  C.-L. Cheng,  
 Siu Hung Chien,  D. M. Chipman,  D. L. Crittenden,  H. Dachsel,  
 R. J. Doerksen,  A. D. Dutoi,  L. Fusti-Molnar,  W. A. Goddard III,  
 A. Golubeva-Zadorozhnaya,  S. R. Gwaltney,  G. Hawkins,  A. Heyden,  
 S. Hirata,  G. Kedziora,  F. J. Keil,  C. Kelley,  Jihan Kim,  R. A. King,  
 R. Z. Khaliullin,  P. P. Korambath,  W. Kurlancheek,  A. M. Lee,  M. S. Lee,  
 S. V. Levchenko,  Ching Yeh Lin,  D. Liotard,  R. C. Lochan,  I. Lotan,  
 P. E. Maslen,  N. Nair,  D. P. O'Neill,  D. Neuhauser,  E. Neuscamman,  
 C. M. Oana,  R. Olson,  B. Peters,  R. Peverati,  P. A. Pieniazek,  
 Y. M. Rhee,  J. Ritchie,  M. A. Rohrdanz,  E. Rosta,  N. J. Russ,  
 H. F. Schaefer III,  N. E. Schultz,  N. Shenvi,  A. C. Simmonett,  A. Sodt,  
 D. Stuck,  K. S. Thanthiriwatte,  V. Vanovschi,  Tao Wang,  A. Warshel,  
 C. F. Williams,  Q. Wu,  X. Xu,  W. Zhang

 Please cite Q-Chem as follows:
 Y. Shao et al., Mol. Phys. 113, 184-215 (2015)
 DOI: 10.1080/00268976.2014.952696

 Q-Chem 5.1.1 for Intel X86 EM64T Linux

 Parts of Q-Chem use Armadillo 8.300.2 (Tropical Shenanigans).
 http://arma.sourceforge.net/

 Q-Chem begins on Wed Oct 14 14:29:45 2020  

Host: n0100.mhg0
0

     Scratch files written to /local/scratch/users/yhljason/HCCF_XYG3_aug-cc-pcVTZ.inp20201014142612//
The previous job contains 0 fragments, simply inherited here
Input Ideriv = 2
Curr. Ideriv = -1
Max.  Ideriv = 2

Checking the input file for inconsistencies... 	...done.

--------------------------------------------------------------
User input:
--------------------------------------------------------------
$molecule
read
$end

$rem

jobtype sp
exchange XYG3
xc_grid 000099000590
basis aug-cc-pcVTZ
max_scf_cycles 200
thresh 14
scf_convergence 8
mem_total 128000
cc_memory 96000
cc_backend xm
mem_static 1500
symmetry false
sym_ignore true
scf_guess read
unrestricted false
scf_algorithm gdm
n_frozen_core 0
$end

$multipole_field
XX -0.0001
$end


--------------------------------------------------------------
 ----------------------------------------------------------------
             Standard Nuclear Orientation (Angstroms)
    I     Atom           X                Y                Z
 ----------------------------------------------------------------
    1      C       0.0000000000     0.0000000000    -0.0942000000
    2      C       0.0000000000     0.0000000000    -1.2922000000
    3      F       0.0000000000     0.0000000000     1.1848000000
    4      H       0.0000000000     0.0000000000    -2.3452000000
 ----------------------------------------------------------------
 Nuclear Repulsion Energy =    55.5552441247 hartrees
 There are       11 alpha and       11 beta electrons
 Requested basis set is aug-cc-pCVTZ
 There are 66 shells and 200 basis functions

 Total QAlloc Memory Limit 128000 MB
 Mega-Array Size      1467 MB
 MEM_STATIC part      1500 MB

                       Distance Matrix (Angstroms)
             C (  1)   C (  2)   F (  3)
   C (  2)  1.198000
   F (  3)  1.279000  2.477000
   H (  4)  2.251000  1.053000  3.530000
 
 Applying Cartesian multipole field
    Component          Value
    ---------          -----
     (2,0,0)       -1.00000E-04
 A cutoff of  1.0D-14 yielded   2127 shell pairs
 There are     19759 function pairs (     26772 Cartesian)
 
 -------------------------------------------------------
 OpenMP Integral Computing Module                       
 Release: version 1.0, May 2013, Q-Chem Inc. Pittsburgh 
 -------------------------------------------------------
 Integral Job Info:
 Integral job number is                      11
 Integral operator is                         1
 short-range coefficients                     0
 long-range coefficients              100000000
 Omega coefficients                           0
 if combine SR and LR in K                    0
 Integral screening is                        0
 Integral computing path is                   2
 max size of driver memory is            800000
 size of driver memory is                776718
 size of scratch memory is              6691272
 max col of scratch BK array              10000
 max len of scratch array in speh3          662
 max len of scratch index in speh4           32
 max int batch size is                      520
 min int batch size is                       52
 fixed nKL is                                52
 max L of basis functions is                  3
 order of int derivative is                   0
 number of shells is                         66
 number of basis is                         232
 number of cartesian basis is               232
 number of contracted shell pairs          2127
 number of primitive shell pairs           5689
 maxK2 (contraction) of shell pair           64
 max number of K2 of shell pair               1
 max number of CS2 of shell pair            321
 max number of PS2 of shell pair            704
 mem total for path MDJ                  600000
 -------------------------------------------------------
 Smallest overlap matrix eigenvalue = 1.17E-05
 Guess MOs from SCF MO coefficient file
 Reading MOs from coefficient file
 Reading MOs from coefficient file
 A restricted hybrid HF-DFT SCF calculation will be
 performed using Geometric Direct Minimization
 Exchange:     0.2000 Hartree-Fock + 0.0800 Slater + 0.7200 B88
 Correlation:  0.1900 VWN1RPA + 0.8100 LYP
 Using Euler-Maclaurin-Lebedev (99,590) quadrature formula
 SCF converges when RMS gradient is below 1.0E-08
Using Q-Chem read-in guess as SCF_GUESS READ specified.

 using 8 threads for integral computing
 -------------------------------------------------------
 OpenMP Integral computing Module                
 Release: version 2.0, May 2017, Q-Chem Inc. Pleasanton 
 -------------------------------------------------------
TIMEINFO->: J/JK contribution 29.96 sec.
 -------------------------------------------------------
 OpenMP BLAS3 based DFT computing Module                
 Release: version 1.0, May 2013, Q-Chem Inc. Pittsburgh 
 -------------------------------------------------------
 ---------------------------------------
  Cycle       Energy        RMS Gradient
 ---------------------------------------
    1    -176.6186887484      6.91E-04 Normal BFGS step
TIMEINFO->: J/JK contribution 29.67 sec.
    2    -176.6186902403      2.22E-04 Normal BFGS step
TIMEINFO->: J/JK contribution 29.04 sec.
    3    -176.6186904770      1.50E-04 Normal BFGS step
TIMEINFO->: J/JK contribution 29.00 sec.
    4    -176.6186904919      1.45E-04 Normal BFGS step
TIMEINFO->: J/JK contribution 28.84 sec.
    5    -176.6186905330      2.96E-05 Normal BFGS step
TIMEINFO->: J/JK contribution 28.86 sec.
    6    -176.6186905410      1.27E-05 Normal BFGS step
TIMEINFO->: J/JK contribution 28.44 sec.
    7    -176.6186905415      1.16E-05 Normal BFGS step
TIMEINFO->: J/JK contribution 28.43 sec.
    8    -176.6186905422      2.60E-06 Normal BFGS step
TIMEINFO->: J/JK contribution 28.16 sec.
    9    -176.6186905422      5.53E-07 Normal BFGS step
TIMEINFO->: J/JK contribution 27.23 sec.
   10    -176.6186905422      2.98E-08 Normal BFGS step
TIMEINFO->: J/JK contribution 25.93 sec.
   GDM::WARNING energy changes are now smaller than effective accuracy.
   GDM::        calculation will continue, but THRESH should be increased
   GDM::        or SCF_CONVERGENCE decreased.
   GDM::        effective_thresh =   1.100000000000000E-010
   11    -176.6186905422      4.03E-09 Convergence criterion met
 ---------------------------------------
 B3LYP orbitals are now ready for the XYG3 calculation.
 XYG3 energy = Exch (0.8033 HF  - 0.0140 Slater + 0.2107 Becke88) + 
               Corr (0.6789 LYP + 0.3211 MP2)
 SCF time:  CPU 401.29 s  wall 50.18 s
 SCF   energy in the final basis set = -176.26563318
 Total energy in the final basis set = -176.26563318
 
 Components of the MP2 correlation energy:
        aaaa  correlation energy  =        -0.1147201918 au
        abab  correlation energy  =        -0.7481810703 au
        bbbb  correlation energy  =        -0.1147201918 au
        singles contribution not yet available for XYG3

 Total  XYG3        total energy  =      -176.5795474231 au

 
 --------------------------------------------------------------
 
                    Orbital Energies (a.u.)
 --------------------------------------------------------------
 
 Alpha MOs
 -- Occupied --
-24.771 -10.275 -10.190  -1.310  -0.777  -0.646  -0.541  -0.532
 -0.532  -0.298  -0.298
 -- Virtual --
 -0.014   0.015   0.029   0.030   0.053   0.054   0.060   0.065
  0.095   0.096   0.113   0.149   0.176   0.195   0.195   0.195
  0.196   0.211   0.271   0.273   0.298   0.304   0.304   0.323
  0.324   0.325   0.371   0.372   0.385   0.399   0.497   0.498
  0.498   0.644   0.702   0.702   0.734   0.734   0.757   0.787
  0.810   0.810   0.812   0.812   0.854   0.866   0.866   0.870
  0.870   0.896   0.896   0.972   1.016   1.016   1.038   1.054
  1.055   1.119   1.119   1.125   1.125   1.137   1.241   1.258
  1.259   1.367   1.424   1.424   1.525   1.525   1.659   1.659
  1.663   1.782   1.784   1.784   1.882   1.981   1.981   2.064
  2.403   2.403   2.502   2.502   2.506   2.524   2.661   2.661
  2.695   2.696   2.838   2.838   2.910   2.957   2.957   2.977
  2.977   3.034   3.034   3.039   3.078   3.092   3.092   3.231
  3.231   3.353   3.354   3.368   3.368   3.453   3.474   3.474
  3.590   3.590   3.617   3.792   3.792   3.931   4.173   4.219
  4.219   4.306   4.306   4.438   4.438   4.619   4.656   4.656
  4.866   5.401   5.401   5.417   6.318   6.318   6.399   6.663
  6.918   7.931   8.249   8.249   8.546   8.546   8.697   8.697
  8.840   8.840   9.126   9.126   9.193   9.373  14.998  14.998
 15.716  15.716  16.117  16.258  17.660  17.788  31.067  31.067
 32.628  34.914  40.358  40.358  40.448  40.448  40.460  40.460
 40.660  40.663  40.663  41.292  51.863  51.863  52.014  52.014
 52.131  79.695  79.695  80.251  80.251  80.580  81.610  84.503
 87.052 168.208 168.208 169.431 181.302
 --------------------------------------------------------------
 
          Ground-State Mulliken Net Atomic Charges

     Atom                 Charge (a.u.)
  ----------------------------------------
      1 C                     0.379591
      2 C                    -0.618934
      3 F                    -0.219540
      4 H                     0.458882
  ----------------------------------------
  Sum of atomic charges =    -0.000000

 -----------------------------------------------------------------
                    Cartesian Multipole Moments
 -----------------------------------------------------------------
    Charge (ESU x 10^10)
                -0.0000
    Dipole Moment (Debye)
         X      -0.0000      Y      -0.0000      Z      -0.6319
       Tot       0.6319
    Quadrupole Moments (Debye-Ang)
        XX     -17.1333     XY      -0.0000     YY     -17.1417
        XZ       0.0000     YZ       0.0000     ZZ     -13.1380
    Octopole Moments (Debye-Ang^2)
       XXX      -0.0000    XXY      -0.0000    XYY      -0.0000
       YYY      -0.0000    XXZ       5.0497    XYZ       0.0000
       YYZ       5.0566    XZZ      -0.0000    YZZ      -0.0000
       ZZZ      -1.0742
    Hexadecapole Moments (Debye-Ang^3)
      XXXX     -18.1932   XXXY      -0.0000   XXYY      -6.0709
      XYYY      -0.0000   YYYY     -18.2319   XXXZ       0.0000
      XXYZ       0.0000   XYYZ       0.0000   YYYZ       0.0000
      XXZZ     -26.3284   XYZZ      -0.0000   YYZZ     -26.3443
      XZZZ       0.0000   YZZZ       0.0000   ZZZZ     -99.7081
 -----------------------------------------------------------------
Archival summary:
1\1\n0100.mhg0\SP\ProcedureUnspecified\BasisUnspecified\121\yhljason\WedOct1414:31:202020WedOct1414:31:202020\0\\#,ProcedureUnspecified,BasisUnspecified,\\0,1\C\C,1,1.198\H,2,1.053,1,180\F,1,1.279,2,180,3,0,0\\\@

 Total job time:  94.95s(wall), 751.99s(cpu) 
 Wed Oct 14 14:31:20 2020

        *************************************************************
        *                                                           *
        *  Thank you very much for using Q-Chem.  Have a nice day.  *
        *                                                           *
        *************************************************************


 
User input: 4 of 7 
 
Q-Chem Developer Version!
                  Welcome to Q-Chem
     A Quantum Leap Into The Future Of Chemistry


 Q-Chem 5.1, Q-Chem, Inc., Pleasanton, CA (2018)

 Yihan Shao,  Zhengting Gan,  E. Epifanovsky,  A. T. B. Gilbert,  M. Wormit,  
 J. Kussmann,  A. W. Lange,  A. Behn,  Jia Deng,  Xintian Feng,  D. Ghosh,  
 M. Goldey,  P. R. Horn,  L. D. Jacobson,  I. Kaliman,  T. Kus,  A. Landau,  
 Jie Liu,  E. I. Proynov,  R. M. Richard,  R. P. Steele,  E. J. Sundstrom,  
 H. L. Woodcock III,  P. M. Zimmerman,  D. Zuev,  B. Albrecht,  E. Alguire,  
 S. A. Baeppler,  D. Barton,  Z. Benda,  Y. A. Bernard,  E. J. Berquist,  
 K. B. Bravaya,  H. Burton,  D. Casanova,  Chun-Min Chang,  Yunqing Chen,  
 A. Chien,  K. D. Closser,  M. P. Coons,  S. Coriani,  S. Dasgupta,  
 A. L. Dempwolff,  M. Diedenhofen,  Hainam Do,  R. G. Edgar,  Po-Tung Fang,  
 S. Faraji,  S. Fatehi,  Qingguo Feng,  K. D. Fenk,  J. Fosso-Tande,  
 Qinghui Ge,  A. Ghysels,  G. Gidofalvi,  J. Gomes,  J. Gonthier,  A. Gunina,  
 D. Hait,  M. W. D. Hanson-Heine,  P. H. P. Harbach,  A. W. Hauser,  
 J. E. Herr,  E. G. Hohenstein,  Z. C. Holden,  Kerwin Hui,  B. C. Huynh,  
 T.-C. Jagau,  Hyunjun Ji,  B. Kaduk,  K. Khistyaev,  Jaehoon Kim,  
 P. Klunzinger,  K. Koh,  D. Kosenkov,  L. Koulias,  T. Kowalczyk,  
 C. M. Krauter,  A. Kunitsa,  Ka Un Lao,  A. Laurent,  K. V. Lawler,  
 Joonho Lee,  D. Lefrancois,  S. Lehtola,  D. S. Levine,  Yi-Pei Li,  
 You-Sheng Lin,  Fenglai Liu,  E. Livshits,  A. Luenser,  P. Manohar,  
 E. Mansoor,  S. F. Manzer,  Shan-Ping Mao,  Yuezhi Mao,  N. Mardirossian,  
 A. V. Marenich,  T. Markovich,  L. A. Martinez-Martinez,  S. A. Maurer,  
 N. J. Mayhall,  S. C. McKenzie,  J.-M. Mewes,  A. F. Morrison,  
 J. W. Mullinax,  K. Nanda,  T. S. Nguyen-Beck,  R. Olivares-Amaya,  
 J. A. Parkhill,  T. M. Perrine,  F. Plasser,  P. Pokhilko,  S. Prager,  
 A. Prociuk,  E. Ramos,  D. R. Rehn,  F. Rob,  M. Schneider,  N. Sergueev,  
 S. M. Sharada,  S. Sharma,  D. W. Small,  T. Stauch,  T. Stein,  
 Yu-Chuan Su,  A. J. W. Thom,  A. Tkatchenko,  T. Tsuchimochi,  N. M. Tubman,  
 L. Vogt,  M. L. Vidal,  O. Vydrov,  M. A. Watson,  J. Wenzel,  
 M. de Wergifosse,  T. A. Wesolowski,  A. White,  J. Witte,  A. Yamada,  
 Jun Yang,  K. Yao,  S. Yeganeh,  S. R. Yost,  Zhi-Qiang You,  A. Zech,  
 Igor Ying Zhang,  Xing Zhang,  Yan Zhao,  Ying Zhu,  B. R. Brooks,  
 G. K. L. Chan,  C. J. Cramer,  M. S. Gordon,  W. J. Hehre,  A. Klamt,  
 M. W. Schmidt,  C. D. Sherrill,  D. G. Truhlar,  A. Aspuru-Guzik,  R. Baer,  
 A. T. Bell,  N. A. Besley,  Jeng-Da Chai,  A. E. DePrince, III,  
 R. A. DiStasio Jr.,  A. Dreuw,  B. D. Dunietz,  T. R. Furlani,  
 Chao-Ping Hsu,  Yousung Jung,  Jing Kong,  D. S. Lambrecht,  WanZhen Liang,  
 C. Ochsenfeld,  V. A. Rassolov,  L. V. Slipchenko,  J. E. Subotnik,  
 T. Van Voorhis,  J. M. Herbert,  A. I. Krylov,  P. M. W. Gill,  M. Head-Gordon

 Contributors to earlier versions of Q-Chem not listed above: 
 R. D. Adamson,  B. Austin,  J. Baker,  G. J. O. Beran,  K. Brandhorst,  
 S. T. Brown,  E. F. C. Byrd,  A. K. Chakraborty,  C.-L. Cheng,  
 Siu Hung Chien,  D. M. Chipman,  D. L. Crittenden,  H. Dachsel,  
 R. J. Doerksen,  A. D. Dutoi,  L. Fusti-Molnar,  W. A. Goddard III,  
 A. Golubeva-Zadorozhnaya,  S. R. Gwaltney,  G. Hawkins,  A. Heyden,  
 S. Hirata,  G. Kedziora,  F. J. Keil,  C. Kelley,  Jihan Kim,  R. A. King,  
 R. Z. Khaliullin,  P. P. Korambath,  W. Kurlancheek,  A. M. Lee,  M. S. Lee,  
 S. V. Levchenko,  Ching Yeh Lin,  D. Liotard,  R. C. Lochan,  I. Lotan,  
 P. E. Maslen,  N. Nair,  D. P. O'Neill,  D. Neuhauser,  E. Neuscamman,  
 C. M. Oana,  R. Olson,  B. Peters,  R. Peverati,  P. A. Pieniazek,  
 Y. M. Rhee,  J. Ritchie,  M. A. Rohrdanz,  E. Rosta,  N. J. Russ,  
 H. F. Schaefer III,  N. E. Schultz,  N. Shenvi,  A. C. Simmonett,  A. Sodt,  
 D. Stuck,  K. S. Thanthiriwatte,  V. Vanovschi,  Tao Wang,  A. Warshel,  
 C. F. Williams,  Q. Wu,  X. Xu,  W. Zhang

 Please cite Q-Chem as follows:
 Y. Shao et al., Mol. Phys. 113, 184-215 (2015)
 DOI: 10.1080/00268976.2014.952696

 Q-Chem 5.1.1 for Intel X86 EM64T Linux

 Parts of Q-Chem use Armadillo 8.300.2 (Tropical Shenanigans).
 http://arma.sourceforge.net/

 Q-Chem begins on Wed Oct 14 14:31:20 2020  

Host: n0100.mhg0
0

     Scratch files written to /local/scratch/users/yhljason/HCCF_XYG3_aug-cc-pcVTZ.inp20201014142612//
The previous job contains 0 fragments, simply inherited here
Input Ideriv = 2
Curr. Ideriv = -1
Max.  Ideriv = 2

Checking the input file for inconsistencies... 	...done.

--------------------------------------------------------------
User input:
--------------------------------------------------------------
$molecule
read
$end

$rem

jobtype sp
exchange XYG3
xc_grid 000099000590
basis aug-cc-pcVTZ
max_scf_cycles 200
thresh 14
scf_convergence 8
mem_total 128000
cc_memory 96000
cc_backend xm
mem_static 1500
symmetry false
sym_ignore true
scf_guess read
unrestricted false
scf_algorithm gdm
n_frozen_core 0
$end

$multipole_field
YY 0.0001
$end


--------------------------------------------------------------
 ----------------------------------------------------------------
             Standard Nuclear Orientation (Angstroms)
    I     Atom           X                Y                Z
 ----------------------------------------------------------------
    1      C       0.0000000000     0.0000000000    -0.0942000000
    2      C       0.0000000000     0.0000000000    -1.2922000000
    3      F       0.0000000000     0.0000000000     1.1848000000
    4      H       0.0000000000     0.0000000000    -2.3452000000
 ----------------------------------------------------------------
 Nuclear Repulsion Energy =    55.5552441247 hartrees
 There are       11 alpha and       11 beta electrons
 Requested basis set is aug-cc-pCVTZ
 There are 66 shells and 200 basis functions

 Total QAlloc Memory Limit 128000 MB
 Mega-Array Size      1467 MB
 MEM_STATIC part      1500 MB

                       Distance Matrix (Angstroms)
             C (  1)   C (  2)   F (  3)
   C (  2)  1.198000
   F (  3)  1.279000  2.477000
   H (  4)  2.251000  1.053000  3.530000
 
 Applying Cartesian multipole field
    Component          Value
    ---------          -----
     (0,2,0)        1.00000E-04
 A cutoff of  1.0D-14 yielded   2127 shell pairs
 There are     19759 function pairs (     26772 Cartesian)
 
 -------------------------------------------------------
 OpenMP Integral Computing Module                       
 Release: version 1.0, May 2013, Q-Chem Inc. Pittsburgh 
 -------------------------------------------------------
 Integral Job Info:
 Integral job number is                      11
 Integral operator is                         1
 short-range coefficients                     0
 long-range coefficients              100000000
 Omega coefficients                           0
 if combine SR and LR in K                    0
 Integral screening is                        0
 Integral computing path is                   2
 max size of driver memory is            800000
 size of driver memory is                776718
 size of scratch memory is              6691272
 max col of scratch BK array              10000
 max len of scratch array in speh3          662
 max len of scratch index in speh4           32
 max int batch size is                      520
 min int batch size is                       52
 fixed nKL is                                52
 max L of basis functions is                  3
 order of int derivative is                   0
 number of shells is                         66
 number of basis is                         232
 number of cartesian basis is               232
 number of contracted shell pairs          2127
 number of primitive shell pairs           5689
 maxK2 (contraction) of shell pair           64
 max number of K2 of shell pair               1
 max number of CS2 of shell pair            321
 max number of PS2 of shell pair            704
 mem total for path MDJ                  600000
 -------------------------------------------------------
 Smallest overlap matrix eigenvalue = 1.17E-05
 Guess MOs from SCF MO coefficient file
 Reading MOs from coefficient file
 Reading MOs from coefficient file
 A restricted hybrid HF-DFT SCF calculation will be
 performed using Geometric Direct Minimization
 Exchange:     0.2000 Hartree-Fock + 0.0800 Slater + 0.7200 B88
 Correlation:  0.1900 VWN1RPA + 0.8100 LYP
 Using Euler-Maclaurin-Lebedev (99,590) quadrature formula
 SCF converges when RMS gradient is below 1.0E-08
Using Q-Chem read-in guess as SCF_GUESS READ specified.

 using 8 threads for integral computing
 -------------------------------------------------------
 OpenMP Integral computing Module                
 Release: version 2.0, May 2017, Q-Chem Inc. Pleasanton 
 -------------------------------------------------------
TIMEINFO->: J/JK contribution 30.15 sec.
 -------------------------------------------------------
 OpenMP BLAS3 based DFT computing Module                
 Release: version 1.0, May 2013, Q-Chem Inc. Pittsburgh 
 -------------------------------------------------------
 ---------------------------------------
  Cycle       Energy        RMS Gradient
 ---------------------------------------
    1    -176.6212388045      4.39E-04 Normal BFGS step
TIMEINFO->: J/JK contribution 29.90 sec.
    2    -176.6212396699      1.89E-04 Normal BFGS step
TIMEINFO->: J/JK contribution 29.30 sec.
    3    -176.6212399283      1.06E-04 Normal BFGS step
TIMEINFO->: J/JK contribution 29.02 sec.
    4    -176.6212399119      2.68E-05 Line search: overstep
TIMEINFO->: J/JK contribution 28.92 sec.
    5    -176.6212399558      3.48E-05 Normal BFGS step
TIMEINFO->: J/JK contribution 29.16 sec.
    6    -176.6212399620      1.58E-05 Normal BFGS step
TIMEINFO->: J/JK contribution 29.27 sec.
    7    -176.6212399640      7.02E-06 Normal BFGS step
TIMEINFO->: J/JK contribution 28.88 sec.
   GDM::WARNING energy changes are now smaller than effective accuracy.
   GDM::        calculation will continue, but THRESH should be increased
   GDM::        or SCF_CONVERGENCE decreased.
   GDM::        effective_thresh =   1.100000000000000E-010
    8    -176.6212399640      6.01E-06 Normal BFGS step
TIMEINFO->: J/JK contribution 28.81 sec.
    9    -176.6212399643      1.69E-07 Normal BFGS step
TIMEINFO->: J/JK contribution 27.54 sec.
   10    -176.6212399643      2.90E-08 Normal BFGS step
TIMEINFO->: J/JK contribution 26.44 sec.
   GDM::WARNING energy changes are now smaller than effective accuracy.
   GDM::        calculation will continue, but THRESH should be increased
   GDM::        or SCF_CONVERGENCE decreased.
   GDM::        effective_thresh =   1.100000000000000E-010
   11    -176.6212399643      3.03E-09 Convergence criterion met
 ---------------------------------------
 B3LYP orbitals are now ready for the XYG3 calculation.
 XYG3 energy = Exch (0.8033 HF  - 0.0140 Slater + 0.2107 Becke88) + 
               Corr (0.6789 LYP + 0.3211 MP2)
 SCF time:  CPU 406.18 s  wall 50.83 s
 SCF   energy in the final basis set = -176.26817725
 Total energy in the final basis set = -176.26817725
 
 Components of the MP2 correlation energy:
        aaaa  correlation energy  =        -0.1147241306 au
        abab  correlation energy  =        -0.7481500112 au
        bbbb  correlation energy  =        -0.1147241306 au
        singles contribution not yet available for XYG3

 Total  XYG3        total energy  =      -176.5820840483 au

 
 --------------------------------------------------------------
 
                    Orbital Energies (a.u.)
 --------------------------------------------------------------
 
 Alpha MOs
 -- Occupied --
-24.771 -10.276 -10.191  -1.311  -0.778  -0.646  -0.542  -0.532
 -0.532  -0.298  -0.298
 -- Virtual --
 -0.016   0.013   0.027   0.028   0.049   0.051   0.057   0.062
  0.092   0.093   0.110   0.147   0.174   0.192   0.193   0.193
  0.193   0.209   0.269   0.270   0.296   0.303   0.303   0.321
  0.322   0.323   0.370   0.371   0.383   0.397   0.495   0.496
  0.497   0.642   0.700   0.701   0.733   0.733   0.755   0.785
  0.809   0.809   0.811   0.812   0.854   0.865   0.865   0.869
  0.869   0.895   0.895   0.971   1.015   1.015   1.037   1.054
  1.054   1.118   1.118   1.124   1.124   1.137   1.240   1.258
  1.258   1.367   1.423   1.423   1.524   1.524   1.658   1.658
  1.662   1.781   1.784   1.784   1.881   1.980   1.980   2.063
  2.402   2.403   2.501   2.501   2.506   2.523   2.661   2.661
  2.695   2.695   2.837   2.837   2.910   2.957   2.957   2.976
  2.976   3.033   3.033   3.038   3.077   3.092   3.092   3.231
  3.231   3.353   3.353   3.368   3.368   3.453   3.473   3.474
  3.589   3.589   3.617   3.791   3.791   3.931   4.172   4.218
  4.218   4.306   4.306   4.437   4.438   4.618   4.655   4.655
  4.866   5.400   5.400   5.417   6.318   6.318   6.398   6.662
  6.917   7.930   8.249   8.249   8.546   8.546   8.696   8.696
  8.839   8.839   9.126   9.126   9.193   9.373  14.997  14.997
 15.716  15.716  16.117  16.258  17.659  17.788  31.066  31.066
 32.627  34.914  40.358  40.358  40.448  40.448  40.459  40.459
 40.659  40.662  40.662  41.291  51.862  51.862  52.013  52.013
 52.130  79.694  79.695  80.250  80.250  80.580  81.609  84.502
 87.052 168.207 168.207 169.431 181.302
 --------------------------------------------------------------
 
          Ground-State Mulliken Net Atomic Charges

     Atom                 Charge (a.u.)
  ----------------------------------------
      1 C                     0.379360
      2 C                    -0.619700
      3 F                    -0.218953
      4 H                     0.459292
  ----------------------------------------
  Sum of atomic charges =    -0.000000

 -----------------------------------------------------------------
                    Cartesian Multipole Moments
 -----------------------------------------------------------------
    Charge (ESU x 10^10)
                -0.0000
    Dipole Moment (Debye)
         X      -0.0000      Y      -0.0000      Z      -0.6298
       Tot       0.6298
    Quadrupole Moments (Debye-Ang)
        XX     -17.1489     XY       0.0000     YY     -17.1574
        XZ       0.0000     YZ      -0.0000     ZZ     -13.1386
    Octopole Moments (Debye-Ang^2)
       XXX      -0.0000    XXY      -0.0000    XYY      -0.0000
       YYY      -0.0000    XXZ       5.0633    XYZ      -0.0000
       YYZ       5.0702    XZZ      -0.0000    YZZ      -0.0000
       ZZZ      -1.0682
    Hexadecapole Moments (Debye-Ang^3)
      XXXX     -18.2707   XXXY      -0.0000   XXYY      -6.0968
      XYYY      -0.0000   YYYY     -18.3102   XXXZ       0.0000
      XXYZ       0.0000   XYYZ       0.0000   YYYZ       0.0000
      XXZZ     -26.3597   XYZZ       0.0000   YYZZ     -26.3759
      XZZZ       0.0000   YZZZ       0.0000   ZZZZ     -99.7185
 -----------------------------------------------------------------
Archival summary:
1\1\n0100.mhg0\SP\ProcedureUnspecified\BasisUnspecified\121\yhljason\WedOct1414:32:562020WedOct1414:32:562020\0\\#,ProcedureUnspecified,BasisUnspecified,\\0,1\C\C,1,1.198\H,2,1.053,1,180\F,1,1.279,2,180,3,0,0\\\@

 Total job time:  95.93s(wall), 757.72s(cpu) 
 Wed Oct 14 14:32:56 2020

        *************************************************************
        *                                                           *
        *  Thank you very much for using Q-Chem.  Have a nice day.  *
        *                                                           *
        *************************************************************


 
User input: 5 of 7 
 
Q-Chem Developer Version!
                  Welcome to Q-Chem
     A Quantum Leap Into The Future Of Chemistry


 Q-Chem 5.1, Q-Chem, Inc., Pleasanton, CA (2018)

 Yihan Shao,  Zhengting Gan,  E. Epifanovsky,  A. T. B. Gilbert,  M. Wormit,  
 J. Kussmann,  A. W. Lange,  A. Behn,  Jia Deng,  Xintian Feng,  D. Ghosh,  
 M. Goldey,  P. R. Horn,  L. D. Jacobson,  I. Kaliman,  T. Kus,  A. Landau,  
 Jie Liu,  E. I. Proynov,  R. M. Richard,  R. P. Steele,  E. J. Sundstrom,  
 H. L. Woodcock III,  P. M. Zimmerman,  D. Zuev,  B. Albrecht,  E. Alguire,  
 S. A. Baeppler,  D. Barton,  Z. Benda,  Y. A. Bernard,  E. J. Berquist,  
 K. B. Bravaya,  H. Burton,  D. Casanova,  Chun-Min Chang,  Yunqing Chen,  
 A. Chien,  K. D. Closser,  M. P. Coons,  S. Coriani,  S. Dasgupta,  
 A. L. Dempwolff,  M. Diedenhofen,  Hainam Do,  R. G. Edgar,  Po-Tung Fang,  
 S. Faraji,  S. Fatehi,  Qingguo Feng,  K. D. Fenk,  J. Fosso-Tande,  
 Qinghui Ge,  A. Ghysels,  G. Gidofalvi,  J. Gomes,  J. Gonthier,  A. Gunina,  
 D. Hait,  M. W. D. Hanson-Heine,  P. H. P. Harbach,  A. W. Hauser,  
 J. E. Herr,  E. G. Hohenstein,  Z. C. Holden,  Kerwin Hui,  B. C. Huynh,  
 T.-C. Jagau,  Hyunjun Ji,  B. Kaduk,  K. Khistyaev,  Jaehoon Kim,  
 P. Klunzinger,  K. Koh,  D. Kosenkov,  L. Koulias,  T. Kowalczyk,  
 C. M. Krauter,  A. Kunitsa,  Ka Un Lao,  A. Laurent,  K. V. Lawler,  
 Joonho Lee,  D. Lefrancois,  S. Lehtola,  D. S. Levine,  Yi-Pei Li,  
 You-Sheng Lin,  Fenglai Liu,  E. Livshits,  A. Luenser,  P. Manohar,  
 E. Mansoor,  S. F. Manzer,  Shan-Ping Mao,  Yuezhi Mao,  N. Mardirossian,  
 A. V. Marenich,  T. Markovich,  L. A. Martinez-Martinez,  S. A. Maurer,  
 N. J. Mayhall,  S. C. McKenzie,  J.-M. Mewes,  A. F. Morrison,  
 J. W. Mullinax,  K. Nanda,  T. S. Nguyen-Beck,  R. Olivares-Amaya,  
 J. A. Parkhill,  T. M. Perrine,  F. Plasser,  P. Pokhilko,  S. Prager,  
 A. Prociuk,  E. Ramos,  D. R. Rehn,  F. Rob,  M. Schneider,  N. Sergueev,  
 S. M. Sharada,  S. Sharma,  D. W. Small,  T. Stauch,  T. Stein,  
 Yu-Chuan Su,  A. J. W. Thom,  A. Tkatchenko,  T. Tsuchimochi,  N. M. Tubman,  
 L. Vogt,  M. L. Vidal,  O. Vydrov,  M. A. Watson,  J. Wenzel,  
 M. de Wergifosse,  T. A. Wesolowski,  A. White,  J. Witte,  A. Yamada,  
 Jun Yang,  K. Yao,  S. Yeganeh,  S. R. Yost,  Zhi-Qiang You,  A. Zech,  
 Igor Ying Zhang,  Xing Zhang,  Yan Zhao,  Ying Zhu,  B. R. Brooks,  
 G. K. L. Chan,  C. J. Cramer,  M. S. Gordon,  W. J. Hehre,  A. Klamt,  
 M. W. Schmidt,  C. D. Sherrill,  D. G. Truhlar,  A. Aspuru-Guzik,  R. Baer,  
 A. T. Bell,  N. A. Besley,  Jeng-Da Chai,  A. E. DePrince, III,  
 R. A. DiStasio Jr.,  A. Dreuw,  B. D. Dunietz,  T. R. Furlani,  
 Chao-Ping Hsu,  Yousung Jung,  Jing Kong,  D. S. Lambrecht,  WanZhen Liang,  
 C. Ochsenfeld,  V. A. Rassolov,  L. V. Slipchenko,  J. E. Subotnik,  
 T. Van Voorhis,  J. M. Herbert,  A. I. Krylov,  P. M. W. Gill,  M. Head-Gordon

 Contributors to earlier versions of Q-Chem not listed above: 
 R. D. Adamson,  B. Austin,  J. Baker,  G. J. O. Beran,  K. Brandhorst,  
 S. T. Brown,  E. F. C. Byrd,  A. K. Chakraborty,  C.-L. Cheng,  
 Siu Hung Chien,  D. M. Chipman,  D. L. Crittenden,  H. Dachsel,  
 R. J. Doerksen,  A. D. Dutoi,  L. Fusti-Molnar,  W. A. Goddard III,  
 A. Golubeva-Zadorozhnaya,  S. R. Gwaltney,  G. Hawkins,  A. Heyden,  
 S. Hirata,  G. Kedziora,  F. J. Keil,  C. Kelley,  Jihan Kim,  R. A. King,  
 R. Z. Khaliullin,  P. P. Korambath,  W. Kurlancheek,  A. M. Lee,  M. S. Lee,  
 S. V. Levchenko,  Ching Yeh Lin,  D. Liotard,  R. C. Lochan,  I. Lotan,  
 P. E. Maslen,  N. Nair,  D. P. O'Neill,  D. Neuhauser,  E. Neuscamman,  
 C. M. Oana,  R. Olson,  B. Peters,  R. Peverati,  P. A. Pieniazek,  
 Y. M. Rhee,  J. Ritchie,  M. A. Rohrdanz,  E. Rosta,  N. J. Russ,  
 H. F. Schaefer III,  N. E. Schultz,  N. Shenvi,  A. C. Simmonett,  A. Sodt,  
 D. Stuck,  K. S. Thanthiriwatte,  V. Vanovschi,  Tao Wang,  A. Warshel,  
 C. F. Williams,  Q. Wu,  X. Xu,  W. Zhang

 Please cite Q-Chem as follows:
 Y. Shao et al., Mol. Phys. 113, 184-215 (2015)
 DOI: 10.1080/00268976.2014.952696

 Q-Chem 5.1.1 for Intel X86 EM64T Linux

 Parts of Q-Chem use Armadillo 8.300.2 (Tropical Shenanigans).
 http://arma.sourceforge.net/

 Q-Chem begins on Wed Oct 14 14:32:56 2020  

Host: n0100.mhg0
0

     Scratch files written to /local/scratch/users/yhljason/HCCF_XYG3_aug-cc-pcVTZ.inp20201014142612//
The previous job contains 0 fragments, simply inherited here
Input Ideriv = 2
Curr. Ideriv = -1
Max.  Ideriv = 2

Checking the input file for inconsistencies... 	...done.

--------------------------------------------------------------
User input:
--------------------------------------------------------------
$molecule
read
$end

$rem

jobtype sp
exchange XYG3
xc_grid 000099000590
basis aug-cc-pcVTZ
max_scf_cycles 200
thresh 14
scf_convergence 8
mem_total 128000
cc_memory 96000
cc_backend xm
mem_static 1500
symmetry false
sym_ignore true
scf_guess read
unrestricted false
scf_algorithm gdm
n_frozen_core 0
$end

$multipole_field
YY -0.0001
$end


--------------------------------------------------------------
 ----------------------------------------------------------------
             Standard Nuclear Orientation (Angstroms)
    I     Atom           X                Y                Z
 ----------------------------------------------------------------
    1      C       0.0000000000     0.0000000000    -0.0942000000
    2      C       0.0000000000     0.0000000000    -1.2922000000
    3      F       0.0000000000     0.0000000000     1.1848000000
    4      H       0.0000000000     0.0000000000    -2.3452000000
 ----------------------------------------------------------------
 Nuclear Repulsion Energy =    55.5552441247 hartrees
 There are       11 alpha and       11 beta electrons
 Requested basis set is aug-cc-pCVTZ
 There are 66 shells and 200 basis functions

 Total QAlloc Memory Limit 128000 MB
 Mega-Array Size      1467 MB
 MEM_STATIC part      1500 MB

                       Distance Matrix (Angstroms)
             C (  1)   C (  2)   F (  3)
   C (  2)  1.198000
   F (  3)  1.279000  2.477000
   H (  4)  2.251000  1.053000  3.530000
 
 Applying Cartesian multipole field
    Component          Value
    ---------          -----
     (0,2,0)       -1.00000E-04
 A cutoff of  1.0D-14 yielded   2127 shell pairs
 There are     19759 function pairs (     26772 Cartesian)
 
 -------------------------------------------------------
 OpenMP Integral Computing Module                       
 Release: version 1.0, May 2013, Q-Chem Inc. Pittsburgh 
 -------------------------------------------------------
 Integral Job Info:
 Integral job number is                      11
 Integral operator is                         1
 short-range coefficients                     0
 long-range coefficients              100000000
 Omega coefficients                           0
 if combine SR and LR in K                    0
 Integral screening is                        0
 Integral computing path is                   2
 max size of driver memory is            800000
 size of driver memory is                776718
 size of scratch memory is              6691272
 max col of scratch BK array              10000
 max len of scratch array in speh3          662
 max len of scratch index in speh4           32
 max int batch size is                      520
 min int batch size is                       52
 fixed nKL is                                52
 max L of basis functions is                  3
 order of int derivative is                   0
 number of shells is                         66
 number of basis is                         232
 number of cartesian basis is               232
 number of contracted shell pairs          2127
 number of primitive shell pairs           5689
 maxK2 (contraction) of shell pair           64
 max number of K2 of shell pair               1
 max number of CS2 of shell pair            321
 max number of PS2 of shell pair            704
 mem total for path MDJ                  600000
 -------------------------------------------------------
 Smallest overlap matrix eigenvalue = 1.17E-05
 Guess MOs from SCF MO coefficient file
 Reading MOs from coefficient file
 Reading MOs from coefficient file
 A restricted hybrid HF-DFT SCF calculation will be
 performed using Geometric Direct Minimization
 Exchange:     0.2000 Hartree-Fock + 0.0800 Slater + 0.7200 B88
 Correlation:  0.1900 VWN1RPA + 0.8100 LYP
 Using Euler-Maclaurin-Lebedev (99,590) quadrature formula
 SCF converges when RMS gradient is below 1.0E-08
Using Q-Chem read-in guess as SCF_GUESS READ specified.

 using 8 threads for integral computing
 -------------------------------------------------------
 OpenMP Integral computing Module                
 Release: version 2.0, May 2017, Q-Chem Inc. Pleasanton 
 -------------------------------------------------------
TIMEINFO->: J/JK contribution 30.44 sec.
 -------------------------------------------------------
 OpenMP BLAS3 based DFT computing Module                
 Release: version 1.0, May 2013, Q-Chem Inc. Pittsburgh 
 -------------------------------------------------------
 ---------------------------------------
  Cycle       Energy        RMS Gradient
 ---------------------------------------
    1    -176.6186887484      6.91E-04 Normal BFGS step
TIMEINFO->: J/JK contribution 30.85 sec.
    2    -176.6186902403      2.22E-04 Normal BFGS step
TIMEINFO->: J/JK contribution 29.76 sec.
    3    -176.6186904770      1.50E-04 Normal BFGS step
TIMEINFO->: J/JK contribution 29.58 sec.
    4    -176.6186904919      1.45E-04 Normal BFGS step
TIMEINFO->: J/JK contribution 29.37 sec.
    5    -176.6186905330      2.96E-05 Normal BFGS step
TIMEINFO->: J/JK contribution 29.50 sec.
    6    -176.6186905410      1.27E-05 Normal BFGS step
TIMEINFO->: J/JK contribution 28.99 sec.
    7    -176.6186905415      1.16E-05 Normal BFGS step
TIMEINFO->: J/JK contribution 28.91 sec.
    8    -176.6186905422      2.60E-06 Normal BFGS step
TIMEINFO->: J/JK contribution 28.61 sec.
    9    -176.6186905422      5.53E-07 Normal BFGS step
TIMEINFO->: J/JK contribution 27.85 sec.
   10    -176.6186905422      2.98E-08 Normal BFGS step
TIMEINFO->: J/JK contribution 26.55 sec.
   GDM::WARNING energy changes are now smaller than effective accuracy.
   GDM::        calculation will continue, but THRESH should be increased
   GDM::        or SCF_CONVERGENCE decreased.
   GDM::        effective_thresh =   1.100000000000000E-010
   11    -176.6186905422      4.03E-09 Convergence criterion met
 ---------------------------------------
 B3LYP orbitals are now ready for the XYG3 calculation.
 XYG3 energy = Exch (0.8033 HF  - 0.0140 Slater + 0.2107 Becke88) + 
               Corr (0.6789 LYP + 0.3211 MP2)
 SCF time:  CPU 410.23 s  wall 51.32 s
 SCF   energy in the final basis set = -176.26563318
 Total energy in the final basis set = -176.26563318
 
 Components of the MP2 correlation energy:
        aaaa  correlation energy  =        -0.1147201918 au
        abab  correlation energy  =        -0.7481810703 au
        bbbb  correlation energy  =        -0.1147201918 au
        singles contribution not yet available for XYG3

 Total  XYG3        total energy  =      -176.5795474231 au

 
 --------------------------------------------------------------
 
                    Orbital Energies (a.u.)
 --------------------------------------------------------------
 
 Alpha MOs
 -- Occupied --
-24.771 -10.275 -10.190  -1.310  -0.777  -0.646  -0.541  -0.532
 -0.532  -0.298  -0.298
 -- Virtual --
 -0.014   0.015   0.029   0.030   0.053   0.054   0.060   0.065
  0.095   0.096   0.113   0.149   0.176   0.195   0.195   0.195
  0.196   0.211   0.271   0.273   0.298   0.304   0.304   0.323
  0.324   0.325   0.371   0.372   0.385   0.399   0.497   0.498
  0.498   0.644   0.702   0.702   0.734   0.734   0.757   0.787
  0.810   0.810   0.812   0.812   0.854   0.866   0.866   0.870
  0.870   0.896   0.896   0.972   1.016   1.016   1.038   1.054
  1.055   1.119   1.119   1.125   1.125   1.137   1.241   1.258
  1.259   1.367   1.424   1.424   1.525   1.525   1.659   1.659
  1.663   1.782   1.784   1.784   1.882   1.981   1.981   2.064
  2.403   2.403   2.502   2.502   2.506   2.524   2.661   2.661
  2.695   2.696   2.838   2.838   2.910   2.957   2.957   2.977
  2.977   3.034   3.034   3.039   3.078   3.092   3.092   3.231
  3.231   3.353   3.354   3.368   3.368   3.453   3.474   3.474
  3.590   3.590   3.617   3.792   3.792   3.931   4.173   4.219
  4.219   4.306   4.306   4.438   4.438   4.619   4.656   4.656
  4.866   5.401   5.401   5.417   6.318   6.318   6.399   6.663
  6.918   7.931   8.249   8.249   8.546   8.546   8.697   8.697
  8.840   8.840   9.126   9.126   9.193   9.373  14.998  14.998
 15.716  15.716  16.117  16.258  17.660  17.788  31.067  31.067
 32.628  34.914  40.358  40.358  40.448  40.448  40.460  40.460
 40.660  40.663  40.663  41.292  51.863  51.863  52.014  52.014
 52.131  79.695  79.695  80.251  80.251  80.580  81.610  84.503
 87.052 168.208 168.208 169.431 181.302
 --------------------------------------------------------------
 
          Ground-State Mulliken Net Atomic Charges

     Atom                 Charge (a.u.)
  ----------------------------------------
      1 C                     0.379591
      2 C                    -0.618934
      3 F                    -0.219540
      4 H                     0.458882
  ----------------------------------------
  Sum of atomic charges =    -0.000000

 -----------------------------------------------------------------
                    Cartesian Multipole Moments
 -----------------------------------------------------------------
    Charge (ESU x 10^10)
                -0.0000
    Dipole Moment (Debye)
         X      -0.0000      Y      -0.0000      Z      -0.6319
       Tot       0.6319
    Quadrupole Moments (Debye-Ang)
        XX     -17.1417     XY      -0.0000     YY     -17.1333
        XZ       0.0000     YZ      -0.0000     ZZ     -13.1380
    Octopole Moments (Debye-Ang^2)
       XXX      -0.0000    XXY      -0.0000    XYY      -0.0000
       YYY      -0.0000    XXZ       5.0566    XYZ       0.0000
       YYZ       5.0497    XZZ      -0.0000    YZZ      -0.0000
       ZZZ      -1.0742
    Hexadecapole Moments (Debye-Ang^3)
      XXXX     -18.2319   XXXY      -0.0000   XXYY      -6.0709
      XYYY      -0.0000   YYYY     -18.1932   XXXZ       0.0000
      XXYZ       0.0000   XYYZ       0.0000   YYYZ       0.0000
      XXZZ     -26.3443   XYZZ      -0.0000   YYZZ     -26.3284
      XZZZ       0.0000   YZZZ       0.0000   ZZZZ     -99.7081
 -----------------------------------------------------------------
Archival summary:
1\1\n0100.mhg0\SP\ProcedureUnspecified\BasisUnspecified\121\yhljason\WedOct1414:34:322020WedOct1414:34:322020\0\\#,ProcedureUnspecified,BasisUnspecified,\\0,1\C\C,1,1.198\H,2,1.053,1,180\F,1,1.279,2,180,3,0,0\\\@

 Total job time:  95.51s(wall), 757.46s(cpu) 
 Wed Oct 14 14:34:32 2020

        *************************************************************
        *                                                           *
        *  Thank you very much for using Q-Chem.  Have a nice day.  *
        *                                                           *
        *************************************************************


 
User input: 6 of 7 
 
Q-Chem Developer Version!
                  Welcome to Q-Chem
     A Quantum Leap Into The Future Of Chemistry


 Q-Chem 5.1, Q-Chem, Inc., Pleasanton, CA (2018)

 Yihan Shao,  Zhengting Gan,  E. Epifanovsky,  A. T. B. Gilbert,  M. Wormit,  
 J. Kussmann,  A. W. Lange,  A. Behn,  Jia Deng,  Xintian Feng,  D. Ghosh,  
 M. Goldey,  P. R. Horn,  L. D. Jacobson,  I. Kaliman,  T. Kus,  A. Landau,  
 Jie Liu,  E. I. Proynov,  R. M. Richard,  R. P. Steele,  E. J. Sundstrom,  
 H. L. Woodcock III,  P. M. Zimmerman,  D. Zuev,  B. Albrecht,  E. Alguire,  
 S. A. Baeppler,  D. Barton,  Z. Benda,  Y. A. Bernard,  E. J. Berquist,  
 K. B. Bravaya,  H. Burton,  D. Casanova,  Chun-Min Chang,  Yunqing Chen,  
 A. Chien,  K. D. Closser,  M. P. Coons,  S. Coriani,  S. Dasgupta,  
 A. L. Dempwolff,  M. Diedenhofen,  Hainam Do,  R. G. Edgar,  Po-Tung Fang,  
 S. Faraji,  S. Fatehi,  Qingguo Feng,  K. D. Fenk,  J. Fosso-Tande,  
 Qinghui Ge,  A. Ghysels,  G. Gidofalvi,  J. Gomes,  J. Gonthier,  A. Gunina,  
 D. Hait,  M. W. D. Hanson-Heine,  P. H. P. Harbach,  A. W. Hauser,  
 J. E. Herr,  E. G. Hohenstein,  Z. C. Holden,  Kerwin Hui,  B. C. Huynh,  
 T.-C. Jagau,  Hyunjun Ji,  B. Kaduk,  K. Khistyaev,  Jaehoon Kim,  
 P. Klunzinger,  K. Koh,  D. Kosenkov,  L. Koulias,  T. Kowalczyk,  
 C. M. Krauter,  A. Kunitsa,  Ka Un Lao,  A. Laurent,  K. V. Lawler,  
 Joonho Lee,  D. Lefrancois,  S. Lehtola,  D. S. Levine,  Yi-Pei Li,  
 You-Sheng Lin,  Fenglai Liu,  E. Livshits,  A. Luenser,  P. Manohar,  
 E. Mansoor,  S. F. Manzer,  Shan-Ping Mao,  Yuezhi Mao,  N. Mardirossian,  
 A. V. Marenich,  T. Markovich,  L. A. Martinez-Martinez,  S. A. Maurer,  
 N. J. Mayhall,  S. C. McKenzie,  J.-M. Mewes,  A. F. Morrison,  
 J. W. Mullinax,  K. Nanda,  T. S. Nguyen-Beck,  R. Olivares-Amaya,  
 J. A. Parkhill,  T. M. Perrine,  F. Plasser,  P. Pokhilko,  S. Prager,  
 A. Prociuk,  E. Ramos,  D. R. Rehn,  F. Rob,  M. Schneider,  N. Sergueev,  
[...]
 SCF   energy in the final basis set = -176.26785508
 Total energy in the final basis set = -176.26785508
 
 Components of the MP2 correlation energy:
        aaaa  correlation energy  =        -0.1147300657 au
        abab  correlation energy  =        -0.7482157094 au
        bbbb  correlation energy  =        -0.1147300657 au
        singles contribution not yet available for XYG3

 Total  XYG3        total energy  =      -176.5817867890 au

 
 --------------------------------------------------------------
 
                    Orbital Energies (a.u.)
 --------------------------------------------------------------
 
 Alpha MOs
 -- Occupied --
-24.772 -10.276 -10.191  -1.311  -0.778  -0.647  -0.543  -0.533
 -0.533  -0.299  -0.299
 -- Virtual --
 -0.017   0.009   0.027   0.027   0.051   0.051   0.056   0.060
  0.091   0.091   0.107   0.145   0.173   0.192   0.192   0.194
  0.194   0.207   0.268   0.268   0.293   0.303   0.303   0.320
  0.321   0.321   0.369   0.369   0.381   0.396   0.493   0.495
  0.495   0.641   0.700   0.700   0.733   0.733   0.755   0.784
  0.808   0.808   0.811   0.811   0.851   0.864   0.864   0.869
  0.869   0.894   0.894   0.970   1.014   1.014   1.036   1.053
  1.053   1.118   1.118   1.123   1.123   1.135   1.240   1.257
  1.257   1.366   1.422   1.422   1.523   1.523   1.657   1.657
  1.661   1.780   1.783   1.783   1.880   1.979   1.979   2.062
  2.402   2.402   2.501   2.501   2.505   2.522   2.660   2.660
  2.694   2.694   2.837   2.837   2.909   2.956   2.956   2.976
  2.976   3.033   3.033   3.037   3.076   3.091   3.091   3.230
  3.230   3.352   3.352   3.367   3.367   3.452   3.473   3.473
  3.589   3.589   3.616   3.790   3.790   3.930   4.171   4.218
  4.218   4.305   4.305   4.436   4.436   4.617   4.654   4.654
  4.865   5.399   5.399   5.415   6.317   6.317   6.397   6.661
  6.916   7.930   8.248   8.248   8.545   8.545   8.696   8.696
  8.838   8.838   9.125   9.125   9.192   9.372  14.997  14.997
 15.715  15.715  16.116  16.257  17.659  17.787  31.066  31.066
 32.627  34.913  40.357  40.357  40.447  40.447  40.459  40.459
 40.659  40.662  40.662  41.291  51.862  51.862  52.012  52.012
 52.130  79.694  79.694  80.250  80.250  80.579  81.609  84.502
 87.051 168.207 168.207 169.430 181.301
 --------------------------------------------------------------
 
          Ground-State Mulliken Net Atomic Charges

     Atom                 Charge (a.u.)
  ----------------------------------------
      1 C                     0.382796
      2 C                    -0.620903
      3 F                    -0.219981
      4 H                     0.458088
  ----------------------------------------
  Sum of atomic charges =    -0.000000

 -----------------------------------------------------------------
                    Cartesian Multipole Moments
 -----------------------------------------------------------------
    Charge (ESU x 10^10)
                -0.0000
    Dipole Moment (Debye)
         X      -0.0000      Y       0.0000      Z      -0.6138
       Tot       0.6138
    Quadrupole Moments (Debye-Ang)
        XX     -17.1456     XY       0.0000     YY     -17.1456
        XZ       0.0000     YZ       0.0000     ZZ     -13.2068
    Octopole Moments (Debye-Ang^2)
       XXX      -0.0000    XXY      -0.0000    XYY      -0.0000
       YYY      -0.0000    XXZ       5.0716    XYZ       0.0000
       YYZ       5.0716    XZZ      -0.0000    YZZ      -0.0000
       ZZZ      -0.9175
    Hexadecapole Moments (Debye-Ang^3)
      XXXX     -18.2541   XXXY      -0.0000   XXYY      -6.0847
      XYYY      -0.0000   YYYY     -18.2541   XXXZ       0.0000
      XXYZ       0.0000   XYYZ       0.0000   YYYZ       0.0000
      XXZZ     -26.3931   XYZZ       0.0000   YYZZ     -26.3931
      XZZZ       0.0000   YZZZ       0.0000   ZZZZ    -100.2823
 -----------------------------------------------------------------
Archival summary:
1\1\n0100.mhg0\SP\ProcedureUnspecified\BasisUnspecified\121\yhljason\WedOct1414:36:082020WedOct1414:36:082020\0\\#,ProcedureUnspecified,BasisUnspecified,\\0,1\C\C,1,1.198\H,2,1.053,1,180\F,1,1.279,2,180,3,0,0\\\@

 Total job time:  95.57s(wall), 750.60s(cpu) 
 Wed Oct 14 14:36:08 2020

        *************************************************************
        *                                                           *
        *  Thank you very much for using Q-Chem.  Have a nice day.  *
        *                                                           *
        *************************************************************


 
User input: 7 of 7 
 
Q-Chem Developer Version!
                  Welcome to Q-Chem
     A Quantum Leap Into The Future Of Chemistry


 Q-Chem 5.1, Q-Chem, Inc., Pleasanton, CA (2018)

 Yihan Shao,  Zhengting Gan,  E. Epifanovsky,  A. T. B. Gilbert,  M. Wormit,  
 J. Kussmann,  A. W. Lange,  A. Behn,  Jia Deng,  Xintian Feng,  D. Ghosh,  
 M. Goldey,  P. R. Horn,  L. D. Jacobson,  I. Kaliman,  T. Kus,  A. Landau,  
 Jie Liu,  E. I. Proynov,  R. M. Richard,  R. P. Steele,  E. J. Sundstrom,  
 H. L. Woodcock III,  P. M. Zimmerman,  D. Zuev,  B. Albrecht,  E. Alguire,  
 S. A. Baeppler,  D. Barton,  Z. Benda,  Y. A. Bernard,  E. J. Berquist,  
 K. B. Bravaya,  H. Burton,  D. Casanova,  Chun-Min Chang,  Yunqing Chen,  
 A. Chien,  K. D. Closser,  M. P. Coons,  S. Coriani,  S. Dasgupta,  
 A. L. Dempwolff,  M. Diedenhofen,  Hainam Do,  R. G. Edgar,  Po-Tung Fang,  
 S. Faraji,  S. Fatehi,  Qingguo Feng,  K. D. Fenk,  J. Fosso-Tande,  
 Qinghui Ge,  A. Ghysels,  G. Gidofalvi,  J. Gomes,  J. Gonthier,  A. Gunina,  
 D. Hait,  M. W. D. Hanson-Heine,  P. H. P. Harbach,  A. W. Hauser,  
 J. E. Herr,  E. G. Hohenstein,  Z. C. Holden,  Kerwin Hui,  B. C. Huynh,  
 T.-C. Jagau,  Hyunjun Ji,  B. Kaduk,  K. Khistyaev,  Jaehoon Kim,  
 P. Klunzinger,  K. Koh,  D. Kosenkov,  L. Koulias,  T. Kowalczyk,  
 C. M. Krauter,  A. Kunitsa,  Ka Un Lao,  A. Laurent,  K. V. Lawler,  
 Joonho Lee,  D. Lefrancois,  S. Lehtola,  D. S. Levine,  Yi-Pei Li,  
 You-Sheng Lin,  Fenglai Liu,  E. Livshits,  A. Luenser,  P. Manohar,  
 E. Mansoor,  S. F. Manzer,  Shan-Ping Mao,  Yuezhi Mao,  N. Mardirossian,  
 A. V. Marenich,  T. Markovich,  L. A. Martinez-Martinez,  S. A. Maurer,  
 N. J. Mayhall,  S. C. McKenzie,  J.-M. Mewes,  A. F. Morrison,  
 J. W. Mullinax,  K. Nanda,  T. S. Nguyen-Beck,  R. Olivares-Amaya,  
 J. A. Parkhill,  T. M. Perrine,  F. Plasser,  P. Pokhilko,  S. Prager,  
 A. Prociuk,  E. Ramos,  D. R. Rehn,  F. Rob,  M. Schneider,  N. Sergueev,  
 S. M. Sharada,  S. Sharma,  D. W. Small,  T. Stauch,  T. Stein,  
 Yu-Chuan Su,  A. J. W. Thom,  A. Tkatchenko,  T. Tsuchimochi,  N. M. Tubman,  
 L. Vogt,  M. L. Vidal,  O. Vydrov,  M. A. Watson,  J. Wenzel,  
 M. de Wergifosse,  T. A. Wesolowski,  A. White,  J. Witte,  A. Yamada,  
 Jun Yang,  K. Yao,  S. Yeganeh,  S. R. Yost,  Zhi-Qiang You,  A. Zech,  
 Igor Ying Zhang,  Xing Zhang,  Yan Zhao,  Ying Zhu,  B. R. Brooks,  
 G. K. L. Chan,  C. J. Cramer,  M. S. Gordon,  W. J. Hehre,  A. Klamt,  
 M. W. Schmidt,  C. D. Sherrill,  D. G. Truhlar,  A. Aspuru-Guzik,  R. Baer,  
 A. T. Bell,  N. A. Besley,  Jeng-Da Chai,  A. E. DePrince, III,  
 R. A. DiStasio Jr.,  A. Dreuw,  B. D. Dunietz,  T. R. Furlani,  
 Chao-Ping Hsu,  Yousung Jung,  Jing Kong,  D. S. Lambrecht,  WanZhen Liang,  
 C. Ochsenfeld,  V. A. Rassolov,  L. V. Slipchenko,  J. E. Subotnik,  
 T. Van Voorhis,  J. M. Herbert,  A. I. Krylov,  P. M. W. Gill,  M. Head-Gordon

 Contributors to earlier versions of Q-Chem not listed above: 
 R. D. Adamson,  B. Austin,  J. Baker,  G. J. O. Beran,  K. Brandhorst,  
 S. T. Brown,  E. F. C. Byrd,  A. K. Chakraborty,  C.-L. Cheng,  
 Siu Hung Chien,  D. M. Chipman,  D. L. Crittenden,  H. Dachsel,  
 R. J. Doerksen,  A. D. Dutoi,  L. Fusti-Molnar,  W. A. Goddard III,  
 A. Golubeva-Zadorozhnaya,  S. R. Gwaltney,  G. Hawkins,  A. Heyden,  
 S. Hirata,  G. Kedziora,  F. J. Keil,  C. Kelley,  Jihan Kim,  R. A. King,  
 R. Z. Khaliullin,  P. P. Korambath,  W. Kurlancheek,  A. M. Lee,  M. S. Lee,  
 S. V. Levchenko,  Ching Yeh Lin,  D. Liotard,  R. C. Lochan,  I. Lotan,  
 P. E. Maslen,  N. Nair,  D. P. O'Neill,  D. Neuhauser,  E. Neuscamman,  
 C. M. Oana,  R. Olson,  B. Peters,  R. Peverati,  P. A. Pieniazek,  
 Y. M. Rhee,  J. Ritchie,  M. A. Rohrdanz,  E. Rosta,  N. J. Russ,  
 H. F. Schaefer III,  N. E. Schultz,  N. Shenvi,  A. C. Simmonett,  A. Sodt,  
 D. Stuck,  K. S. Thanthiriwatte,  V. Vanovschi,  Tao Wang,  A. Warshel,  
 C. F. Williams,  Q. Wu,  X. Xu,  W. Zhang

 Please cite Q-Chem as follows:
 Y. Shao et al., Mol. Phys. 113, 184-215 (2015)
 DOI: 10.1080/00268976.2014.952696

 Q-Chem 5.1.1 for Intel X86 EM64T Linux

 Parts of Q-Chem use Armadillo 8.300.2 (Tropical Shenanigans).
 http://arma.sourceforge.net/

 Q-Chem begins on Wed Oct 14 14:36:08 2020  

Host: n0100.mhg0
0

     Scratch files written to /local/scratch/users/yhljason/HCCF_XYG3_aug-cc-pcVTZ.inp20201014142612//
The previous job contains 0 fragments, simply inherited here
Input Ideriv = 2
Curr. Ideriv = -1
Max.  Ideriv = 2

Checking the input file for inconsistencies... 	...done.

--------------------------------------------------------------
User input:
--------------------------------------------------------------
$molecule
read
$end

$rem

jobtype sp
exchange XYG3
xc_grid 000099000590
basis aug-cc-pcVTZ
max_scf_cycles 200
thresh 14
scf_convergence 8
mem_total 128000
cc_memory 96000
cc_backend xm
mem_static 1500
symmetry false
sym_ignore true
scf_guess read
unrestricted false
scf_algorithm gdm
n_frozen_core 0
$end

$multipole_field
ZZ -0.0001
$end

--------------------------------------------------------------
 ----------------------------------------------------------------
             Standard Nuclear Orientation (Angstroms)
    I     Atom           X                Y                Z
 ----------------------------------------------------------------
    1      C       0.0000000000     0.0000000000    -0.0942000000
    2      C       0.0000000000     0.0000000000    -1.2922000000
    3      F       0.0000000000     0.0000000000     1.1848000000
    4      H       0.0000000000     0.0000000000    -2.3452000000
 ----------------------------------------------------------------
 Nuclear Repulsion Energy =    55.5552441247 hartrees
 There are       11 alpha and       11 beta electrons
 Requested basis set is aug-cc-pCVTZ
 There are 66 shells and 200 basis functions

 Total QAlloc Memory Limit 128000 MB
 Mega-Array Size      1467 MB
 MEM_STATIC part      1500 MB

                       Distance Matrix (Angstroms)
             C (  1)   C (  2)   F (  3)
   C (  2)  1.198000
   F (  3)  1.279000  2.477000
   H (  4)  2.251000  1.053000  3.530000
 
 Applying Cartesian multipole field
    Component          Value
    ---------          -----
     (0,0,2)       -1.00000E-04
 Nucleus-field energy     =    -0.0100724202 hartrees
 A cutoff of  1.0D-14 yielded   2127 shell pairs
 There are     19759 function pairs (     26772 Cartesian)
 
 -------------------------------------------------------
 OpenMP Integral Computing Module                       
 Release: version 1.0, May 2013, Q-Chem Inc. Pittsburgh 
 -------------------------------------------------------
 Integral Job Info:
 Integral job number is                      11
 Integral operator is                         1
 short-range coefficients                     0
 long-range coefficients              100000000
 Omega coefficients                           0
 if combine SR and LR in K                    0
 Integral screening is                        0
 Integral computing path is                   2
 max size of driver memory is            800000
 size of driver memory is                776718
 size of scratch memory is              6691272
 max col of scratch BK array              10000
 max len of scratch array in speh3          662
 max len of scratch index in speh4           32
 max int batch size is                      520
 min int batch size is                       52
 fixed nKL is                                52
 max L of basis functions is                  3
 order of int derivative is                   0
 number of shells is                         66
 number of basis is                         232
 number of cartesian basis is               232
 number of contracted shell pairs          2127
 number of primitive shell pairs           5689
 maxK2 (contraction) of shell pair           64
 max number of K2 of shell pair               1
 max number of CS2 of shell pair            321
 max number of PS2 of shell pair            704
 mem total for path MDJ                  600000
 -------------------------------------------------------
 Smallest overlap matrix eigenvalue = 1.17E-05
 Guess MOs from SCF MO coefficient file
 Reading MOs from coefficient file
 Reading MOs from coefficient file
 A restricted hybrid HF-DFT SCF calculation will be
 performed using Geometric Direct Minimization
 Exchange:     0.2000 Hartree-Fock + 0.0800 Slater + 0.7200 B88
 Correlation:  0.1900 VWN1RPA + 0.8100 LYP
 Using Euler-Maclaurin-Lebedev (99,590) quadrature formula
 SCF converges when RMS gradient is below 1.0E-08
Using Q-Chem read-in guess as SCF_GUESS READ specified.

 using 8 threads for integral computing
 -------------------------------------------------------
 OpenMP Integral computing Module                
 Release: version 2.0, May 2017, Q-Chem Inc. Pleasanton 
 -------------------------------------------------------
TIMEINFO->: J/JK contribution 30.10 sec.
 -------------------------------------------------------
 OpenMP BLAS3 based DFT computing Module                
 Release: version 1.0, May 2013, Q-Chem Inc. Pittsburgh 
 -------------------------------------------------------
 ---------------------------------------
  Cycle       Energy        RMS Gradient
 ---------------------------------------
    1    -176.6189803687      1.60E-03 Normal BFGS step
TIMEINFO->: J/JK contribution 29.79 sec.
    2    -176.6189820931      2.37E-03 Normal BFGS step
TIMEINFO->: J/JK contribution 29.20 sec.
    3    -176.6189884672      5.99E-04 Normal BFGS step
TIMEINFO->: J/JK contribution 29.25 sec.
    4    -176.6189895033      3.45E-04 Normal BFGS step
TIMEINFO->: J/JK contribution 29.06 sec.
    5    -176.6189904438      1.12E-04 Normal BFGS step
TIMEINFO->: J/JK contribution 28.94 sec.
    6    -176.6189904604      7.97E-05 Normal BFGS step
TIMEINFO->: J/JK contribution 28.82 sec.
    7    -176.6189905349      1.37E-05 Normal BFGS step
TIMEINFO->: J/JK contribution 28.57 sec.
    8    -176.6189905365      4.11E-06 Normal BFGS step
TIMEINFO->: J/JK contribution 28.29 sec.
    9    -176.6189905369      3.36E-07 Normal BFGS step
TIMEINFO->: J/JK contribution 27.29 sec.
   10    -176.6189905369      5.98E-08 Normal BFGS step
TIMEINFO->: J/JK contribution 26.31 sec.
   GDM::WARNING energy changes are now smaller than effective accuracy.
   GDM::        calculation will continue, but THRESH should be increased
   GDM::        or SCF_CONVERGENCE decreased.
   GDM::        effective_thresh =   3.964539564693670E-010
   11    -176.6189905369      2.44E-09 Convergence criterion met
 ---------------------------------------
 B3LYP orbitals are now ready for the XYG3 calculation.
 XYG3 energy = Exch (0.8033 HF  - 0.0140 Slater + 0.2107 Becke88) + 
               Corr (0.6789 LYP + 0.3211 MP2)
 SCF time:  CPU 403.84 s  wall 50.51 s
 SCF   energy in the final basis set = -176.26595925
 Total energy in the final basis set = -176.26595925
 
 Components of the MP2 correlation energy:
        aaaa  correlation energy  =        -0.1147143601 au
        abab  correlation energy  =        -0.7481157405 au
        bbbb  correlation energy  =        -0.1147143601 au
        singles contribution not yet available for XYG3

 Total  XYG3        total energy  =      -176.5798487779 au

 
 --------------------------------------------------------------
 
                    Orbital Energies (a.u.)
 --------------------------------------------------------------
 
 Alpha MOs
 -- Occupied --
-24.770 -10.275 -10.190  -1.309  -0.777  -0.645  -0.540  -0.531
 -0.531  -0.297  -0.297
 -- Virtual --
 -0.013   0.019   0.030   0.030   0.052   0.052   0.061   0.067
  0.096   0.096   0.117   0.151   0.177   0.195   0.195   0.196
  0.196   0.212   0.274   0.274   0.300   0.305   0.305   0.324
  0.324   0.328   0.373   0.373   0.387   0.400   0.499   0.499
  0.499   0.645   0.703   0.703   0.734   0.734   0.757   0.788
  0.811   0.811   0.813   0.813   0.857   0.867   0.867   0.870
  0.870   0.897   0.897   0.973   1.017   1.017   1.039   1.056
  1.056   1.120   1.120   1.126   1.126   1.139   1.242   1.260
  1.260   1.368   1.425   1.425   1.525   1.525   1.659   1.659
  1.664   1.783   1.785   1.785   1.883   1.982   1.982   2.064
  2.404   2.404   2.502   2.502   2.507   2.525   2.662   2.662
  2.696   2.696   2.838   2.838   2.911   2.958   2.958   2.977
  2.977   3.034   3.034   3.039   3.078   3.093   3.093   3.232
  3.232   3.354   3.354   3.369   3.369   3.454   3.475   3.475
  3.590   3.590   3.618   3.792   3.792   3.932   4.173   4.220
  4.220   4.307   4.307   4.439   4.439   4.620   4.657   4.657
  4.867   5.401   5.401   5.418   6.319   6.319   6.399   6.663
  6.918   7.932   8.250   8.250   8.547   8.547   8.698   8.698
  8.840   8.840   9.127   9.127   9.194   9.374  14.998  14.998
 15.717  15.717  16.118  16.259  17.661  17.789  31.067  31.067
 32.629  34.915  40.359  40.359  40.449  40.449  40.460  40.460
 40.661  40.663  40.663  41.293  51.863  51.863  52.014  52.014
 52.132  79.696  79.696  80.252  80.252  80.581  81.611  84.504
 87.053 168.208 168.208 169.432 181.303
 --------------------------------------------------------------
 
          Ground-State Mulliken Net Atomic Charges

     Atom                 Charge (a.u.)
  ----------------------------------------
      1 C                     0.376228
      2 C                    -0.617788
      3 F                    -0.218519
      4 H                     0.460078
  ----------------------------------------
  Sum of atomic charges =    -0.000000

 -----------------------------------------------------------------
                    Cartesian Multipole Moments
 -----------------------------------------------------------------
    Charge (ESU x 10^10)
                -0.0000
    Dipole Moment (Debye)
         X      -0.0000      Y      -0.0000      Z      -0.6479
       Tot       0.6479
    Quadrupole Moments (Debye-Ang)
        XX     -17.1450     XY      -0.0000     YY     -17.1450
        XZ       0.0000     YZ       0.0000     ZZ     -13.0703
    Octopole Moments (Debye-Ang^2)
       XXX      -0.0000    XXY      -0.0000    XYY      -0.0000
       YYY      -0.0000    XXZ       5.0484    XYZ      -0.0000
       YYZ       5.0484    XZZ      -0.0000    YZZ      -0.0000
       ZZZ      -1.2237
    Hexadecapole Moments (Debye-Ang^3)
      XXXX     -18.2484   XXXY      -0.0000   XXYY      -6.0828
      XYYY      -0.0000   YYYY     -18.2484   XXXZ       0.0000
      XXYZ       0.0000   XYYZ       0.0000   YYYZ       0.0000
      XXZZ     -26.3114   XYZZ       0.0000   YYZZ     -26.3114
      XZZZ       0.0000   YZZZ       0.0000   ZZZZ     -99.1492
 -----------------------------------------------------------------
Archival summary:
1\1\n0100.mhg0\SP\ProcedureUnspecified\BasisUnspecified\121\yhljason\WedOct1414:37:432020WedOct1414:37:432020\0\\#,ProcedureUnspecified,BasisUnspecified,\\0,1\C\C,1,1.198\H,2,1.053,1,180\F,1,1.279,2,180,3,0,0\\\@

 Total job time:  95.37s(wall), 754.84s(cpu) 
 Wed Oct 14 14:37:43 2020

        *************************************************************
        *                                                           *
        *  Thank you very much for using Q-Chem.  Have a nice day.  *
        *                                                           *
        *************************************************************


