Q-Chem Developer Version!
                  Welcome to Q-Chem
     A Quantum Leap Into The Future Of Chemistry


 Q-Chem 5.1, Q-Chem, Inc., Pleasanton, CA (2018)

 Yihan Shao,  Zhengting Gan,  E. Epifanovsky,  A. T. B. Gilbert,  M. Wormit,  
 J. Kussmann,  A. W. Lange,  A. Behn,  Jia Deng,  Xintian Feng,  D. Ghosh,  
 M. Goldey,  P. R. Horn,  L. D. Jacobson,  I. Kaliman,  T. Kus,  A. Landau,  
 Jie Liu,  E. I. Proynov,  R. M. Richard,  R. P. Steele,  E. J. Sundstrom,  
 H. L. Woodcock III,  P. M. Zimmerman,  D. Zuev,  B. Albrecht,  E. Alguire,  
 S. A. Baeppler,  D. Barton,  Z. Benda,  Y. A. Bernard,  E. J. Berquist,  
 K. B. Bravaya,  H. Burton,  D. Casanova,  Chun-Min Chang,  Yunqing Chen,  
 A. Chien,  K. D. Closser,  M. P. Coons,  S. Coriani,  S. Dasgupta,  
 A. L. Dempwolff,  M. Diedenhofen,  Hainam Do,  R. G. Edgar,  Po-Tung Fang,  
 S. Faraji,  S. Fatehi,  Qingguo Feng,  K. D. Fenk,  J. Fosso-Tande,  
 Qinghui Ge,  A. Ghysels,  G. Gidofalvi,  J. Gomes,  J. Gonthier,  A. Gunina,  
 D. Hait,  M. W. D. Hanson-Heine,  P. H. P. Harbach,  A. W. Hauser,  
 J. E. Herr,  E. G. Hohenstein,  Z. C. Holden,  Kerwin Hui,  B. C. Huynh,  
 T.-C. Jagau,  Hyunjun Ji,  B. Kaduk,  K. Khistyaev,  Jaehoon Kim,  
 P. Klunzinger,  K. Koh,  D. Kosenkov,  L. Koulias,  T. Kowalczyk,  
 C. M. Krauter,  A. Kunitsa,  Ka Un Lao,  A. Laurent,  K. V. Lawler,  
 Joonho Lee,  D. Lefrancois,  S. Lehtola,  D. S. Levine,  Yi-Pei Li,  
 You-Sheng Lin,  Fenglai Liu,  E. Livshits,  A. Luenser,  P. Manohar,  
 E. Mansoor,  S. F. Manzer,  Shan-Ping Mao,  Yuezhi Mao,  N. Mardirossian,  
 A. V. Marenich,  T. Markovich,  L. A. Martinez-Martinez,  S. A. Maurer,  
 N. J. Mayhall,  S. C. McKenzie,  J.-M. Mewes,  A. F. Morrison,  
 J. W. Mullinax,  K. Nanda,  T. S. Nguyen-Beck,  R. Olivares-Amaya,  
 J. A. Parkhill,  T. M. Perrine,  F. Plasser,  P. Pokhilko,  S. Prager,  
 A. Prociuk,  E. Ramos,  D. R. Rehn,  F. Rob,  M. Schneider,  N. Sergueev,  
 S. M. Sharada,  S. Sharma,  D. W. Small,  T. Stauch,  T. Stein,  
 Yu-Chuan Su,  A. J. W. Thom,  A. Tkatchenko,  T. Tsuchimochi,  N. M. Tubman,  
 L. Vogt,  M. L. Vidal,  O. Vydrov,  M. A. Watson,  J. Wenzel,  
 M. de Wergifosse,  T. A. Wesolowski,  A. White,  J. Witte,  A. Yamada,  
 Jun Yang,  K. Yao,  S. Yeganeh,  S. R. Yost,  Zhi-Qiang You,  A. Zech,  
 Igor Ying Zhang,  Xing Zhang,  Yan Zhao,  Ying Zhu,  B. R. Brooks,  
 G. K. L. Chan,  C. J. Cramer,  M. S. Gordon,  W. J. Hehre,  A. Klamt,  
 M. W. Schmidt,  C. D. Sherrill,  D. G. Truhlar,  A. Aspuru-Guzik,  R. Baer,  
 A. T. Bell,  N. A. Besley,  Jeng-Da Chai,  A. E. DePrince, III,  
 R. A. DiStasio Jr.,  A. Dreuw,  B. D. Dunietz,  T. R. Furlani,  
 Chao-Ping Hsu,  Yousung Jung,  Jing Kong,  D. S. Lambrecht,  WanZhen Liang,  
 C. Ochsenfeld,  V. A. Rassolov,  L. V. Slipchenko,  J. E. Subotnik,  
 T. Van Voorhis,  J. M. Herbert,  A. I. Krylov,  P. M. W. Gill,  M. Head-Gordon

 Contributors to earlier versions of Q-Chem not listed above: 
 R. D. Adamson,  B. Austin,  J. Baker,  G. J. O. Beran,  K. Brandhorst,  
 S. T. Brown,  E. F. C. Byrd,  A. K. Chakraborty,  C.-L. Cheng,  
 Siu Hung Chien,  D. M. Chipman,  D. L. Crittenden,  H. Dachsel,  
 R. J. Doerksen,  A. D. Dutoi,  L. Fusti-Molnar,  W. A. Goddard III,  
 A. Golubeva-Zadorozhnaya,  S. R. Gwaltney,  G. Hawkins,  A. Heyden,  
 S. Hirata,  G. Kedziora,  F. J. Keil,  C. Kelley,  Jihan Kim,  R. A. King,  
 R. Z. Khaliullin,  P. P. Korambath,  W. Kurlancheek,  A. M. Lee,  M. S. Lee,  
 S. V. Levchenko,  Ching Yeh Lin,  D. Liotard,  R. C. Lochan,  I. Lotan,  
 P. E. Maslen,  N. Nair,  D. P. O'Neill,  D. Neuhauser,  E. Neuscamman,  
 C. M. Oana,  R. Olson,  B. Peters,  R. Peverati,  P. A. Pieniazek,  
 Y. M. Rhee,  J. Ritchie,  M. A. Rohrdanz,  E. Rosta,  N. J. Russ,  
 H. F. Schaefer III,  N. E. Schultz,  N. Shenvi,  A. C. Simmonett,  A. Sodt,  
 D. Stuck,  K. S. Thanthiriwatte,  V. Vanovschi,  Tao Wang,  A. Warshel,  
 C. F. Williams,  Q. Wu,  X. Xu,  W. Zhang

 Please cite Q-Chem as follows:
 Y. Shao et al., Mol. Phys. 113, 184-215 (2015)
 DOI: 10.1080/00268976.2014.952696

 Q-Chem 5.1.1 for Intel X86 EM64T Linux

 Parts of Q-Chem use Armadillo 8.300.2 (Tropical Shenanigans).
 http://arma.sourceforge.net/

 Q-Chem begins on Wed Oct 14 14:39:25 2020  

Host: n0057.mhg0
0

     Scratch files written to /local/scratch/users/yhljason/PH2_XYG3_aug-cc-pcVQZ.inp20201014142625//
Input Ideriv = 1
Curr. Ideriv = -1
Max.  Ideriv = 1

Checking the input file for inconsistencies... 	...done.

--------------------------------------------------------------
User input:
--------------------------------------------------------------
$molecule
0 2
P1	0.0000	0.0000	0.0000
H2	0.0000	1.0229	0.9964
H3	0.0000	-1.0229	0.9964
$end

$rem
jobtype sp
exchange XYG3
xc_grid 000099000590
basis aug-cc-pcVQZ
max_scf_cycles 200
thresh 14
scf_convergence 8
scf_algorithm gdm
symmetry false
sym_ignore true
unrestricted false
gen_scfman false
internal_stability_iter 15
internal_stability_davidson_iter 200
mem_total 128000
cc_memory 96000
cc_backend xm
mem_static 1500
n_frozen_core 0
$end



--------------------------------------------------------------
 ----------------------------------------------------------------
             Standard Nuclear Orientation (Angstroms)
    I     Atom           X                Y                Z
 ----------------------------------------------------------------
    1      P       0.0000000000     0.0000000000     0.0000000000
    2      H       0.0000000000     1.0229000000     0.9964000000
    3      H       0.0000000000    -1.0229000000     0.9964000000
 ----------------------------------------------------------------
 Nuclear Repulsion Energy =    11.3759605773 hartrees
 There are        9 alpha and        8 beta electrons
 Requested basis set is aug-cc-pCVQZ
 There are 62 shells and 226 basis functions

 Total QAlloc Memory Limit 128000 MB
 Mega-Array Size      1467 MB
 MEM_STATIC part      1500 MB

                       Distance Matrix (Angstroms)
             P (  1)   H (  2)
   H (  2)  1.427984
   H (  3)  1.427984  2.045800
 
 A cutoff of  1.0D-14 yielded   1953 shell pairs
 There are     26129 function pairs (     41436 Cartesian)
 
 -------------------------------------------------------
 OpenMP Integral Computing Module                       
 Release: version 1.0, May 2013, Q-Chem Inc. Pittsburgh 
 -------------------------------------------------------
 Integral Job Info:
 Integral job number is                      11
 Integral operator is                         1
 short-range coefficients                     0
 long-range coefficients              100000000
 Omega coefficients                           0
 if combine SR and LR in K                    0
 Integral screening is                        0
 Integral computing path is                   2
 max size of driver memory is           3200000
 size of driver memory is               1704330
 size of scratch memory is             29435624
 max col of scratch BK array              50625
 max len of scratch array in speh3         2114
 max len of scratch index in speh4           50
 max int batch size is                      520
 min int batch size is                       52
 fixed nKL is                                22
 max L of basis functions is                  4
 order of int derivative is                   0
 number of shells is                         62
 number of basis is                         284
 number of cartesian basis is               284
 number of contracted shell pairs          1953
 number of primitive shell pairs           6866
 maxK2 (contraction) of shell pair          169
 max number of K2 of shell pair               1
 max number of CS2 of shell pair            227
 max number of PS2 of shell pair           1014
 mem total for path MDJ                  662152
 -------------------------------------------------------
 Smallest overlap matrix eigenvalue = 3.01E-05

 Scale SEOQF with 1.000000e-01/1.000000e-01/1.000000e-01

 Standard Electronic Orientation quadrupole field applied
 Constructing guess Fock matrix from core Hamiltonian
 Applying Wolfsberg-Helmholtz approximation
 A restricted hybrid HF-DFT SCF calculation will be
 performed using Geometric Direct Minimization
 Exchange:     0.2000 Hartree-Fock + 0.0800 Slater + 0.7200 B88
 Correlation:  0.1900 VWN1RPA + 0.8100 LYP
 Using Euler-Maclaurin-Lebedev (99,590) quadrature formula
 SCF converges when RMS gradient is below 1.0E-08
 using 8 threads for integral computing
 -------------------------------------------------------
 OpenMP Integral computing Module                
 Release: version 2.0, May 2017, Q-Chem Inc. Pleasanton 
 -------------------------------------------------------
TIMEINFO->: J/JK contribution 104.33 sec.
 -------------------------------------------------------
 OpenMP BLAS3 based DFT computing Module                
 Release: version 1.0, May 2013, Q-Chem Inc. Pittsburgh 
 -------------------------------------------------------
 ---------------------------------------
  Cycle       Energy        RMS Gradient
 ---------------------------------------
    1    -168.4792001305      7.11E+00 Descent step
TIMEINFO->: J/JK contribution 102.13 sec.
    2    -175.2070669966      3.08E+01 Line search: understep
TIMEINFO->: J/JK contribution 104.73 sec.
    3    -226.0466529957      5.31E+00 Descent step
TIMEINFO->: J/JK contribution 101.54 sec.
    4    -230.3161398877      2.93E+01 Line search: understep
TIMEINFO->: J/JK contribution 102.81 sec.
    5    -257.5557740010      4.34E+00 Descent step
TIMEINFO->: J/JK contribution 101.43 sec.
   GDM::BFGS:   rebuilding Hinv to be positive definite
    6    -261.6059820049      3.53E+00 Descent step
TIMEINFO->: J/JK contribution 102.62 sec.
    7    -265.4137556431      3.31E+01 Line search: understep
TIMEINFO->: J/JK contribution 104.56 sec.
   GDM::BFGS:   rebuilding Hinv to be positive definite
    8    -292.3767590631      9.13E+00 Descent step
TIMEINFO->: J/JK contribution 101.82 sec.
   GDM::BFGS:   rebuilding Hinv to be positive definite
    9    -297.8995756374      3.04E+00 Descent step
TIMEINFO->: J/JK contribution 105.10 sec.
   10    -300.9005601136      1.75E+01 Line search: understep
TIMEINFO->: J/JK contribution 102.16 sec.
   GDM::BFGS:   rebuilding Hinv to be positive definite
   11    -307.9384179461      4.00E+00 Descent step
TIMEINFO->: J/JK contribution 103.86 sec.
   GDM::BFGS:   rebuilding Hinv to be positive definite
   12    -310.1538390312      2.39E+00 Descent step
TIMEINFO->: J/JK contribution 103.74 sec.
   13    -312.1460655297      4.09E+01 Line search: understep
TIMEINFO->: J/JK contribution 103.62 sec.
   GDM::BFGS:   rebuilding Hinv to be positive definite
   14    -321.0999786791      1.42E+00 Descent step
TIMEINFO->: J/JK contribution 106.33 sec.
   15    -322.3363957141      5.61E+00 Line search: understep
TIMEINFO->: J/JK contribution 102.15 sec.
   GDM::BFGS:   rebuilding Hinv to be positive definite
   16    -325.9800672430      1.43E+00 Descent step
TIMEINFO->: J/JK contribution 104.28 sec.
   GDM::BFGS:   rebuilding Hinv to be positive definite
   17    -327.2294183924      1.16E+00 Descent step
TIMEINFO->: J/JK contribution 104.32 sec.
   GDM::BFGS:   rebuilding Hinv to be positive definite
   18    -328.4013913879      1.62E+00 Descent step
TIMEINFO->: J/JK contribution 102.18 sec.
   GDM::BFGS:   rebuilding Hinv to be positive definite
   19    -329.6427359299      1.50E+00 Descent step
TIMEINFO->: J/JK contribution 104.11 sec.
   GDM::BFGS:   rebuilding Hinv to be positive definite
   20    -330.8635196408      1.21E+00 Descent step
TIMEINFO->: J/JK contribution 101.20 sec.
   GDM::BFGS:   rebuilding Hinv to be positive definite
   21    -331.8922731205      1.53E+00 Descent step
TIMEINFO->: J/JK contribution 104.57 sec.
   GDM::BFGS:   rebuilding Hinv to be positive definite
   22    -332.8948987881      8.33E-01 Descent step
TIMEINFO->: J/JK contribution 102.80 sec.
   GDM::BFGS:   rebuilding Hinv to be positive definite
   23    -333.6946145750      8.49E-01 Descent step
TIMEINFO->: J/JK contribution 103.32 sec.
   GDM::BFGS:   rebuilding Hinv to be positive definite
   24    -334.5439437500      1.56E+00 Descent step
TIMEINFO->: J/JK contribution 102.62 sec.
   GDM::BFGS:   rebuilding Hinv to be positive definite
   25    -335.4823177029      9.64E-01 Descent step
TIMEINFO->: J/JK contribution 103.73 sec.
   GDM::BFGS:   rebuilding Hinv to be positive definite
   26    -336.2746139013      8.93E-01 Descent step
TIMEINFO->: J/JK contribution 102.95 sec.
   27    -336.9644452247      9.38E-01 Descent step
TIMEINFO->: J/JK contribution 101.53 sec.
   28    -337.6548707162      5.62E-01 Descent step
TIMEINFO->: J/JK contribution 104.06 sec.
   29    -338.1603816510      7.40E-01 Descent step
TIMEINFO->: J/JK contribution 101.94 sec.
   30    -338.7458533646      7.49E-01 Descent step
TIMEINFO->: J/JK contribution 103.11 sec.
   31    -339.2658705133      6.11E-01 Descent step
TIMEINFO->: J/JK contribution 102.39 sec.
   32    -339.6290967301      6.71E-01 Descent step
TIMEINFO->: J/JK contribution 101.77 sec.
   GDM::BFGS:   rebuilding Hinv to be positive definite
   33    -339.9937029408      1.30E+00 Descent step
TIMEINFO->: J/JK contribution 103.27 sec.
   34    -340.6026800113      8.23E-01 Descent step
TIMEINFO->: J/JK contribution 101.42 sec.
   35    -340.9532527996      8.90E-01 Descent step
TIMEINFO->: J/JK contribution 103.59 sec.
   36    -341.2210754445      4.18E-01 Descent step
TIMEINFO->: J/JK contribution 102.48 sec.
   37    -341.3867755639      3.84E-01 Descent step
TIMEINFO->: J/JK contribution 102.68 sec.
   GDM::BFGS:   rebuilding Hinv to be positive definite
   38    -341.5458562557      7.57E-01 Descent step
TIMEINFO->: J/JK contribution 102.25 sec.
   39    -341.7762920055      3.96E-01 Descent step
TIMEINFO->: J/JK contribution 102.41 sec.
   40    -341.8314279275      1.74E-01 Dog-leg BFGS step
TIMEINFO->: J/JK contribution 104.46 sec.
   41    -341.8245107937      7.78E-02 Line search: overstep
TIMEINFO->: J/JK contribution 102.11 sec.
   42    -341.8452623309      5.85E-02 Dog-leg BFGS step
TIMEINFO->: J/JK contribution 105.53 sec.
   43    -341.8481207867      1.80E-02 Dog-leg BFGS step
TIMEINFO->: J/JK contribution 103.43 sec.
   44    -341.8464794539      2.14E-02 Line search: overstep
TIMEINFO->: J/JK contribution 102.39 sec.
   45    -341.8487969635      1.37E-02 Dog-leg BFGS step
TIMEINFO->: J/JK contribution 104.29 sec.
   46    -341.8487619144      1.21E-02 Line search: overstep
TIMEINFO->: J/JK contribution 103.14 sec.
   47    -341.8489705983      3.15E-03 Dog-leg BFGS step
TIMEINFO->: J/JK contribution 104.94 sec.
   48    -341.8489699194      2.92E-03 Line search: overstep
TIMEINFO->: J/JK contribution 103.42 sec.
   49    -341.8489917953      1.21E-03 Dog-leg BFGS step
TIMEINFO->: J/JK contribution 103.86 sec.
   50    -341.8489937220      1.18E-03 Normal BFGS step
TIMEINFO->: J/JK contribution 102.94 sec.
   51    -341.8489948812      7.49E-04 Normal BFGS step
TIMEINFO->: J/JK contribution 102.62 sec.
   52    -341.8489800742      2.97E-03 Line search: overstep
TIMEINFO->: J/JK contribution 104.55 sec.
   53    -341.8489953268      3.32E-04 Normal BFGS step
TIMEINFO->: J/JK contribution 102.87 sec.
   54    -341.8489956963      2.31E-04 Normal BFGS step
TIMEINFO->: J/JK contribution 106.97 sec.
   55    -341.8489958739      3.67E-04 Normal BFGS step
TIMEINFO->: J/JK contribution 102.80 sec.
   56    -341.8489977110      1.29E-03 Line search: understep
TIMEINFO->: J/JK contribution 103.80 sec.
   57    -341.8490326799      1.18E-02 Line search: understep
TIMEINFO->: J/JK contribution 103.64 sec.
   58    -341.8447132566      1.02E-01 Line search: overstep
TIMEINFO->: J/JK contribution 102.83 sec.
   59    -341.8490755863      2.13E-02 Line search: understep
TIMEINFO->: J/JK contribution 104.84 sec.
   60    -341.8460023749      9.51E-02 Line search: overstep
TIMEINFO->: J/JK contribution 102.04 sec.
   61    -341.8491067505      2.90E-02 Line search: understep
TIMEINFO->: J/JK contribution 105.22 sec.
   62    -341.8468429427      8.91E-02 Line search: overstep
TIMEINFO->: J/JK contribution 102.03 sec.
   63    -341.8491189820      5.32E-02 Descent step
TIMEINFO->: J/JK contribution 103.99 sec.
   64    -341.8500607746      2.92E-02 Line search: understep
TIMEINFO->: J/JK contribution 104.33 sec.
   GDM::BFGS:   rebuilding Hinv to be positive definite
   65    -341.8587077406      1.54E-01 Dog-leg BFGS step
TIMEINFO->: J/JK contribution 102.36 sec.
   GDM::BFGS:   rebuilding Hinv to be positive definite
   66    -341.9394590050      2.23E-01 Descent step
TIMEINFO->: J/JK contribution 104.88 sec.
   67    -342.0328725605      1.91E-01 Dog-leg BFGS step
TIMEINFO->: J/JK contribution 103.03 sec.
   GDM::BFGS:   rebuilding Hinv to be positive definite
   68    -342.1436217237      6.00E-01 Descent step
TIMEINFO->: J/JK contribution 106.20 sec.
   69    -342.4075001474      5.17E-01 Descent step
TIMEINFO->: J/JK contribution 104.07 sec.
   70    -342.5283370381      1.12E-01 Dog-leg BFGS step
TIMEINFO->: J/JK contribution 103.92 sec.
   71    -342.5060079013      1.87E-01 Line search: overstep
TIMEINFO->: J/JK contribution 105.18 sec.
   72    -342.5364546368      7.72E-02 Descent step
TIMEINFO->: J/JK contribution 102.97 sec.
   73    -342.5462864861      3.21E-02 Dog-leg BFGS step
TIMEINFO->: J/JK contribution 107.55 sec.
   74    -342.5000269445      3.19E-01 Line search: overstep
TIMEINFO->: J/JK contribution 105.82 sec.
   75    -342.5465713548      3.12E-02 Dog-leg BFGS step
TIMEINFO->: J/JK contribution 104.80 sec.
   76    -342.5468577606      3.33E-02 Dog-leg BFGS step
TIMEINFO->: J/JK contribution 105.82 sec.
   77    -342.5422140133      1.73E-01 Line search: overstep
TIMEINFO->: J/JK contribution 102.84 sec.
   78    -342.5478126487      2.55E-02 Descent step
TIMEINFO->: J/JK contribution 105.19 sec.
   79    -342.5485349454      6.32E-03 Dog-leg BFGS step
TIMEINFO->: J/JK contribution 104.32 sec.
   80    -342.4847976180      3.73E-01 Line search: overstep
TIMEINFO->: J/JK contribution 104.31 sec.
   81    -342.5480881005      4.37E-02 Line search: overstep
TIMEINFO->: J/JK contribution 104.18 sec.
   82    -342.5485537078      4.94E-03 Dog-leg BFGS step
TIMEINFO->: J/JK contribution 106.99 sec.
   83    -342.5479174581      4.23E-02 Line search: overstep
TIMEINFO->: J/JK contribution 103.38 sec.
   84    -342.5486322626      1.99E-03 Normal BFGS step
TIMEINFO->: J/JK contribution 104.85 sec.
   85    -342.5486337200      1.29E-03 Normal BFGS step
TIMEINFO->: J/JK contribution 103.86 sec.
   86    -342.5485175739      6.73E-03 Line search: overstep
TIMEINFO->: J/JK contribution 102.44 sec.
   87    -342.5486360559      1.09E-03 Normal BFGS step
TIMEINFO->: J/JK contribution 103.98 sec.
   88    -342.5486290253      1.22E-03 Line search: overstep
TIMEINFO->: J/JK contribution 104.76 sec.
   89    -342.5486369357      5.88E-04 Normal BFGS step
TIMEINFO->: J/JK contribution 100.74 sec.
   90    -342.5486359333      2.66E-03 Line search: overstep
TIMEINFO->: J/JK contribution 101.76 sec.
   91    -342.5486378976      9.24E-05 Normal BFGS step
TIMEINFO->: J/JK contribution 103.02 sec.
   92    -342.5486379259      3.30E-05 Normal BFGS step
TIMEINFO->: J/JK contribution 102.81 sec.
   93    -342.5486379284      2.05E-05 Normal BFGS step
TIMEINFO->: J/JK contribution 102.16 sec.
   94    -342.5486379306      6.25E-06 Normal BFGS step
TIMEINFO->: J/JK contribution 104.89 sec.
   95    -342.5486379307      3.80E-06 Normal BFGS step
TIMEINFO->: J/JK contribution 98.95 sec.
   96    -342.5486379307      6.62E-07 Normal BFGS step
TIMEINFO->: J/JK contribution 99.01 sec.
   GDM::WARNING energy changes are now smaller than effective accuracy.
   GDM::        calculation will continue, but THRESH should be increased
   GDM::        or SCF_CONVERGENCE decreased.
   GDM::        effective_thresh =   7.393090514784539E-010
   97    -342.5486379307      2.66E-07 Normal BFGS step
TIMEINFO->: J/JK contribution 96.20 sec.
   98    -342.5486379307      7.13E-08 Normal BFGS step
TIMEINFO->: J/JK contribution 90.49 sec.
   GDM::WARNING energy changes are now smaller than effective accuracy.
   GDM::        calculation will continue, but THRESH should be increased
   GDM::        or SCF_CONVERGENCE decreased.
   GDM::        effective_thresh =   7.393090514784539E-010
   99    -342.5486379307      3.34E-08 Normal BFGS step
TIMEINFO->: J/JK contribution 90.86 sec.
  100    -342.5486379307      2.73E-09 Convergence criterion met
 ---------------------------------------
 B3LYP orbitals are now ready for the XYG3 calculation.
 XYG3 energy = Exch (0.8033 HF  - 0.0140 Slater + 0.2107 Becke88) + 
               Corr (0.6789 LYP + 0.3211 MP2)
 SCF time:  CPU 11774.68 s  wall 1475.11 s
 SCF   energy in the final basis set = -342.33888378
 Total energy in the final basis set = -342.33888378
 
 Components of the MP2 correlation energy:
        aaaa  correlation energy  =        -0.0842323256 au
        abab  correlation energy  =        -0.4937758408 au
        bbbb  correlation energy  =        -0.0657851313 au
        singles contribution not yet available for XYG3

 Total  XYG3        total energy  =      -342.5460010563 au

 
 --------------------------------------------------------------
 
                    Orbital Energies (a.u.)
 --------------------------------------------------------------
 
 Alpha MOs
 -- Occupied --
-77.070  -6.563  -4.722  -4.729  -4.719  -0.638  -0.392  -0.317
 -0.251
 -- Virtual --
 -0.015   0.004   0.022   0.031   0.036   0.052   0.076   0.077
  0.081   0.084   0.087   0.149   0.175   0.181   0.189   0.205
  0.204   0.206   0.223   0.268   0.274   0.298   0.304   0.309
  0.305   0.308   0.333   0.397   0.408   0.427   0.441   0.442
  0.449   0.451   0.537   0.554   0.582   0.611   0.619   0.627
  0.649   0.671   0.673   0.695   0.745   0.771   0.807   0.897
  0.913   0.922   0.929   0.965   0.996   1.006   1.007   1.012
  1.057   1.062   1.080   1.088   1.159   1.199   1.204   1.209
  1.234   1.242   1.251   1.297   1.298   1.356   1.423   1.496
  1.498   1.511   1.562   1.564   1.565   1.628   1.656   1.710
  1.759   1.811   1.868   1.904   1.923   1.925   1.939   1.989
  1.999   2.061   2.070   2.079   2.163   2.235   2.375   2.449
  2.466   2.466   2.495   2.565   2.601   2.642   2.650   2.698
  2.749   2.762   2.867   2.875   2.886   2.908   2.979   2.982
  3.059   3.079   3.104   3.148   3.208   3.235   3.266   3.302
  3.341   3.396   3.408   3.696   3.697   3.733   3.912   3.966
  4.050   4.152   4.224   4.573   5.185   5.407   6.317   6.325
  6.368   6.384   6.429   6.557   6.578   6.636   6.670   6.719
  6.807   6.865   6.969   7.119   7.191   7.655   7.663   8.063
  8.082   8.120   8.152   8.198   8.310   8.358   8.377   8.389
  8.427   8.514   8.749   8.888   8.893   8.909   9.025   9.040
  9.299   9.400   9.981  10.290  13.773  14.333  14.426  15.712
 15.801  15.831  15.845  15.939  16.281  16.305  23.116  26.564
 26.568  26.684  26.884  27.296  39.271  39.781  39.861  45.991
 45.992  45.994  45.995  45.997  45.997  45.998  46.005  46.006
 56.079  56.114  56.124  56.137  56.189  56.330  56.336  67.750
 78.996  78.999  79.084  79.194  79.509 123.929 124.333 124.398
324.918
 
 Beta MOs
 -- Occupied --
-77.066  -6.559  -4.720  -4.715  -4.717  -0.610  -0.384  -0.301
 -- Virtual --
 -0.130  -0.013   0.008   0.022   0.032   0.041   0.063   0.080
  0.078   0.087   0.093   0.095   0.149   0.179   0.182   0.189
  0.205   0.209   0.211   0.223   0.287   0.278   0.319   0.308
  0.313   0.325   0.326   0.336   0.403   0.411   0.428   0.443
  0.450   0.451   0.455   0.545   0.558   0.582   0.616   0.623
  0.631   0.653   0.673   0.677   0.697   0.750   0.774   0.806
  0.922   0.916   0.942   0.949   0.971   1.017   1.008   1.020
  1.016   1.074   1.087   1.121   1.114   1.167   1.210   1.219
  1.224   1.239   1.253   1.258   1.307   1.310   1.361   1.427
  1.501   1.502   1.522   1.573   1.569   1.569   1.635   1.658
  1.712   1.765   1.812   1.872   1.906   1.925   1.927   1.949
  2.004   2.008   2.063   2.074   2.084   2.169   2.254   2.382
  2.455   2.470   2.478   2.504   2.577   2.605   2.663   2.667
  2.721   2.770   2.785   2.877   2.890   2.918   2.927   2.984
  2.999   3.065   3.086   3.130   3.171   3.236   3.263   3.289
  3.317   3.357   3.409   3.412   3.701   3.702   3.757   3.918
  3.971   4.067   4.155   4.227   4.595   5.191   5.411   6.319
  6.326   6.369   6.385   6.430   6.559   6.581   6.640   6.673
  6.722   6.812   6.871   6.976   7.119   7.203   7.656   7.664
  8.068   8.087   8.120   8.153   8.200   8.315   8.369   8.378
  8.398   8.428   8.515   8.757   8.891   8.894   8.913   9.026
  9.040   9.301   9.402   9.984  10.293  13.792  14.337  14.430
 15.714  15.804  15.834  15.849  15.942  16.283  16.307  23.121
 26.573  26.577  26.685  26.896  27.298  39.285  39.784  39.864
 45.994  45.994  45.997  45.998  45.999  45.999  46.000  46.005
 46.006  56.084  56.122  56.132  56.146  56.195  56.332  56.338
 67.756  79.006  79.009  79.085  79.207  79.510 123.939 124.335
124.400 324.921
 --------------------------------------------------------------
 
          Ground-State Mulliken Net Atomic Charges

     Atom                 Charge (a.u.)
  ----------------------------------------
      1 P                    -0.085495
      2 H                     0.042747
      3 H                     0.042747
  ----------------------------------------
  Sum of atomic charges =    -0.000000

 -----------------------------------------------------------------
                    Cartesian Multipole Moments
 -----------------------------------------------------------------
    Charge (ESU x 10^10)
                -0.0000
    Dipole Moment (Debye)
         X      -0.0000      Y       0.0000      Z       0.5011
       Tot       0.5011
    Quadrupole Moments (Debye-Ang)
        XX     -15.2649     XY      -0.0000     YY     -14.1330
        XZ      -0.0000     YZ       0.0000     ZZ     -15.4757
    Octopole Moments (Debye-Ang^2)
       XXX      -0.0000    XXY       0.0000    XYY      -0.0000
       YYY       0.0000    XXZ      -1.5358    XYZ       0.0000
       YYZ      -1.5673    XZZ      -0.0000    YZZ       0.0000
       ZZZ      -4.8590
    Hexadecapole Moments (Debye-Ang^3)
      XXXX     -24.4293   XXXY      -0.0000   XXYY      -9.5437
      XYYY      -0.0000   YYYY     -31.4388   XXXZ       0.0000
      XXYZ       0.0000   XYYZ      -0.0000   YYYZ       0.0000
      XXZZ     -10.1982   XYZZ      -0.0000   YYZZ     -10.5237
      XZZZ       0.0000   YZZZ       0.0000   ZZZZ     -36.0154
 -----------------------------------------------------------------
Archival summary:
1\1\n0057.mhg0\SP\ROProcedureUnspecified\BasisUnspecified\12(2)\yhljason\WedOct1415:08:482020WedOct1415:08:482020\0\\#,ROProcedureUnspecified,BasisUnspecified,\\0,2\P\H,1,1.42798\H,1,1.42798,2,91.5037\\\@

 Total job time:  1763.24s(wall), 14055.99s(cpu) 
 Wed Oct 14 15:08:48 2020

        *************************************************************
        *                                                           *
        *  Thank you very much for using Q-Chem.  Have a nice day.  *
        *                                                           *
        *************************************************************


 
User input: 2 of 7 
 
Q-Chem Developer Version!
                  Welcome to Q-Chem
     A Quantum Leap Into The Future Of Chemistry


 Q-Chem 5.1, Q-Chem, Inc., Pleasanton, CA (2018)

 Yihan Shao,  Zhengting Gan,  E. Epifanovsky,  A. T. B. Gilbert,  M. Wormit,  
 J. Kussmann,  A. W. Lange,  A. Behn,  Jia Deng,  Xintian Feng,  D. Ghosh,  
 M. Goldey,  P. R. Horn,  L. D. Jacobson,  I. Kaliman,  T. Kus,  A. Landau,  
 Jie Liu,  E. I. Proynov,  R. M. Richard,  R. P. Steele,  E. J. Sundstrom,  
 H. L. Woodcock III,  P. M. Zimmerman,  D. Zuev,  B. Albrecht,  E. Alguire,  
 S. A. Baeppler,  D. Barton,  Z. Benda,  Y. A. Bernard,  E. J. Berquist,  
 K. B. Bravaya,  H. Burton,  D. Casanova,  Chun-Min Chang,  Yunqing Chen,  
 A. Chien,  K. D. Closser,  M. P. Coons,  S. Coriani,  S. Dasgupta,  
 A. L. Dempwolff,  M. Diedenhofen,  Hainam Do,  R. G. Edgar,  Po-Tung Fang,  
 S. Faraji,  S. Fatehi,  Qingguo Feng,  K. D. Fenk,  J. Fosso-Tande,  
 Qinghui Ge,  A. Ghysels,  G. Gidofalvi,  J. Gomes,  J. Gonthier,  A. Gunina,  
 D. Hait,  M. W. D. Hanson-Heine,  P. H. P. Harbach,  A. W. Hauser,  
 J. E. Herr,  E. G. Hohenstein,  Z. C. Holden,  Kerwin Hui,  B. C. Huynh,  
 T.-C. Jagau,  Hyunjun Ji,  B. Kaduk,  K. Khistyaev,  Jaehoon Kim,  
 P. Klunzinger,  K. Koh,  D. Kosenkov,  L. Koulias,  T. Kowalczyk,  
 C. M. Krauter,  A. Kunitsa,  Ka Un Lao,  A. Laurent,  K. V. Lawler,  
 Joonho Lee,  D. Lefrancois,  S. Lehtola,  D. S. Levine,  Yi-Pei Li,  
 You-Sheng Lin,  Fenglai Liu,  E. Livshits,  A. Luenser,  P. Manohar,  
 E. Mansoor,  S. F. Manzer,  Shan-Ping Mao,  Yuezhi Mao,  N. Mardirossian,  
 A. V. Marenich,  T. Markovich,  L. A. Martinez-Martinez,  S. A. Maurer,  
 N. J. Mayhall,  S. C. McKenzie,  J.-M. Mewes,  A. F. Morrison,  
 J. W. Mullinax,  K. Nanda,  T. S. Nguyen-Beck,  R. Olivares-Amaya,  
 J. A. Parkhill,  T. M. Perrine,  F. Plasser,  P. Pokhilko,  S. Prager,  
 A. Prociuk,  E. Ramos,  D. R. Rehn,  F. Rob,  M. Schneider,  N. Sergueev,  
 S. M. Sharada,  S. Sharma,  D. W. Small,  T. Stauch,  T. Stein,  
 Yu-Chuan Su,  A. J. W. Thom,  A. Tkatchenko,  T. Tsuchimochi,  N. M. Tubman,  
 L. Vogt,  M. L. Vidal,  O. Vydrov,  M. A. Watson,  J. Wenzel,  
 M. de Wergifosse,  T. A. Wesolowski,  A. White,  J. Witte,  A. Yamada,  
 Jun Yang,  K. Yao,  S. Yeganeh,  S. R. Yost,  Zhi-Qiang You,  A. Zech,  
 Igor Ying Zhang,  Xing Zhang,  Yan Zhao,  Ying Zhu,  B. R. Brooks,  
 G. K. L. Chan,  C. J. Cramer,  M. S. Gordon,  W. J. Hehre,  A. Klamt,  
 M. W. Schmidt,  C. D. Sherrill,  D. G. Truhlar,  A. Aspuru-Guzik,  R. Baer,  
 A. T. Bell,  N. A. Besley,  Jeng-Da Chai,  A. E. DePrince, III,  
 R. A. DiStasio Jr.,  A. Dreuw,  B. D. Dunietz,  T. R. Furlani,  
 Chao-Ping Hsu,  Yousung Jung,  Jing Kong,  D. S. Lambrecht,  WanZhen Liang,  
 C. Ochsenfeld,  V. A. Rassolov,  L. V. Slipchenko,  J. E. Subotnik,  
 T. Van Voorhis,  J. M. Herbert,  A. I. Krylov,  P. M. W. Gill,  M. Head-Gordon

 Contributors to earlier versions of Q-Chem not listed above: 
 R. D. Adamson,  B. Austin,  J. Baker,  G. J. O. Beran,  K. Brandhorst,  
 S. T. Brown,  E. F. C. Byrd,  A. K. Chakraborty,  C.-L. Cheng,  
 Siu Hung Chien,  D. M. Chipman,  D. L. Crittenden,  H. Dachsel,  
 R. J. Doerksen,  A. D. Dutoi,  L. Fusti-Molnar,  W. A. Goddard III,  
 A. Golubeva-Zadorozhnaya,  S. R. Gwaltney,  G. Hawkins,  A. Heyden,  
 S. Hirata,  G. Kedziora,  F. J. Keil,  C. Kelley,  Jihan Kim,  R. A. King,  
 R. Z. Khaliullin,  P. P. Korambath,  W. Kurlancheek,  A. M. Lee,  M. S. Lee,  
 S. V. Levchenko,  Ching Yeh Lin,  D. Liotard,  R. C. Lochan,  I. Lotan,  
 P. E. Maslen,  N. Nair,  D. P. O'Neill,  D. Neuhauser,  E. Neuscamman,  
 C. M. Oana,  R. Olson,  B. Peters,  R. Peverati,  P. A. Pieniazek,  
 Y. M. Rhee,  J. Ritchie,  M. A. Rohrdanz,  E. Rosta,  N. J. Russ,  
 H. F. Schaefer III,  N. E. Schultz,  N. Shenvi,  A. C. Simmonett,  A. Sodt,  
 D. Stuck,  K. S. Thanthiriwatte,  V. Vanovschi,  Tao Wang,  A. Warshel,  
 C. F. Williams,  Q. Wu,  X. Xu,  W. Zhang

 Please cite Q-Chem as follows:
 Y. Shao et al., Mol. Phys. 113, 184-215 (2015)
 DOI: 10.1080/00268976.2014.952696

 Q-Chem 5.1.1 for Intel X86 EM64T Linux

 Parts of Q-Chem use Armadillo 8.300.2 (Tropical Shenanigans).
 http://arma.sourceforge.net/

 Q-Chem begins on Wed Oct 14 15:08:48 2020  

Host: n0057.mhg0
0

     Scratch files written to /local/scratch/users/yhljason/PH2_XYG3_aug-cc-pcVQZ.inp20201014142625//
The previous job contains 0 fragments, simply inherited here
Input Ideriv = 1
Curr. Ideriv = -1
Max.  Ideriv = 1

Checking the input file for inconsistencies... 	...done.

--------------------------------------------------------------
User input:
--------------------------------------------------------------
$molecule
read
$end

$rem

jobtype sp
exchange XYG3
xc_grid 000099000590
basis aug-cc-pcVQZ
max_scf_cycles 200
thresh 14
scf_convergence 8
mem_total 128000
cc_memory 96000
cc_backend xm
mem_static 1500
symmetry false
sym_ignore true
scf_guess read
unrestricted false
scf_algorithm gdm
n_frozen_core 0
$end

$multipole_field
XX 0.0001
$end


--------------------------------------------------------------
 ----------------------------------------------------------------
             Standard Nuclear Orientation (Angstroms)
    I     Atom           X                Y                Z
 ----------------------------------------------------------------
    1      P       0.0000000000     0.0000000000     0.0000000000
    2      H       0.0000000000     1.0229000000     0.9964000000
    3      H       0.0000000000    -1.0229000000     0.9964000000
 ----------------------------------------------------------------
 Nuclear Repulsion Energy =    11.3759605773 hartrees
 There are        9 alpha and        8 beta electrons
 Requested basis set is aug-cc-pCVQZ
 There are 62 shells and 226 basis functions

 Total QAlloc Memory Limit 128000 MB
 Mega-Array Size      1467 MB
 MEM_STATIC part      1500 MB

                       Distance Matrix (Angstroms)
             P (  1)   H (  2)
   H (  2)  1.427984
   H (  3)  1.427984  2.045800
 
 Applying Cartesian multipole field
    Component          Value
    ---------          -----
     (2,0,0)        1.00000E-04
 A cutoff of  1.0D-14 yielded   1953 shell pairs
 There are     26129 function pairs (     41436 Cartesian)
 
 -------------------------------------------------------
 OpenMP Integral Computing Module                       
 Release: version 1.0, May 2013, Q-Chem Inc. Pittsburgh 
 -------------------------------------------------------
 Integral Job Info:
 Integral job number is                      11
 Integral operator is                         1
 short-range coefficients                     0
 long-range coefficients              100000000
 Omega coefficients                           0
 if combine SR and LR in K                    0
 Integral screening is                        0
 Integral computing path is                   2
 max size of driver memory is           3200000
 size of driver memory is               1704330
 size of scratch memory is             29435624
 max col of scratch BK array              50625
 max len of scratch array in speh3         2114
 max len of scratch index in speh4           50
 max int batch size is                      520
 min int batch size is                       52
 fixed nKL is                                22
 max L of basis functions is                  4
 order of int derivative is                   0
 number of shells is                         62
 number of basis is                         284
 number of cartesian basis is               284
 number of contracted shell pairs          1953
 number of primitive shell pairs           6866
 maxK2 (contraction) of shell pair          169
 max number of K2 of shell pair               1
 max number of CS2 of shell pair            227
 max number of PS2 of shell pair           1014
 mem total for path MDJ                  662152
 -------------------------------------------------------
 Smallest overlap matrix eigenvalue = 3.01E-05
 Guess MOs from SCF MO coefficient file
 Reading MOs from coefficient file
 Reading MOs from coefficient file
 A restricted hybrid HF-DFT SCF calculation will be
 performed using Geometric Direct Minimization
 Exchange:     0.2000 Hartree-Fock + 0.0800 Slater + 0.7200 B88
 Correlation:  0.1900 VWN1RPA + 0.8100 LYP
 Using Euler-Maclaurin-Lebedev (99,590) quadrature formula
 SCF converges when RMS gradient is below 1.0E-08
Using Q-Chem read-in guess as SCF_GUESS READ specified.

 using 8 threads for integral computing
 -------------------------------------------------------
 OpenMP Integral computing Module                
 Release: version 2.0, May 2017, Q-Chem Inc. Pleasanton 
 -------------------------------------------------------
TIMEINFO->: J/JK contribution 105.82 sec.
 -------------------------------------------------------
 OpenMP BLAS3 based DFT computing Module                
 Release: version 1.0, May 2013, Q-Chem Inc. Pittsburgh 
 -------------------------------------------------------
 ---------------------------------------
  Cycle       Energy        RMS Gradient
 ---------------------------------------
    1    -342.5497728359      1.06E-03 Normal BFGS step
TIMEINFO->: J/JK contribution 103.48 sec.
    2    -342.5497734613      6.99E-04 Normal BFGS step
TIMEINFO->: J/JK contribution 102.32 sec.
    3    -342.5497736765      8.09E-05 Normal BFGS step
TIMEINFO->: J/JK contribution 103.08 sec.
    4    -342.5497736872      4.21E-05 Normal BFGS step
TIMEINFO->: J/JK contribution 100.09 sec.
    5    -342.5497736901      9.29E-06 Normal BFGS step
TIMEINFO->: J/JK contribution 103.48 sec.
    6    -342.5497736902      3.56E-06 Normal BFGS step
TIMEINFO->: J/JK contribution 99.79 sec.
    7    -342.5497736902      8.37E-07 Normal BFGS step
TIMEINFO->: J/JK contribution 97.33 sec.
    8    -342.5497736902      2.17E-07 Normal BFGS step
TIMEINFO->: J/JK contribution 94.27 sec.
    9    -342.5497736902      4.84E-09 Convergence criterion met
 ---------------------------------------
 B3LYP orbitals are now ready for the XYG3 calculation.
 XYG3 energy = Exch (0.8033 HF  - 0.0140 Slater + 0.2107 Becke88) + 
               Corr (0.6789 LYP + 0.3211 MP2)
 SCF time:  CPU 1056.36 s  wall 132.50 s
 SCF   energy in the final basis set = -342.34001558
 Total energy in the final basis set = -342.34001558
 
 Components of the MP2 correlation energy:
        aaaa  correlation energy  =        -0.0842318531 au
        abab  correlation energy  =        -0.4937743068 au
        bbbb  correlation energy  =        -0.0657876113 au
        singles contribution not yet available for XYG3

 Total  XYG3        total energy  =      -342.5471325330 au

 
 --------------------------------------------------------------
 
                    Orbital Energies (a.u.)
 --------------------------------------------------------------
 
 Alpha MOs
 -- Occupied --
-77.071  -6.563  -4.722  -4.730  -4.720  -0.638  -0.392  -0.317
 -0.251
 -- Virtual --
 -0.017   0.003   0.021   0.030   0.032   0.050   0.074   0.075
  0.080   0.083   0.085   0.148   0.174   0.180   0.188   0.203
  0.202   0.205   0.222   0.266   0.273   0.297   0.303   0.308
  0.304   0.306   0.332   0.396   0.407   0.427   0.441   0.441
  0.448   0.450   0.537   0.553   0.582   0.611   0.618   0.626
  0.648   0.670   0.672   0.694   0.745   0.770   0.807   0.896
  0.913   0.922   0.928   0.964   0.996   1.006   1.006   1.012
  1.056   1.061   1.079   1.087   1.159   1.198   1.203   1.208
  1.234   1.242   1.250   1.297   1.298   1.355   1.423   1.495
  1.498   1.510   1.561   1.564   1.565   1.627   1.655   1.710
  1.758   1.811   1.868   1.903   1.923   1.925   1.939   1.989
  1.998   2.060   2.070   2.079   2.163   2.234   2.375   2.449
  2.465   2.466   2.494   2.564   2.600   2.642   2.650   2.698
  2.748   2.761   2.866   2.875   2.886   2.907   2.978   2.982
  3.058   3.079   3.103   3.148   3.208   3.235   3.266   3.301
  3.341   3.396   3.408   3.696   3.696   3.733   3.912   3.966
  4.049   4.151   4.223   4.572   5.185   5.406   6.317   6.324
  6.368   6.383   6.429   6.557   6.578   6.636   6.669   6.719
  6.806   6.865   6.969   7.118   7.191   7.655   7.663   8.063
  8.082   8.120   8.152   8.198   8.310   8.358   8.377   8.389
  8.427   8.513   8.748   8.887   8.892   8.909   9.025   9.040
  9.299   9.400   9.981  10.290  13.773  14.333  14.425  15.712
 15.801  15.831  15.845  15.939  16.281  16.305  23.115  26.564
 26.567  26.683  26.884  27.296  39.271  39.780  39.861  45.991
 45.991  45.994  45.994  45.997  45.997  45.998  46.005  46.005
 56.078  56.114  56.124  56.136  56.189  56.330  56.335  67.750
 78.995  78.999  79.083  79.193  79.508 123.929 124.333 124.397
324.917
 
 Beta MOs
 -- Occupied --
-77.067  -6.559  -4.720  -4.715  -4.717  -0.610  -0.384  -0.302
 -- Virtual --
 -0.130  -0.014   0.008   0.020   0.030   0.037   0.062   0.079
  0.077   0.085   0.092   0.093   0.148   0.178   0.181   0.188
  0.204   0.207   0.210   0.222   0.285   0.278   0.318   0.307
  0.312   0.324   0.324   0.335   0.402   0.410   0.428   0.442
  0.449   0.450   0.454   0.544   0.558   0.582   0.615   0.622
  0.630   0.653   0.673   0.676   0.697   0.750   0.773   0.806
  0.921   0.916   0.941   0.948   0.970   1.016   1.007   1.019
  1.015   1.073   1.086   1.120   1.113   1.167   1.209   1.219
  1.224   1.239   1.252   1.258   1.307   1.309   1.361   1.426
  1.501   1.502   1.521   1.572   1.568   1.569   1.634   1.657
  1.712   1.765   1.812   1.872   1.905   1.925   1.927   1.949
  2.003   2.007   2.063   2.073   2.084   2.169   2.253   2.381
  2.455   2.469   2.478   2.504   2.577   2.605   2.663   2.667
  2.721   2.769   2.785   2.876   2.889   2.918   2.927   2.984
  2.999   3.065   3.086   3.129   3.171   3.236   3.262   3.289
  3.317   3.357   3.409   3.412   3.701   3.702   3.756   3.917
  3.971   4.066   4.155   4.227   4.595   5.191   5.410   6.319
  6.326   6.369   6.385   6.430   6.559   6.581   6.640   6.673
  6.722   6.812   6.871   6.975   7.119   7.203   7.656   7.664
  8.068   8.087   8.120   8.153   8.199   8.314   8.369   8.378
  8.397   8.428   8.515   8.757   8.891   8.894   8.912   9.026
  9.040   9.300   9.402   9.984  10.293  13.791  14.336  14.429
 15.713  15.803  15.833  15.849  15.941  16.283  16.306  23.121
 26.573  26.577  26.685  26.896  27.297  39.284  39.783  39.864
 45.994  45.994  45.997  45.997  45.999  45.999  46.000  46.005
 46.006  56.084  56.121  56.131  56.146  56.195  56.332  56.337
 67.756  79.005  79.009  79.085  79.207  79.510 123.938 124.335
124.399 324.921
 --------------------------------------------------------------
 
          Ground-State Mulliken Net Atomic Charges

     Atom                 Charge (a.u.)
  ----------------------------------------
      1 P                    -0.090701
      2 H                     0.045350
      3 H                     0.045350
  ----------------------------------------
  Sum of atomic charges =    -0.000000

 -----------------------------------------------------------------
                    Cartesian Multipole Moments
 -----------------------------------------------------------------
    Charge (ESU x 10^10)
                -0.0000
    Dipole Moment (Debye)
         X       0.0000      Y       0.0000      Z       0.5021
       Tot       0.5021
    Quadrupole Moments (Debye-Ang)
        XX     -15.2879     XY      -0.0000     YY     -14.1343
        XZ       0.0000     YZ       0.0000     ZZ     -15.4772
    Octopole Moments (Debye-Ang^2)
       XXX       0.0000    XXY       0.0000    XYY       0.0000
       YYY       0.0000    XXZ      -1.5355    XYZ      -0.0000
       YYZ      -1.5649    XZZ       0.0000    YZZ       0.0000
       ZZZ      -4.8575
    Hexadecapole Moments (Debye-Ang^3)
      XXXX     -24.5763   XXXY      -0.0000   XXYY      -9.5691
      XYYY      -0.0000   YYYY     -31.4508   XXXZ       0.0000
      XXYZ       0.0000   XYYZ       0.0000   YYYZ       0.0000
      XXZZ     -10.2259   XYZZ      -0.0000   YYZZ     -10.5266
      XZZZ       0.0000   YZZZ       0.0000   ZZZZ     -36.0319
 -----------------------------------------------------------------
Archival summary:
1\1\n0057.mhg0\SP\ROProcedureUnspecified\BasisUnspecified\12(2)\yhljason\WedOct1415:15:472020WedOct1415:15:472020\0\\#,ROProcedureUnspecified,BasisUnspecified,\\0,2\P\H,1,1.42798\H,1,1.42798,2,91.5037\\\@

 Total job time:  418.61s(wall), 3322.71s(cpu) 
 Wed Oct 14 15:15:47 2020

        *************************************************************
        *                                                           *
        *  Thank you very much for using Q-Chem.  Have a nice day.  *
        *                                                           *
        *************************************************************


 
User input: 3 of 7 
 
Q-Chem Developer Version!
                  Welcome to Q-Chem
     A Quantum Leap Into The Future Of Chemistry


 Q-Chem 5.1, Q-Chem, Inc., Pleasanton, CA (2018)

 Yihan Shao,  Zhengting Gan,  E. Epifanovsky,  A. T. B. Gilbert,  M. Wormit,  
 J. Kussmann,  A. W. Lange,  A. Behn,  Jia Deng,  Xintian Feng,  D. Ghosh,  
 M. Goldey,  P. R. Horn,  L. D. Jacobson,  I. Kaliman,  T. Kus,  A. Landau,  
 Jie Liu,  E. I. Proynov,  R. M. Richard,  R. P. Steele,  E. J. Sundstrom,  
 H. L. Woodcock III,  P. M. Zimmerman,  D. Zuev,  B. Albrecht,  E. Alguire,  
 S. A. Baeppler,  D. Barton,  Z. Benda,  Y. A. Bernard,  E. J. Berquist,  
 K. B. Bravaya,  H. Burton,  D. Casanova,  Chun-Min Chang,  Yunqing Chen,  
 A. Chien,  K. D. Closser,  M. P. Coons,  S. Coriani,  S. Dasgupta,  
 A. L. Dempwolff,  M. Diedenhofen,  Hainam Do,  R. G. Edgar,  Po-Tung Fang,  
 S. Faraji,  S. Fatehi,  Qingguo Feng,  K. D. Fenk,  J. Fosso-Tande,  
 Qinghui Ge,  A. Ghysels,  G. Gidofalvi,  J. Gomes,  J. Gonthier,  A. Gunina,  
 D. Hait,  M. W. D. Hanson-Heine,  P. H. P. Harbach,  A. W. Hauser,  
 J. E. Herr,  E. G. Hohenstein,  Z. C. Holden,  Kerwin Hui,  B. C. Huynh,  
 T.-C. Jagau,  Hyunjun Ji,  B. Kaduk,  K. Khistyaev,  Jaehoon Kim,  
 P. Klunzinger,  K. Koh,  D. Kosenkov,  L. Koulias,  T. Kowalczyk,  
 C. M. Krauter,  A. Kunitsa,  Ka Un Lao,  A. Laurent,  K. V. Lawler,  
 Joonho Lee,  D. Lefrancois,  S. Lehtola,  D. S. Levine,  Yi-Pei Li,  
 You-Sheng Lin,  Fenglai Liu,  E. Livshits,  A. Luenser,  P. Manohar,  
 E. Mansoor,  S. F. Manzer,  Shan-Ping Mao,  Yuezhi Mao,  N. Mardirossian,  
 A. V. Marenich,  T. Markovich,  L. A. Martinez-Martinez,  S. A. Maurer,  
 N. J. Mayhall,  S. C. McKenzie,  J.-M. Mewes,  A. F. Morrison,  
 J. W. Mullinax,  K. Nanda,  T. S. Nguyen-Beck,  R. Olivares-Amaya,  
 J. A. Parkhill,  T. M. Perrine,  F. Plasser,  P. Pokhilko,  S. Prager,  
 A. Prociuk,  E. Ramos,  D. R. Rehn,  F. Rob,  M. Schneider,  N. Sergueev,  
 S. M. Sharada,  S. Sharma,  D. W. Small,  T. Stauch,  T. Stein,  
 Yu-Chuan Su,  A. J. W. Thom,  A. Tkatchenko,  T. Tsuchimochi,  N. M. Tubman,  
 L. Vogt,  M. L. Vidal,  O. Vydrov,  M. A. Watson,  J. Wenzel,  
 M. de Wergifosse,  T. A. Wesolowski,  A. White,  J. Witte,  A. Yamada,  
 Jun Yang,  K. Yao,  S. Yeganeh,  S. R. Yost,  Zhi-Qiang You,  A. Zech,  
 Igor Ying Zhang,  Xing Zhang,  Yan Zhao,  Ying Zhu,  B. R. Brooks,  
 G. K. L. Chan,  C. J. Cramer,  M. S. Gordon,  W. J. Hehre,  A. Klamt,  
 M. W. Schmidt,  C. D. Sherrill,  D. G. Truhlar,  A. Aspuru-Guzik,  R. Baer,  
 A. T. Bell,  N. A. Besley,  Jeng-Da Chai,  A. E. DePrince, III,  
 R. A. DiStasio Jr.,  A. Dreuw,  B. D. Dunietz,  T. R. Furlani,  
 Chao-Ping Hsu,  Yousung Jung,  Jing Kong,  D. S. Lambrecht,  WanZhen Liang,  
 C. Ochsenfeld,  V. A. Rassolov,  L. V. Slipchenko,  J. E. Subotnik,  
 T. Van Voorhis,  J. M. Herbert,  A. I. Krylov,  P. M. W. Gill,  M. Head-Gordon

 Contributors to earlier versions of Q-Chem not listed above: 
 R. D. Adamson,  B. Austin,  J. Baker,  G. J. O. Beran,  K. Brandhorst,  
 S. T. Brown,  E. F. C. Byrd,  A. K. Chakraborty,  C.-L. Cheng,  
 Siu Hung Chien,  D. M. Chipman,  D. L. Crittenden,  H. Dachsel,  
 R. J. Doerksen,  A. D. Dutoi,  L. Fusti-Molnar,  W. A. Goddard III,  
 A. Golubeva-Zadorozhnaya,  S. R. Gwaltney,  G. Hawkins,  A. Heyden,  
 S. Hirata,  G. Kedziora,  F. J. Keil,  C. Kelley,  Jihan Kim,  R. A. King,  
 R. Z. Khaliullin,  P. P. Korambath,  W. Kurlancheek,  A. M. Lee,  M. S. Lee,  
 S. V. Levchenko,  Ching Yeh Lin,  D. Liotard,  R. C. Lochan,  I. Lotan,  
 P. E. Maslen,  N. Nair,  D. P. O'Neill,  D. Neuhauser,  E. Neuscamman,  
 C. M. Oana,  R. Olson,  B. Peters,  R. Peverati,  P. A. Pieniazek,  
 Y. M. Rhee,  J. Ritchie,  M. A. Rohrdanz,  E. Rosta,  N. J. Russ,  
 H. F. Schaefer III,  N. E. Schultz,  N. Shenvi,  A. C. Simmonett,  A. Sodt,  
 D. Stuck,  K. S. Thanthiriwatte,  V. Vanovschi,  Tao Wang,  A. Warshel,  
 C. F. Williams,  Q. Wu,  X. Xu,  W. Zhang

 Please cite Q-Chem as follows:
 Y. Shao et al., Mol. Phys. 113, 184-215 (2015)
 DOI: 10.1080/00268976.2014.952696

 Q-Chem 5.1.1 for Intel X86 EM64T Linux

 Parts of Q-Chem use Armadillo 8.300.2 (Tropical Shenanigans).
 http://arma.sourceforge.net/

 Q-Chem begins on Wed Oct 14 15:15:47 2020  

Host: n0057.mhg0
0

     Scratch files written to /local/scratch/users/yhljason/PH2_XYG3_aug-cc-pcVQZ.inp20201014142625//
The previous job contains 0 fragments, simply inherited here
Input Ideriv = 1
Curr. Ideriv = -1
Max.  Ideriv = 1

Checking the input file for inconsistencies... 	...done.

--------------------------------------------------------------
User input:
--------------------------------------------------------------
$molecule
read
$end

$rem

jobtype sp
exchange XYG3
xc_grid 000099000590
basis aug-cc-pcVQZ
max_scf_cycles 200
thresh 14
scf_convergence 8
mem_total 128000
cc_memory 96000
cc_backend xm
mem_static 1500
symmetry false
sym_ignore true
scf_guess read
unrestricted false
scf_algorithm gdm
n_frozen_core 0
$end

$multipole_field
XX -0.0001
$end


--------------------------------------------------------------
 ----------------------------------------------------------------
             Standard Nuclear Orientation (Angstroms)
    I     Atom           X                Y                Z
 ----------------------------------------------------------------
    1      P       0.0000000000     0.0000000000     0.0000000000
    2      H       0.0000000000     1.0229000000     0.9964000000
    3      H       0.0000000000    -1.0229000000     0.9964000000
 ----------------------------------------------------------------
 Nuclear Repulsion Energy =    11.3759605773 hartrees
 There are        9 alpha and        8 beta electrons
 Requested basis set is aug-cc-pCVQZ
 There are 62 shells and 226 basis functions

 Total QAlloc Memory Limit 128000 MB
 Mega-Array Size      1467 MB
 MEM_STATIC part      1500 MB

                       Distance Matrix (Angstroms)
             P (  1)   H (  2)
   H (  2)  1.427984
   H (  3)  1.427984  2.045800
 
 Applying Cartesian multipole field
    Component          Value
    ---------          -----
     (2,0,0)       -1.00000E-04
 A cutoff of  1.0D-14 yielded   1953 shell pairs
 There are     26129 function pairs (     41436 Cartesian)
 
 -------------------------------------------------------
 OpenMP Integral Computing Module                       
 Release: version 1.0, May 2013, Q-Chem Inc. Pittsburgh 
 -------------------------------------------------------
 Integral Job Info:
 Integral job number is                      11
 Integral operator is                         1
 short-range coefficients                     0
 long-range coefficients              100000000
 Omega coefficients                           0
 if combine SR and LR in K                    0
 Integral screening is                        0
 Integral computing path is                   2
 max size of driver memory is           3200000
 size of driver memory is               1704330
 size of scratch memory is             29435624
 max col of scratch BK array              50625
 max len of scratch array in speh3         2114
 max len of scratch index in speh4           50
 max int batch size is                      520
 min int batch size is                       52
 fixed nKL is                                22
 max L of basis functions is                  4
 order of int derivative is                   0
 number of shells is                         62
 number of basis is                         284
 number of cartesian basis is               284
 number of contracted shell pairs          1953
 number of primitive shell pairs           6866
 maxK2 (contraction) of shell pair          169
 max number of K2 of shell pair               1
 max number of CS2 of shell pair            227
 max number of PS2 of shell pair           1014
 mem total for path MDJ                  662152
 -------------------------------------------------------
 Smallest overlap matrix eigenvalue = 3.01E-05
 Guess MOs from SCF MO coefficient file
 Reading MOs from coefficient file
 Reading MOs from coefficient file
 A restricted hybrid HF-DFT SCF calculation will be
 performed using Geometric Direct Minimization
 Exchange:     0.2000 Hartree-Fock + 0.0800 Slater + 0.7200 B88
 Correlation:  0.1900 VWN1RPA + 0.8100 LYP
 Using Euler-Maclaurin-Lebedev (99,590) quadrature formula
 SCF converges when RMS gradient is below 1.0E-08
Using Q-Chem read-in guess as SCF_GUESS READ specified.

 using 8 threads for integral computing
 -------------------------------------------------------
 OpenMP Integral computing Module                
 Release: version 2.0, May 2017, Q-Chem Inc. Pleasanton 
 -------------------------------------------------------
TIMEINFO->: J/JK contribution 104.33 sec.
 -------------------------------------------------------
 OpenMP BLAS3 based DFT computing Module                
 Release: version 1.0, May 2013, Q-Chem Inc. Pittsburgh 
 -------------------------------------------------------
 ---------------------------------------
  Cycle       Energy        RMS Gradient
 ---------------------------------------
    1    -342.5475004532      2.12E-03 Normal BFGS step
TIMEINFO->: J/JK contribution 102.33 sec.
    2    -342.5475030034      1.34E-03 Normal BFGS step
TIMEINFO->: J/JK contribution 101.59 sec.
    3    -342.5475038159      1.62E-04 Normal BFGS step
TIMEINFO->: J/JK contribution 102.06 sec.
    4    -342.5475038591      8.38E-05 Normal BFGS step
TIMEINFO->: J/JK contribution 99.50 sec.
    5    -342.5475038703      1.85E-05 Normal BFGS step
TIMEINFO->: J/JK contribution 102.07 sec.
    6    -342.5475038707      7.05E-06 Normal BFGS step
TIMEINFO->: J/JK contribution 99.30 sec.
    7    -342.5475038709      1.61E-06 Normal BFGS step
TIMEINFO->: J/JK contribution 97.63 sec.
    8    -342.5475038709      3.98E-07 Normal BFGS step
TIMEINFO->: J/JK contribution 96.38 sec.
    9    -342.5475038709      9.37E-09 Convergence criterion met
 ---------------------------------------
 B3LYP orbitals are now ready for the XYG3 calculation.
 XYG3 energy = Exch (0.8033 HF  - 0.0140 Slater + 0.2107 Becke88) + 
               Corr (0.6789 LYP + 0.3211 MP2)
 SCF time:  CPU 1051.39 s  wall 131.98 s
 SCF   energy in the final basis set = -342.33775345
 Total energy in the final basis set = -342.33775345
 
 Components of the MP2 correlation energy:
        aaaa  correlation energy  =        -0.0842328271 au
        abab  correlation energy  =        -0.4937774639 au
        bbbb  correlation energy  =        -0.0657826692 au
        singles contribution not yet available for XYG3

 Total  XYG3        total energy  =      -342.5448710773 au

 
 --------------------------------------------------------------
 
                    Orbital Energies (a.u.)
 --------------------------------------------------------------
 
 Alpha MOs
 -- Occupied --
-77.070  -6.562  -4.722  -4.729  -4.719  -0.638  -0.392  -0.317
 -0.250
 -- Virtual --
 -0.014   0.004   0.023   0.032   0.039   0.053   0.077   0.078
  0.082   0.086   0.088   0.150   0.176   0.182   0.190   0.206
  0.206   0.207   0.224   0.275   0.270   0.299   0.305   0.310
  0.306   0.309   0.334   0.398   0.409   0.428   0.442   0.444
  0.449   0.452   0.538   0.554   0.583   0.612   0.620   0.628
  0.649   0.671   0.674   0.696   0.746   0.771   0.807   0.897
  0.914   0.923   0.929   0.965   0.997   1.006   1.008   1.012
  1.057   1.062   1.081   1.089   1.160   1.199   1.204   1.210
  1.235   1.243   1.251   1.298   1.299   1.356   1.424   1.496
  1.498   1.511   1.562   1.565   1.566   1.628   1.656   1.711
  1.759   1.811   1.868   1.904   1.923   1.925   1.940   1.989
  1.999   2.061   2.070   2.080   2.163   2.235   2.375   2.450
  2.466   2.467   2.495   2.565   2.601   2.643   2.650   2.699
  2.749   2.762   2.867   2.875   2.886   2.908   2.979   2.983
  3.059   3.079   3.104   3.148   3.209   3.235   3.267   3.302
  3.341   3.396   3.408   3.696   3.697   3.734   3.912   3.966
  4.050   4.152   4.224   4.573   5.186   5.407   6.318   6.325
  6.368   6.384   6.430   6.557   6.579   6.636   6.670   6.719
  6.807   6.865   6.970   7.119   7.191   7.655   7.664   8.064
  8.083   8.120   8.152   8.199   8.310   8.358   8.377   8.390
  8.427   8.514   8.749   8.888   8.893   8.909   9.025   9.040
  9.299   9.401   9.981  10.291  13.773  14.333  14.426  15.712
 15.802  15.832  15.846  15.940  16.282  16.305  23.116  26.564
 26.568  26.684  26.885  27.296  39.272  39.781  39.862  45.992
 45.992  45.995  45.995  45.997  45.998  45.999  46.005  46.006
 56.079  56.115  56.125  56.137  56.190  56.331  56.336  67.751
 78.996  78.999  79.084  79.194  79.509 123.929 124.333 124.398
324.918
 
 Beta MOs
 -- Occupied --
-77.066  -6.558  -4.719  -4.714  -4.717  -0.610  -0.384  -0.301
 -- Virtual --
 -0.129  -0.012   0.009   0.023   0.033   0.045   0.065   0.080
  0.079   0.089   0.094   0.096   0.150   0.180   0.183   0.190
  0.207   0.212   0.212   0.224   0.279   0.289   0.320   0.309
  0.314   0.326   0.328   0.337   0.403   0.412   0.429   0.444
  0.451   0.451   0.456   0.546   0.558   0.583   0.616   0.624
  0.632   0.654   0.674   0.678   0.698   0.751   0.774   0.807
  0.922   0.917   0.943   0.950   0.971   1.018   1.008   1.020
  1.016   1.074   1.087   1.122   1.114   1.168   1.210   1.220
  1.225   1.239   1.253   1.259   1.307   1.310   1.361   1.427
  1.501   1.502   1.523   1.573   1.569   1.569   1.635   1.658
  1.712   1.766   1.813   1.872   1.906   1.925   1.928   1.950
  2.004   2.008   2.064   2.074   2.085   2.169   2.254   2.382
  2.456   2.470   2.479   2.504   2.577   2.605   2.663   2.668
  2.722   2.770   2.785   2.877   2.890   2.919   2.927   2.984
  3.000   3.066   3.086   3.130   3.172   3.237   3.263   3.290
  3.318   3.357   3.410   3.413   3.702   3.702   3.757   3.918
  3.971   4.067   4.156   4.228   4.596   5.192   5.411   6.319
  6.326   6.370   6.385   6.431   6.560   6.581   6.641   6.673
  6.722   6.812   6.871   6.976   7.119   7.203   7.657   7.664
  8.068   8.087   8.121   8.153   8.200   8.315   8.370   8.378
  8.398   8.428   8.516   8.758   8.892   8.894   8.913   9.026
  9.040   9.301   9.403   9.985  10.294  13.792  14.337  14.430
 15.714  15.804  15.834  15.849  15.942  16.283  16.307  23.122
 26.574  26.578  26.686  26.897  27.298  39.285  39.784  39.864
 45.994  45.995  45.998  45.998  46.000  45.999  46.000  46.006
 46.006  56.085  56.122  56.132  56.147  56.195  56.333  56.338
 67.756  79.006  79.010  79.086  79.207  79.511 123.939 124.336
124.400 324.922
 --------------------------------------------------------------
 
          Ground-State Mulliken Net Atomic Charges

     Atom                 Charge (a.u.)
  ----------------------------------------
      1 P                    -0.080400
      2 H                     0.040200
      3 H                     0.040200
  ----------------------------------------
  Sum of atomic charges =    -0.000000

 -----------------------------------------------------------------
                    Cartesian Multipole Moments
 -----------------------------------------------------------------
    Charge (ESU x 10^10)
                -0.0000
    Dipole Moment (Debye)
         X      -0.0000      Y       0.0000      Z       0.5000
       Tot       0.5000
    Quadrupole Moments (Debye-Ang)
        XX     -15.2422     XY       0.0000     YY     -14.1316
        XZ      -0.0000     YZ       0.0000     ZZ     -15.4742
    Octopole Moments (Debye-Ang^2)
       XXX      -0.0000    XXY       0.0000    XYY      -0.0000
       YYY       0.0000    XXZ      -1.5361    XYZ       0.0000
       YYZ      -1.5697    XZZ      -0.0000    YZZ       0.0000
       ZZZ      -4.8605
    Hexadecapole Moments (Debye-Ang^3)
      XXXX     -24.2863   XXXY       0.0000   XXYY      -9.5189
      XYYY       0.0000   YYYY     -31.4272   XXXZ      -0.0000
      XXYZ       0.0000   XYYZ      -0.0000   YYYZ       0.0000
      XXZZ     -10.1713   XYZZ       0.0000   YYZZ     -10.5209
      XZZZ      -0.0000   YZZZ       0.0000   ZZZZ     -35.9994
 -----------------------------------------------------------------
Archival summary:
1\1\n0057.mhg0\SP\ROProcedureUnspecified\BasisUnspecified\12(2)\yhljason\WedOct1415:22:482020WedOct1415:22:482020\0\\#,ROProcedureUnspecified,BasisUnspecified,\\0,2\P\H,1,1.42798\H,1,1.42798,2,91.5037\\\@

 Total job time:  421.18s(wall), 3342.47s(cpu) 
 Wed Oct 14 15:22:48 2020

        *************************************************************
        *                                                           *
        *  Thank you very much for using Q-Chem.  Have a nice day.  *
        *                                                           *
        *************************************************************


 
User input: 4 of 7 
 
Q-Chem Developer Version!
                  Welcome to Q-Chem
     A Quantum Leap Into The Future Of Chemistry


 Q-Chem 5.1, Q-Chem, Inc., Pleasanton, CA (2018)

 Yihan Shao,  Zhengting Gan,  E. Epifanovsky,  A. T. B. Gilbert,  M. Wormit,  
 J. Kussmann,  A. W. Lange,  A. Behn,  Jia Deng,  Xintian Feng,  D. Ghosh,  
 M. Goldey,  P. R. Horn,  L. D. Jacobson,  I. Kaliman,  T. Kus,  A. Landau,  
 Jie Liu,  E. I. Proynov,  R. M. Richard,  R. P. Steele,  E. J. Sundstrom,  
 H. L. Woodcock III,  P. M. Zimmerman,  D. Zuev,  B. Albrecht,  E. Alguire,  
 S. A. Baeppler,  D. Barton,  Z. Benda,  Y. A. Bernard,  E. J. Berquist,  
 K. B. Bravaya,  H. Burton,  D. Casanova,  Chun-Min Chang,  Yunqing Chen,  
 A. Chien,  K. D. Closser,  M. P. Coons,  S. Coriani,  S. Dasgupta,  
 A. L. Dempwolff,  M. Diedenhofen,  Hainam Do,  R. G. Edgar,  Po-Tung Fang,  
 S. Faraji,  S. Fatehi,  Qingguo Feng,  K. D. Fenk,  J. Fosso-Tande,  
 Qinghui Ge,  A. Ghysels,  G. Gidofalvi,  J. Gomes,  J. Gonthier,  A. Gunina,  
 D. Hait,  M. W. D. Hanson-Heine,  P. H. P. Harbach,  A. W. Hauser,  
 J. E. Herr,  E. G. Hohenstein,  Z. C. Holden,  Kerwin Hui,  B. C. Huynh,  
 T.-C. Jagau,  Hyunjun Ji,  B. Kaduk,  K. Khistyaev,  Jaehoon Kim,  
 P. Klunzinger,  K. Koh,  D. Kosenkov,  L. Koulias,  T. Kowalczyk,  
 C. M. Krauter,  A. Kunitsa,  Ka Un Lao,  A. Laurent,  K. V. Lawler,  
 Joonho Lee,  D. Lefrancois,  S. Lehtola,  D. S. Levine,  Yi-Pei Li,  
 You-Sheng Lin,  Fenglai Liu,  E. Livshits,  A. Luenser,  P. Manohar,  
 E. Mansoor,  S. F. Manzer,  Shan-Ping Mao,  Yuezhi Mao,  N. Mardirossian,  
 A. V. Marenich,  T. Markovich,  L. A. Martinez-Martinez,  S. A. Maurer,  
 N. J. Mayhall,  S. C. McKenzie,  J.-M. Mewes,  A. F. Morrison,  
 J. W. Mullinax,  K. Nanda,  T. S. Nguyen-Beck,  R. Olivares-Amaya,  
 J. A. Parkhill,  T. M. Perrine,  F. Plasser,  P. Pokhilko,  S. Prager,  
 A. Prociuk,  E. Ramos,  D. R. Rehn,  F. Rob,  M. Schneider,  N. Sergueev,  
 S. M. Sharada,  S. Sharma,  D. W. Small,  T. Stauch,  T. Stein,  
 Yu-Chuan Su,  A. J. W. Thom,  A. Tkatchenko,  T. Tsuchimochi,  N. M. Tubman,  
 L. Vogt,  M. L. Vidal,  O. Vydrov,  M. A. Watson,  J. Wenzel,  
 M. de Wergifosse,  T. A. Wesolowski,  A. White,  J. Witte,  A. Yamada,  
 Jun Yang,  K. Yao,  S. Yeganeh,  S. R. Yost,  Zhi-Qiang You,  A. Zech,  
 Igor Ying Zhang,  Xing Zhang,  Yan Zhao,  Ying Zhu,  B. R. Brooks,  
 G. K. L. Chan,  C. J. Cramer,  M. S. Gordon,  W. J. Hehre,  A. Klamt,  
 M. W. Schmidt,  C. D. Sherrill,  D. G. Truhlar,  A. Aspuru-Guzik,  R. Baer,  
 A. T. Bell,  N. A. Besley,  Jeng-Da Chai,  A. E. DePrince, III,  
 R. A. DiStasio Jr.,  A. Dreuw,  B. D. Dunietz,  T. R. Furlani,  
 Chao-Ping Hsu,  Yousung Jung,  Jing Kong,  D. S. Lambrecht,  WanZhen Liang,  
 C. Ochsenfeld,  V. A. Rassolov,  L. V. Slipchenko,  J. E. Subotnik,  
 T. Van Voorhis,  J. M. Herbert,  A. I. Krylov,  P. M. W. Gill,  M. Head-Gordon

 Contributors to earlier versions of Q-Chem not listed above: 
 R. D. Adamson,  B. Austin,  J. Baker,  G. J. O. Beran,  K. Brandhorst,  
 S. T. Brown,  E. F. C. Byrd,  A. K. Chakraborty,  C.-L. Cheng,  
 Siu Hung Chien,  D. M. Chipman,  D. L. Crittenden,  H. Dachsel,  
 R. J. Doerksen,  A. D. Dutoi,  L. Fusti-Molnar,  W. A. Goddard III,  
 A. Golubeva-Zadorozhnaya,  S. R. Gwaltney,  G. Hawkins,  A. Heyden,  
 S. Hirata,  G. Kedziora,  F. J. Keil,  C. Kelley,  Jihan Kim,  R. A. King,  
 R. Z. Khaliullin,  P. P. Korambath,  W. Kurlancheek,  A. M. Lee,  M. S. Lee,  
 S. V. Levchenko,  Ching Yeh Lin,  D. Liotard,  R. C. Lochan,  I. Lotan,  
 P. E. Maslen,  N. Nair,  D. P. O'Neill,  D. Neuhauser,  E. Neuscamman,  
 C. M. Oana,  R. Olson,  B. Peters,  R. Peverati,  P. A. Pieniazek,  
 Y. M. Rhee,  J. Ritchie,  M. A. Rohrdanz,  E. Rosta,  N. J. Russ,  
 H. F. Schaefer III,  N. E. Schultz,  N. Shenvi,  A. C. Simmonett,  A. Sodt,  
 D. Stuck,  K. S. Thanthiriwatte,  V. Vanovschi,  Tao Wang,  A. Warshel,  
 C. F. Williams,  Q. Wu,  X. Xu,  W. Zhang

 Please cite Q-Chem as follows:
 Y. Shao et al., Mol. Phys. 113, 184-215 (2015)
 DOI: 10.1080/00268976.2014.952696

 Q-Chem 5.1.1 for Intel X86 EM64T Linux

 Parts of Q-Chem use Armadillo 8.300.2 (Tropical Shenanigans).
 http://arma.sourceforge.net/

 Q-Chem begins on Wed Oct 14 15:22:48 2020  

Host: n0057.mhg0
0

     Scratch files written to /local/scratch/users/yhljason/PH2_XYG3_aug-cc-pcVQZ.inp20201014142625//
The previous job contains 0 fragments, simply inherited here
Input Ideriv = 1
Curr. Ideriv = -1
Max.  Ideriv = 1

Checking the input file for inconsistencies... 	...done.

--------------------------------------------------------------
User input:
--------------------------------------------------------------
$molecule
read
$end

$rem

jobtype sp
exchange XYG3
xc_grid 000099000590
basis aug-cc-pcVQZ
max_scf_cycles 200
thresh 14
scf_convergence 8
mem_total 128000
cc_memory 96000
cc_backend xm
mem_static 1500
symmetry false
sym_ignore true
scf_guess read
unrestricted false
scf_algorithm gdm
n_frozen_core 0
$end

$multipole_field
YY 0.0001
$end


--------------------------------------------------------------
 ----------------------------------------------------------------
             Standard Nuclear Orientation (Angstroms)
    I     Atom           X                Y                Z
 ----------------------------------------------------------------
    1      P       0.0000000000     0.0000000000     0.0000000000
    2      H       0.0000000000     1.0229000000     0.9964000000
    3      H       0.0000000000    -1.0229000000     0.9964000000
 ----------------------------------------------------------------
 Nuclear Repulsion Energy =    11.3759605773 hartrees
 There are        9 alpha and        8 beta electrons
 Requested basis set is aug-cc-pCVQZ
 There are 62 shells and 226 basis functions

 Total QAlloc Memory Limit 128000 MB
 Mega-Array Size      1467 MB
 MEM_STATIC part      1500 MB

                       Distance Matrix (Angstroms)
             P (  1)   H (  2)
   H (  2)  1.427984
   H (  3)  1.427984  2.045800
 
 Applying Cartesian multipole field
    Component          Value
    ---------          -----
     (0,2,0)        1.00000E-04
 Nucleus-field energy     =     0.0007472985 hartrees
 A cutoff of  1.0D-14 yielded   1953 shell pairs
 There are     26129 function pairs (     41436 Cartesian)
 
 -------------------------------------------------------
 OpenMP Integral Computing Module                       
 Release: version 1.0, May 2013, Q-Chem Inc. Pittsburgh 
 -------------------------------------------------------
 Integral Job Info:
 Integral job number is                      11
 Integral operator is                         1
 short-range coefficients                     0
 long-range coefficients              100000000
 Omega coefficients                           0
 if combine SR and LR in K                    0
 Integral screening is                        0
 Integral computing path is                   2
 max size of driver memory is           3200000
 size of driver memory is               1704330
 size of scratch memory is             29435624
 max col of scratch BK array              50625
 max len of scratch array in speh3         2114
 max len of scratch index in speh4           50
 max int batch size is                      520
 min int batch size is                       52
 fixed nKL is                                22
 max L of basis functions is                  4
 order of int derivative is                   0
 number of shells is                         62
 number of basis is                         284
 number of cartesian basis is               284
 number of contracted shell pairs          1953
 number of primitive shell pairs           6866
 maxK2 (contraction) of shell pair          169
 max number of K2 of shell pair               1
 max number of CS2 of shell pair            227
 max number of PS2 of shell pair           1014
 mem total for path MDJ                  662152
 -------------------------------------------------------
 Smallest overlap matrix eigenvalue = 3.01E-05
 Guess MOs from SCF MO coefficient file
 Reading MOs from coefficient file
 Reading MOs from coefficient file
 A restricted hybrid HF-DFT SCF calculation will be
 performed using Geometric Direct Minimization
 Exchange:     0.2000 Hartree-Fock + 0.0800 Slater + 0.7200 B88
 Correlation:  0.1900 VWN1RPA + 0.8100 LYP
 Using Euler-Maclaurin-Lebedev (99,590) quadrature formula
 SCF converges when RMS gradient is below 1.0E-08
Using Q-Chem read-in guess as SCF_GUESS READ specified.

 using 8 threads for integral computing
 -------------------------------------------------------
 OpenMP Integral computing Module                
 Release: version 2.0, May 2017, Q-Chem Inc. Pleasanton 
 -------------------------------------------------------
TIMEINFO->: J/JK contribution 105.34 sec.
 -------------------------------------------------------
 OpenMP BLAS3 based DFT computing Module                
 Release: version 1.0, May 2013, Q-Chem Inc. Pittsburgh 
 -------------------------------------------------------
 ---------------------------------------
  Cycle       Energy        RMS Gradient
 ---------------------------------------
    1    -342.5496877419      1.40E-03 Normal BFGS step
TIMEINFO->: J/JK contribution 102.91 sec.
    2    -342.5496888014      1.10E-03 Normal BFGS step
TIMEINFO->: J/JK contribution 101.80 sec.
    3    -342.5496895693      1.11E-04 Normal BFGS step
TIMEINFO->: J/JK contribution 101.28 sec.
    4    -342.5496895818      6.23E-05 Normal BFGS step
TIMEINFO->: J/JK contribution 100.64 sec.
    5    -342.5496895879      1.06E-05 Normal BFGS step
TIMEINFO->: J/JK contribution 102.27 sec.
    6    -342.5496895881      3.16E-06 Normal BFGS step
TIMEINFO->: J/JK contribution 98.30 sec.
    7    -342.5496895881      6.18E-07 Normal BFGS step
TIMEINFO->: J/JK contribution 96.56 sec.
    8    -342.5496895881      1.90E-07 Normal BFGS step
TIMEINFO->: J/JK contribution 93.88 sec.
   GDM::WARNING energy changes are now smaller than effective accuracy.
   GDM::        calculation will continue, but THRESH should be increased
   GDM::        or SCF_CONVERGENCE decreased.
   GDM::        effective_thresh =   9.000000000000000E-011
    9    -342.5496895881      2.78E-09 Convergence criterion met
 ---------------------------------------
 B3LYP orbitals are now ready for the XYG3 calculation.
 XYG3 energy = Exch (0.8033 HF  - 0.0140 Slater + 0.2107 Becke88) + 
               Corr (0.6789 LYP + 0.3211 MP2)
 SCF time:  CPU 1048.71 s  wall 131.62 s
 SCF   energy in the final basis set = -342.33992707
 Total energy in the final basis set = -342.33992707
 
 Components of the MP2 correlation energy:
        aaaa  correlation energy  =        -0.0842331006 au
        abab  correlation energy  =        -0.4937733832 au
        bbbb  correlation energy  =        -0.0657838961 au
        singles contribution not yet available for XYG3

 Total  XYG3        total energy  =      -342.5470433012 au

 
 --------------------------------------------------------------
 
                    Orbital Energies (a.u.)
 --------------------------------------------------------------
 
 Alpha MOs
 -- Occupied --
-77.071  -6.563  -4.722  -4.730  -4.720  -0.638  -0.392  -0.318
 -0.251
 -- Virtual --
 -0.017   0.003   0.018   0.030   0.035   0.050   0.073   0.073
  0.080   0.083   0.086   0.146   0.173   0.179   0.187   0.203
  0.203   0.204   0.221   0.267   0.273   0.303   0.297   0.308
  0.304   0.307   0.332   0.396   0.406   0.426   0.439   0.441
  0.448   0.450   0.536   0.553   0.581   0.610   0.618   0.626
  0.648   0.669   0.672   0.694   0.744   0.770   0.806   0.896
  0.912   0.922   0.928   0.964   0.996   1.005   1.006   1.011
  1.056   1.061   1.080   1.087   1.159   1.198   1.203   1.209
  1.233   1.242   1.250   1.297   1.298   1.355   1.422   1.495
  1.497   1.510   1.561   1.564   1.564   1.627   1.655   1.710
  1.758   1.810   1.867   1.903   1.922   1.924   1.938   1.988
  1.998   2.060   2.069   2.079   2.162   2.234   2.374   2.449
  2.465   2.466   2.494   2.564   2.600   2.642   2.649   2.698
  2.748   2.761   2.866   2.874   2.886   2.907   2.978   2.982
  3.058   3.078   3.103   3.147   3.208   3.234   3.266   3.301
  3.341   3.395   3.407   3.696   3.696   3.733   3.912   3.965
  4.049   4.151   4.223   4.572   5.185   5.406   6.317   6.324
  6.367   6.383   6.429   6.556   6.578   6.635   6.669   6.719
  6.806   6.864   6.969   7.118   7.191   7.654   7.663   8.063
  8.082   8.120   8.152   8.198   8.310   8.358   8.376   8.389
  8.426   8.513   8.748   8.887   8.892   8.909   9.024   9.040
  9.299   9.400   9.980  10.290  13.772  14.332  14.425  15.711
 15.801  15.831  15.845  15.939  16.281  16.305  23.115  26.563
 26.567  26.683  26.884  27.295  39.271  39.780  39.861  45.991
 45.991  45.994  45.994  45.996  45.997  45.998  46.005  46.005
 56.078  56.114  56.124  56.136  56.189  56.330  56.335  67.750
 78.995  78.998  79.083  79.193  79.508 123.928 124.333 124.397
324.917
 
 Beta MOs
 -- Occupied --
-77.067  -6.559  -4.720  -4.715  -4.717  -0.610  -0.385  -0.302
 -- Virtual --
 -0.130  -0.015   0.007   0.017   0.030   0.040   0.061   0.074
  0.078   0.086   0.092   0.094   0.146   0.177   0.180   0.187
  0.204   0.208   0.210   0.222   0.286   0.277   0.306   0.318
  0.312   0.324   0.325   0.335   0.402   0.410   0.427   0.441
  0.449   0.450   0.454   0.544   0.557   0.581   0.615   0.622
  0.630   0.652   0.672   0.677   0.696   0.749   0.772   0.805
  0.921   0.915   0.941   0.949   0.970   1.016   1.006   1.019
  1.015   1.073   1.086   1.120   1.113   1.167   1.209   1.219
  1.224   1.238   1.252   1.258   1.306   1.309   1.360   1.426
  1.500   1.501   1.521   1.572   1.568   1.568   1.634   1.657
  1.711   1.765   1.811   1.871   1.905   1.924   1.927   1.948
  2.003   2.007   2.062   2.073   2.083   2.168   2.253   2.381
  2.455   2.469   2.478   2.503   2.577   2.605   2.662   2.667
  2.721   2.769   2.785   2.876   2.889   2.918   2.926   2.984
  2.999   3.065   3.086   3.129   3.171   3.236   3.262   3.289
  3.317   3.356   3.409   3.412   3.701   3.701   3.756   3.917
  3.970   4.066   4.155   4.227   4.595   5.191   5.410   6.318
  6.325   6.369   6.385   6.430   6.559   6.581   6.640   6.673
  6.721   6.812   6.871   6.975   7.119   7.202   7.656   7.664
  8.068   8.087   8.120   8.152   8.199   8.314   8.369   8.378
  8.397   8.427   8.515   8.757   8.891   8.893   8.912   9.026
  9.040   9.300   9.402   9.984  10.293  13.791  14.336  14.429
 15.713  15.803  15.833  15.848  15.941  16.282  16.306  23.121
 26.573  26.577  26.685  26.896  27.297  39.284  39.783  39.864
 45.993  45.994  45.997  45.997  45.999  45.998  46.000  46.005
 46.006  56.084  56.121  56.131  56.146  56.195  56.332  56.337
 67.755  79.005  79.009  79.085  79.207  79.510 123.938 124.335
124.399 324.921
 --------------------------------------------------------------
 
          Ground-State Mulliken Net Atomic Charges

     Atom                 Charge (a.u.)
  ----------------------------------------
      1 P                    -0.083525
      2 H                     0.041762
      3 H                     0.041762
  ----------------------------------------
  Sum of atomic charges =    -0.000000

 -----------------------------------------------------------------
                    Cartesian Multipole Moments
 -----------------------------------------------------------------
    Charge (ESU x 10^10)
                -0.0000
    Dipole Moment (Debye)
         X       0.0000      Y      -0.0000      Z       0.4984
       Tot       0.4984
    Quadrupole Moments (Debye-Ang)
        XX     -15.2662     XY       0.0000     YY     -14.1574
        XZ      -0.0000     YZ      -0.0000     ZZ     -15.4788
    Octopole Moments (Debye-Ang^2)
       XXX       0.0000    XXY       0.0000    XYY       0.0000
       YYY      -0.0000    XXZ      -1.5376    XYZ       0.0000
       YYZ      -1.5826    XZZ       0.0000    YZZ       0.0000
       ZZZ      -4.8677
    Hexadecapole Moments (Debye-Ang^3)
      XXXX     -24.4405   XXXY       0.0000   XXYY      -9.5640
      XYYY       0.0000   YYYY     -31.5659   XXXZ      -0.0000
      XXYZ      -0.0000   XYYZ       0.0000   YYYZ      -0.0000
      XXZZ     -10.2033   XYZZ       0.0000   YYZZ     -10.5588
      XZZZ       0.0000   YZZZ      -0.0000   ZZZZ     -36.0353
 -----------------------------------------------------------------
Archival summary:
1\1\n0057.mhg0\SP\ROProcedureUnspecified\BasisUnspecified\12(2)\yhljason\WedOct1415:29:522020WedOct1415:29:522020\0\\#,ROProcedureUnspecified,BasisUnspecified,\\0,2\P\H,1,1.42798\H,1,1.42798,2,91.5037\\\@

 Total job time:  423.31s(wall), 3348.06s(cpu) 
 Wed Oct 14 15:29:52 2020

        *************************************************************
        *                                                           *
        *  Thank you very much for using Q-Chem.  Have a nice day.  *
        *                                                           *
        *************************************************************


 
User input: 5 of 7 
 
Q-Chem Developer Version!
                  Welcome to Q-Chem
     A Quantum Leap Into The Future Of Chemistry


 Q-Chem 5.1, Q-Chem, Inc., Pleasanton, CA (2018)

 Yihan Shao,  Zhengting Gan,  E. Epifanovsky,  A. T. B. Gilbert,  M. Wormit,  
 J. Kussmann,  A. W. Lange,  A. Behn,  Jia Deng,  Xintian Feng,  D. Ghosh,  
 M. Goldey,  P. R. Horn,  L. D. Jacobson,  I. Kaliman,  T. Kus,  A. Landau,  
 Jie Liu,  E. I. Proynov,  R. M. Richard,  R. P. Steele,  E. J. Sundstrom,  
 H. L. Woodcock III,  P. M. Zimmerman,  D. Zuev,  B. Albrecht,  E. Alguire,  
 S. A. Baeppler,  D. Barton,  Z. Benda,  Y. A. Bernard,  E. J. Berquist,  
 K. B. Bravaya,  H. Burton,  D. Casanova,  Chun-Min Chang,  Yunqing Chen,  
 A. Chien,  K. D. Closser,  M. P. Coons,  S. Coriani,  S. Dasgupta,  
 A. L. Dempwolff,  M. Diedenhofen,  Hainam Do,  R. G. Edgar,  Po-Tung Fang,  
 S. Faraji,  S. Fatehi,  Qingguo Feng,  K. D. Fenk,  J. Fosso-Tande,  
 Qinghui Ge,  A. Ghysels,  G. Gidofalvi,  J. Gomes,  J. Gonthier,  A. Gunina,  
 D. Hait,  M. W. D. Hanson-Heine,  P. H. P. Harbach,  A. W. Hauser,  
 J. E. Herr,  E. G. Hohenstein,  Z. C. Holden,  Kerwin Hui,  B. C. Huynh,  
 T.-C. Jagau,  Hyunjun Ji,  B. Kaduk,  K. Khistyaev,  Jaehoon Kim,  
 P. Klunzinger,  K. Koh,  D. Kosenkov,  L. Koulias,  T. Kowalczyk,  
 C. M. Krauter,  A. Kunitsa,  Ka Un Lao,  A. Laurent,  K. V. Lawler,  
 Joonho Lee,  D. Lefrancois,  S. Lehtola,  D. S. Levine,  Yi-Pei Li,  
 You-Sheng Lin,  Fenglai Liu,  E. Livshits,  A. Luenser,  P. Manohar,  
 E. Mansoor,  S. F. Manzer,  Shan-Ping Mao,  Yuezhi Mao,  N. Mardirossian,  
 A. V. Marenich,  T. Markovich,  L. A. Martinez-Martinez,  S. A. Maurer,  
 N. J. Mayhall,  S. C. McKenzie,  J.-M. Mewes,  A. F. Morrison,  
 J. W. Mullinax,  K. Nanda,  T. S. Nguyen-Beck,  R. Olivares-Amaya,  
[...]
  8.068   8.087   8.120   8.152   8.199   8.314   8.369   8.378
  8.397   8.428   8.515   8.757   8.891   8.893   8.912   9.026
  9.040   9.300   9.402   9.984  10.293  13.791  14.336  14.429
 15.713  15.803  15.833  15.848  15.941  16.282  16.306  23.121
 26.573  26.577  26.685  26.896  27.297  39.284  39.783  39.864
 45.993  45.994  45.997  45.997  45.999  45.998  46.000  46.005
 46.006  56.084  56.121  56.131  56.146  56.195  56.332  56.337
 67.755  79.005  79.009  79.085  79.206  79.510 123.938 124.335
124.399 324.921
 --------------------------------------------------------------
 
          Ground-State Mulliken Net Atomic Charges

     Atom                 Charge (a.u.)
  ----------------------------------------
      1 P                    -0.083186
      2 H                     0.041593
      3 H                     0.041593
  ----------------------------------------
  Sum of atomic charges =    -0.000000

 -----------------------------------------------------------------
                    Cartesian Multipole Moments
 -----------------------------------------------------------------
    Charge (ESU x 10^10)
                -0.0000
    Dipole Moment (Debye)
         X      -0.0000      Y       0.0000      Z       0.4956
       Tot       0.4956
    Quadrupole Moments (Debye-Ang)
        XX     -15.2664     XY      -0.0000     YY     -14.1361
        XZ      -0.0000     YZ       0.0000     ZZ     -15.5053
    Octopole Moments (Debye-Ang^2)
       XXX      -0.0000    XXY       0.0000    XYY       0.0000
       YYY       0.0000    XXZ      -1.5388    XYZ       0.0000
       YYZ      -1.5778    XZZ      -0.0000    YZZ       0.0000
       ZZZ      -4.8850
    Hexadecapole Moments (Debye-Ang^3)
      XXXX     -24.4422   XXXY       0.0000   XXYY      -9.5491
      XYYY       0.0000   YYYY     -31.4572   XXXZ      -0.0000
      XXYZ       0.0000   XYYZ       0.0000   YYYZ       0.0000
      XXZZ     -10.2250   XYZZ       0.0000   YYZZ     -10.5621
      XZZZ       0.0000   YZZZ       0.0000   ZZZZ     -36.1889
 -----------------------------------------------------------------
Archival summary:
1\1\n0057.mhg0\SP\ROProcedureUnspecified\BasisUnspecified\12(2)\yhljason\WedOct1415:43:592020WedOct1415:43:592020\0\\#,ROProcedureUnspecified,BasisUnspecified,\\0,2\P\H,1,1.42798\H,1,1.42798,2,91.5037\\\@

 Total job time:  416.65s(wall), 3304.76s(cpu) 
 Wed Oct 14 15:43:59 2020

        *************************************************************
        *                                                           *
        *  Thank you very much for using Q-Chem.  Have a nice day.  *
        *                                                           *
        *************************************************************


 
User input: 7 of 7 
 
Q-Chem Developer Version!
                  Welcome to Q-Chem
     A Quantum Leap Into The Future Of Chemistry


 Q-Chem 5.1, Q-Chem, Inc., Pleasanton, CA (2018)

 Yihan Shao,  Zhengting Gan,  E. Epifanovsky,  A. T. B. Gilbert,  M. Wormit,  
 J. Kussmann,  A. W. Lange,  A. Behn,  Jia Deng,  Xintian Feng,  D. Ghosh,  
 M. Goldey,  P. R. Horn,  L. D. Jacobson,  I. Kaliman,  T. Kus,  A. Landau,  
 Jie Liu,  E. I. Proynov,  R. M. Richard,  R. P. Steele,  E. J. Sundstrom,  
 H. L. Woodcock III,  P. M. Zimmerman,  D. Zuev,  B. Albrecht,  E. Alguire,  
 S. A. Baeppler,  D. Barton,  Z. Benda,  Y. A. Bernard,  E. J. Berquist,  
 K. B. Bravaya,  H. Burton,  D. Casanova,  Chun-Min Chang,  Yunqing Chen,  
 A. Chien,  K. D. Closser,  M. P. Coons,  S. Coriani,  S. Dasgupta,  
 A. L. Dempwolff,  M. Diedenhofen,  Hainam Do,  R. G. Edgar,  Po-Tung Fang,  
 S. Faraji,  S. Fatehi,  Qingguo Feng,  K. D. Fenk,  J. Fosso-Tande,  
 Qinghui Ge,  A. Ghysels,  G. Gidofalvi,  J. Gomes,  J. Gonthier,  A. Gunina,  
 D. Hait,  M. W. D. Hanson-Heine,  P. H. P. Harbach,  A. W. Hauser,  
 J. E. Herr,  E. G. Hohenstein,  Z. C. Holden,  Kerwin Hui,  B. C. Huynh,  
 T.-C. Jagau,  Hyunjun Ji,  B. Kaduk,  K. Khistyaev,  Jaehoon Kim,  
 P. Klunzinger,  K. Koh,  D. Kosenkov,  L. Koulias,  T. Kowalczyk,  
 C. M. Krauter,  A. Kunitsa,  Ka Un Lao,  A. Laurent,  K. V. Lawler,  
 Joonho Lee,  D. Lefrancois,  S. Lehtola,  D. S. Levine,  Yi-Pei Li,  
 You-Sheng Lin,  Fenglai Liu,  E. Livshits,  A. Luenser,  P. Manohar,  
 E. Mansoor,  S. F. Manzer,  Shan-Ping Mao,  Yuezhi Mao,  N. Mardirossian,  
 A. V. Marenich,  T. Markovich,  L. A. Martinez-Martinez,  S. A. Maurer,  
 N. J. Mayhall,  S. C. McKenzie,  J.-M. Mewes,  A. F. Morrison,  
 J. W. Mullinax,  K. Nanda,  T. S. Nguyen-Beck,  R. Olivares-Amaya,  
 J. A. Parkhill,  T. M. Perrine,  F. Plasser,  P. Pokhilko,  S. Prager,  
 A. Prociuk,  E. Ramos,  D. R. Rehn,  F. Rob,  M. Schneider,  N. Sergueev,  
 S. M. Sharada,  S. Sharma,  D. W. Small,  T. Stauch,  T. Stein,  
 Yu-Chuan Su,  A. J. W. Thom,  A. Tkatchenko,  T. Tsuchimochi,  N. M. Tubman,  
 L. Vogt,  M. L. Vidal,  O. Vydrov,  M. A. Watson,  J. Wenzel,  
 M. de Wergifosse,  T. A. Wesolowski,  A. White,  J. Witte,  A. Yamada,  
 Jun Yang,  K. Yao,  S. Yeganeh,  S. R. Yost,  Zhi-Qiang You,  A. Zech,  
 Igor Ying Zhang,  Xing Zhang,  Yan Zhao,  Ying Zhu,  B. R. Brooks,  
 G. K. L. Chan,  C. J. Cramer,  M. S. Gordon,  W. J. Hehre,  A. Klamt,  
 M. W. Schmidt,  C. D. Sherrill,  D. G. Truhlar,  A. Aspuru-Guzik,  R. Baer,  
 A. T. Bell,  N. A. Besley,  Jeng-Da Chai,  A. E. DePrince, III,  
 R. A. DiStasio Jr.,  A. Dreuw,  B. D. Dunietz,  T. R. Furlani,  
 Chao-Ping Hsu,  Yousung Jung,  Jing Kong,  D. S. Lambrecht,  WanZhen Liang,  
 C. Ochsenfeld,  V. A. Rassolov,  L. V. Slipchenko,  J. E. Subotnik,  
 T. Van Voorhis,  J. M. Herbert,  A. I. Krylov,  P. M. W. Gill,  M. Head-Gordon

 Contributors to earlier versions of Q-Chem not listed above: 
 R. D. Adamson,  B. Austin,  J. Baker,  G. J. O. Beran,  K. Brandhorst,  
 S. T. Brown,  E. F. C. Byrd,  A. K. Chakraborty,  C.-L. Cheng,  
 Siu Hung Chien,  D. M. Chipman,  D. L. Crittenden,  H. Dachsel,  
 R. J. Doerksen,  A. D. Dutoi,  L. Fusti-Molnar,  W. A. Goddard III,  
 A. Golubeva-Zadorozhnaya,  S. R. Gwaltney,  G. Hawkins,  A. Heyden,  
 S. Hirata,  G. Kedziora,  F. J. Keil,  C. Kelley,  Jihan Kim,  R. A. King,  
 R. Z. Khaliullin,  P. P. Korambath,  W. Kurlancheek,  A. M. Lee,  M. S. Lee,  
 S. V. Levchenko,  Ching Yeh Lin,  D. Liotard,  R. C. Lochan,  I. Lotan,  
 P. E. Maslen,  N. Nair,  D. P. O'Neill,  D. Neuhauser,  E. Neuscamman,  
 C. M. Oana,  R. Olson,  B. Peters,  R. Peverati,  P. A. Pieniazek,  
 Y. M. Rhee,  J. Ritchie,  M. A. Rohrdanz,  E. Rosta,  N. J. Russ,  
 H. F. Schaefer III,  N. E. Schultz,  N. Shenvi,  A. C. Simmonett,  A. Sodt,  
 D. Stuck,  K. S. Thanthiriwatte,  V. Vanovschi,  Tao Wang,  A. Warshel,  
 C. F. Williams,  Q. Wu,  X. Xu,  W. Zhang

 Please cite Q-Chem as follows:
 Y. Shao et al., Mol. Phys. 113, 184-215 (2015)
 DOI: 10.1080/00268976.2014.952696

 Q-Chem 5.1.1 for Intel X86 EM64T Linux

 Parts of Q-Chem use Armadillo 8.300.2 (Tropical Shenanigans).
 http://arma.sourceforge.net/

 Q-Chem begins on Wed Oct 14 15:43:59 2020  

Host: n0057.mhg0
0

     Scratch files written to /local/scratch/users/yhljason/PH2_XYG3_aug-cc-pcVQZ.inp20201014142625//
The previous job contains 0 fragments, simply inherited here
Input Ideriv = 1
Curr. Ideriv = -1
Max.  Ideriv = 1

Checking the input file for inconsistencies... 	...done.

--------------------------------------------------------------
User input:
--------------------------------------------------------------
$molecule
read
$end

$rem

jobtype sp
exchange XYG3
xc_grid 000099000590
basis aug-cc-pcVQZ
max_scf_cycles 200
thresh 14
scf_convergence 8
mem_total 128000
cc_memory 96000
cc_backend xm
mem_static 1500
symmetry false
sym_ignore true
scf_guess read
unrestricted false
scf_algorithm gdm
n_frozen_core 0
$end

$multipole_field
ZZ -0.0001
$end

--------------------------------------------------------------
 ----------------------------------------------------------------
             Standard Nuclear Orientation (Angstroms)
    I     Atom           X                Y                Z
 ----------------------------------------------------------------
    1      P       0.0000000000     0.0000000000     0.0000000000
    2      H       0.0000000000     1.0229000000     0.9964000000
    3      H       0.0000000000    -1.0229000000     0.9964000000
 ----------------------------------------------------------------
 Nuclear Repulsion Energy =    11.3759605773 hartrees
 There are        9 alpha and        8 beta electrons
 Requested basis set is aug-cc-pCVQZ
 There are 62 shells and 226 basis functions

 Total QAlloc Memory Limit 128000 MB
 Mega-Array Size      1467 MB
 MEM_STATIC part      1500 MB

                       Distance Matrix (Angstroms)
             P (  1)   H (  2)
   H (  2)  1.427984
   H (  3)  1.427984  2.045800
 
 Applying Cartesian multipole field
    Component          Value
    ---------          -----
     (0,0,2)       -1.00000E-04
 Nucleus-field energy     =    -0.0007090799 hartrees
 A cutoff of  1.0D-14 yielded   1953 shell pairs
 There are     26129 function pairs (     41436 Cartesian)
 
 -------------------------------------------------------
 OpenMP Integral Computing Module                       
 Release: version 1.0, May 2013, Q-Chem Inc. Pittsburgh 
 -------------------------------------------------------
 Integral Job Info:
 Integral job number is                      11
 Integral operator is                         1
 short-range coefficients                     0
 long-range coefficients              100000000
 Omega coefficients                           0
 if combine SR and LR in K                    0
 Integral screening is                        0
 Integral computing path is                   2
 max size of driver memory is           3200000
 size of driver memory is               1704330
 size of scratch memory is             29435624
 max col of scratch BK array              50625
 max len of scratch array in speh3         2114
 max len of scratch index in speh4           50
 max int batch size is                      520
 min int batch size is                       52
 fixed nKL is                                22
 max L of basis functions is                  4
 order of int derivative is                   0
 number of shells is                         62
 number of basis is                         284
 number of cartesian basis is               284
 number of contracted shell pairs          1953
 number of primitive shell pairs           6866
 maxK2 (contraction) of shell pair          169
 max number of K2 of shell pair               1
 max number of CS2 of shell pair            227
 max number of PS2 of shell pair           1014
 mem total for path MDJ                  662152
 -------------------------------------------------------
 Smallest overlap matrix eigenvalue = 3.01E-05
 Guess MOs from SCF MO coefficient file
 Reading MOs from coefficient file
 Reading MOs from coefficient file
 A restricted hybrid HF-DFT SCF calculation will be
 performed using Geometric Direct Minimization
 Exchange:     0.2000 Hartree-Fock + 0.0800 Slater + 0.7200 B88
 Correlation:  0.1900 VWN1RPA + 0.8100 LYP
 Using Euler-Maclaurin-Lebedev (99,590) quadrature formula
 SCF converges when RMS gradient is below 1.0E-08
Using Q-Chem read-in guess as SCF_GUESS READ specified.

 using 8 threads for integral computing
 -------------------------------------------------------
 OpenMP Integral computing Module                
 Release: version 2.0, May 2017, Q-Chem Inc. Pleasanton 
 -------------------------------------------------------
TIMEINFO->: J/JK contribution 102.44 sec.
 -------------------------------------------------------
 OpenMP BLAS3 based DFT computing Module                
 Release: version 1.0, May 2013, Q-Chem Inc. Pittsburgh 
 -------------------------------------------------------
 ---------------------------------------
  Cycle       Energy        RMS Gradient
 ---------------------------------------
    1    -342.5474840498      1.61E-03 Normal BFGS step
TIMEINFO->: J/JK contribution 102.41 sec.
    2    -342.5474873299      9.14E-04 Normal BFGS step
TIMEINFO->: J/JK contribution 100.58 sec.
    3    -342.5474883441      1.90E-04 Normal BFGS step
TIMEINFO->: J/JK contribution 100.79 sec.
    4    -342.5474884368      4.18E-05 Normal BFGS step
TIMEINFO->: J/JK contribution 102.69 sec.
    5    -342.5474884418      2.04E-05 Normal BFGS step
TIMEINFO->: J/JK contribution 98.73 sec.
    6    -342.5474884426      3.87E-06 Normal BFGS step
TIMEINFO->: J/JK contribution 100.33 sec.
    7    -342.5474884426      5.81E-07 Normal BFGS step
TIMEINFO->: J/JK contribution 97.14 sec.
    8    -342.5474884426      9.54E-08 Normal BFGS step
TIMEINFO->: J/JK contribution 94.96 sec.
   GDM::WARNING energy changes are now smaller than effective accuracy.
   GDM::        calculation will continue, but THRESH should be increased
   GDM::        or SCF_CONVERGENCE decreased.
   GDM::        effective_thresh =   3.119971399290211E-009
    9    -342.5474884426      1.90E-08 Normal BFGS step
TIMEINFO->: J/JK contribution 94.30 sec.
   10    -342.5474884426      1.55E-09 Convergence criterion met
 ---------------------------------------
 B3LYP orbitals are now ready for the XYG3 calculation.
 XYG3 energy = Exch (0.8033 HF  - 0.0140 Slater + 0.2107 Becke88) + 
               Corr (0.6789 LYP + 0.3211 MP2)
 SCF time:  CPU 1154.34 s  wall 145.04 s
 SCF   energy in the final basis set = -342.33773451
 Total energy in the final basis set = -342.33773451
 
 Components of the MP2 correlation energy:
        aaaa  correlation energy  =        -0.0842320111 au
        abab  correlation energy  =        -0.4937942889 au
        bbbb  correlation energy  =        -0.0657871154 au
        singles contribution not yet available for XYG3

 Total  XYG3        total energy  =      -342.5448582967 au

 
 --------------------------------------------------------------
 
                    Orbital Energies (a.u.)
 --------------------------------------------------------------
 
 Alpha MOs
 -- Occupied --
-77.070  -6.562  -4.721  -4.729  -4.719  -0.638  -0.391  -0.317
 -0.250
 -- Virtual --
 -0.013   0.005   0.024   0.034   0.037   0.053   0.078   0.080
  0.082   0.085   0.088   0.151   0.177   0.183   0.191   0.206
  0.205   0.208   0.225   0.269   0.275   0.298   0.305   0.310
  0.306   0.309   0.334   0.398   0.409   0.429   0.443   0.443
  0.450   0.452   0.539   0.555   0.583   0.612   0.620   0.628
  0.650   0.671   0.674   0.696   0.747   0.772   0.808   0.898
  0.914   0.923   0.929   0.965   0.997   1.007   1.008   1.013
  1.057   1.062   1.081   1.089   1.160   1.199   1.204   1.210
  1.235   1.243   1.251   1.298   1.299   1.357   1.424   1.497
  1.499   1.511   1.562   1.565   1.566   1.628   1.657   1.711
  1.759   1.812   1.869   1.904   1.924   1.926   1.940   1.990
  1.999   2.061   2.071   2.080   2.164   2.235   2.375   2.450
  2.466   2.467   2.495   2.565   2.601   2.643   2.651   2.699
  2.749   2.762   2.867   2.875   2.886   2.908   2.979   2.983
  3.059   3.080   3.104   3.149   3.209   3.235   3.267   3.302
  3.342   3.396   3.409   3.697   3.697   3.734   3.913   3.966
  4.050   4.152   4.224   4.573   5.186   5.407   6.318   6.325
  6.368   6.384   6.430   6.557   6.579   6.636   6.670   6.720
  6.807   6.865   6.970   7.119   7.192   7.656   7.664   8.064
  8.083   8.121   8.153   8.199   8.311   8.359   8.377   8.390
  8.427   8.514   8.749   8.888   8.893   8.910   9.026   9.041
  9.300   9.401   9.981  10.291  13.773  14.333  14.426  15.712
 15.802  15.832  15.846  15.940  16.282  16.306  23.116  26.564
 26.568  26.684  26.885  27.296  39.272  39.781  39.862  45.992
 45.992  45.995  45.995  45.997  45.998  45.999  46.006  46.006
 56.079  56.115  56.125  56.137  56.190  56.331  56.336  67.751
 78.996  78.999  79.084  79.194  79.509 123.929 124.334 124.398
324.918
 
 Beta MOs
 -- Occupied --
-77.066  -6.558  -4.719  -4.714  -4.716  -0.609  -0.384  -0.301
 -- Virtual --
 -0.129  -0.011   0.009   0.024   0.035   0.042   0.065   0.081
  0.081   0.089   0.094   0.096   0.151   0.181   0.184   0.191
  0.207   0.211   0.213   0.225   0.288   0.280   0.319   0.309
  0.314   0.326   0.327   0.337   0.404   0.412   0.429   0.444
  0.451   0.452   0.456   0.547   0.559   0.584   0.617   0.624
  0.631   0.655   0.674   0.678   0.698   0.752   0.775   0.808
  0.922   0.917   0.942   0.950   0.971   1.018   1.008   1.021
  1.017   1.074   1.087   1.121   1.114   1.168   1.210   1.220
  1.225   1.240   1.253   1.259   1.308   1.310   1.362   1.427
  1.502   1.503   1.523   1.573   1.570   1.570   1.635   1.658
  1.713   1.766   1.813   1.873   1.906   1.926   1.928   1.950
  2.004   2.008   2.064   2.075   2.085   2.170   2.254   2.382
  2.456   2.470   2.479   2.505   2.578   2.606   2.664   2.668
  2.722   2.770   2.785   2.877   2.890   2.919   2.927   2.985
  3.000   3.066   3.087   3.130   3.172   3.237   3.263   3.290
  3.318   3.358   3.410   3.413   3.702   3.702   3.757   3.918
  3.972   4.067   4.156   4.228   4.596   5.192   5.411   6.319
  6.326   6.370   6.386   6.431   6.560   6.582   6.641   6.674
  6.722   6.813   6.872   6.976   7.120   7.203   7.657   7.665
  8.069   8.088   8.121   8.153   8.200   8.315   8.370   8.379
  8.398   8.428   8.516   8.758   8.892   8.894   8.913   9.027
  9.041   9.301   9.403   9.985  10.294  13.792  14.337  14.430
 15.714  15.804  15.834  15.849  15.942  16.283  16.307  23.122
 26.574  26.578  26.686  26.897  27.298  39.285  39.784  39.865
 45.994  45.995  45.998  45.998  46.000  45.999  46.001  46.006
 46.007  56.085  56.122  56.132  56.147  56.196  56.333  56.338
 67.756  79.006  79.010  79.086  79.208  79.511 123.939 124.336
124.400 324.922
 --------------------------------------------------------------
 
          Ground-State Mulliken Net Atomic Charges

     Atom                 Charge (a.u.)
  ----------------------------------------
      1 P                    -0.087750
      2 H                     0.043875
      3 H                     0.043875
  ----------------------------------------
  Sum of atomic charges =    -0.000000

 -----------------------------------------------------------------
                    Cartesian Multipole Moments
 -----------------------------------------------------------------
    Charge (ESU x 10^10)
                -0.0000
    Dipole Moment (Debye)
         X       0.0000      Y       0.0000      Z       0.5065
       Tot       0.5065
    Quadrupole Moments (Debye-Ang)
        XX     -15.2634     XY      -0.0000     YY     -14.1299
        XZ      -0.0000     YZ       0.0000     ZZ     -15.4464
    Octopole Moments (Debye-Ang^2)
       XXX       0.0000    XXY       0.0000    XYY       0.0000
       YYY       0.0000    XXZ      -1.5329    XYZ       0.0000
       YYZ      -1.5569    XZZ      -0.0000    YZZ       0.0000
       ZZZ      -4.8332
    Hexadecapole Moments (Debye-Ang^3)
      XXXX     -24.4167   XXXY       0.0000   XXYY      -9.5384
      XYYY       0.0000   YYYY     -31.4208   XXXZ      -0.0000
      XXYZ       0.0000   XYYZ       0.0000   YYYZ       0.0000
      XXZZ     -10.1719   XYZZ       0.0000   YYZZ     -10.4858
      XZZZ       0.0000   YZZZ       0.0000   ZZZZ     -35.8449
 -----------------------------------------------------------------
Archival summary:
1\1\n0057.mhg0\SP\ROProcedureUnspecified\BasisUnspecified\12(2)\yhljason\WedOct1415:51:022020WedOct1415:51:022020\0\\#,ROProcedureUnspecified,BasisUnspecified,\\0,2\P\H,1,1.42798\H,1,1.42798,2,91.5037\\\@

 Total job time:  423.68s(wall), 3361.75s(cpu) 
 Wed Oct 14 15:51:02 2020

        *************************************************************
        *                                                           *
        *  Thank you very much for using Q-Chem.  Have a nice day.  *
        *                                                           *
        *************************************************************


