Q-Chem Developer Version!
                  Welcome to Q-Chem
     A Quantum Leap Into The Future Of Chemistry


 Q-Chem 5.1, Q-Chem, Inc., Pleasanton, CA (2018)

 Yihan Shao,  Zhengting Gan,  E. Epifanovsky,  A. T. B. Gilbert,  M. Wormit,  
 J. Kussmann,  A. W. Lange,  A. Behn,  Jia Deng,  Xintian Feng,  D. Ghosh,  
 M. Goldey,  P. R. Horn,  L. D. Jacobson,  I. Kaliman,  T. Kus,  A. Landau,  
 Jie Liu,  E. I. Proynov,  R. M. Richard,  R. P. Steele,  E. J. Sundstrom,  
 H. L. Woodcock III,  P. M. Zimmerman,  D. Zuev,  B. Albrecht,  E. Alguire,  
 S. A. Baeppler,  D. Barton,  Z. Benda,  Y. A. Bernard,  E. J. Berquist,  
 K. B. Bravaya,  H. Burton,  D. Casanova,  Chun-Min Chang,  Yunqing Chen,  
 A. Chien,  K. D. Closser,  M. P. Coons,  S. Coriani,  S. Dasgupta,  
 A. L. Dempwolff,  M. Diedenhofen,  Hainam Do,  R. G. Edgar,  Po-Tung Fang,  
 S. Faraji,  S. Fatehi,  Qingguo Feng,  K. D. Fenk,  J. Fosso-Tande,  
 Qinghui Ge,  A. Ghysels,  G. Gidofalvi,  J. Gomes,  J. Gonthier,  A. Gunina,  
 D. Hait,  M. W. D. Hanson-Heine,  P. H. P. Harbach,  A. W. Hauser,  
 J. E. Herr,  E. G. Hohenstein,  Z. C. Holden,  Kerwin Hui,  B. C. Huynh,  
 T.-C. Jagau,  Hyunjun Ji,  B. Kaduk,  K. Khistyaev,  Jaehoon Kim,  
 P. Klunzinger,  K. Koh,  D. Kosenkov,  L. Koulias,  T. Kowalczyk,  
 C. M. Krauter,  A. Kunitsa,  Ka Un Lao,  A. Laurent,  K. V. Lawler,  
 Joonho Lee,  D. Lefrancois,  S. Lehtola,  D. S. Levine,  Yi-Pei Li,  
 You-Sheng Lin,  Fenglai Liu,  E. Livshits,  A. Luenser,  P. Manohar,  
 E. Mansoor,  S. F. Manzer,  Shan-Ping Mao,  Yuezhi Mao,  N. Mardirossian,  
 A. V. Marenich,  T. Markovich,  L. A. Martinez-Martinez,  S. A. Maurer,  
 N. J. Mayhall,  S. C. McKenzie,  J.-M. Mewes,  A. F. Morrison,  
 J. W. Mullinax,  K. Nanda,  T. S. Nguyen-Beck,  R. Olivares-Amaya,  
 J. A. Parkhill,  T. M. Perrine,  F. Plasser,  P. Pokhilko,  S. Prager,  
 A. Prociuk,  E. Ramos,  D. R. Rehn,  F. Rob,  M. Schneider,  N. Sergueev,  
 S. M. Sharada,  S. Sharma,  D. W. Small,  T. Stauch,  T. Stein,  
 Yu-Chuan Su,  A. J. W. Thom,  A. Tkatchenko,  T. Tsuchimochi,  N. M. Tubman,  
 L. Vogt,  M. L. Vidal,  O. Vydrov,  M. A. Watson,  J. Wenzel,  
 M. de Wergifosse,  T. A. Wesolowski,  A. White,  J. Witte,  A. Yamada,  
 Jun Yang,  K. Yao,  S. Yeganeh,  S. R. Yost,  Zhi-Qiang You,  A. Zech,  
 Igor Ying Zhang,  Xing Zhang,  Yan Zhao,  Ying Zhu,  B. R. Brooks,  
 G. K. L. Chan,  C. J. Cramer,  M. S. Gordon,  W. J. Hehre,  A. Klamt,  
 M. W. Schmidt,  C. D. Sherrill,  D. G. Truhlar,  A. Aspuru-Guzik,  R. Baer,  
 A. T. Bell,  N. A. Besley,  Jeng-Da Chai,  A. E. DePrince, III,  
 R. A. DiStasio Jr.,  A. Dreuw,  B. D. Dunietz,  T. R. Furlani,  
 Chao-Ping Hsu,  Yousung Jung,  Jing Kong,  D. S. Lambrecht,  WanZhen Liang,  
 C. Ochsenfeld,  V. A. Rassolov,  L. V. Slipchenko,  J. E. Subotnik,  
 T. Van Voorhis,  J. M. Herbert,  A. I. Krylov,  P. M. W. Gill,  M. Head-Gordon

 Contributors to earlier versions of Q-Chem not listed above: 
 R. D. Adamson,  B. Austin,  J. Baker,  G. J. O. Beran,  K. Brandhorst,  
 S. T. Brown,  E. F. C. Byrd,  A. K. Chakraborty,  C.-L. Cheng,  
 Siu Hung Chien,  D. M. Chipman,  D. L. Crittenden,  H. Dachsel,  
 R. J. Doerksen,  A. D. Dutoi,  L. Fusti-Molnar,  W. A. Goddard III,  
 A. Golubeva-Zadorozhnaya,  S. R. Gwaltney,  G. Hawkins,  A. Heyden,  
 S. Hirata,  G. Kedziora,  F. J. Keil,  C. Kelley,  Jihan Kim,  R. A. King,  
 R. Z. Khaliullin,  P. P. Korambath,  W. Kurlancheek,  A. M. Lee,  M. S. Lee,  
 S. V. Levchenko,  Ching Yeh Lin,  D. Liotard,  R. C. Lochan,  I. Lotan,  
 P. E. Maslen,  N. Nair,  D. P. O'Neill,  D. Neuhauser,  E. Neuscamman,  
 C. M. Oana,  R. Olson,  B. Peters,  R. Peverati,  P. A. Pieniazek,  
 Y. M. Rhee,  J. Ritchie,  M. A. Rohrdanz,  E. Rosta,  N. J. Russ,  
 H. F. Schaefer III,  N. E. Schultz,  N. Shenvi,  A. C. Simmonett,  A. Sodt,  
 D. Stuck,  K. S. Thanthiriwatte,  V. Vanovschi,  Tao Wang,  A. Warshel,  
 C. F. Williams,  Q. Wu,  X. Xu,  W. Zhang

 Please cite Q-Chem as follows:
 Y. Shao et al., Mol. Phys. 113, 184-215 (2015)
 DOI: 10.1080/00268976.2014.952696

 Q-Chem 5.1.1 for Intel X86 EM64T Linux

 Parts of Q-Chem use Armadillo 8.300.2 (Tropical Shenanigans).
 http://arma.sourceforge.net/

 Q-Chem begins on Sat Nov 14 15:33:45 2020  

Host: n0031.mhg0
0

     Scratch files written to /local/scratch/users/yhljason/BH2Cl_wB97M2_aug-cc-pcVQZ.inp20201114153343//
Input Ideriv = 2
Curr. Ideriv = -1
Max.  Ideriv = 2
Input Ideriv = 1
Curr. Ideriv = 2
Max.  Ideriv = 1

Checking the input file for inconsistencies... 	...done.

--------------------------------------------------------------
User input:
--------------------------------------------------------------
$molecule
0 1
B        0.0000000000      0.0000000000      0.0000000000
Cl       0.0000000000      0.0000000000      1.7353000000
H        0.0000000000      1.0532000000     -0.5574000000
H        0.0000000000     -1.0532000000     -0.5574000000
$end

$rem
jobtype sp
method wB97M-V
xc_grid 000099000590
basis aug-cc-pcVQZ
max_scf_cycles 200
thresh 14
scf_convergence 6
scf_algorithm gdm
symmetry false
sym_ignore true
unrestricted false
gen_scfman true
internal_stability_iter 15
internal_stability_davidson_iter 200
mem_total 128000
n_frozen_core 0
$end



--------------------------------------------------------------
 ----------------------------------------------------------------
             Standard Nuclear Orientation (Angstroms)
    I     Atom           X                Y                Z
 ----------------------------------------------------------------
    1      B       0.0000000000     0.0000000000     0.0000000000
    2      Cl      0.0000000000     0.0000000000     1.7353000000
    3      H       0.0000000000     1.0532000000    -0.5574000000
    4      H       0.0000000000    -1.0532000000    -0.5574000000
 ----------------------------------------------------------------
 Nuclear Repulsion Energy =    37.7438288950 hartrees
 There are       12 alpha and       12 beta electrons
 Requested basis set is aug-cc-pCVQZ
 There are 91 shells and 335 basis functions

 Total QAlloc Memory Limit 128000 MB
 Mega-Array Size       188 MB
 MEM_STATIC part       192 MB

                       Distance Matrix (Angstroms)
             B (  1)   Cl(  2)   H (  3)
   Cl(  2)  1.735300
   H (  3)  1.191606  2.523035
   H (  4)  1.191606  2.523035  2.106400
 
 A cutoff of  1.0D-14 yielded   4038 shell pairs
 There are     55162 function pairs (     88401 Cartesian)
 
 -------------------------------------------------------
 OpenMP Integral Computing Module                       
 Release: version 1.0, May 2013, Q-Chem Inc. Pittsburgh 
 -------------------------------------------------------
 Integral Job Info:
 Integral job number is                      11
 Integral operator is                         1
 short-range coefficients              15000000
 long-range coefficients              100000000
 Omega coefficients                         300
 if combine SR and LR in K                    1
 Integral screening is                        0
 Integral computing path is                   2
 max size of driver memory is           3200000
 size of driver memory is               1704330
 size of scratch memory is             28840424
 max col of scratch BK array              50625
 max len of scratch array in speh3         2114
 max len of scratch index in speh4           50
 max int batch size is                      520
 min int batch size is                       52
 fixed nKL is                                21
 max L of basis functions is                  4
 order of int derivative is                   0
 number of shells is                         91
 number of basis is                         423
 number of cartesian basis is               423
 number of contracted shell pairs          4038
 number of primitive shell pairs          11450
 maxK2 (contraction) of shell pair          169
 max number of K2 of shell pair               1
 max number of CS2 of shell pair            488
 max number of PS2 of shell pair           1014
 mem total for path MDJ                  781840
 -------------------------------------------------------
 Smallest overlap matrix eigenvalue = 2.45E-05

 Scale SEOQF with 1.000000e-01/1.000000e-01/1.000000e-01

 Standard Electronic Orientation quadrupole field applied
 Nucleus-field energy     =    -0.0000000054 hartrees
 Guess from superposition of atomic densities
 Warning:  Energy on first SCF cycle will be non-variational
 SAD guess density has 24.000000 electrons

 -----------------------------------------------------------------------
  General SCF calculation program by
  Eric Jon Sundstrom, Paul Horn, Yuezhi Mao, Dmitri Zuev, Alec White,
  David Stuck, Shaama M.S., Shane Yost, Joonho Lee, David Small,
  Daniel Levine, Susi Lehtola, Hugh Burton, Evgeny Epifanovsky
 -----------------------------------------------------------------------
 Exchange:     0.1500 Hartree-Fock + 1.0000 wB97M-V + LR-HF
 Correlation:  1.0000 wB97M-V
 Using Euler-Maclaurin-Lebedev (99,590) quadrature formula
 Nonlocal Correlation:  VV10 with C = 0.0100 and b = 6.00 and scale = 1.00000
 Grid used for NLC:  SG-1 standard quadrature
Running Object-Oriented RKS (RHF)
 Nonlocal correlation = 0.099095200466
 Nonlocal correlation = 0.100048769894
We will preform up to 15 macro iterations over saddle points until a stable solution is found
Energy prior to optimization (guess energy) = -486.248437495135
Begin Timing: Total SCF Calculation
Begin Timing: SCF Single Stationary Point Calculation
begin iterations for algorithm: GDM          
the SCF tolerance is set to 1.00e-06
 Nonlocal correlation = 9.989819121870e-02
    1    -486.2484374951      4.72e-02     00000  Normal BFGS step
 Nonlocal correlation = 9.995211429731e-02
    2    -486.2557802056      2.33e-02     00000  Normal BFGS step
 Nonlocal correlation = 9.995470099944e-02
    3    -486.2593109205      1.79e-03     00000  Normal BFGS step
 Nonlocal correlation = 9.995425030414e-02
    4    -486.2593557251      6.14e-04     00000  Normal BFGS step
 Nonlocal correlation = 9.995383667673e-02
    5    -486.2593587502      1.17e-04     00000  Normal BFGS step
 Nonlocal correlation = 9.995381022456e-02
    6    -486.2593588590      3.73e-05     00000  Normal BFGS step
 Nonlocal correlation = 9.995380277894e-02
    7    -486.2593588709      8.39e-06     00000  Normal BFGS step
 Nonlocal correlation = 9.995380488978e-02
    8    -486.2593588695      1.83e-06     00000  Normal BFGS step
 Nonlocal correlation = 9.995380520522e-02
    9    -486.2593588695      4.84e-07     00000 Convergence criterion met
Timing for Single Stationary Point: 224.00s (wall), 3343.34s (cpu)
Begin Timing: Stability
===================================================
Beginning Test for Internal Stability
===================================================
generating davidson guess vectors based on koopmans excitations
computing hessian-vector products by finite difference
 Nonlocal correlation = 0.099953802911
 Nonlocal correlation = 0.099953802519
 Nonlocal correlation = 0.099953803466
 Nonlocal correlation = 0.099953803733
 Nonlocal correlation = 0.099953805205
    1      2.31e+00     00000 Davidson Iteration
computing hessian-vector products by finite difference
 Nonlocal correlation = 9.995380317447e-02
 Nonlocal correlation = 9.995380407490e-02
 Nonlocal correlation = 9.995379997310e-02
 Nonlocal correlation = 9.995380201046e-02
 Nonlocal correlation = 9.995380520522e-02
    2      1.39e+00     00000 Davidson Iteration
computing hessian-vector products by finite difference
 Nonlocal correlation = 9.995380689009e-02
 Nonlocal correlation = 9.995379848018e-02
 Nonlocal correlation = 9.995380352013e-02
 Nonlocal correlation = 9.995380276855e-02
 Nonlocal correlation = 9.995380520522e-02
    3      1.34e-01     00000 Davidson Iteration
computing hessian-vector products by finite difference
 Nonlocal correlation = 9.995381197289e-02
 Nonlocal correlation = 9.995379341893e-02
 Nonlocal correlation = 9.995382255630e-02
 Nonlocal correlation = 9.995378374603e-02
 Nonlocal correlation = 9.995380520522e-02
    4      2.30e-02     00000 Davidson Iteration
computing hessian-vector products by finite difference
 Nonlocal correlation = 9.995377386311e-02
 Nonlocal correlation = 9.995383117099e-02
 Nonlocal correlation = 9.995391596018e-02
 Nonlocal correlation = 9.995369303061e-02
 Nonlocal correlation = 9.995380520522e-02
    5      1.06e-02     00000 Davidson Iteration
computing hessian-vector products by finite difference
 Nonlocal correlation = 9.995376025619e-02
 Nonlocal correlation = 9.995384473615e-02
 Nonlocal correlation = 9.995370949935e-02
 Nonlocal correlation = 9.995389859095e-02
 Nonlocal correlation = 9.995380520522e-02
    6      3.91e-03     00000 Davidson Iteration
computing hessian-vector products by finite difference
 Nonlocal correlation = 9.995384761847e-02
 Nonlocal correlation = 9.995375736415e-02
 Nonlocal correlation = 9.995375040147e-02
 Nonlocal correlation = 9.995385659070e-02
 Nonlocal correlation = 9.995380520522e-02
    7      3.43e-03     00000 Davidson Iteration
computing hessian-vector products by finite difference
 Nonlocal correlation = 9.995379361496e-02
 Nonlocal correlation = 9.995381136471e-02
 Nonlocal correlation = 9.995384995765e-02
 Nonlocal correlation = 9.995375542567e-02
 Nonlocal correlation = 9.995380520522e-02
    8      3.79e-03     00000 Davidson Iteration
computing hessian-vector products by finite difference
 Nonlocal correlation = 9.995388588202e-02
 Nonlocal correlation = 9.995372109499e-02
 Nonlocal correlation = 9.995389278277e-02
 Nonlocal correlation = 9.995371239808e-02
 Nonlocal correlation = 9.995380520522e-02
    9      2.97e-03     00000 Davidson Iteration
computing hessian-vector products by finite difference
 Nonlocal correlation = 9.995391143768e-02
 Nonlocal correlation = 9.995369395958e-02
 Nonlocal correlation = 9.995399368802e-02
 Nonlocal correlation = 9.995361150610e-02
 Nonlocal correlation = 9.995380520522e-02
   10      3.31e-03     00000 Davidson Iteration
computing hessian-vector products by finite difference
 Nonlocal correlation = 9.995377340091e-02
 Nonlocal correlation = 9.995383195381e-02
 Nonlocal correlation = 9.995366792737e-02
 Nonlocal correlation = 9.995393729227e-02
 Nonlocal correlation = 9.995380520522e-02
   11      3.28e-03     00000 Davidson Iteration
computing hessian-vector products by finite difference
 Nonlocal correlation = 9.995376058858e-02
 Nonlocal correlation = 9.995384472574e-02
 Nonlocal correlation = 9.995377185159e-02
 Nonlocal correlation = 9.995383331693e-02
 Nonlocal correlation = 9.995380520522e-02
   12      3.03e-03     00000 Davidson Iteration
computing hessian-vector products by finite difference
 Nonlocal correlation = 9.995382148438e-02
 Nonlocal correlation = 9.995378354307e-02
 Nonlocal correlation = 9.995369679510e-02
 Nonlocal correlation = 9.995390830334e-02
 Nonlocal correlation = 9.995380520522e-02
   13      2.73e-03     00000 Davidson Iteration
computing hessian-vector products by finite difference
 Nonlocal correlation = 9.995390495442e-02
 Nonlocal correlation = 9.995370213007e-02
 Nonlocal correlation = 9.995376586689e-02
 Nonlocal correlation = 9.995383932980e-02
 Nonlocal correlation = 9.995380520522e-02
   14      4.31e-03     00000 Davidson Iteration
computing hessian-vector products by finite difference
 Nonlocal correlation = 9.995381995466e-02
 Nonlocal correlation = 9.995378503260e-02
 Nonlocal correlation = 9.995373226048e-02
 Nonlocal correlation = 9.995387301267e-02
 Nonlocal correlation = 9.995380520522e-02
   15      4.63e-03     00000 Davidson Iteration
computing hessian-vector products by finite difference
 Nonlocal correlation = 9.995381678861e-02
 Nonlocal correlation = 9.995378517782e-02
 Nonlocal correlation = 9.995381248003e-02
 Nonlocal correlation = 9.995379295241e-02
 Nonlocal correlation = 9.995380520522e-02
   16      6.65e-03     00000 Davidson Iteration
computing hessian-vector products by finite difference
 Nonlocal correlation = 9.995386412048e-02
 Nonlocal correlation = 9.995374116262e-02
 Nonlocal correlation = 9.995386448376e-02
 Nonlocal correlation = 9.995374176918e-02
 Nonlocal correlation = 9.995380520522e-02
   17      4.67e-03     00000 Davidson Iteration
computing hessian-vector products by finite difference
 Nonlocal correlation = 9.995384716319e-02
 Nonlocal correlation = 9.995375813931e-02
 Nonlocal correlation = 9.995391761722e-02
 Nonlocal correlation = 9.995369026474e-02
 Nonlocal correlation = 9.995380520522e-02
   18      3.95e-03     00000 Davidson Iteration
computing hessian-vector products by finite difference
 Nonlocal correlation = 9.995386333925e-02
 Nonlocal correlation = 9.995374181317e-02
 Nonlocal correlation = 9.995379719398e-02
 Nonlocal correlation = 9.995381000109e-02
 Nonlocal correlation = 9.995380520522e-02
   19      3.74e-03     00000 Davidson Iteration
computing hessian-vector products by finite difference
 Nonlocal correlation = 9.995366005042e-02
 Nonlocal correlation = 9.995394701347e-02
 Nonlocal correlation = 9.995374573337e-02
 Nonlocal correlation = 9.995385944166e-02
 Nonlocal correlation = 9.995380520522e-02
   20      3.92e-03     00000 Davidson Iteration
computing hessian-vector products by finite difference
 Nonlocal correlation = 9.995365382448e-02
 Nonlocal correlation = 9.995395123544e-02
 Nonlocal correlation = 9.995377924404e-02
 Nonlocal correlation = 9.995382613869e-02
 Nonlocal correlation = 9.995380520522e-02
   21      3.86e-03     00000 Davidson Iteration
computing hessian-vector products by finite difference
 Nonlocal correlation = 9.995389492668e-02
 Nonlocal correlation = 9.995371125486e-02
 Nonlocal correlation = 9.995377980614e-02
 Nonlocal correlation = 9.995382817831e-02
 Nonlocal correlation = 9.995380520522e-02
   22      3.50e-03     00000 Davidson Iteration
computing hessian-vector products by finite difference
 Nonlocal correlation = 9.995395335519e-02
 Nonlocal correlation = 9.995365282650e-02
 Nonlocal correlation = 9.995379455963e-02
 Nonlocal correlation = 9.995381253317e-02
 Nonlocal correlation = 9.995380520522e-02
   23      3.58e-03     00000 Davidson Iteration
computing hessian-vector products by finite difference
 Nonlocal correlation = 9.995397565153e-02
 Nonlocal correlation = 9.995362977323e-02
 Nonlocal correlation = 9.995371422391e-02
 Nonlocal correlation = 9.995389297054e-02
 Nonlocal correlation = 9.995380520522e-02
   24      3.71e-03     00000 Davidson Iteration
computing hessian-vector products by finite difference
 Nonlocal correlation = 9.995404636747e-02
 Nonlocal correlation = 9.995355902938e-02
 Nonlocal correlation = 9.995378848207e-02
 Nonlocal correlation = 9.995381861517e-02
 Nonlocal correlation = 9.995380520522e-02
   25      3.86e-03     00000 Davidson Iteration
computing hessian-vector products by finite difference
 Nonlocal correlation = 9.995386289840e-02
 Nonlocal correlation = 9.995374340354e-02
 Nonlocal correlation = 9.995379379873e-02
 Nonlocal correlation = 9.995381148223e-02
 Nonlocal correlation = 9.995380520522e-02
   26      3.92e-03     00000 Davidson Iteration
computing hessian-vector products by finite difference
 Nonlocal correlation = 9.995380740817e-02
 Nonlocal correlation = 9.995379867589e-02
 Nonlocal correlation = 9.995380182520e-02
 Nonlocal correlation = 9.995380515166e-02
 Nonlocal correlation = 9.995380520522e-02
   27      3.74e-03     00000 Davidson Iteration
computing hessian-vector products by finite difference
 Nonlocal correlation = 9.995379970271e-02
 Nonlocal correlation = 9.995380567629e-02
 Nonlocal correlation = 9.995381883038e-02
 Nonlocal correlation = 9.995378737165e-02
 Nonlocal correlation = 9.995380520522e-02
   28      3.74e-03     00000 Davidson Iteration
computing hessian-vector products by finite difference
 Nonlocal correlation = 9.995377272895e-02
 Nonlocal correlation = 9.995382946672e-02
 Nonlocal correlation = 9.995379745254e-02
 Nonlocal correlation = 9.995380627716e-02
 Nonlocal correlation = 9.995380520522e-02
   29      3.66e-03     00000 Davidson Iteration
computing hessian-vector products by finite difference
 Nonlocal correlation = 9.995379057597e-02
 Nonlocal correlation = 9.995381466796e-02
 Nonlocal correlation = 9.995383871534e-02
 Nonlocal correlation = 9.995376664966e-02
 Nonlocal correlation = 9.995380520522e-02
   30      3.52e-03     00000 Davidson Iteration
computing hessian-vector products by finite difference
 Nonlocal correlation = 9.995389440060e-02
 Nonlocal correlation = 9.995371168458e-02
 Nonlocal correlation = 9.995396690487e-02
 Nonlocal correlation = 9.995363827777e-02
 Nonlocal correlation = 9.995380520522e-02
   31      3.62e-03     00000 Davidson Iteration
computing hessian-vector products by finite difference
 Nonlocal correlation = 9.995396808365e-02
 Nonlocal correlation = 9.995363809606e-02
 Nonlocal correlation = 9.995371786291e-02
 Nonlocal correlation = 9.995389021439e-02
 Nonlocal correlation = 9.995380520522e-02
   32      3.42e-03     00000 Davidson Iteration
computing hessian-vector products by finite difference
 Nonlocal correlation = 9.995384190266e-02
 Nonlocal correlation = 9.995376518310e-02
 Nonlocal correlation = 9.995373324804e-02
 Nonlocal correlation = 9.995387574042e-02
 Nonlocal correlation = 9.995380520522e-02
   33      3.40e-03     00000 Davidson Iteration
computing hessian-vector products by finite difference
 Nonlocal correlation = 9.995386192855e-02
 Nonlocal correlation = 9.995374504139e-02
 Nonlocal correlation = 9.995383345965e-02
 Nonlocal correlation = 9.995377172891e-02
 Nonlocal correlation = 9.995380520522e-02
   34      3.32e-03     00000 Davidson Iteration
computing hessian-vector products by finite difference
 Nonlocal correlation = 9.995387544125e-02
 Nonlocal correlation = 9.995373264580e-02
 Nonlocal correlation = 9.995388559266e-02
 Nonlocal correlation = 9.995372058762e-02
 Nonlocal correlation = 9.995380520522e-02
   35      3.30e-03     00000 Davidson Iteration
computing hessian-vector products by finite difference
 Nonlocal correlation = 9.995372137440e-02
 Nonlocal correlation = 9.995388392689e-02
 Nonlocal correlation = 9.995377069988e-02
 Nonlocal correlation = 9.995383548288e-02
 Nonlocal correlation = 9.995380520522e-02
   36      3.41e-03     00000 Davidson Iteration
computing hessian-vector products by finite difference
 Nonlocal correlation = 9.995378039184e-02
 Nonlocal correlation = 9.995382568218e-02
 Nonlocal correlation = 9.995374888045e-02
 Nonlocal correlation = 9.995385831627e-02
 Nonlocal correlation = 9.995380520522e-02
   37      3.42e-03     00000 Davidson Iteration
computing hessian-vector products by finite difference
 Nonlocal correlation = 9.995379792360e-02
 Nonlocal correlation = 9.995380737575e-02
 Nonlocal correlation = 9.995385641319e-02
 Nonlocal correlation = 9.995374898414e-02
 Nonlocal correlation = 9.995380520522e-02
   38      4.68e-03     00000 Davidson Iteration
computing hessian-vector products by finite difference
 Nonlocal correlation = 9.995381829175e-02
 Nonlocal correlation = 9.995378688396e-02
 Nonlocal correlation = 9.995388302680e-02
 Nonlocal correlation = 9.995372315996e-02
 Nonlocal correlation = 9.995380520522e-02
   39      4.07e-03     00000 Davidson Iteration
computing hessian-vector products by finite difference
 Nonlocal correlation = 9.995380791054e-02
 Nonlocal correlation = 9.995379749150e-02
 Nonlocal correlation = 9.995383122764e-02
 Nonlocal correlation = 9.995377407878e-02
 Nonlocal correlation = 9.995380520522e-02
   40      4.63e-03     00000 Davidson Iteration
computing hessian-vector products by finite difference
 Nonlocal correlation = 9.995379481810e-02
 Nonlocal correlation = 9.995381037683e-02
 Nonlocal correlation = 9.995385488366e-02
 Nonlocal correlation = 9.995375319035e-02
 Nonlocal correlation = 9.995380520522e-02
   41      4.10e-03     00000 Davidson Iteration
computing hessian-vector products by finite difference
 Nonlocal correlation = 9.995380509374e-02
 Nonlocal correlation = 9.995379680986e-02
 Nonlocal correlation = 9.995380281359e-02
 Nonlocal correlation = 9.995380263373e-02
 Nonlocal correlation = 9.995380520522e-02
   42      4.41e-03     00000 Davidson Iteration
computing hessian-vector products by finite difference
 Nonlocal correlation = 9.995382208140e-02
 Nonlocal correlation = 9.995378312500e-02
 Nonlocal correlation = 9.995380306700e-02
 Nonlocal correlation = 9.995380300518e-02
 Nonlocal correlation = 9.995380520522e-02
   43      4.37e-03     00000 Davidson Iteration
computing hessian-vector products by finite difference
 Nonlocal correlation = 9.995386951624e-02
 Nonlocal correlation = 9.995373547617e-02
 Nonlocal correlation = 9.995379110562e-02
 Nonlocal correlation = 9.995381416970e-02
 Nonlocal correlation = 9.995380520522e-02
   44      4.34e-03     00000 Davidson Iteration
computing hessian-vector products by finite difference
 Nonlocal correlation = 9.995369916359e-02
 Nonlocal correlation = 9.995390600620e-02
 Nonlocal correlation = 9.995375882269e-02
 Nonlocal correlation = 9.995384725352e-02
 Nonlocal correlation = 9.995380520522e-02
   45      4.32e-03     00000 Davidson Iteration
computing hessian-vector products by finite difference
 Nonlocal correlation = 9.995391995771e-02
 Nonlocal correlation = 9.995368622882e-02
 Nonlocal correlation = 9.995377391459e-02
 Nonlocal correlation = 9.995383237376e-02
 Nonlocal correlation = 9.995380520522e-02
   46      4.33e-03     00000 Davidson Iteration
computing hessian-vector products by finite difference
 Nonlocal correlation = 9.995388267938e-02
 Nonlocal correlation = 9.995372239420e-02
 Nonlocal correlation = 9.995371233844e-02
 Nonlocal correlation = 9.995389564668e-02
 Nonlocal correlation = 9.995380520522e-02
   47      4.40e-03     00000 Davidson Iteration
computing hessian-vector products by finite difference
 Nonlocal correlation = 9.995378400237e-02
 Nonlocal correlation = 9.995382306837e-02
 Nonlocal correlation = 9.995361054025e-02
 Nonlocal correlation = 9.995399554202e-02
 Nonlocal correlation = 9.995380520522e-02
   48      4.38e-03     00000 Davidson Iteration
computing hessian-vector products by finite difference
 Nonlocal correlation = 9.995398830783e-02
 Nonlocal correlation = 9.995361889134e-02
 Nonlocal correlation = 9.995395447623e-02
 Nonlocal correlation = 9.995365261717e-02
 Nonlocal correlation = 9.995380520522e-02
   49      4.42e-03     00000 Davidson Iteration
computing hessian-vector products by finite difference
 Nonlocal correlation = 9.995385854153e-02
 Nonlocal correlation = 9.995374652675e-02
 Nonlocal correlation = 9.995391172616e-02
 Nonlocal correlation = 9.995369514465e-02
 Nonlocal correlation = 9.995380520522e-02
   50      4.39e-03     00000 Davidson Iteration
computing hessian-vector products by finite difference
 Nonlocal correlation = 9.995378959705e-02
 Nonlocal correlation = 9.995381569496e-02
 Nonlocal correlation = 9.995382628723e-02
 Nonlocal correlation = 9.995377909178e-02
 Nonlocal correlation = 9.995380520522e-02
   51      4.38e-03     00000 Davidson Iteration
computing hessian-vector products by finite difference
 Nonlocal correlation = 9.995372169148e-02
 Nonlocal correlation = 9.995388370235e-02
 Nonlocal correlation = 9.995390083401e-02
 Nonlocal correlation = 9.995370524395e-02
 Nonlocal correlation = 9.995380520522e-02
   52      4.31e-03     00000 Davidson Iteration
computing hessian-vector products by finite difference
 Nonlocal correlation = 9.995370236663e-02
 Nonlocal correlation = 9.995390381049e-02
 Nonlocal correlation = 9.995390719752e-02
 Nonlocal correlation = 9.995369809635e-02
 Nonlocal correlation = 9.995380520522e-02
   53      4.33e-03     00000 Davidson Iteration
computing hessian-vector products by finite difference
 Nonlocal correlation = 9.995374083140e-02
 Nonlocal correlation = 9.995386716736e-02
 Nonlocal correlation = 9.995390287809e-02
 Nonlocal correlation = 9.995370249014e-02
 Nonlocal correlation = 9.995380520522e-02
   54      4.30e-03     00000 Davidson Iteration
computing hessian-vector products by finite difference
 Nonlocal correlation = 9.995380108432e-02
 Nonlocal correlation = 9.995380082614e-02
 Nonlocal correlation = 9.995380262388e-02
 Nonlocal correlation = 9.995380282787e-02
 Nonlocal correlation = 9.995380520522e-02
   55      4.31e-03     00000 Davidson Iteration
computing hessian-vector products by finite difference
 Nonlocal correlation = 9.995377551491e-02
 Nonlocal correlation = 9.995382968349e-02
 Nonlocal correlation = 9.995378474939e-02
 Nonlocal correlation = 9.995382224279e-02
 Nonlocal correlation = 9.995380520522e-02
   56      4.37e-03     00000 Davidson Iteration
computing hessian-vector products by finite difference
 Nonlocal correlation = 9.995368615030e-02
 Nonlocal correlation = 9.995391892499e-02
 Nonlocal correlation = 9.995380240463e-02
 Nonlocal correlation = 9.995380457375e-02
 Nonlocal correlation = 9.995380520522e-02
   57      4.39e-03     00000 Davidson Iteration
computing hessian-vector products by finite difference
 Nonlocal correlation = 9.995389465162e-02
 Nonlocal correlation = 9.995371062294e-02
 Nonlocal correlation = 9.995382083773e-02
 Nonlocal correlation = 9.995378623993e-02
 Nonlocal correlation = 9.995380520522e-02
   58      4.20e-03     00000 Davidson Iteration
computing hessian-vector products by finite difference
 Nonlocal correlation = 9.995376555818e-02
 Nonlocal correlation = 9.995383962755e-02
 Nonlocal correlation = 9.995377582654e-02
 Nonlocal correlation = 9.995383104950e-02
 Nonlocal correlation = 9.995380520522e-02
   59      4.18e-03     00000 Davidson Iteration
computing hessian-vector products by finite difference
 Nonlocal correlation = 9.995373149189e-02
 Nonlocal correlation = 9.995387469798e-02
 Nonlocal correlation = 9.995367920108e-02
 Nonlocal correlation = 9.995392889602e-02
 Nonlocal correlation = 9.995380520522e-02
   60      4.31e-03     00000 Davidson Iteration
computing hessian-vector products by finite difference
 Nonlocal correlation = 9.995365964425e-02
 Nonlocal correlation = 9.995394643277e-02
 Nonlocal correlation = 9.995364976293e-02
 Nonlocal correlation = 9.995395823719e-02
 Nonlocal correlation = 9.995380520522e-02
   61      4.17e-03     00000 Davidson Iteration
computing hessian-vector products by finite difference
 Nonlocal correlation = 9.995375936520e-02
 Nonlocal correlation = 9.995384591531e-02
 Nonlocal correlation = 9.995386527977e-02
 Nonlocal correlation = 9.995374100305e-02
 Nonlocal correlation = 9.995380520522e-02
   62      4.15e-03     00000 Davidson Iteration
computing hessian-vector products by finite difference
 Nonlocal correlation = 9.995381217144e-02
 Nonlocal correlation = 9.995379309822e-02
 Nonlocal correlation = 9.995385593706e-02
 Nonlocal correlation = 9.995375115429e-02
 Nonlocal correlation = 9.995380520522e-02
   63      4.18e-03     00000 Davidson Iteration
computing hessian-vector products by finite difference
 Nonlocal correlation = 9.995381780169e-02
 Nonlocal correlation = 9.995378830019e-02
 Nonlocal correlation = 9.995377925566e-02
 Nonlocal correlation = 9.995382871576e-02
 Nonlocal correlation = 9.995380520522e-02
   64      4.60e-03     00000 Davidson Iteration
computing hessian-vector products by finite difference
 Nonlocal correlation = 9.995374021491e-02
 Nonlocal correlation = 9.995386677874e-02
 Nonlocal correlation = 9.995377640028e-02
 Nonlocal correlation = 9.995382989475e-02
 Nonlocal correlation = 9.995380520522e-02
   65      4.30e-03     00000 Davidson Iteration
computing hessian-vector products by finite difference
 Nonlocal correlation = 9.995378501476e-02
 Nonlocal correlation = 9.995382029543e-02
 Nonlocal correlation = 9.995393204023e-02
 Nonlocal correlation = 9.995367405261e-02
 Nonlocal correlation = 9.995380520522e-02
   66      4.57e-03     00000 Davidson Iteration
computing hessian-vector products by finite difference
 Nonlocal correlation = 9.995384549047e-02
 Nonlocal correlation = 9.995375979884e-02
 Nonlocal correlation = 9.995401717682e-02
 Nonlocal correlation = 9.995358809648e-02
 Nonlocal correlation = 9.995380520522e-02
   67      4.64e-03     00000 Davidson Iteration
computing hessian-vector products by finite difference
 Nonlocal correlation = 9.995378450334e-02
 Nonlocal correlation = 9.995381762894e-02
 Nonlocal correlation = 9.995380463555e-02
 Nonlocal correlation = 9.995380082132e-02
 Nonlocal correlation = 9.995380520522e-02
   68      4.75e-03     00000 Davidson Iteration
computing hessian-vector products by finite difference
 Nonlocal correlation = 9.995370455627e-02
 Nonlocal correlation = 9.995390052191e-02
 Nonlocal correlation = 9.995380103302e-02
 Nonlocal correlation = 9.995380493798e-02
 Nonlocal correlation = 9.995380520522e-02
   69      4.58e-03     00000 Davidson Iteration
computing hessian-vector products by finite difference
 Nonlocal correlation = 9.995368458562e-02
 Nonlocal correlation = 9.995392041447e-02
 Nonlocal correlation = 9.995388749423e-02
 Nonlocal correlation = 9.995371937387e-02
 Nonlocal correlation = 9.995380520522e-02
   70      4.42e-03     00000 Davidson Iteration
computing hessian-vector products by finite difference
 Nonlocal correlation = 9.995376480341e-02
 Nonlocal correlation = 9.995384047208e-02
 Nonlocal correlation = 9.995374523004e-02
 Nonlocal correlation = 9.995386175157e-02
 Nonlocal correlation = 9.995380520522e-02
   71      4.26e-03     00000 Davidson Iteration
computing hessian-vector products by finite difference
 Nonlocal correlation = 9.995377970145e-02
 Nonlocal correlation = 9.995382548463e-02
 Nonlocal correlation = 9.995380907202e-02
 Nonlocal correlation = 9.995379689870e-02
 Nonlocal correlation = 9.995380520522e-02
   72      4.25e-03     00000 Davidson Iteration
computing hessian-vector products by finite difference
 Nonlocal correlation = 9.995371875904e-02
 Nonlocal correlation = 9.995388742018e-02
 Nonlocal correlation = 9.995379550926e-02
 Nonlocal correlation = 9.995380966540e-02
 Nonlocal correlation = 9.995380520522e-02
   73      4.22e-03     00000 Davidson Iteration
computing hessian-vector products by finite difference
 Nonlocal correlation = 9.995389970966e-02
 Nonlocal correlation = 9.995370827963e-02
 Nonlocal correlation = 9.995366971675e-02
 Nonlocal correlation = 9.995393636234e-02
 Nonlocal correlation = 9.995380520522e-02
   74      4.20e-03     00000 Davidson Iteration
computing hessian-vector products by finite difference
 Nonlocal correlation = 9.995385524111e-02
 Nonlocal correlation = 9.995375083200e-02
 Nonlocal correlation = 9.995387456514e-02
 Nonlocal correlation = 9.995373150410e-02
 Nonlocal correlation = 9.995380520522e-02
   75      4.19e-03     00000 Davidson Iteration
computing hessian-vector products by finite difference
 Nonlocal correlation = 9.995379903248e-02
 Nonlocal correlation = 9.995380864074e-02
 Nonlocal correlation = 9.995384785782e-02
 Nonlocal correlation = 9.995375842187e-02
 Nonlocal correlation = 9.995380520522e-02
   76      4.19e-03     00000 Davidson Iteration
computing hessian-vector products by finite difference
 Nonlocal correlation = 9.995380806622e-02
 Nonlocal correlation = 9.995379822333e-02
 Nonlocal correlation = 9.995389843891e-02
 Nonlocal correlation = 9.995370775181e-02
 Nonlocal correlation = 9.995380520522e-02
   77      4.20e-03     00000 Davidson Iteration
computing hessian-vector products by finite difference
 Nonlocal correlation = 9.995377412114e-02
 Nonlocal correlation = 9.995383295137e-02
 Nonlocal correlation = 9.995390901632e-02
 Nonlocal correlation = 9.995369885923e-02
 Nonlocal correlation = 9.995380520522e-02
   78      4.23e-03     00000 Davidson Iteration
computing hessian-vector products by finite difference
 Nonlocal correlation = 9.995370311724e-02
 Nonlocal correlation = 9.995390306165e-02
 Nonlocal correlation = 9.995372287189e-02
 Nonlocal correlation = 9.995388252502e-02
 Nonlocal correlation = 9.995380520522e-02
   79      4.25e-03     00000 Davidson Iteration
computing hessian-vector products by finite difference
 Nonlocal correlation = 9.995389264383e-02
 Nonlocal correlation = 9.995371364085e-02
 Nonlocal correlation = 9.995388630611e-02
 Nonlocal correlation = 9.995371907510e-02
 Nonlocal correlation = 9.995380520522e-02
   80      4.31e-03     00000 Davidson Iteration
computing hessian-vector products by finite difference
 Nonlocal correlation = 9.995381341120e-02
 Nonlocal correlation = 9.995378872014e-02
 Nonlocal correlation = 9.995380244742e-02
 Nonlocal correlation = 9.995380300552e-02
 Nonlocal correlation = 9.995380520522e-02
   81      4.28e-03     00000 Davidson Iteration
computing hessian-vector products by finite difference
 Nonlocal correlation = 9.995384409408e-02
 Nonlocal correlation = 9.995376200447e-02
 Nonlocal correlation = 9.995377048630e-02
 Nonlocal correlation = 9.995383577985e-02
 Nonlocal correlation = 9.995380520522e-02
   82      4.34e-03     00000 Davidson Iteration
computing hessian-vector products by finite difference
 Nonlocal correlation = 9.995392591893e-02
 Nonlocal correlation = 9.995368265755e-02
 Nonlocal correlation = 9.995388454458e-02
 Nonlocal correlation = 9.995372061740e-02
 Nonlocal correlation = 9.995380520522e-02
   83      4.28e-03     00000 Davidson Iteration
computing hessian-vector products by finite difference
 Nonlocal correlation = 9.995377912606e-02
 Nonlocal correlation = 9.995382705133e-02
 Nonlocal correlation = 9.995373696137e-02
 Nonlocal correlation = 9.995386821533e-02
 Nonlocal correlation = 9.995380520522e-02
   84      4.29e-03     00000 Davidson Iteration
computing hessian-vector products by finite difference
 Nonlocal correlation = 9.995384062661e-02
 Nonlocal correlation = 9.995376635488e-02
 Nonlocal correlation = 9.995385283004e-02
 Nonlocal correlation = 9.995375234378e-02
 Nonlocal correlation = 9.995380520522e-02
   85      4.29e-03     00000 Davidson Iteration
computing hessian-vector products by finite difference
 Nonlocal correlation = 9.995376783563e-02
 Nonlocal correlation = 9.995383713610e-02
 Nonlocal correlation = 9.995379773832e-02
 Nonlocal correlation = 9.995380934909e-02
 Nonlocal correlation = 9.995380520522e-02
   86      4.30e-03     00000 Davidson Iteration
computing hessian-vector products by finite difference
 Nonlocal correlation = 9.995382115902e-02
 Nonlocal correlation = 9.995378592741e-02
 Nonlocal correlation = 9.995399275293e-02
 Nonlocal correlation = 9.995361614698e-02
 Nonlocal correlation = 9.995380520522e-02
   87      4.30e-03     00000 Davidson Iteration
computing hessian-vector products by finite difference
 Nonlocal correlation = 9.995389561134e-02
 Nonlocal correlation = 9.995371045134e-02
 Nonlocal correlation = 9.995368882799e-02
 Nonlocal correlation = 9.995391736361e-02
 Nonlocal correlation = 9.995380520522e-02
   88      4.36e-03     00000 Davidson Iteration
computing hessian-vector products by finite difference
 Nonlocal correlation = 9.995380467786e-02
 Nonlocal correlation = 9.995380243039e-02
 Nonlocal correlation = 9.995373884745e-02
 Nonlocal correlation = 9.995386905267e-02
 Nonlocal correlation = 9.995380520522e-02
   89      4.38e-03     00000 Davidson Iteration
computing hessian-vector products by finite difference
 Nonlocal correlation = 9.995381055239e-02
 Nonlocal correlation = 9.995379653004e-02
 Nonlocal correlation = 9.995388258469e-02
 Nonlocal correlation = 9.995372351694e-02
 Nonlocal correlation = 9.995380520522e-02
   90      4.39e-03     00000 Davidson Iteration
computing hessian-vector products by finite difference
 Nonlocal correlation = 9.995377215231e-02
 Nonlocal correlation = 9.995383313592e-02
 Nonlocal correlation = 9.995387296670e-02
 Nonlocal correlation = 9.995373311194e-02
 Nonlocal correlation = 9.995380520522e-02
   91      4.30e-03     00000 Davidson Iteration
computing hessian-vector products by finite difference
 Nonlocal correlation = 9.995378133186e-02
 Nonlocal correlation = 9.995382396890e-02
 Nonlocal correlation = 9.995385890920e-02
 Nonlocal correlation = 9.995374627678e-02
 Nonlocal correlation = 9.995380520522e-02
   92      4.36e-03     00000 Davidson Iteration
computing hessian-vector products by finite difference
 Nonlocal correlation = 9.995385582929e-02
 Nonlocal correlation = 9.995374945503e-02
 Nonlocal correlation = 9.995379990449e-02
 Nonlocal correlation = 9.995380635353e-02
 Nonlocal correlation = 9.995380520522e-02
   93      4.69e-03     00000 Davidson Iteration
computing hessian-vector products by finite difference
 Nonlocal correlation = 9.995380936627e-02
 Nonlocal correlation = 9.995379277129e-02
 Nonlocal correlation = 9.995380475830e-02
 Nonlocal correlation = 9.995380070075e-02
 Nonlocal correlation = 9.995380520522e-02
   94      4.70e-03     00000 Davidson Iteration
computing hessian-vector products by finite difference
 Nonlocal correlation = 9.995383425642e-02
 Nonlocal correlation = 9.995377092697e-02
 Nonlocal correlation = 9.995383443712e-02
 Nonlocal correlation = 9.995377094936e-02
 Nonlocal correlation = 9.995380520522e-02
   95      4.68e-03     00000 Davidson Iteration
computing hessian-vector products by finite difference
 Nonlocal correlation = 9.995383283630e-02
 Nonlocal correlation = 9.995377332437e-02
 Nonlocal correlation = 9.995390645182e-02
 Nonlocal correlation = 9.995369862870e-02
 Nonlocal correlation = 9.995380520522e-02
   96      4.39e-03     00000 Davidson Iteration
computing hessian-vector products by finite difference
 Nonlocal correlation = 9.995372298283e-02
 Nonlocal correlation = 9.995388240566e-02
 Nonlocal correlation = 9.995387934746e-02
 Nonlocal correlation = 9.995372783738e-02
 Nonlocal correlation = 9.995380520522e-02
   97      4.38e-03     00000 Davidson Iteration
computing hessian-vector products by finite difference
 Nonlocal correlation = 9.995380308895e-02
 Nonlocal correlation = 9.995380308958e-02
 Nonlocal correlation = 9.995399057243e-02
 Nonlocal correlation = 9.995361651089e-02
 Nonlocal correlation = 9.995380520522e-02
   98      4.29e-03     00000 Davidson Iteration
computing hessian-vector products by finite difference
 Nonlocal correlation = 9.995376759375e-02
 Nonlocal correlation = 9.995383848734e-02
 Nonlocal correlation = 9.995386526802e-02
 Nonlocal correlation = 9.995373991656e-02
 Nonlocal correlation = 9.995380520522e-02
   99      4.32e-03     00000 Davidson Iteration
computing hessian-vector products by finite difference
 Nonlocal correlation = 9.995375377386e-02
 Nonlocal correlation = 9.995385162023e-02
 Nonlocal correlation = 9.995386804564e-02
 Nonlocal correlation = 9.995373792426e-02
 Nonlocal correlation = 9.995380520522e-02
  100      4.24e-03     00000 Davidson Iteration
computing hessian-vector products by finite difference
 Nonlocal correlation = 9.995390540077e-02
 Nonlocal correlation = 9.995369998326e-02
 Nonlocal correlation = 9.995372864751e-02
 Nonlocal correlation = 9.995387664026e-02
 Nonlocal correlation = 9.995380520522e-02
  101      4.29e-03     00000 Davidson Iteration
computing hessian-vector products by finite difference
 Nonlocal correlation = 9.995402685380e-02
 Nonlocal correlation = 9.995357942061e-02
 Nonlocal correlation = 9.995391116255e-02
 Nonlocal correlation = 9.995369511870e-02
 Nonlocal correlation = 9.995380520522e-02
  102      4.26e-03     00000 Davidson Iteration
computing hessian-vector products by finite difference
 Nonlocal correlation = 9.995364241184e-02
 Nonlocal correlation = 9.995396288071e-02
 Nonlocal correlation = 9.995381892301e-02
 Nonlocal correlation = 9.995378647044e-02
 Nonlocal correlation = 9.995380520522e-02
  103      4.31e-03     00000 Davidson Iteration
computing hessian-vector products by finite difference
 Nonlocal correlation = 9.995378319163e-02
 Nonlocal correlation = 9.995382289440e-02
 Nonlocal correlation = 9.995387132594e-02
 Nonlocal correlation = 9.995373485084e-02
 Nonlocal correlation = 9.995380520522e-02
  104      4.27e-03     00000 Davidson Iteration
computing hessian-vector products by finite difference
 Nonlocal correlation = 9.995378017908e-02
 Nonlocal correlation = 9.995382581127e-02
 Nonlocal correlation = 9.995384905320e-02
 Nonlocal correlation = 9.995375792321e-02
 Nonlocal correlation = 9.995380520522e-02
  105      4.26e-03     00000 Davidson Iteration
computing hessian-vector products by finite difference
 Nonlocal correlation = 9.995376039074e-02
 Nonlocal correlation = 9.995384669212e-02
 Nonlocal correlation = 9.995386286765e-02
 Nonlocal correlation = 9.995374511730e-02
 Nonlocal correlation = 9.995380520522e-02
  106      4.26e-03     00000 Davidson Iteration
computing hessian-vector products by finite difference
 Nonlocal correlation = 9.995379821462e-02
 Nonlocal correlation = 9.995380383483e-02
 Nonlocal correlation = 9.995380316562e-02
 Nonlocal correlation = 9.995380229496e-02
 Nonlocal correlation = 9.995380520522e-02
  107      4.26e-03     00000 Davidson Iteration
computing hessian-vector products by finite difference
 Nonlocal correlation = 9.995377412565e-02
 Nonlocal correlation = 9.995383117492e-02
 Nonlocal correlation = 9.995377401388e-02
 Nonlocal correlation = 9.995383136017e-02
 Nonlocal correlation = 9.995380520522e-02
  108      4.28e-03     00000 Davidson Iteration
computing hessian-vector products by finite difference
 Nonlocal correlation = 9.995375355445e-02
 Nonlocal correlation = 9.995385271777e-02
 Nonlocal correlation = 9.995377600114e-02
 Nonlocal correlation = 9.995383027294e-02
 Nonlocal correlation = 9.995380520522e-02
  109      4.28e-03     00000 Davidson Iteration
computing hessian-vector products by finite difference
 Nonlocal correlation = 9.995385291284e-02
 Nonlocal correlation = 9.995375237217e-02
 Nonlocal correlation = 9.995391101030e-02
 Nonlocal correlation = 9.995369406282e-02
 Nonlocal correlation = 9.995380520522e-02
  110      4.25e-03     00000 Davidson Iteration
computing hessian-vector products by finite difference
 Nonlocal correlation = 9.995389077702e-02
 Nonlocal correlation = 9.995371540712e-02
 Nonlocal correlation = 9.995381605479e-02
 Nonlocal correlation = 9.995379011964e-02
 Nonlocal correlation = 9.995380520522e-02
  111      4.26e-03     00000 Davidson Iteration
computing hessian-vector products by finite difference
 Nonlocal correlation = 9.995377043112e-02
 Nonlocal correlation = 9.995383476913e-02
 Nonlocal correlation = 9.995376019887e-02
 Nonlocal correlation = 9.995384778241e-02
 Nonlocal correlation = 9.995380520522e-02
  112      4.25e-03     00000 Davidson Iteration
computing hessian-vector products by finite difference
 Nonlocal correlation = 9.995374487138e-02
 Nonlocal correlation = 9.995386121676e-02
 Nonlocal correlation = 9.995390454664e-02
 Nonlocal correlation = 9.995370254059e-02
 Nonlocal correlation = 9.995380520522e-02
  113      4.25e-03     00000 Davidson Iteration
computing hessian-vector products by finite difference
 Nonlocal correlation = 9.995374487877e-02
 Nonlocal correlation = 9.995386042561e-02
 Nonlocal correlation = 9.995396735329e-02
 Nonlocal correlation = 9.995363892707e-02
 Nonlocal correlation = 9.995380520522e-02
  114      4.25e-03     00000 Davidson Iteration
computing hessian-vector products by finite difference
 Nonlocal correlation = 9.995379436378e-02
 Nonlocal correlation = 9.995381103921e-02
 Nonlocal correlation = 9.995395653158e-02
 Nonlocal correlation = 9.995364864652e-02
 Nonlocal correlation = 9.995380520522e-02
  115      4.26e-03     00000 Davidson Iteration
computing hessian-vector products by finite difference
 Nonlocal correlation = 9.995375395620e-02
 Nonlocal correlation = 9.995385135190e-02
 Nonlocal correlation = 9.995382959175e-02
 Nonlocal correlation = 9.995377669800e-02
 Nonlocal correlation = 9.995380520522e-02
  116      4.26e-03     00000 Davidson Iteration
computing hessian-vector products by finite difference
 Nonlocal correlation = 9.995375664160e-02
 Nonlocal correlation = 9.995385044658e-02
 Nonlocal correlation = 9.995379332615e-02
 Nonlocal correlation = 9.995381366685e-02
 Nonlocal correlation = 9.995380520522e-02
  117      4.33e-03     00000 Davidson Iteration
computing hessian-vector products by finite difference
 Nonlocal correlation = 9.995378118795e-02
 Nonlocal correlation = 9.995382421931e-02
 Nonlocal correlation = 9.995387195625e-02
 Nonlocal correlation = 9.995373502135e-02
 Nonlocal correlation = 9.995380520522e-02
  118      4.29e-03     00000 Davidson Iteration
computing hessian-vector products by finite difference
 Nonlocal correlation = 9.995390600542e-02
 Nonlocal correlation = 9.995369936882e-02
 Nonlocal correlation = 9.995373677002e-02
 Nonlocal correlation = 9.995386940273e-02
 Nonlocal correlation = 9.995380520522e-02
  119      4.32e-03     00000 Davidson Iteration
computing hessian-vector products by finite difference
 Nonlocal correlation = 9.995380268126e-02
 Nonlocal correlation = 9.995379939033e-02
 Nonlocal correlation = 9.995379931889e-02
 Nonlocal correlation = 9.995380614267e-02
 Nonlocal correlation = 9.995380520522e-02
  120      4.30e-03     00000 Davidson Iteration
computing hessian-vector products by finite difference
 Nonlocal correlation = 9.995380473704e-02
 Nonlocal correlation = 9.995380068150e-02
 Nonlocal correlation = 9.995379831725e-02
 Nonlocal correlation = 9.995380673660e-02
 Nonlocal correlation = 9.995380520522e-02
  121      4.28e-03     00000 Davidson Iteration
computing hessian-vector products by finite difference
 Nonlocal correlation = 9.995381175672e-02
 Nonlocal correlation = 9.995379610268e-02
 Nonlocal correlation = 9.995377614274e-02
 Nonlocal correlation = 9.995383274708e-02
 Nonlocal correlation = 9.995380520522e-02
  122      4.24e-03     00000 Davidson Iteration
computing hessian-vector products by finite difference
 Nonlocal correlation = 9.995377018269e-02
 Nonlocal correlation = 9.995383509830e-02
 Nonlocal correlation = 9.995387902809e-02
 Nonlocal correlation = 9.995372794863e-02
 Nonlocal correlation = 9.995380520522e-02
  123      4.31e-03     00000 Davidson Iteration
computing hessian-vector products by finite difference
 Nonlocal correlation = 9.995372759679e-02
 Nonlocal correlation = 9.995387746416e-02
 Nonlocal correlation = 9.995395815574e-02
 Nonlocal correlation = 9.995364721302e-02
 Nonlocal correlation = 9.995380520522e-02
  124      4.30e-03     00000 Davidson Iteration
computing hessian-vector products by finite difference
 Nonlocal correlation = 9.995380568151e-02
 Nonlocal correlation = 9.995379969998e-02
 Nonlocal correlation = 9.995391113199e-02
 Nonlocal correlation = 9.995369585078e-02
 Nonlocal correlation = 9.995380520522e-02
  125      4.26e-03     00000 Davidson Iteration
computing hessian-vector products by finite difference
 Nonlocal correlation = 9.995398617446e-02
 Nonlocal correlation = 9.995362059814e-02
 Nonlocal correlation = 9.995390747695e-02
 Nonlocal correlation = 9.995370121467e-02
 Nonlocal correlation = 9.995380520522e-02
  126      4.28e-03     00000 Davidson Iteration
computing hessian-vector products by finite difference
 Nonlocal correlation = 9.995360865314e-02
 Nonlocal correlation = 9.995399741645e-02
 Nonlocal correlation = 9.995390901551e-02
 Nonlocal correlation = 9.995369728907e-02
 Nonlocal correlation = 9.995380520522e-02
  127      4.33e-03     00000 Davidson Iteration
computing hessian-vector products by finite difference
 Nonlocal correlation = 9.995379729141e-02
 Nonlocal correlation = 9.995381069805e-02
 Nonlocal correlation = 9.995378754033e-02
 Nonlocal correlation = 9.995382135921e-02
 Nonlocal correlation = 9.995380520522e-02
  128      4.30e-03     00000 Davidson Iteration
computing hessian-vector products by finite difference
 Nonlocal correlation = 9.995364717616e-02
 Nonlocal correlation = 9.995395901505e-02
 Nonlocal correlation = 9.995371511292e-02
 Nonlocal correlation = 9.995389016796e-02
 Nonlocal correlation = 9.995380520522e-02
  129      4.34e-03     00000 Davidson Iteration
computing hessian-vector products by finite difference
 Nonlocal correlation = 9.995362837841e-02
 Nonlocal correlation = 9.995397789640e-02
 Nonlocal correlation = 9.995386249597e-02
 Nonlocal correlation = 9.995374267120e-02
 Nonlocal correlation = 9.995380520522e-02
  130      4.30e-03     00000 Davidson Iteration
computing hessian-vector products by finite difference
 Nonlocal correlation = 9.995380211475e-02
 Nonlocal correlation = 9.995380406130e-02
 Nonlocal correlation = 9.995389238840e-02
 Nonlocal correlation = 9.995371379461e-02
 Nonlocal correlation = 9.995380520522e-02
  131      4.34e-03     00000 Davidson Iteration
computing hessian-vector products by finite difference
 Nonlocal correlation = 9.995384095865e-02
 Nonlocal correlation = 9.995376431829e-02
 Nonlocal correlation = 9.995377725116e-02
 Nonlocal correlation = 9.995382811323e-02
 Nonlocal correlation = 9.995380520522e-02
  132      4.32e-03     00000 Davidson Iteration
computing hessian-vector products by finite difference
 Nonlocal correlation = 9.995380720880e-02
 Nonlocal correlation = 9.995379486126e-02
 Nonlocal correlation = 9.995380324347e-02
 Nonlocal correlation = 9.995380221632e-02
 Nonlocal correlation = 9.995380520522e-02
  133      4.32e-03     00000 Davidson Iteration
computing hessian-vector products by finite difference
 Nonlocal correlation = 9.995383960952e-02
 Nonlocal correlation = 9.995376546746e-02
 Nonlocal correlation = 9.995374883853e-02
 Nonlocal correlation = 9.995385655482e-02
 Nonlocal correlation = 9.995380520522e-02
  134      4.40e-03     00000 Davidson Iteration
computing hessian-vector products by finite difference
 Nonlocal correlation = 9.995388792759e-02
 Nonlocal correlation = 9.995371834989e-02
 Nonlocal correlation = 9.995390413909e-02
 Nonlocal correlation = 9.995370104252e-02
 Nonlocal correlation = 9.995380520522e-02
  135      4.36e-03     00000 Davidson Iteration
computing hessian-vector products by finite difference
 Nonlocal correlation = 9.995378408075e-02
 Nonlocal correlation = 9.995382129573e-02
 Nonlocal correlation = 9.995380297553e-02
 Nonlocal correlation = 9.995380229859e-02
 Nonlocal correlation = 9.995380520522e-02
  136      4.29e-03     00000 Davidson Iteration
computing hessian-vector products by finite difference
 Nonlocal correlation = 9.995378574412e-02
 Nonlocal correlation = 9.995382043651e-02
 Nonlocal correlation = 9.995371987039e-02
 Nonlocal correlation = 9.995388550549e-02
 Nonlocal correlation = 9.995380520522e-02
  137      4.30e-03     00000 Davidson Iteration
computing hessian-vector products by finite difference
 Nonlocal correlation = 9.995387618643e-02
 Nonlocal correlation = 9.995372908793e-02
 Nonlocal correlation = 9.995396568974e-02
 Nonlocal correlation = 9.995364060432e-02
 Nonlocal correlation = 9.995380520522e-02
  138      4.30e-03     00000 Davidson Iteration
computing hessian-vector products by finite difference
 Nonlocal correlation = 9.995394500506e-02
 Nonlocal correlation = 9.995366096729e-02
 Nonlocal correlation = 9.995365643912e-02
 Nonlocal correlation = 9.995394984963e-02
 Nonlocal correlation = 9.995380520522e-02
  139      4.31e-03     00000 Davidson Iteration
computing hessian-vector products by finite difference
 Nonlocal correlation = 9.995384629921e-02
 Nonlocal correlation = 9.995376068306e-02
 Nonlocal correlation = 9.995375667114e-02
 Nonlocal correlation = 9.995385041886e-02
 Nonlocal correlation = 9.995380520522e-02
  140      4.32e-03     00000 Davidson Iteration
computing hessian-vector products by finite difference
 Nonlocal correlation = 9.995384263953e-02
 Nonlocal correlation = 9.995376365319e-02
 Nonlocal correlation = 9.995382189235e-02
 Nonlocal correlation = 9.995378429750e-02
 Nonlocal correlation = 9.995380520522e-02
  141      4.34e-03     00000 Davidson Iteration
computing hessian-vector products by finite difference
 Nonlocal correlation = 9.995382180307e-02
 Nonlocal correlation = 9.995378448234e-02
 Nonlocal correlation = 9.995372042363e-02
 Nonlocal correlation = 9.995388666503e-02
 Nonlocal correlation = 9.995380520522e-02
  142      4.32e-03     00000 Davidson Iteration
computing hessian-vector products by finite difference
 Nonlocal correlation = 9.995377798681e-02
 Nonlocal correlation = 9.995382919231e-02
 Nonlocal correlation = 9.995374436018e-02
 Nonlocal correlation = 9.995386271560e-02
 Nonlocal correlation = 9.995380520522e-02
  143      4.32e-03     00000 Davidson Iteration
computing hessian-vector products by finite difference
 Nonlocal correlation = 9.995382904783e-02
 Nonlocal correlation = 9.995377722646e-02
 Nonlocal correlation = 9.995390443519e-02
 Nonlocal correlation = 9.995370273838e-02
 Nonlocal correlation = 9.995380520522e-02
  144      4.32e-03     00000 Davidson Iteration
computing hessian-vector products by finite difference
 Nonlocal correlation = 9.995364323222e-02
 Nonlocal correlation = 9.995396295089e-02
 Nonlocal correlation = 9.995397414390e-02
 Nonlocal correlation = 9.995363393934e-02
 Nonlocal correlation = 9.995380520522e-02
  145      4.33e-03     00000 Davidson Iteration
computing hessian-vector products by finite difference
 Nonlocal correlation = 9.995380093898e-02
 Nonlocal correlation = 9.995380103367e-02
 Nonlocal correlation = 9.995380378862e-02
 Nonlocal correlation = 9.995380167191e-02
 Nonlocal correlation = 9.995380520522e-02
  146      4.33e-03     00000 Davidson Iteration
computing hessian-vector products by finite difference
 Nonlocal correlation = 9.995381335573e-02
 Nonlocal correlation = 9.995379206036e-02
 Nonlocal correlation = 9.995382240768e-02
 Nonlocal correlation = 9.995378387613e-02
 Nonlocal correlation = 9.995380520522e-02
  147      4.32e-03     00000 Davidson Iteration
computing hessian-vector products by finite difference
 Nonlocal correlation = 9.995386079869e-02
 Nonlocal correlation = 9.995374627352e-02
 Nonlocal correlation = 9.995382410669e-02
 Nonlocal correlation = 9.995378108100e-02
 Nonlocal correlation = 9.995380520522e-02
  148      4.32e-03     00000 Davidson Iteration
computing hessian-vector products by finite difference
 Nonlocal correlation = 9.995378690210e-02
 Nonlocal correlation = 9.995382117224e-02
 Nonlocal correlation = 9.995396724474e-02
 Nonlocal correlation = 9.995363814353e-02
 Nonlocal correlation = 9.995380520522e-02
  149      4.34e-03     00000 Davidson Iteration
computing hessian-vector products by finite difference
 Nonlocal correlation = 9.995379034643e-02
 Nonlocal correlation = 9.995381824451e-02
 Nonlocal correlation = 9.995370070582e-02
 Nonlocal correlation = 9.995390456178e-02
 Nonlocal correlation = 9.995380520522e-02
  150      4.34e-03     00000 Davidson Iteration
computing hessian-vector products by finite difference
 Nonlocal correlation = 9.995376391254e-02
 Nonlocal correlation = 9.995384125958e-02
 Nonlocal correlation = 9.995366486130e-02
 Nonlocal correlation = 9.995394231921e-02
 Nonlocal correlation = 9.995380520522e-02
  151      4.33e-03     00000 Davidson Iteration
computing hessian-vector products by finite difference
 Nonlocal correlation = 9.995389909517e-02
 Nonlocal correlation = 9.995370698225e-02
 Nonlocal correlation = 9.995396331039e-02
 Nonlocal correlation = 9.995364557956e-02
 Nonlocal correlation = 9.995380520522e-02
  152      4.35e-03     00000 Davidson Iteration
computing hessian-vector products by finite difference
 Nonlocal correlation = 9.995369212266e-02
 Nonlocal correlation = 9.995391395547e-02
 Nonlocal correlation = 9.995393520652e-02
 Nonlocal correlation = 9.995367177346e-02
 Nonlocal correlation = 9.995380520522e-02
  153      4.34e-03     00000 Davidson Iteration
computing hessian-vector products by finite difference
 Nonlocal correlation = 9.995396376017e-02
 Nonlocal correlation = 9.995364151230e-02
 Nonlocal correlation = 9.995392567408e-02
 Nonlocal correlation = 9.995368120921e-02
 Nonlocal correlation = 9.995380520522e-02
  154      4.30e-03     00000 Davidson Iteration
computing hessian-vector products by finite difference
 Nonlocal correlation = 9.995383824728e-02
 Nonlocal correlation = 9.995376703256e-02
 Nonlocal correlation = 9.995383878298e-02
 Nonlocal correlation = 9.995376718976e-02
 Nonlocal correlation = 9.995380520522e-02
  155      4.35e-03     00000 Davidson Iteration
computing hessian-vector products by finite difference
 Nonlocal correlation = 9.995377472657e-02
 Nonlocal correlation = 9.995383046436e-02
 Nonlocal correlation = 9.995378395245e-02
 Nonlocal correlation = 9.995382404084e-02
 Nonlocal correlation = 9.995380520522e-02
  156      4.34e-03     00000 Davidson Iteration
computing hessian-vector products by finite difference
 Nonlocal correlation = 9.995378657053e-02
 Nonlocal correlation = 9.995382131130e-02
 Nonlocal correlation = 9.995377305450e-02
 Nonlocal correlation = 9.995383312741e-02
 Nonlocal correlation = 9.995380520522e-02
  157      4.33e-03     00000 Davidson Iteration
computing hessian-vector products by finite difference
 Nonlocal correlation = 9.995372288639e-02
 Nonlocal correlation = 9.995388238659e-02
 Nonlocal correlation = 9.995382029957e-02
 Nonlocal correlation = 9.995378587793e-02
 Nonlocal correlation = 9.995380520522e-02
  158      4.33e-03     00000 Davidson Iteration
computing hessian-vector products by finite difference
 Nonlocal correlation = 9.995380126316e-02
 Nonlocal correlation = 9.995380081288e-02
 Nonlocal correlation = 9.995380368813e-02
 Nonlocal correlation = 9.995380268565e-02
 Nonlocal correlation = 9.995380520522e-02
  159      4.31e-03     00000 Davidson Iteration
computing hessian-vector products by finite difference
 Nonlocal correlation = 9.995378841266e-02
 Nonlocal correlation = 9.995381690185e-02
 Nonlocal correlation = 9.995383259724e-02
 Nonlocal correlation = 9.995377245857e-02
 Nonlocal correlation = 9.995380520522e-02
  160      4.31e-03     00000 Davidson Iteration
computing hessian-vector products by finite difference
 Nonlocal correlation = 9.995390527094e-02
 Nonlocal correlation = 9.995370079048e-02
 Nonlocal correlation = 9.995390932369e-02
 Nonlocal correlation = 9.995369765066e-02
 Nonlocal correlation = 9.995380520522e-02
  161      4.33e-03     00000 Davidson Iteration
computing hessian-vector products by finite difference
 Nonlocal correlation = 9.995396981449e-02
 Nonlocal correlation = 9.995363705621e-02
 Nonlocal correlation = 9.995387856118e-02
 Nonlocal correlation = 9.995372672865e-02
 Nonlocal correlation = 9.995380520522e-02
  162      4.33e-03     00000 Davidson Iteration
computing hessian-vector products by finite difference
 Nonlocal correlation = 9.995383600381e-02
 Nonlocal correlation = 9.995377097344e-02
 Nonlocal correlation = 9.995381989321e-02
 Nonlocal correlation = 9.995378708724e-02
 Nonlocal correlation = 9.995380520522e-02
  163      4.34e-03     00000 Davidson Iteration
computing hessian-vector products by finite difference
 Nonlocal correlation = 9.995377027902e-02
 Nonlocal correlation = 9.995383660074e-02
 Nonlocal correlation = 9.995368732552e-02
 Nonlocal correlation = 9.995391786515e-02
 Nonlocal correlation = 9.995380520522e-02
  164      4.34e-03     00000 Davidson Iteration
computing hessian-vector products by finite difference
 Nonlocal correlation = 9.995368947285e-02
 Nonlocal correlation = 9.995391752716e-02
 Nonlocal correlation = 9.995381177848e-02
 Nonlocal correlation = 9.995379360536e-02
 Nonlocal correlation = 9.995380520522e-02
  165      4.37e-03     00000 Davidson Iteration
computing hessian-vector products by finite difference
 Nonlocal correlation = 9.995385805556e-02
 Nonlocal correlation = 9.995374893994e-02
 Nonlocal correlation = 9.995385736551e-02
 Nonlocal correlation = 9.995374882495e-02
 Nonlocal correlation = 9.995380520522e-02
  166      4.36e-03     00000 Davidson Iteration
computing hessian-vector products by finite difference
 Nonlocal correlation = 9.995391650683e-02
 Nonlocal correlation = 9.995368866871e-02
 Nonlocal correlation = 9.995373476222e-02
 Nonlocal correlation = 9.995387131490e-02
 Nonlocal correlation = 9.995380520522e-02
  167      4.36e-03     00000 Davidson Iteration
computing hessian-vector products by finite difference
 Nonlocal correlation = 9.995372701563e-02
 Nonlocal correlation = 9.995387828073e-02
 Nonlocal correlation = 9.995388819879e-02
 Nonlocal correlation = 9.995371810151e-02
 Nonlocal correlation = 9.995380520522e-02
  168      4.33e-03     00000 Davidson Iteration
computing hessian-vector products by finite difference
 Nonlocal correlation = 9.995381092146e-02
 Nonlocal correlation = 9.995379436012e-02
 Nonlocal correlation = 9.995385079900e-02
 Nonlocal correlation = 9.995375549523e-02
 Nonlocal correlation = 9.995380520522e-02
  169      4.40e-03     00000 Davidson Iteration
computing hessian-vector products by finite difference
 Nonlocal correlation = 9.995373978862e-02
 Nonlocal correlation = 9.995386551461e-02
 Nonlocal correlation = 9.995377763403e-02
 Nonlocal correlation = 9.995382864620e-02
 Nonlocal correlation = 9.995380520522e-02
  170      4.35e-03     00000 Davidson Iteration
computing hessian-vector products by finite difference
 Nonlocal correlation = 9.995377121710e-02
 Nonlocal correlation = 9.995383406439e-02
 Nonlocal correlation = 9.995380250269e-02
 Nonlocal correlation = 9.995380367559e-02
 Nonlocal correlation = 9.995380520522e-02
  171      4.52e-03     00000 Davidson Iteration
computing hessian-vector products by finite difference
 Nonlocal correlation = 9.995379716637e-02
 Nonlocal correlation = 9.995380471180e-02
 Nonlocal correlation = 9.995379963687e-02
 Nonlocal correlation = 9.995380582622e-02
 Nonlocal correlation = 9.995380520522e-02
  172      4.52e-03     00000 Davidson Iteration
computing hessian-vector products by finite difference
 Nonlocal correlation = 9.995375377871e-02
 Nonlocal correlation = 9.995385154554e-02
 Nonlocal correlation = 9.995371269792e-02
 Nonlocal correlation = 9.995389256636e-02
 Nonlocal correlation = 9.995380520522e-02
  173      4.43e-03     00000 Davidson Iteration
computing hessian-vector products by finite difference
 Nonlocal correlation = 9.995390009619e-02
 Nonlocal correlation = 9.995370516468e-02
 Nonlocal correlation = 9.995395677060e-02
 Nonlocal correlation = 9.995364952208e-02
 Nonlocal correlation = 9.995380520522e-02
  174      4.43e-03     00000 Davidson Iteration
computing hessian-vector products by finite difference
 Nonlocal correlation = 9.995384239053e-02
 Nonlocal correlation = 9.995376297426e-02
 Nonlocal correlation = 9.995386502812e-02
 Nonlocal correlation = 9.995374094258e-02
 Nonlocal correlation = 9.995380520522e-02
  175      4.41e-03     00000 Davidson Iteration
computing hessian-vector products by finite difference
 Nonlocal correlation = 9.995387440112e-02
 Nonlocal correlation = 9.995373267328e-02
 Nonlocal correlation = 9.995382672536e-02
 Nonlocal correlation = 9.995377923982e-02
 Nonlocal correlation = 9.995380520522e-02
  176      4.35e-03     00000 Davidson Iteration
computing hessian-vector products by finite difference
 Nonlocal correlation = 9.995370820155e-02
 Nonlocal correlation = 9.995389697439e-02
 Nonlocal correlation = 9.995380969797e-02
 Nonlocal correlation = 9.995379718076e-02
 Nonlocal correlation = 9.995380520522e-02
  177      4.37e-03     00000 Davidson Iteration
computing hessian-vector products by finite difference
 Nonlocal correlation = 9.995375137300e-02
 Nonlocal correlation = 9.995385751989e-02
 Nonlocal correlation = 9.995375624492e-02
 Nonlocal correlation = 9.995384994049e-02
 Nonlocal correlation = 9.995380520522e-02
  178      4.37e-03     00000 Davidson Iteration
computing hessian-vector products by finite difference
 Nonlocal correlation = 9.995377219174e-02
 Nonlocal correlation = 9.995383489716e-02
 Nonlocal correlation = 9.995380314383e-02
 Nonlocal correlation = 9.995380464846e-02
 Nonlocal correlation = 9.995380520522e-02
  179      4.37e-03     00000 Davidson Iteration
computing hessian-vector products by finite difference
 Nonlocal correlation = 9.995379138083e-02
 Nonlocal correlation = 9.995381368011e-02
 Nonlocal correlation = 9.995377820410e-02
 Nonlocal correlation = 9.995382777876e-02
 Nonlocal correlation = 9.995380520522e-02
  180      4.41e-03     00000 Davidson Iteration
computing hessian-vector products by finite difference
 Nonlocal correlation = 9.995389676045e-02
 Nonlocal correlation = 9.995370931626e-02
 Nonlocal correlation = 9.995382728067e-02
 Nonlocal correlation = 9.995377980873e-02
 Nonlocal correlation = 9.995380520522e-02
  181      4.38e-03     00000 Davidson Iteration
computing hessian-vector products by finite difference
 Nonlocal correlation = 9.995365208554e-02
 Nonlocal correlation = 9.995395489269e-02
 Nonlocal correlation = 9.995386793650e-02
 Nonlocal correlation = 9.995373824316e-02
 Nonlocal correlation = 9.995380520522e-02
  182      4.37e-03     00000 Davidson Iteration
computing hessian-vector products by finite difference
 Nonlocal correlation = 9.995373066767e-02
 Nonlocal correlation = 9.995387471054e-02
 Nonlocal correlation = 9.995399026726e-02
 Nonlocal correlation = 9.995361591952e-02
 Nonlocal correlation = 9.995380520522e-02
  183      4.35e-03     00000 Davidson Iteration
computing hessian-vector products by finite difference
 Nonlocal correlation = 9.995373209117e-02
 Nonlocal correlation = 9.995387418453e-02
 Nonlocal correlation = 9.995367569210e-02
 Nonlocal correlation = 9.995393047571e-02
 Nonlocal correlation = 9.995380520522e-02
  184      4.35e-03     00000 Davidson Iteration
computing hessian-vector products by finite difference
 Nonlocal correlation = 9.995379810434e-02
 Nonlocal correlation = 9.995380377119e-02
 Nonlocal correlation = 9.995380311350e-02
 Nonlocal correlation = 9.995380234636e-02
 Nonlocal correlation = 9.995380520522e-02
  185      4.34e-03     00000 Davidson Iteration
computing hessian-vector products by finite difference
 Nonlocal correlation = 9.995378959117e-02
 Nonlocal correlation = 9.995381560898e-02
 Nonlocal correlation = 9.995379565807e-02
 Nonlocal correlation = 9.995381053034e-02
 Nonlocal correlation = 9.995380520522e-02
  186      4.55e-03     00000 Davidson Iteration
computing hessian-vector products by finite difference
 Nonlocal correlation = 9.995375718781e-02
 Nonlocal correlation = 9.995385049768e-02
 Nonlocal correlation = 9.995372973192e-02
 Nonlocal correlation = 9.995387744815e-02
 Nonlocal correlation = 9.995380520522e-02
  187      4.52e-03     00000 Davidson Iteration
computing hessian-vector products by finite difference
 Nonlocal correlation = 9.995388601451e-02
 Nonlocal correlation = 9.995371937033e-02
 Nonlocal correlation = 9.995384650568e-02
 Nonlocal correlation = 9.995375945204e-02
 Nonlocal correlation = 9.995380520522e-02
  188      4.42e-03     00000 Davidson Iteration
computing hessian-vector products by finite difference
 Nonlocal correlation = 9.995364796216e-02
 Nonlocal correlation = 9.995395720693e-02
 Nonlocal correlation = 9.995391392535e-02
 Nonlocal correlation = 9.995369215224e-02
 Nonlocal correlation = 9.995380520522e-02
  189      4.46e-03     00000 Davidson Iteration
computing hessian-vector products by finite difference
 Nonlocal correlation = 9.995378406243e-02
 Nonlocal correlation = 9.995382312563e-02
 Nonlocal correlation = 9.995367586078e-02
 Nonlocal correlation = 9.995393020425e-02
 Nonlocal correlation = 9.995380520522e-02
  190      4.42e-03     00000 Davidson Iteration
computing hessian-vector products by finite difference
 Nonlocal correlation = 9.995383601517e-02
 Nonlocal correlation = 9.995377025397e-02
 Nonlocal correlation = 9.995387509704e-02
 Nonlocal correlation = 9.995373018493e-02
 Nonlocal correlation = 9.995380520522e-02
  191      4.43e-03     00000 Davidson Iteration
computing hessian-vector products by finite difference
 Nonlocal correlation = 9.995386218775e-02
 Nonlocal correlation = 9.995374399069e-02
 Nonlocal correlation = 9.995394862231e-02
 Nonlocal correlation = 9.995365735731e-02
 Nonlocal correlation = 9.995380520522e-02
  192      4.43e-03     00000 Davidson Iteration
computing hessian-vector products by finite difference
 Nonlocal correlation = 9.995376904039e-02
 Nonlocal correlation = 9.995383814392e-02
 Nonlocal correlation = 9.995401076022e-02
 Nonlocal correlation = 9.995359551875e-02
 Nonlocal correlation = 9.995380520522e-02
  193      4.45e-03     00000 Davidson Iteration
computing hessian-vector products by finite difference
 Nonlocal correlation = 9.995363889371e-02
 Nonlocal correlation = 9.995396728727e-02
 Nonlocal correlation = 9.995371763788e-02
 Nonlocal correlation = 9.995388762723e-02
 Nonlocal correlation = 9.995380520522e-02
  194      4.43e-03     00000 Davidson Iteration
computing hessian-vector products by finite difference
 Nonlocal correlation = 9.995371985100e-02
 Nonlocal correlation = 9.995388633442e-02
 Nonlocal correlation = 9.995379351576e-02
 Nonlocal correlation = 9.995381355970e-02
 Nonlocal correlation = 9.995380520522e-02
  195      4.43e-03     00000 Davidson Iteration
computing hessian-vector products by finite difference
 Nonlocal correlation = 9.995373616105e-02
 Nonlocal correlation = 9.995386923481e-02
 Nonlocal correlation = 9.995386270244e-02
 Nonlocal correlation = 9.995374346407e-02
 Nonlocal correlation = 9.995380520522e-02
  196      4.40e-03     00000 Davidson Iteration
computing hessian-vector products by finite difference
 Nonlocal correlation = 9.995379931083e-02
 Nonlocal correlation = 9.995380768537e-02
 Nonlocal correlation = 9.995376631068e-02
 Nonlocal correlation = 9.995383998030e-02
 Nonlocal correlation = 9.995380520522e-02
  197      4.41e-03     00000 Davidson Iteration
computing hessian-vector products by finite difference
 Nonlocal correlation = 9.995380321091e-02
 Nonlocal correlation = 9.995379866834e-02
 Nonlocal correlation = 9.995380091051e-02
 Nonlocal correlation = 9.995380455084e-02
 Nonlocal correlation = 9.995380520522e-02
  198      4.40e-03     00000 Davidson Iteration
computing hessian-vector products by finite difference
 Nonlocal correlation = 9.995379750372e-02
 Nonlocal correlation = 9.995380781607e-02
 Nonlocal correlation = 9.995377187198e-02
 Nonlocal correlation = 9.995383318028e-02
 Nonlocal correlation = 9.995380520522e-02
  199      4.34e-03     00000 Davidson Iteration
computing hessian-vector products by finite difference
 Nonlocal correlation = 9.995371149507e-02
 Nonlocal correlation = 9.995389348151e-02
 Nonlocal correlation = 9.995390994717e-02
 Nonlocal correlation = 9.995369702776e-02
 Nonlocal correlation = 9.995380520522e-02
  200      4.34e-03     00000 Davidson Iteration

 Q-Chem fatal error occurred in module libgscf/gen_scfman/internal_stability.C, line 86:

 Davidson failed to converge. Increase INTERNAL_STABILITY_DAVIDSON_ITER or try something else.


 Please submit a crash report at q-chem.com/reporter 
 
 
 
User input: 2 of 14 
 
Q-Chem Developer Version!
                  Welcome to Q-Chem
     A Quantum Leap Into The Future Of Chemistry


 Q-Chem 5.1, Q-Chem, Inc., Pleasanton, CA (2018)

 Yihan Shao,  Zhengting Gan,  E. Epifanovsky,  A. T. B. Gilbert,  M. Wormit,  
 J. Kussmann,  A. W. Lange,  A. Behn,  Jia Deng,  Xintian Feng,  D. Ghosh,  
 M. Goldey,  P. R. Horn,  L. D. Jacobson,  I. Kaliman,  T. Kus,  A. Landau,  
 Jie Liu,  E. I. Proynov,  R. M. Richard,  R. P. Steele,  E. J. Sundstrom,  
 H. L. Woodcock III,  P. M. Zimmerman,  D. Zuev,  B. Albrecht,  E. Alguire,  
 S. A. Baeppler,  D. Barton,  Z. Benda,  Y. A. Bernard,  E. J. Berquist,  
 K. B. Bravaya,  H. Burton,  D. Casanova,  Chun-Min Chang,  Yunqing Chen,  
 A. Chien,  K. D. Closser,  M. P. Coons,  S. Coriani,  S. Dasgupta,  
 A. L. Dempwolff,  M. Diedenhofen,  Hainam Do,  R. G. Edgar,  Po-Tung Fang,  
 S. Faraji,  S. Fatehi,  Qingguo Feng,  K. D. Fenk,  J. Fosso-Tande,  
 Qinghui Ge,  A. Ghysels,  G. Gidofalvi,  J. Gomes,  J. Gonthier,  A. Gunina,  
 D. Hait,  M. W. D. Hanson-Heine,  P. H. P. Harbach,  A. W. Hauser,  
 J. E. Herr,  E. G. Hohenstein,  Z. C. Holden,  Kerwin Hui,  B. C. Huynh,  
 T.-C. Jagau,  Hyunjun Ji,  B. Kaduk,  K. Khistyaev,  Jaehoon Kim,  
 P. Klunzinger,  K. Koh,  D. Kosenkov,  L. Koulias,  T. Kowalczyk,  
 C. M. Krauter,  A. Kunitsa,  Ka Un Lao,  A. Laurent,  K. V. Lawler,  
 Joonho Lee,  D. Lefrancois,  S. Lehtola,  D. S. Levine,  Yi-Pei Li,  
 You-Sheng Lin,  Fenglai Liu,  E. Livshits,  A. Luenser,  P. Manohar,  
 E. Mansoor,  S. F. Manzer,  Shan-Ping Mao,  Yuezhi Mao,  N. Mardirossian,  
 A. V. Marenich,  T. Markovich,  L. A. Martinez-Martinez,  S. A. Maurer,  
 N. J. Mayhall,  S. C. McKenzie,  J.-M. Mewes,  A. F. Morrison,  
 J. W. Mullinax,  K. Nanda,  T. S. Nguyen-Beck,  R. Olivares-Amaya,  
 J. A. Parkhill,  T. M. Perrine,  F. Plasser,  P. Pokhilko,  S. Prager,  
 A. Prociuk,  E. Ramos,  D. R. Rehn,  F. Rob,  M. Schneider,  N. Sergueev,  
 S. M. Sharada,  S. Sharma,  D. W. Small,  T. Stauch,  T. Stein,  
 Yu-Chuan Su,  A. J. W. Thom,  A. Tkatchenko,  T. Tsuchimochi,  N. M. Tubman,  
 L. Vogt,  M. L. Vidal,  O. Vydrov,  M. A. Watson,  J. Wenzel,  
 M. de Wergifosse,  T. A. Wesolowski,  A. White,  J. Witte,  A. Yamada,  
 Jun Yang,  K. Yao,  S. Yeganeh,  S. R. Yost,  Zhi-Qiang You,  A. Zech,  
 Igor Ying Zhang,  Xing Zhang,  Yan Zhao,  Ying Zhu,  B. R. Brooks,  
 G. K. L. Chan,  C. J. Cramer,  M. S. Gordon,  W. J. Hehre,  A. Klamt,  
 M. W. Schmidt,  C. D. Sherrill,  D. G. Truhlar,  A. Aspuru-Guzik,  R. Baer,  
 A. T. Bell,  N. A. Besley,  Jeng-Da Chai,  A. E. DePrince, III,  
 R. A. DiStasio Jr.,  A. Dreuw,  B. D. Dunietz,  T. R. Furlani,  
 Chao-Ping Hsu,  Yousung Jung,  Jing Kong,  D. S. Lambrecht,  WanZhen Liang,  
 C. Ochsenfeld,  V. A. Rassolov,  L. V. Slipchenko,  J. E. Subotnik,  
 T. Van Voorhis,  J. M. Herbert,  A. I. Krylov,  P. M. W. Gill,  M. Head-Gordon

 Contributors to earlier versions of Q-Chem not listed above: 
 R. D. Adamson,  B. Austin,  J. Baker,  G. J. O. Beran,  K. Brandhorst,  
 S. T. Brown,  E. F. C. Byrd,  A. K. Chakraborty,  C.-L. Cheng,  
 Siu Hung Chien,  D. M. Chipman,  D. L. Crittenden,  H. Dachsel,  
 R. J. Doerksen,  A. D. Dutoi,  L. Fusti-Molnar,  W. A. Goddard III,  
 A. Golubeva-Zadorozhnaya,  S. R. Gwaltney,  G. Hawkins,  A. Heyden,  
 S. Hirata,  G. Kedziora,  F. J. Keil,  C. Kelley,  Jihan Kim,  R. A. King,  
 R. Z. Khaliullin,  P. P. Korambath,  W. Kurlancheek,  A. M. Lee,  M. S. Lee,  
 S. V. Levchenko,  Ching Yeh Lin,  D. Liotard,  R. C. Lochan,  I. Lotan,  
 P. E. Maslen,  N. Nair,  D. P. O'Neill,  D. Neuhauser,  E. Neuscamman,  
 C. M. Oana,  R. Olson,  B. Peters,  R. Peverati,  P. A. Pieniazek,  
 Y. M. Rhee,  J. Ritchie,  M. A. Rohrdanz,  E. Rosta,  N. J. Russ,  
 H. F. Schaefer III,  N. E. Schultz,  N. Shenvi,  A. C. Simmonett,  A. Sodt,  
 D. Stuck,  K. S. Thanthiriwatte,  V. Vanovschi,  Tao Wang,  A. Warshel,  
 C. F. Williams,  Q. Wu,  X. Xu,  W. Zhang

 Please cite Q-Chem as follows:
 Y. Shao et al., Mol. Phys. 113, 184-215 (2015)
 DOI: 10.1080/00268976.2014.952696

 Q-Chem 5.1.1 for Intel X86 EM64T Linux

 Parts of Q-Chem use Armadillo 8.300.2 (Tropical Shenanigans).
 http://arma.sourceforge.net/

 Q-Chem begins on Sat Nov 14 22:36:52 2020  

Host: n0031.mhg0
0

     Scratch files written to /local/scratch/users/yhljason/BH2Cl_wB97M2_aug-cc-pcVQZ.inp20201114153343//
The previous job contains 0 fragments, simply inherited here
Input Ideriv = 0
Curr. Ideriv = -1
Max.  Ideriv = 0
Analytic post-HF gradients are not available with non-HF exchange
Input Ideriv = 0
Curr. Ideriv = 0
Max.  Ideriv = 0

Checking the input file for inconsistencies... 	...done.

--------------------------------------------------------------
User input:
--------------------------------------------------------------
$molecule
read
$end

$rem
jobtype sp
exchange wB97M(2)
xc_grid 000099000590
basis aug-cc-pcVQZ
max_scf_cycles 200
thresh 14
scf_convergence 6
scf_algorithm gdm
symmetry false
sym_ignore true
unrestricted false
gen_scfman false
mem_total 128000
[...]
  4.490   4.495   4.511   4.581   4.594   4.626   4.638   4.715
  4.726   4.799   4.879   4.920   4.968   5.020   5.055   5.082
  5.211   5.213   5.373   5.382   5.500   5.675   5.801   5.861
  6.057   6.471   6.513   6.523   6.549   6.805   7.046   7.200
  7.208   7.299   7.385   7.440   7.466   7.532   7.580   7.758
  7.869   8.158   8.241   8.512   8.525   8.698   8.758   8.802
  8.876   8.881   9.055   9.064   9.072   9.293   9.374   9.492
  9.706  10.120  10.795  11.190  11.635  11.675  11.865  12.130
 12.365  12.574  13.923  13.999  17.628  17.843  18.567  19.457
 19.507  19.716  20.368  20.482  21.029  21.032  21.085  21.099
 21.106  21.159  21.254  25.170  33.530  37.107  37.131  37.276
 37.436  37.651  44.387  45.391  45.443  51.368  51.534  52.162
 64.740  64.740  64.741  64.741  64.742  64.742  64.742  64.745
 64.745  75.174  75.176  75.205  75.211  75.214  75.236  75.261
 75.384  75.400  75.405  75.406  75.412  75.441  75.445  83.636
 85.616  85.649  85.797  86.143  86.208  97.532 110.050 110.069
110.174 110.289 110.442 152.171 152.986 153.043 165.336 165.434
165.817 352.384 456.422
 --------------------------------------------------------------
 
          Ground-State Mulliken Net Atomic Charges

     Atom                 Charge (a.u.)
  ----------------------------------------
      1 B                     0.331196
      2 Cl                    0.002230
      3 H                    -0.166713
      4 H                    -0.166713
  ----------------------------------------
  Sum of atomic charges =     0.000000

 -----------------------------------------------------------------
                    Cartesian Multipole Moments
 -----------------------------------------------------------------
    Charge (ESU x 10^10)
                 0.0000
    Dipole Moment (Debye)
         X       0.0000      Y       0.0000      Z      -0.5671
       Tot       0.5671
    Quadrupole Moments (Debye-Ang)
        XX     -19.2364     XY      -0.0000     YY     -20.8071
        XZ       0.0000     YZ      -0.0000     ZZ     -20.9683
    Octopole Moments (Debye-Ang^2)
       XXX       0.0000    XXY       0.0000    XYY       0.0000
       YYY      -0.0000    XXZ     -20.9385    XYZ       0.0000
       YYZ     -21.5386    XZZ       0.0000    YZZ       0.0000
       ZZZ     -60.3710
    Hexadecapole Moments (Debye-Ang^3)
      XXXX     -22.6389   XXXY      -0.0000   XXYY     -10.4953
      XYYY      -0.0000   YYYY     -38.1700   XXXZ       0.0000
      XXYZ      -0.0000   XYYZ       0.0000   YYYZ      -0.0000
      XXZZ     -46.4832   XYZZ       0.0000   YYZZ     -50.6498
      XZZZ       0.0000   YZZZ      -0.0000   ZZZZ    -243.9155
 -----------------------------------------------------------------
Archival summary:
1\1\n0031.mhg0\SP\ProcedureUnspecified\BasisUnspecified\l112\yhljason\SunNov1500:03:362020SunNov1500:03:362020\0\\#,ProcedureUnspecified,BasisUnspecified,\\0,1\Cl\B,1,1.7353\H,2,1.19161,1,117.89\H,2,1.19161,1,117.89,3,-180,0\\\@

 Total job time:  213.34s(wall), 3378.09s(cpu) 
 Sun Nov 15 00:03:36 2020

        *************************************************************
        *                                                           *
        *  Thank you very much for using Q-Chem.  Have a nice day.  *
        *                                                           *
        *************************************************************


 
User input: 14 of 14 
 
Q-Chem Developer Version!
                  Welcome to Q-Chem
     A Quantum Leap Into The Future Of Chemistry


 Q-Chem 5.1, Q-Chem, Inc., Pleasanton, CA (2018)

 Yihan Shao,  Zhengting Gan,  E. Epifanovsky,  A. T. B. Gilbert,  M. Wormit,  
 J. Kussmann,  A. W. Lange,  A. Behn,  Jia Deng,  Xintian Feng,  D. Ghosh,  
 M. Goldey,  P. R. Horn,  L. D. Jacobson,  I. Kaliman,  T. Kus,  A. Landau,  
 Jie Liu,  E. I. Proynov,  R. M. Richard,  R. P. Steele,  E. J. Sundstrom,  
 H. L. Woodcock III,  P. M. Zimmerman,  D. Zuev,  B. Albrecht,  E. Alguire,  
 S. A. Baeppler,  D. Barton,  Z. Benda,  Y. A. Bernard,  E. J. Berquist,  
 K. B. Bravaya,  H. Burton,  D. Casanova,  Chun-Min Chang,  Yunqing Chen,  
 A. Chien,  K. D. Closser,  M. P. Coons,  S. Coriani,  S. Dasgupta,  
 A. L. Dempwolff,  M. Diedenhofen,  Hainam Do,  R. G. Edgar,  Po-Tung Fang,  
 S. Faraji,  S. Fatehi,  Qingguo Feng,  K. D. Fenk,  J. Fosso-Tande,  
 Qinghui Ge,  A. Ghysels,  G. Gidofalvi,  J. Gomes,  J. Gonthier,  A. Gunina,  
 D. Hait,  M. W. D. Hanson-Heine,  P. H. P. Harbach,  A. W. Hauser,  
 J. E. Herr,  E. G. Hohenstein,  Z. C. Holden,  Kerwin Hui,  B. C. Huynh,  
 T.-C. Jagau,  Hyunjun Ji,  B. Kaduk,  K. Khistyaev,  Jaehoon Kim,  
 P. Klunzinger,  K. Koh,  D. Kosenkov,  L. Koulias,  T. Kowalczyk,  
 C. M. Krauter,  A. Kunitsa,  Ka Un Lao,  A. Laurent,  K. V. Lawler,  
 Joonho Lee,  D. Lefrancois,  S. Lehtola,  D. S. Levine,  Yi-Pei Li,  
 You-Sheng Lin,  Fenglai Liu,  E. Livshits,  A. Luenser,  P. Manohar,  
 E. Mansoor,  S. F. Manzer,  Shan-Ping Mao,  Yuezhi Mao,  N. Mardirossian,  
 A. V. Marenich,  T. Markovich,  L. A. Martinez-Martinez,  S. A. Maurer,  
 N. J. Mayhall,  S. C. McKenzie,  J.-M. Mewes,  A. F. Morrison,  
 J. W. Mullinax,  K. Nanda,  T. S. Nguyen-Beck,  R. Olivares-Amaya,  
 J. A. Parkhill,  T. M. Perrine,  F. Plasser,  P. Pokhilko,  S. Prager,  
 A. Prociuk,  E. Ramos,  D. R. Rehn,  F. Rob,  M. Schneider,  N. Sergueev,  
 S. M. Sharada,  S. Sharma,  D. W. Small,  T. Stauch,  T. Stein,  
 Yu-Chuan Su,  A. J. W. Thom,  A. Tkatchenko,  T. Tsuchimochi,  N. M. Tubman,  
 L. Vogt,  M. L. Vidal,  O. Vydrov,  M. A. Watson,  J. Wenzel,  
 M. de Wergifosse,  T. A. Wesolowski,  A. White,  J. Witte,  A. Yamada,  
 Jun Yang,  K. Yao,  S. Yeganeh,  S. R. Yost,  Zhi-Qiang You,  A. Zech,  
 Igor Ying Zhang,  Xing Zhang,  Yan Zhao,  Ying Zhu,  B. R. Brooks,  
 G. K. L. Chan,  C. J. Cramer,  M. S. Gordon,  W. J. Hehre,  A. Klamt,  
 M. W. Schmidt,  C. D. Sherrill,  D. G. Truhlar,  A. Aspuru-Guzik,  R. Baer,  
 A. T. Bell,  N. A. Besley,  Jeng-Da Chai,  A. E. DePrince, III,  
 R. A. DiStasio Jr.,  A. Dreuw,  B. D. Dunietz,  T. R. Furlani,  
 Chao-Ping Hsu,  Yousung Jung,  Jing Kong,  D. S. Lambrecht,  WanZhen Liang,  
 C. Ochsenfeld,  V. A. Rassolov,  L. V. Slipchenko,  J. E. Subotnik,  
 T. Van Voorhis,  J. M. Herbert,  A. I. Krylov,  P. M. W. Gill,  M. Head-Gordon

 Contributors to earlier versions of Q-Chem not listed above: 
 R. D. Adamson,  B. Austin,  J. Baker,  G. J. O. Beran,  K. Brandhorst,  
 S. T. Brown,  E. F. C. Byrd,  A. K. Chakraborty,  C.-L. Cheng,  
 Siu Hung Chien,  D. M. Chipman,  D. L. Crittenden,  H. Dachsel,  
 R. J. Doerksen,  A. D. Dutoi,  L. Fusti-Molnar,  W. A. Goddard III,  
 A. Golubeva-Zadorozhnaya,  S. R. Gwaltney,  G. Hawkins,  A. Heyden,  
 S. Hirata,  G. Kedziora,  F. J. Keil,  C. Kelley,  Jihan Kim,  R. A. King,  
 R. Z. Khaliullin,  P. P. Korambath,  W. Kurlancheek,  A. M. Lee,  M. S. Lee,  
 S. V. Levchenko,  Ching Yeh Lin,  D. Liotard,  R. C. Lochan,  I. Lotan,  
 P. E. Maslen,  N. Nair,  D. P. O'Neill,  D. Neuhauser,  E. Neuscamman,  
 C. M. Oana,  R. Olson,  B. Peters,  R. Peverati,  P. A. Pieniazek,  
 Y. M. Rhee,  J. Ritchie,  M. A. Rohrdanz,  E. Rosta,  N. J. Russ,  
 H. F. Schaefer III,  N. E. Schultz,  N. Shenvi,  A. C. Simmonett,  A. Sodt,  
 D. Stuck,  K. S. Thanthiriwatte,  V. Vanovschi,  Tao Wang,  A. Warshel,  
 C. F. Williams,  Q. Wu,  X. Xu,  W. Zhang

 Please cite Q-Chem as follows:
 Y. Shao et al., Mol. Phys. 113, 184-215 (2015)
 DOI: 10.1080/00268976.2014.952696

 Q-Chem 5.1.1 for Intel X86 EM64T Linux

 Parts of Q-Chem use Armadillo 8.300.2 (Tropical Shenanigans).
 http://arma.sourceforge.net/

 Q-Chem begins on Sun Nov 15 00:03:36 2020  

Host: n0031.mhg0
0

     Scratch files written to /local/scratch/users/yhljason/BH2Cl_wB97M2_aug-cc-pcVQZ.inp20201114153343//
The previous job contains 0 fragments, simply inherited here
Input Ideriv = 0
Curr. Ideriv = -1
Max.  Ideriv = 0
Analytic post-HF gradients are not available with non-HF exchange
Input Ideriv = 0
Curr. Ideriv = 0
Max.  Ideriv = 0

Checking the input file for inconsistencies... 	...done.

--------------------------------------------------------------
User input:
--------------------------------------------------------------
$molecule
read
$end

$rem

jobtype sp
exchange wb97m(2)
xc_grid 000099000590
basis aug-cc-pcVQZ
max_scf_cycles 200
thresh 14
scf_convergence 6
mem_total 128000
cc_memory 96000
cc_backend xm
mem_static 1500
symmetry false
sym_ignore true
scf_guess read
unrestricted false
scf_algorithm gdm
n_frozen_core 0
$end

$multipole_field
ZZ -0.0001
$end


--------------------------------------------------------------
 ----------------------------------------------------------------
             Standard Nuclear Orientation (Angstroms)
    I     Atom           X                Y                Z
 ----------------------------------------------------------------
    1      B       0.0000000000     0.0000000000     0.0000000000
    2      Cl      0.0000000000     0.0000000000     1.7353000000
    3      H       0.0000000000     1.0532000000    -0.5574000000
    4      H       0.0000000000    -1.0532000000    -0.5574000000
 ----------------------------------------------------------------
 Nuclear Repulsion Energy =    37.7438288950 hartrees
 There are       12 alpha and       12 beta electrons
 Requested basis set is aug-cc-pCVQZ
 There are 91 shells and 335 basis functions

 Total QAlloc Memory Limit 128000 MB
 Mega-Array Size      1467 MB
 MEM_STATIC part      1500 MB

                       Distance Matrix (Angstroms)
             B (  1)   Cl(  2)   H (  3)
   Cl(  2)  1.735300
   H (  3)  1.191606  2.523035
   H (  4)  1.191606  2.523035  2.106400
 
 Applying Cartesian multipole field
    Component          Value
    ---------          -----
     (0,0,2)       -1.00000E-04
 Nucleus-field energy     =    -0.0185027271 hartrees
 A cutoff of  1.0D-14 yielded   4038 shell pairs
 There are     55162 function pairs (     88401 Cartesian)
 
 -------------------------------------------------------
 OpenMP Integral Computing Module                       
 Release: version 1.0, May 2013, Q-Chem Inc. Pittsburgh 
 -------------------------------------------------------
 Integral Job Info:
 Integral job number is                      11
 Integral operator is                         1
 short-range coefficients              15000000
 long-range coefficients              100000000
 Omega coefficients                         300
 if combine SR and LR in K                    1
 Integral screening is                        0
 Integral computing path is                   2
 max size of driver memory is           3200000
 size of driver memory is               1704330
 size of scratch memory is             28840424
 max col of scratch BK array              50625
 max len of scratch array in speh3         2114
 max len of scratch index in speh4           50
 max int batch size is                      520
 min int batch size is                       52
 fixed nKL is                                21
 max L of basis functions is                  4
 order of int derivative is                   0
 number of shells is                         91
 number of basis is                         423
 number of cartesian basis is               423
 number of contracted shell pairs          4038
 number of primitive shell pairs          11450
 maxK2 (contraction) of shell pair          169
 max number of K2 of shell pair               1
 max number of CS2 of shell pair            488
 max number of PS2 of shell pair           1014
 mem total for path MDJ                  781840
 -------------------------------------------------------
 Smallest overlap matrix eigenvalue = 2.45E-05
 Guess MOs from SCF MO coefficient file
 Reading MOs from coefficient file
 Reading MOs from coefficient file
 Long-range K will be added via erf
 Coulomb attenuation parameter = 0.3 bohr**(-1)
 A restricted hybrid HF-DFT SCF calculation will be
 performed using Geometric Direct Minimization
 Exchange:     0.1500 Hartree-Fock + 1.0000 wB97M-V + LR-HF
 Correlation:  1.0000 wB97M-V
 Using Euler-Maclaurin-Lebedev (99,590) quadrature formula
 Nonlocal Correlation:  VV10 with C = 0.0100 and b = 6.00 and scale = 1.00000
 Grid used for NLC:  SG-1 standard quadrature
 SCF converges when RMS gradient is below 1.0E-06
Using Q-Chem read-in guess as SCF_GUESS READ specified.

 using 16 threads for integral computing
 -------------------------------------------------------
 OpenMP Integral computing Module                
 Release: version 1.0, May 2013, Q-Chem Inc. Pittsburgh 
 -------------------------------------------------------
 using 16 threads for integral computing
 -------------------------------------------------------
 OpenMP Integral computing Module                
 Release: version 1.0, May 2013, Q-Chem Inc. Pittsburgh 
 -------------------------------------------------------
TIMEINFO->: J/JK contribution 369.96 sec.
 -------------------------------------------------------
 OpenMP BLAS3 based DFT computing Module                
 Release: version 1.0, May 2013, Q-Chem Inc. Pittsburgh 
 -------------------------------------------------------
 -------------------------------------------------------
 OpenMP BLAS3 based DFT computing Module                
 Release: version 1.0, May 2013, Q-Chem Inc. Pittsburgh 
 -------------------------------------------------------
 -------------------------------------------------------
 OpenMP BLAS3 based DFT computing Module                
 Release: version 1.0, May 2013, Q-Chem Inc. Pittsburgh 
 -------------------------------------------------------
 ---------------------------------------
  Cycle       Energy        RMS Gradient
 ---------------------------------------
    1    -486.2577959637      2.95E-08 Normal BFGS step
TIMEINFO->: J/JK contribution 372.96 sec.
 Nonlocal correlation =     0.0322262121
    2    -486.2577959637      1.19E-08 Convergence criterion met
 ---------------------------------------
 wB97M-V orbitals are now ready for the wB97M(2) calculation.
 wB97M(2) energy = Exch (0.62194 SRHF + 1.0 LRHF + wB97M(2)_EXCH) + 
               Corr (wB97M(2)_CORR + 0.34096 MP2 + 0.65904 VV10(b=10))
 SCF time:  CPU 1497.07 s  wall 94.56 s
 SCF   energy in the final basis set = -486.16589822
 Total energy in the final basis set = -486.16589822
 
 Components of the MP2 correlation energy:
        aaaa  correlation energy =        -0.0337660282 au
        abab  correlation energy =        -0.2244443675 au
        bbbb  correlation energy =        -0.0337660282 au
        non-Brillouin singles    =        -0.0000000000 au

 Total  MP2   correlation energy =                    -0.29197642 au
        MP2         total energy =                  -486.45787465 au
 
 --------------------------------------------------------------
 
                    Orbital Energies (a.u.)
 --------------------------------------------------------------
 
 Alpha MOs
 -- Occupied --
*******  -9.655  -7.356  -7.354  -7.351  -6.960  -0.971  -0.632
 -0.512  -0.498  -0.458  -0.402
 -- Virtual --
  0.001   0.018   0.029   0.032   0.041   0.067   0.070   0.086
  0.099   0.101   0.108   0.111   0.118   0.144   0.159   0.173
  0.200   0.203   0.216   0.218   0.226   0.247   0.249   0.259
  0.267   0.268   0.268   0.271   0.320   0.328   0.336   0.407
  0.413   0.416   0.430   0.431   0.445   0.457   0.479   0.489
  0.491   0.508   0.514   0.522   0.526   0.530   0.543   0.604
  0.613   0.635   0.673   0.681   0.688   0.718   0.731   0.745
  0.749   0.753   0.813   0.816   0.821   0.836   0.840   0.855
  0.860   0.875   0.900   0.912   0.961   0.968   0.983   1.015
  1.029   1.038   1.065   1.069   1.083   1.098   1.171   1.203
  1.209   1.340   1.352   1.368   1.379   1.379   1.406   1.427
  1.447   1.470   1.479   1.496   1.510   1.512   1.564   1.565
  1.577   1.580   1.600   1.649   1.674   1.710   1.714   1.732
  1.741   1.755   1.767   1.788   1.830   1.836   1.887   1.894
  1.908   1.929   1.947   1.957   1.974   1.977   1.982   2.017
  2.045   2.068   2.075   2.082   2.091   2.130   2.145   2.162
  2.187   2.204   2.217   2.226   2.234   2.305   2.363   2.365
  2.431   2.453   2.556   2.558   2.622   2.716   2.718   2.784
  2.792   2.918   2.985   3.029   3.086   3.104   3.139   3.146
  3.203   3.209   3.243   3.289   3.429   3.453   3.542   3.634
  3.696   3.703   3.772   3.812   3.819   3.883   3.935   3.948
  3.957   3.959   4.014   4.064   4.079   4.112   4.129   4.144
  4.152   4.180   4.263   4.316   4.391   4.425   4.430   4.439
  4.490   4.495   4.511   4.581   4.594   4.626   4.638   4.715
  4.726   4.799   4.879   4.920   4.968   5.020   5.055   5.082
  5.211   5.213   5.373   5.382   5.500   5.675   5.801   5.861
  6.057   6.471   6.513   6.523   6.549   6.805   7.046   7.200
  7.208   7.299   7.385   7.440   7.466   7.532   7.580   7.758
  7.869   8.158   8.241   8.512   8.525   8.698   8.758   8.802
  8.876   8.881   9.055   9.064   9.072   9.293   9.374   9.492
  9.706  10.120  10.795  11.190  11.635  11.675  11.865  12.130
 12.365  12.574  13.923  13.999  17.628  17.843  18.567  19.457
 19.507  19.716  20.368  20.482  21.029  21.032  21.085  21.099
 21.106  21.159  21.254  25.170  33.530  37.107  37.131  37.276
 37.436  37.651  44.387  45.391  45.443  51.368  51.534  52.162
 64.740  64.740  64.741  64.741  64.742  64.742  64.742  64.745
 64.745  75.174  75.176  75.205  75.211  75.214  75.236  75.261
 75.384  75.400  75.405  75.406  75.412  75.441  75.445  83.636
 85.616  85.649  85.797  86.143  86.208  97.532 110.050 110.069
110.174 110.289 110.442 152.171 152.986 153.043 165.336 165.434
165.817 352.384 456.422
 --------------------------------------------------------------
 
          Ground-State Mulliken Net Atomic Charges

     Atom                 Charge (a.u.)
  ----------------------------------------
      1 B                     0.331196
      2 Cl                    0.002230
      3 H                    -0.166713
      4 H                    -0.166713
  ----------------------------------------
  Sum of atomic charges =     0.000000

 -----------------------------------------------------------------
                    Cartesian Multipole Moments
 -----------------------------------------------------------------
    Charge (ESU x 10^10)
                 0.0000
    Dipole Moment (Debye)
         X       0.0000      Y       0.0000      Z      -0.5671
       Tot       0.5671
    Quadrupole Moments (Debye-Ang)
        XX     -19.2364     XY       0.0000     YY     -20.8071
        XZ       0.0000     YZ      -0.0000     ZZ     -20.9683
    Octopole Moments (Debye-Ang^2)
       XXX       0.0000    XXY       0.0000    XYY      -0.0000
       YYY       0.0000    XXZ     -20.9385    XYZ       0.0000
       YYZ     -21.5386    XZZ       0.0000    YZZ      -0.0000
       ZZZ     -60.3710
    Hexadecapole Moments (Debye-Ang^3)
      XXXX     -22.6389   XXXY      -0.0000   XXYY     -10.4953
      XYYY      -0.0000   YYYY     -38.1700   XXXZ       0.0000
      XXYZ      -0.0000   XYYZ       0.0000   YYYZ      -0.0000
      XXZZ     -46.4832   XYZZ       0.0000   YYZZ     -50.6498
      XZZZ       0.0000   YZZZ      -0.0000   ZZZZ    -243.9155
 -----------------------------------------------------------------
Archival summary:
1\1\n0031.mhg0\SP\ProcedureUnspecified\BasisUnspecified\l112\yhljason\SunNov1500:15:102020SunNov1500:15:102020\0\\#,ProcedureUnspecified,BasisUnspecified,\\0,1\Cl\B,1,1.7353\H,2,1.19161,1,117.89\H,2,1.19161,1,117.89,3,-180,0\\\@

 Total job time:  694.19s(wall), 10951.60s(cpu) 
 Sun Nov 15 00:15:10 2020

        *************************************************************
        *                                                           *
        *  Thank you very much for using Q-Chem.  Have a nice day.  *
        *                                                           *
        *************************************************************


