Q-Chem Developer Version!
                  Welcome to Q-Chem
     A Quantum Leap Into The Future Of Chemistry


 Q-Chem 5.1, Q-Chem, Inc., Pleasanton, CA (2018)

 Yihan Shao,  Zhengting Gan,  E. Epifanovsky,  A. T. B. Gilbert,  M. Wormit,  
 J. Kussmann,  A. W. Lange,  A. Behn,  Jia Deng,  Xintian Feng,  D. Ghosh,  
 M. Goldey,  P. R. Horn,  L. D. Jacobson,  I. Kaliman,  T. Kus,  A. Landau,  
 Jie Liu,  E. I. Proynov,  R. M. Richard,  R. P. Steele,  E. J. Sundstrom,  
 H. L. Woodcock III,  P. M. Zimmerman,  D. Zuev,  B. Albrecht,  E. Alguire,  
 S. A. Baeppler,  D. Barton,  Z. Benda,  Y. A. Bernard,  E. J. Berquist,  
 K. B. Bravaya,  H. Burton,  D. Casanova,  Chun-Min Chang,  Yunqing Chen,  
 A. Chien,  K. D. Closser,  M. P. Coons,  S. Coriani,  S. Dasgupta,  
 A. L. Dempwolff,  M. Diedenhofen,  Hainam Do,  R. G. Edgar,  Po-Tung Fang,  
 S. Faraji,  S. Fatehi,  Qingguo Feng,  K. D. Fenk,  J. Fosso-Tande,  
 Qinghui Ge,  A. Ghysels,  G. Gidofalvi,  J. Gomes,  J. Gonthier,  A. Gunina,  
 D. Hait,  M. W. D. Hanson-Heine,  P. H. P. Harbach,  A. W. Hauser,  
 J. E. Herr,  E. G. Hohenstein,  Z. C. Holden,  Kerwin Hui,  B. C. Huynh,  
 T.-C. Jagau,  Hyunjun Ji,  B. Kaduk,  K. Khistyaev,  Jaehoon Kim,  
 P. Klunzinger,  K. Koh,  D. Kosenkov,  L. Koulias,  T. Kowalczyk,  
 C. M. Krauter,  A. Kunitsa,  Ka Un Lao,  A. Laurent,  K. V. Lawler,  
 Joonho Lee,  D. Lefrancois,  S. Lehtola,  D. S. Levine,  Yi-Pei Li,  
 You-Sheng Lin,  Fenglai Liu,  E. Livshits,  A. Luenser,  P. Manohar,  
 E. Mansoor,  S. F. Manzer,  Shan-Ping Mao,  Yuezhi Mao,  N. Mardirossian,  
 A. V. Marenich,  T. Markovich,  L. A. Martinez-Martinez,  S. A. Maurer,  
 N. J. Mayhall,  S. C. McKenzie,  J.-M. Mewes,  A. F. Morrison,  
 J. W. Mullinax,  K. Nanda,  T. S. Nguyen-Beck,  R. Olivares-Amaya,  
 J. A. Parkhill,  T. M. Perrine,  F. Plasser,  P. Pokhilko,  S. Prager,  
 A. Prociuk,  E. Ramos,  D. R. Rehn,  F. Rob,  M. Schneider,  N. Sergueev,  
 S. M. Sharada,  S. Sharma,  D. W. Small,  T. Stauch,  T. Stein,  
 Yu-Chuan Su,  A. J. W. Thom,  A. Tkatchenko,  T. Tsuchimochi,  N. M. Tubman,  
 L. Vogt,  M. L. Vidal,  O. Vydrov,  M. A. Watson,  J. Wenzel,  
 M. de Wergifosse,  T. A. Wesolowski,  A. White,  J. Witte,  A. Yamada,  
 Jun Yang,  K. Yao,  S. Yeganeh,  S. R. Yost,  Zhi-Qiang You,  A. Zech,  
 Igor Ying Zhang,  Xing Zhang,  Yan Zhao,  Ying Zhu,  B. R. Brooks,  
 G. K. L. Chan,  C. J. Cramer,  M. S. Gordon,  W. J. Hehre,  A. Klamt,  
 M. W. Schmidt,  C. D. Sherrill,  D. G. Truhlar,  A. Aspuru-Guzik,  R. Baer,  
 A. T. Bell,  N. A. Besley,  Jeng-Da Chai,  A. E. DePrince, III,  
 R. A. DiStasio Jr.,  A. Dreuw,  B. D. Dunietz,  T. R. Furlani,  
 Chao-Ping Hsu,  Yousung Jung,  Jing Kong,  D. S. Lambrecht,  WanZhen Liang,  
 C. Ochsenfeld,  V. A. Rassolov,  L. V. Slipchenko,  J. E. Subotnik,  
 T. Van Voorhis,  J. M. Herbert,  A. I. Krylov,  P. M. W. Gill,  M. Head-Gordon

 Contributors to earlier versions of Q-Chem not listed above: 
 R. D. Adamson,  B. Austin,  J. Baker,  G. J. O. Beran,  K. Brandhorst,  
 S. T. Brown,  E. F. C. Byrd,  A. K. Chakraborty,  C.-L. Cheng,  
 Siu Hung Chien,  D. M. Chipman,  D. L. Crittenden,  H. Dachsel,  
 R. J. Doerksen,  A. D. Dutoi,  L. Fusti-Molnar,  W. A. Goddard III,  
 A. Golubeva-Zadorozhnaya,  S. R. Gwaltney,  G. Hawkins,  A. Heyden,  
 S. Hirata,  G. Kedziora,  F. J. Keil,  C. Kelley,  Jihan Kim,  R. A. King,  
 R. Z. Khaliullin,  P. P. Korambath,  W. Kurlancheek,  A. M. Lee,  M. S. Lee,  
 S. V. Levchenko,  Ching Yeh Lin,  D. Liotard,  R. C. Lochan,  I. Lotan,  
 P. E. Maslen,  N. Nair,  D. P. O'Neill,  D. Neuhauser,  E. Neuscamman,  
 C. M. Oana,  R. Olson,  B. Peters,  R. Peverati,  P. A. Pieniazek,  
 Y. M. Rhee,  J. Ritchie,  M. A. Rohrdanz,  E. Rosta,  N. J. Russ,  
 H. F. Schaefer III,  N. E. Schultz,  N. Shenvi,  A. C. Simmonett,  A. Sodt,  
 D. Stuck,  K. S. Thanthiriwatte,  V. Vanovschi,  Tao Wang,  A. Warshel,  
 C. F. Williams,  Q. Wu,  X. Xu,  W. Zhang

 Please cite Q-Chem as follows:
 Y. Shao et al., Mol. Phys. 113, 184-215 (2015)
 DOI: 10.1080/00268976.2014.952696

 Q-Chem 5.1.1 for Intel X86 EM64T Linux

 Parts of Q-Chem use Armadillo 8.300.2 (Tropical Shenanigans).
 http://arma.sourceforge.net/

 Q-Chem begins on Wed Nov 11 15:43:51 2020  

Host: n0066.mhg0
0

     Scratch files written to /local/scratch/users/yhljason/PCl_wB97M2_aug-cc-pcVQZ.inp20201111140442//
Input Ideriv = 1
Curr. Ideriv = -1
Max.  Ideriv = 1

Checking the input file for inconsistencies... 	...done.

--------------------------------------------------------------
User input:
--------------------------------------------------------------
$molecule
0 3
P1      0.0000  0.0000  0.0000
Cl2     0.0000  0.0000  2.0176
$end

$rem
jobtype sp
method wB97M-V
xc_grid 000099000590
basis aug-cc-pcVQZ
max_scf_cycles 200
thresh 14
scf_convergence 8
scf_algorithm gdm
symmetry false
sym_ignore true
unrestricted false
gen_scfman true
internal_stability_iter 15
internal_stability_davidson_iter 200
mem_total 128000
n_frozen_core 0
$end



--------------------------------------------------------------
 ----------------------------------------------------------------
             Standard Nuclear Orientation (Angstroms)
    I     Atom           X                Y                Z
 ----------------------------------------------------------------
    1      P       0.0000000000     0.0000000000     0.0000000000
    2      Cl      0.0000000000     0.0000000000     2.0176000000
 ----------------------------------------------------------------
 Nuclear Repulsion Energy =    66.8815368527 hartrees
 There are       17 alpha and       15 beta electrons
 Requested basis set is aug-cc-pCVQZ
 There are 68 shells and 268 basis functions

 Total QAlloc2 of 14 
 
Q-Chem Developer Version!
                  Welcome to Q-Chem
     A Quantum Leap Into The Future Of Chemistry


 Q-Chem 5.1, Q-Chem, Inc., Pleasanton, CA (2018)

 Yihan Shao,  Zhengting Gan,  E. Epifanovsky,  A. T. B. Gilbert,  M. Wormit,  
 J. Kussmann,  A. W. Lange,  A. Behn,  Jia Deng,  Xintian Feng,  D. Ghosh,  
 M. Goldey,  P. R. Horn,  L. D. Jacobson,  I. Kaliman,  T. Kus,  A. Landau,  
 Jie Liu,  E. I. Proynov,  R. M. Richard,  R. P. Steele,  E. J. Sundstrom,  
 H. L. Woodcock III,  P. M. Zimmerman,  D. Zuev,  B. Albrecht,  E. Alguire,  
 S. A. Baeppler,  D. Barton,  Z. Benda,  Y. A. Bernard,  E. J. Berquist,  
 K. B. Bravaya,  H. Burton,  D. Casanova,  Chun-Min Chang,  Yunqing Chen,  
 A. Chien,  K. D. Closser,  M. P. Coons,  S. Coriani,  S. Dasgupta,  
 A. L. Dempwolff,  M. Diedenhofen,  Hainam Do,  R. G. Edgar,  Po-Tung Fang,  
 S. Faraji,  S. Fatehi,  Qingguo Feng,  K. D. Fenk,  J. Fosso-Tande,  
 Qinghui Ge,  A. Ghysels,  G. Gidofalvi,  J. Gomes,  J. Gonthier,  A. Gunina,  
 D. Hait,  M. W. D. Hanson-Heine,  P. H. P. Harbach,  A. W. Hauser,  
 J. E. Herr,  E. G. Hohenstein,  Z. C. Holden,  Kerwin Hui,  B. C. Huynh,  
 T.-C. Jagau,  Hyunjun Ji,  B. Kaduk,  K. Khistyaev,  Jaehoon Kim,  
 P. Klunzinger,  K. Koh,  D. Kosenkov,  L. Koulias,  T. Kowalczyk,  
 C. M. Krauter,  A. Kunitsa,  Ka Un Lao,  A. Laurent,  K. V. Lawler,  
 Joonho Lee,  D. Lefrancois,  S. Lehtola,  D. S. Levine,  Yi-Pei Li,  
 You-Sheng Lin,  Fenglai Liu,  E. Livshits,  A. Luenser,  P. Manohar,  
 E. Mansoor,  S. F. Manzer,  Shan-Ping Mao,  Yuezhi Mao,  N. Mardirossian,  
 A. V. Marenich,  T. Markovich,  L. A. Martinez-Martinez,  S. A. Maurer,  
 N. J. Mayhall,  S. C. McKenzie,  J.-M. Mewes,  A. F. Morrison,  
 J. W. Mullinax,  K. Nanda,  T. S. Nguyen-Beck,  R. Olivares-Amaya,  
 J. A. Parkhill,  T. M. Perrine,  F. Plasser,  P. Pokhilko,  S. Prager,  
 A. Prociuk,  E. Ramos,  D. R. Rehn,  F. Rob,  M. Schneider,  N. Sergueev,  
 S. M. Sharada,  S. Sharma,  D. W. Small,  T. Stauch,  T. Stein,  
 Yu-Chuan Su,  A. J. W. Thom,  A. Tkatchenko,  T. Tsuchimochi,  N. M. Tubman,  
 L. Vogt,  M. L. Vidal,  O. Vydrov,  M. A. Watson,  J. Wenzel,  
 M. de Wergifosse,  T. A. Wesolowski,  A. White,  J. Witte,  A. Yamada,  
 Jun Yang,  K. Yao,  S. Yeganeh,  S. R. Yost,  Zhi-Qiang You,  A. Zech,  
 Igor Ying Zhang,  Xing Zhang,  Yan Zhao,  Ying Zhu,  B. R. Brooks,  
 G. K. L. Chan,  C. J. Cramer,  M. S. Gordon,  W. J. Hehre,  A. Klamt,  
 M. W. Schmidt,  C. D. Sherrill,  D. G. Truhlar,  A. Aspuru-Guzik,  R. Baer,  
 A. T. Bell,  N. A. Besley,  Jeng-Da Chai,  A. E. DePrince, III,  
 R. A. DiStasio Jr.,  A. Dreuw,  B. D. Dunietz,  T. R. Furlani,  
 Chao-Ping Hsu,  Yousung Jung,  Jing Kong,  D. S. Lambrecht,  WanZhen Liang,  
 C. Ochsenfeld,  V. A. Rassolov,  L. V. Slipchenko,  J. E. Subotnik,  
 T. Van Voorhis,  J. M. Herbert,  A. I. Krylov,  P. M. W. Gill,  M. Head-Gordon

 Contributors to earlier versions of Q-Chem not listed above: 
 R. D. Adamson,  B. Austin,  J. Baker,  G. J. O. Beran,  K. Brandhorst,  
 S. T. Brown,  E. F. C. Byrd,  A. K. Chakraborty,  C.-L. Cheng,  
 Siu Hung Chien,  D. M. Chipman,  D. L. Crittenden,  H. Dachsel,  
 R. J. Doerksen,  A. D. Dutoi,  L. Fusti-Molnar,  W. A. Goddard III,  
 A. Golubeva-Zadorozhnaya,  S. R. Gwaltney,  G. Hawkins,  A. Heyden,  
 S. Hirata,  G. Kedziora,  F. J. Keil,  C. Kelley,  Jihan Kim,  R. A. King,  
 R. Z. Khaliullin,  P. P. Korambath,  W. Kurlancheek,  A. M. Lee,  M. S. Lee,  
 S. V. Levchenko,  Ching Yeh Lin,  D. Liotard,  R. C. Lochan,  I. Lotan,  
 P. E. Maslen,  N. Nair,  D. P. O'Neill,  D. Neuhauser,  E. Neuscamman,  
 C. M. Oana,  R. Olson,  B. Peters,  R. Peverati,  P. A. Pieniazek,  
 Y. M. Rhee,  J. Ritchie,  M. A. Rohrdanz,  E. Rosta,  N. J. Russ,  
 H. F. Schaefer III,  N. E. Schultz,  N. Shenvi,  A. C. Simmonett,  A. Sodt,  
 D. Stuck,  K. S. Thanthiriwatte,  V. Vanovschi,  Tao Wang,  A. Warshel,  
 C. F. Williams,  Q. Wu,  X. Xu,  W. Zhang

 Please cite Q-Chem as follows:
 Y. Shao et al., Mol. Phys. 113, 184-215 (2015)
 DOI: 10.1080/00268976.2014.952696

 Q-Chem 5.1.1 for Intel X86 EM64T Linux

 Parts of Q-Chem use Armadillo 8.300.2 (Tropical Shenanigans).
 http://arma.sourceforge.net/

 Q-Chem begins on Wed Nov 11 17:40:08 2020  

Host: n0066.mhg0
0

     Scratch files written to /local/scratch/users/yhljason/PCl_wB97M2_aug-cc-pcVQZ.inp20201111140442//
The previous job contains 0 fragments, simply inherited here
Input Ideriv = 0
Curr. Ideriv = -1
Max.  Ideriv = 0
Input Ideriv = 1
Curr. Ideriv = 0
Max.  Ideriv = 0

Checking the input file for inconsistencies... 	...done.

--------------------------------------------------------------
User input:
--------------------------------------------------------------
$molecule
read
$end

$rem
jobtype sp
exchange wB97M(2)
xc_grid 000099000590
basis aug-cc-pcVQZ
max_scf_cycles 200
thresh 14
scf_convergence 8
scf_algorithm gdm
symmetry false
sym_ignore true
unrestricted false
gen_scfman false
mem_total 128000
cc_memory 96000
cc_backend xm
mem_static 1500
n_frozen_core 0
scf_guess read
$end



--------------------------------------------------------------
 ----------------------------------------------------------------
             Standard Nuclear Orientation (Angstroms)
    I     Atom           X                Y                Z
 ----------------------------------------------------------------
    1      P       0.0000000000     0.0000000000     0.0000000000
    2      Cl      0.0000000000     0.0000000000     2.0176000000
 ----------------------------------------------------------------
 Nuclear Repulsion Energy =    66.8815368527 hartrees
 There are       17 alpha and       15 beta electrons
 Requested basis set is aug-cc-pCVQZ
 There are 68 shells and 268 basis functions

 Total QAlloc Memory Limit 128000 MB
 Mega-Array Size      1467 MB
 MEM_STATIC part      1500 MB

                       Distance Matrix (Angstroms)
             P (  1)
   Cl(  2)  2.017600
 
 A cutoff of  1.0D-14 yielded   2219 shell pairs
 There are     34437 function pairs (     58236 Cartesian)
 
 -------------------------------------------------------
 OpenMP Integral Computing Module                       
 Release: version 1.0, May 2013, Q-Chem Inc. Pittsburgh 
 -------------------------------------------------------
 Integral Job Info:
 Integral job number is                      11
 Integral operator is                         1
 short-range coefficients              15000000
 long-range coefficients              100000000
 Omega coefficients                         300
 if combine SR and LR in K                    1
 Integral screening is                        0
 Integral computing path is                   2
 max size of driver memory is           3200000
 size of driver memory is               1704330
 size of scratch memory is             28840424
 max col of scratch BK array              50625
 max len of scratch array in speh3         2114
 max len of scratch index in speh4           50
 max int batch size is                      520
 min int batch size is                       52
 fixed nKL is                                21
 max L of basis functions is                  4
 order of int derivative is                   0
 number of shells is                         68
 number of basis is                         348
 number of cartesian basis is               348
 number of contracted shell pairs          2219
 number of primitive shell pairs          10935
 maxK2 (contraction) of shell pair          169
 max number of K2 of shell pair               1
 max number of CS2 of shell pair            200
 max number of PS2 of shell pair           2028
 mem total for path MDJ                  752464
 -------------------------------------------------------
 Smallest overlap matrix eigenvalue = 2.48E-05

 Scale SEOQF with 1.000000e-01/1.000000e-01/1.000000e-01

 Standard Electronic Orientation quadrupole field applied
 Nucleus-field energy     =    -0.0000000074 hartrees
 Guess MOs from SCF MO coefficient file
 Reading MOs from coefficient file
 Reading MOs from coefficient file
 Long-range K will be added via erf
 Coulomb attenuation parameter = 0.3 bohr**(-1)
 A restricted hybrid HF-DFT SCF calculation will be
 performed using Geometric Direct Minimization
 Exchange:     0.1500 Hartree-Fock + 1.0000 wB97M-V + LR-HF
 Correlation:  1.0000 wB97M-V
 Using Euler-Maclaurin-Lebedev (99,590) quadrature formula
 Nonlocal Correlation:  VV10 with C = 0.0100 and b = 6.00 and scale = 1.00000
 Grid used for NLC:  SG-1 standard quadrature
 SCF converges when RMS gradient is below 1.0E-08
Using Q-Chem read-in guess as SCF_GUESS READ specified.

 using 8 threads for integral computing
 -------------------------------------------------------
 OpenMP Integral computing Module                
 Release: version 1.0, May 2013, Q-Chem Inc. Pittsburgh 
 -------------------------------------------------------
 using 8 threads for integral computing
 -------------------------------------------------------
 OpenMP Integral computing Module                
 Release: version 1.0, May 2013, Q-Chem Inc. Pittsburgh 
 -------------------------------------------------------
TIMEINFO->: J/JK contribution 443.10 sec.
 -------------------------------------------------------
 OpenMP BLAS3 based DFT computing Module                
 Release: version 1.0, May 2013, Q-Chem Inc. Pittsburgh 
 -------------------------------------------------------
 -------------------------------------------------------
 OpenMP BLAS3 based DFT computing Module                
 Release: version 1.0, May 2013, Q-Chem Inc. Pittsburgh 
 -------------------------------------------------------
 -------------------------------------------------------
 OpenMP BLAS3 based DFT computing Module                
 Release: version 1.0, May 2013, Q-Chem Inc. Pittsburgh 
 -------------------------------------------------------
 ---------------------------------------
  Cycle       Energy        RMS Gradient
 ---------------------------------------
    1    -801.5191842825      3.40E-09 Normal BFGS step
TIMEINFO->: J/JK contribution 357.82 sec.
   GDM::WARNING energy changes are now smaller than effective accuracy.
   GDM::        calculation will continue, but THRESH should be increased
   GDM::        or SCF_CONVERGENCE decreased.
   GDM::        effective_thresh =   1.700000000000000E-010
 Nonlocal correlation =     0.0431351763
    2    -801.5191842825      1.84E-09 Convergence criterion met
 ---------------------------------------
 wB97M-V orbitals are now ready for the wB97M(2) calculation.
 wB97M(2) energy = Exch (0.62194 SRHF + 1.0 LRHF + wB97M(2)_EXCH) + 
               Corr (wB97M(2)_CORR + 0.34096 MP2 + 0.65904 VV10(b=10))
 SCF time:  CPU 1645.24 s  wall 208.03 s
 SCF   energy in the final basis set = -801.39201283
 Total energy in the final basis set = -801.39201283
 
 Components of the MP2 correlation energy:
        aaaa  correlation energy =        -0.0574672159 au
        abab  correlation energy =        -0.3073343534 au
        bbbb  correlation energy =        -0.0502321315 au
        non-Brillouin singles    =        -0.0008643980 au

 Total  MP2   correlation energy =                    -0.41589810 au
        MP2         total energy =                  -801.80791093 au
 
 --------------------------------------------------------------
 
                    Orbital Energies (a.u.)
 --------------------------------------------------------------
 
 Alpha MOs
 -- Occupied --
******* -77.429  -9.669  -7.371  -7.367  -7.367  -6.778  -4.889
 -4.892  -4.892  -0.988  -0.710  -0.488  -0.478  -0.478  -0.325
 -0.325
 -- Virtual --
  0.017   0.033   0.050   0.050   0.073   0.078   0.091   0.091
  0.129   0.129   0.172   0.172   0.173   0.197   0.256   0.257
  0.257   0.276   0.276   0.318   0.318   0.331   0.359   0.359
  0.394   0.394   0.403   0.403   0.424   0.441   0.456   0.456
  0.471   0.471   0.516   0.527   0.527   0.576   0.576   0.612
  0.696   0.696   0.713   0.771   0.771   0.878   0.898   0.898
  0.984   0.984   0.984   1.003   1.003   1.060   1.060   1.085
  1.085   1.124   1.124   1.132   1.131   1.131   1.141   1.141
  1.195   1.195   1.239   1.254   1.254   1.338   1.361   1.361
  1.438   1.438   1.470   1.530   1.530   1.543   1.606   1.606
  1.735   1.735   1.844   1.844   1.842   1.842   1.911   1.925
  1.925   1.957   1.957   2.031   2.173   2.173   2.208   2.208
  2.294   2.333   2.333   2.551   2.603   2.604   2.663   2.714
  2.714   2.802   2.802   2.850   2.850   2.920   2.969   2.969
  2.983   2.983   3.029   3.029   3.157   3.157   3.193   3.491
  3.497   3.497   3.850   3.850   4.002   4.002   4.310   4.310
  4.354   4.354   4.357   4.395   4.395   4.429   4.429   4.463
  4.463   4.509   4.509   4.563   4.625   4.625   4.733   4.816
  4.816   5.453   5.718   5.718   6.417   6.584   8.199   8.199
  8.456   8.456   8.816   9.996  11.585  11.585  11.753  11.753
 12.124  13.755  13.755  14.376  15.848  15.848  15.861  15.861
 15.907  15.907  16.053  17.592  17.592  18.200  21.005  21.005
 21.025  21.025  21.075  21.075  21.091  22.583  26.666  26.666
 26.832  26.832  27.120  33.425  37.070  37.070  37.194  37.194
 37.423  39.517  39.517  40.048  46.388  46.388  46.388  46.388
 46.388  46.388  46.390  46.390  46.392  51.319  51.319  51.850
 56.529  56.529  56.539  56.539  56.564  56.564  56.615  64.725
 64.725  64.726  64.726  64.726  64.726  64.726  64.728  64.728
 67.394  75.153  75.153  75.164  75.164  75.191  75.191  75.199
 79.523  79.525  79.645  79.645  79.859  97.396 110.018 110.020
110.112 110.112 110.266 124.372 124.372 124.767 165.299 165.299
165.623 323.594 455.878
 
 Beta MOs
 -- Occupied --
******* -77.421  -9.668  -7.370  -7.364  -7.364  -6.769  -4.883
 -4.874  -4.874  -0.977  -0.657  -0.457  -0.458  -0.458
 -- Virtual --
 -0.034  -0.034   0.022   0.030   0.047   0.047   0.081   0.082
  0.090   0.090   0.129   0.129   0.173   0.173   0.174   0.196
  0.256   0.256   0.256   0.283   0.283   0.320   0.320   0.340
  0.402   0.402   0.381   0.381   0.418   0.418   0.423   0.446
  0.448   0.448   0.468   0.468   0.520   0.529   0.529   0.584
  0.584   0.620   0.710   0.710   0.721   0.769   0.769   0.883
  0.904   0.904   0.991   1.025   1.025   1.016   1.016   1.081
  1.081   1.144   1.144   1.134   1.134   1.161   1.196   1.196
  1.177   1.177   1.205   1.205   1.254   1.269   1.269   1.347
  1.373   1.373   1.452   1.452   1.489   1.537   1.537   1.597
  1.615   1.615   1.737   1.737   1.846   1.846   1.859   1.859
  1.923   1.933   1.933   1.964   1.964   2.044   2.184   2.184
  2.222   2.222   2.316   2.358   2.358   2.572   2.701   2.701
  2.680   2.848   2.848   2.886   2.886   2.913   2.913   2.956
  3.032   3.032   3.145   3.145   3.143   3.143   3.237   3.237
  3.255   3.495   3.531   3.531   3.860   3.860   4.016   4.016
  4.379   4.379   4.365   4.365   4.361   4.408   4.408   4.436
  4.436   4.473   4.473   4.516   4.516   4.569   4.634   4.634
  4.749   4.832   4.832   5.467   5.730   5.730   6.440   6.610
  8.272   8.272   8.499   8.499   8.840  10.002  11.593  11.593
 11.757  11.757  12.127  13.836  13.836  14.399  15.852  15.852
 15.865  15.865  15.909  15.909  16.056  17.600  17.600  18.203
 21.006  21.006  21.025  21.025  21.076  21.076  21.091  22.613
 26.695  26.695  26.849  26.849  27.134  33.431  37.073  37.073
 37.196  37.196  37.424  39.553  39.553  40.061  46.399  46.400
 46.400  46.399  46.403  46.403  46.400  46.400  46.401  51.323
 51.323  51.852  56.551  56.551  56.556  56.556  56.579  56.579
 56.629  64.726  64.726  64.727  64.727  64.727  64.728  64.728
 64.731  64.731  67.419  75.157  75.157  75.167  75.167  75.193
 75.193  75.202  79.552  79.554  79.664  79.664  79.875  97.400
110.022 110.024 110.115 110.115 110.268 124.387 124.387 124.774
165.301 165.301 165.624 323.610 455.880
 --------------------------------------------------------------
 
          Ground-State Mulliken Net Atomic Charges

     Atom                 Charge (a.u.)
  ----------------------------------------
      1 P                     0.150756
      2 Cl                   -0.150756
  ----------------------------------------
  Sum of atomic charges =    -0.000000

 -----------------------------------------------------------------
                    Cartesian Multipole Moments
 -----------------------------------------------------------------
    Charge (ESU x 10^10)
                -0.0000
    Dipole Moment (Debye)
         X       0.0000      Y      -0.0000      Z      -0.5429
       Tot       0.5429
    Quadrupole Moments (Debye-Ang)
        XX     -26.1249     XY       0.0000     YY     -26.1249
        XZ       0.0000     YZ       0.0000     ZZ     -25.8011
    Octopole Moments (Debye-Ang^2)
       XXX       0.0000    XXY      -0.0000    XYY       0.0000
       YYY      -0.0000    XXZ     -25.3162    XYZ       0.0000
       YYZ     -25.3162    XZZ       0.0000    YZZ       0.0000
       ZZZ     -74.6234
    Hexadecapole Moments (Debye-Ang^3)
      XXXX     -37.1055   XXXY      -0.0000   XXYY     -12.3685
      XYYY      -0.0000   YYYY     -37.1055   XXXZ      -0.0000
      XXYZ       0.0000   XYYZ       0.0000   YYYZ       0.0000
      XXZZ     -63.8554   XYZZ       0.0000   YYZZ     -63.8554
      XZZZ      -0.0000   YZZZ       0.0000   ZZZZ    -325.1389
 -----------------------------------------------------------------
Archival summary:
1\1\n0066.mhg0\SP\ROProcedureUnspecified\BasisUnspecified\l11(3)\yhljason\WedNov1117:59:592020WedNov1117:59:592020\0\\#,ROProcedureUnspecified,BasisUnspecified,\\0,3\P\Cl,1,2.0176\\\@

 Total job time:  1191.07s(wall), 9283.67s(cpu) 
 Wed Nov 11 17:59:59 2020

        *************************************************************
        *                                                           *
        *  Thank you very much for using Q-Chem.  Have a nice day.  *
        *                                                           *
        *************************************************************


 
User input: 3 of 144 of 14 
 
Q-Chem Developer Version!
                  Welcome to Q-Chem
     A Quantum Leap Into The Future Of Chemistry


 Q-Chem 5.1, Q-Chem, Inc., Pleasanton, CA (2018)

 Yihan Shao,  Zhengting Gan,  E. Epifanovsky,  A. T. B. Gilbert,  M. Wormit,  
 J. Kussmann,  A. W. Lange,  A. Behn,  Jia Deng,  Xintian Feng,  D. Ghosh,  
 M. Goldey,  P. R. Horn,  L. D. Jacobson,  I. Kaliman,  T. Kus,  A. Landau,  
 Jie Liu,  E. I. Proynov,  R. M. Richard,  R. P. Steele,  E. J. Sundstrom,  
 H. L. Woodcock III,  P. M. Zimmerman,  D. Zuev,  B. Albrecht,  E. Alguire,  
 S. A. Baeppler,  D. Barton,  Z. Benda,  Y. A. Bernard,  E. J. Berquist,  
 K. B. Bravaya,  H. Burton,  D. Casanova,  Chun-Min Chang,  Yunqing Chen,  
 A. Chien,  K. D. Closser,  M. P. Coons,  S. Coriani,  S. Dasgupta,  
 A. L. Dempwolff,  M. Diedenhofen,  Hainam Do,  R. G. Edgar,  Po-Tung Fang,  
 S. Faraji,  S. Fatehi,  Qingguo Feng,  K. D. Fenk,  J. Fosso-Tande,  
 Qinghui Ge,  A. Ghysels,  G. Gidofalvi,  J. Gomes,  J. Gonthier,  A. Gunina,  
 D. Hait,  M. W. D. Hanson-Heine,  P. H. P. Harbach,  A. W. Hauser,  
 J. E. Herr,  E. G. Hohenstein,  Z. C. Holden,  Kerwin Hui,  B. C. Huynh,  
 T.-C. Jagau,  Hyunjun Ji,  B. Kaduk,  K. Khistyaev,  Jaehoon Kim,  
 P. Klunzinger,  K. Koh,  D. Kosenkov,  L. Koulias,  T. Kowalczyk,  
 C. M. Krauter,  A. Kunitsa,  Ka Un Lao,  A. Laurent,  K. V. Lawler,  
 Joonho Lee,  D. Lefrancois,  S. Lehtola,  D. S. Levine,  Yi-Pei Li,  
 You-Sheng Lin,  Fenglai Liu,  E. Livshits,  A. Luenser,  P. Manohar,  
 E. Mansoor,  S. F. Manzer,  Shan-Ping Mao,  Yuezhi Mao,  N. Mardirossian,  
 A. V. Marenich,  T. Markovich,  L. A. Martinez-Martinez,  S. A. Maurer,  
 N. J. Mayhall,  S. C. McKenzie,  J.-M. Mewes,  A. F. Morrison,  
 J. W. Mullinax,  K. Nanda,  T. S. Nguyen-Beck,  R. Olivares-Amaya,  
 J. A. Parkhill,  T. M. Perrine,  F. Plasser,  P. Pokhilko,  S. Prager,  
 A. Prociuk,  E. Ramos,  D. R. Rehn,  F. Rob,  M. Schneider,  N. Sergueev,  
 S. M. Sharada,  S. Sharma,  D. W. Small,  T. Stauch,  T. Stein,  
 Yu-Chuan Su,  A. J. W. Thom,  A. Tkatchenko,  T. Tsuchimochi,  N. M. Tubman,  
 L. Vogt,  M. L. Vidal,  O. Vydrov,  M. A. Watson,  J. Wenzel,  
 M. de Wergifosse,  T. A. Wesolowski,  A. White,  J. Witte,  A. Yamada,  
 Jun Yang,  K. Yao,  S. Yeganeh,  S. R. Yost,  Zhi-Qiang You,  A. Zech,  
 Igor Ying Zhang,  Xing Zhang,  Yan Zhao,  Ying Zhu,  B. R. Brooks,  
 G. K. L. Chan,  C. J. Cramer,  M. S. Gordon,  W. J. Hehre,  A. Klamt,  
 M. W. Schmidt,  C. D. Sherrill,  D. G. Truhlar,  A. Aspuru-Guzik,  R. Baer,  
 A. T. Bell,  N. A. Besley,  Jeng-Da Chai,  A. E. DePrince, III,  
 R. A. DiStasio Jr.,  A. Dreuw,  B. D. Dunietz,  T. R. Furlani,  
 Chao-Ping Hsu,  Yousung Jung,  Jing Kong,  D. S. Lambrecht,  WanZhen Liang,  
 C. Ochsenfeld,  V. A. Rassolov,  L. V. Slipchenko,  J. E. Subotnik,  
 T. Van Voorhis,  J. M. Herbert,  A. I. Krylov,  P. M. W. Gill,  M. Head-Gordon

 Contributors to earlier versions of Q-Chem not listed above: 
 R. D. Adamson,  B. Austin,  J. Baker,  G. J. O. Beran,  K. Brandhorst,  
 S. T. Brown,  E. F. C. Byrd,  A. K. Chakraborty,  C.-L. Cheng,  
 Siu Hung Chien,  D. M. Chipman,  D. L. Crittenden,  H. Dachsel,  
 R. J. Doerksen,  A. D. Dutoi,  L. Fusti-Molnar,  W. A. Goddard III,  
 A. Golubeva-Zadorozhnaya,  S. R. Gwaltney,  G. Hawkins,  A. Heyden,  
 S. Hirata,  G. Kedziora,  F. J. Keil,  C. Kelley,  Jihan Kim,  R. A. King,  
 R. Z. Khaliullin,  P. P. Korambath,  W. Kurlancheek,  A. M. Lee,  M. S. Lee,  
 S. V. Levchenko,  Ching Yeh Lin,  D. Liotard,  R. C. Lochan,  I. Lotan,  
 P. E. Maslen,  N. Nair,  D. P. O'Neill,  D. Neuhauser,  E. Neuscamman,  
 C. M. Oana,  R. Olson,  B. Peters,  R. Peverati,  P. A. Pieniazek,  
 Y. M. Rhee,  J. Ritchie,  M. A. Rohrdanz,  E. Rosta,  N. J. Russ,  
 H. F. Schaefer III,  N. E. Schultz,  N. Shenvi,  A. C. Simmonett,  A. Sodt,  
 D. Stuck,  K. S. Thanthiriwatte,  V. Vanovschi,  Tao Wang,  A. Warshel,  
 C. F. Williams,  Q. Wu,  X. Xu,  W. Zhang

 Please cite Q-Chem as follows:
 Y. Shao et al., Mol. Phys. 113, 184-215 (2015)
 DOI: 10.1080/00268976.2014.952696

 Q-Chem 5.1.1 for Intel X86 EM64T Linux

 Parts of Q-Chem use Armadillo 8.300.2 (Tropical Shenanigans).
 http://arma.sourceforge.net/

 Q-Chem begins on Wed Nov 11 18:11:29 2020  

Host: n0066.mhg0
0

     Scratch files written to /local/scratch/users/yhljason/PCl_wB97M2_aug-cc-pcVQZ.inp20201111140442//
The previous job contains 0 fragments, simply inherited here
Input Ideriv = 0
Curr. Ideriv = -1
Max.  Ideriv = 0
Input Ideriv = 1
Curr. Ideriv = 0
Max.  Ideriv = 0

Checking the input file for inconsistencies... 	...done.

--------------------------------------------------------------
User input:
--------------------------------------------------------------
$molecule
read
$end

$rem

jobtype sp
exchange wb97m(2)
xc_grid 000099000590
basis aug-cc-pcVQZ
max_scf_cycles 200
thresh 14
scf_convergence 8
mem_total 128000
cc_memory 96000
cc_backend xm
mem_static 1500
symmetry false
sym_ignore true
scf_guess read
unrestricted false
scf_algorithm gdm
n_frozen_core 0
$end

$multipole_field
XX 0.0001
$end



--------------------------------------------------------------
 ----------------------------------------------------------------
             Standard Nuclear Orientation (Angstroms)
    I     Atom           X                Y                Z
 ----------------------------------------------------------------
    1      P       0.0000000000     0.0000000000     0.0000000000
    2      Cl      0.0000000000     0.0000000000     2.0176000000
 ----------------------------------------------------------------
 Nuclear Repulsion Energy =    66.8815368527 hartrees
 There are       17 alpha and       15 beta electrons
 Requested basis set is aug-cc-pCVQZ
 There are 68 shells and 268 basis functions

 Total QAlloc Memory Limit 128000 MB
 Mega-Array Size      1467 MB
 MEM_STATIC part      1500 MB

                       Distance Matrix (Angstroms)
             P (  1)
   Cl(  2)  2.017600
 
 Applying Cartesian multipole field
    Component          Value
    ---------          -----
     (2,0,0)        1.00000E-04
 A cutoff of  1.0D-14 yielded   2219 shell pairs
 There are     34437 function pairs (     58236 Cartesian)
 
 -------------------------------------------------------
 OpenMP Integral Computing Module                       
 Release: version 1.0, May 2013, Q-Chem Inc. Pittsburgh 
 -------------------------------------------------------
 Integral Job Info:
 Integral job number is                      11
 Integral operator is                         1
 short-range coefficients              15000000
 long-range coefficients              100000000
 Omega coefficients                         300
 if combine SR and LR in K                    1
 Integral screening is                        0
 Integral computing path is                   2
 max size of driver memory is           3200000
 size of driver memory is               1704330
 size of scratch memory is             28840424
 max col of scratch BK array              50625
 max len of scratch array in speh3         2114
 max len of scratch index in speh4           50
 max int batch size is                      520
 min int batch size is                       52
 fixed nKL is                                21
 max L of basis functions is                  4
 order of int derivative is                   0
 number of shells is                         68
 number of basis is                         348
 number of cartesian basis is               348
 number of contracted shell pairs          2219
 number of primitive shell pairs          10935
 maxK2 (contraction) of shell pair          169
 max number of K2 of shell pair               1
 max number of CS2 of shell pair            200
 max number of PS2 of shell pair           2028
 mem total for path MDJ                  752464
 -------------------------------------------------------
 Smallest overlap matrix eigenvalue = 2.48E-05
 Guess MOs from SCF MO coefficient file
 Reading MOs from coefficient file
 Reading MOs from coefficient file
 Long-range K will be added via erf
 Coulomb attenuation parameter = 0.3 bohr**(-1)
 A restricted hybrid HF-DFT SCF calculation will be
 performed using Geometric Direct Minimization
 Exchange:     0.1500 Hartree-Fock + 1.0000 wB97M-V + LR-HF
 Correlation:  1.0000 wB97M-V
 Using Euler-Maclaurin-Lebedev (99,590) quadrature formula
 Nonlocal Correlation:  VV10 with C = 0.0100 and b = 6.00 and scale = 1.00000
 Grid used for NLC:  SG-1 standard quadrature
 SCF converges when RMS gradient is below 1.0E-08
Using Q-Chem read-in guess as SCF_GUESS READ specified.

 using 8 threads for integral computing
 -------------------------------------------------------
 OpenMP Integral computing Module                
 Release: version 1.0, May 2013, Q-Chem Inc. Pittsburgh 
 -------------------------------------------------------
 using 8 threads for integral computing
 -------------------------------------------------------
 OpenMP Integral computing Module                
 Release: version 1.0, May 2013, Q-Chem Inc. Pittsburgh 
 -------------------------------------------------------
TIMEINFO->: J/JK contribution 359.19 sec.
 -------------------------------------------------------
 OpenMP BLAS3 based DFT computing Module                
 Release: version 1.0, May 2013, Q-Chem Inc. Pittsburgh 
 -------------------------------------------------------
 -------------------------------------------------------
 OpenMP BLAS3 based DFT computing Module                
 Release: version 1.0, May 2013, Q-Chem Inc. Pittsburgh 
 -------------------------------------------------------
 -------------------------------------------------------
 OpenMP BLAS3 based DFT computing Module                
 Release: version 1.0, May 2013, Q-Chem Inc. Pittsburgh 
 -------------------------------------------------------
 ---------------------------------------
  Cycle       Energy        RMS Gradient
 ---------------------------------------
    1    -801.5211276181      8.81E-10 Normal BFGS step
TIMEINFO->: J/JK contribution 403.38 sec.
   GDM::WARNING energy changes are now smaller than effective accuracy.
   GDM::        calculation will continue, but THRESH should be increased
   GDM::        or SCF_CONVERGENCE decreased.
   GDM::        effective_thresh =   1.700000000000000E-010
 Nonlocal correlation =     0.0431345868
    2    -801.5211276181      3.01E-10 Convergence criterion met
 ---------------------------------------
 wB97M-V orbitals are now ready for the wB97M(2) calculation.
 wB97M(2) energy = Exch (0.62194 SRHF + 1.0 LRHF + wB97M(2)_EXCH) + 
               Corr (wB97M(2)_CORR + 0.34096 MP2 + 0.65904 VV10(b=10))
 SCF time:  CPU 1703.34 s  wall 215.48 s
 SCF   energy in the final basis set = -801.39394147
 Total energy in the final basis set = -801.39394147
 
 Components of the MP2 correlation energy:
        aaaa  correlation energy =        -0.0574669412 au
        abab  correlation energy =        -0.3073340680 au
        bbbb  correlation energy =        -0.0502332547 au
        non-Brillouin singles    =        -0.0008642250 au

 Total  MP2   correlation energy =                    -0.41589849 au
        MP2         total energy =                  -801.80983996 au
 
 --------------------------------------------------------------
 
                    Orbital Energies (a.u.)
 --------------------------------------------------------------
 
 Alpha MOs
 -- Occupied --
******* -77.429  -9.670  -7.372  -7.368  -7.368  -6.778  -4.889
 -4.893  -4.893  -0.988  -0.710  -0.488  -0.479  -0.479  -0.326
 -0.326
 -- Virtual --
  0.016   0.031   0.046   0.049   0.072   0.077   0.088   0.090
  0.128   0.128   0.170   0.171   0.171   0.196   0.255   0.256
  0.256   0.274   0.275   0.316   0.317   0.330   0.358   0.358
  0.393   0.393   0.402   0.403   0.423   0.441   0.456   0.456
  0.470   0.471   0.515   0.525   0.526   0.575   0.575   0.611
  0.696   0.696   0.712   0.770   0.770   0.878   0.897   0.897
  0.983   0.983   0.983   1.002   1.002   1.060   1.060   1.085
  1.085   1.123   1.123   1.132   1.131   1.131   1.141   1.141
  1.194   1.194   1.239   1.254   1.254   1.338   1.361   1.361
  1.437   1.437   1.469   1.529   1.529   1.543   1.605   1.606
  1.735   1.735   1.844   1.844   1.842   1.842   1.910   1.925
  1.925   1.956   1.956   2.031   2.173   2.173   2.207   2.207
  2.293   2.332   2.333   2.551   2.603   2.603   2.662   2.714
  2.714   2.802   2.802   2.850   2.850   2.919   2.969   2.969
  2.982   2.982   3.029   3.029   3.156   3.156   3.193   3.490
  3.497   3.497   3.850   3.850   4.002   4.002   4.309   4.310
  4.353   4.353   4.356   4.395   4.395   4.429   4.429   4.462
  4.462   4.508   4.508   4.563   4.624   4.624   4.733   4.816
  4.816   5.453   5.718   5.718   6.417   6.584   8.199   8.199
  8.456   8.456   8.815   9.996  11.585  11.585  11.752  11.752
 12.123  13.755  13.755  14.375  15.847  15.847  15.861  15.861
 15.906  15.906  16.053  17.591  17.591  18.200  21.005  21.005
 21.024  21.024  21.075  21.075  21.091  22.583  26.665  26.666
 26.832  26.832  27.119  33.425  37.069  37.070  37.193  37.193
 37.422  39.517  39.517  40.048  46.388  46.387  46.387  46.388
 46.388  46.388  46.390  46.390  46.392  51.319  51.319  51.850
 56.528  56.528  56.538  56.538  56.564  56.564  56.615  64.724
 64.724  64.725  64.725  64.725  64.726  64.726  64.728  64.728
 67.393  75.152  75.152  75.163  75.163  75.191  75.191  75.199
 79.522  79.525  79.644  79.644  79.859  97.396 110.017 110.019
110.111 110.111 110.265 124.372 124.372 124.767 165.298 165.298
165.623 323.594 455.877
 
 Beta MOs
 -- Occupied --
******* -77.421  -9.668  -7.371  -7.365  -7.365  -6.770  -4.884
 -4.875  -4.875  -0.977  -0.657  -0.458  -0.459  -0.459
 -- Virtual --
 -0.034  -0.034   0.021   0.028   0.044   0.046   0.080   0.081
  0.087   0.089   0.128   0.128   0.172   0.173   0.172   0.195
  0.255   0.255   0.256   0.282   0.283   0.319   0.320   0.339
  0.402   0.402   0.380   0.380   0.417   0.418   0.423   0.445
  0.447   0.447   0.467   0.467   0.519   0.527   0.528   0.583
  0.583   0.619   0.709   0.710   0.720   0.769   0.769   0.883
  0.903   0.903   0.990   1.024   1.024   1.015   1.015   1.081
  1.081   1.144   1.144   1.134   1.134   1.160   1.195   1.195
  1.176   1.176   1.204   1.204   1.254   1.269   1.269   1.347
  1.373   1.373   1.451   1.451   1.488   1.536   1.536   1.596
  1.614   1.614   1.736   1.736   1.846   1.846   1.859   1.859
  1.923   1.932   1.932   1.963   1.963   2.043   2.183   2.183
  2.221   2.221   2.316   2.357   2.357   2.571   2.701   2.701
  2.680   2.847   2.847   2.885   2.885   2.912   2.912   2.956
  3.031   3.031   3.145   3.145   3.142   3.142   3.236   3.236
  3.255   3.494   3.531   3.531   3.860   3.860   4.016   4.016
  4.378   4.378   4.365   4.365   4.360   4.407   4.407   4.435
  4.435   4.473   4.473   4.516   4.516   4.569   4.633   4.633
  4.748   4.832   4.832   5.467   5.730   5.730   6.440   6.610
  8.272   8.272   8.498   8.498   8.839  10.001  11.592  11.592
 11.757  11.757  12.127  13.836  13.836  14.399  15.852  15.852
 15.864  15.864  15.909  15.909  16.056  17.600  17.600  18.203
 21.005  21.005  21.024  21.024  21.075  21.075  21.091  22.612
 26.694  26.695  26.849  26.849  27.133  33.430  37.073  37.073
 37.195  37.195  37.424  39.552  39.552  40.060  46.398  46.400
 46.400  46.399  46.402  46.402  46.399  46.399  46.401  51.322
 51.322  51.851  56.551  56.551  56.556  56.556  56.578  56.578
 56.629  64.726  64.726  64.727  64.727  64.727  64.728  64.728
 64.731  64.731  67.419  75.156  75.156  75.166  75.166  75.193
 75.193  75.201  79.551  79.554  79.663  79.663  79.875  97.400
110.022 110.024 110.114 110.114 110.268 124.387 124.387 124.774
165.300 165.300 165.624 323.610 455.880
 --------------------------------------------------------------
 
          Ground-State Mulliken Net Atomic Charges

     Atom                 Charge (a.u.)
  ----------------------------------------
      1 P                     0.150270
      2 Cl                   -0.150270
  ----------------------------------------
  Sum of atomic charges =    -0.000000

 -----------------------------------------------------------------
                    Cartesian Multipole Moments
 -----------------------------------------------------------------
    Charge (ESU x 10^10)
                -0.0000
    Dipole Moment (Debye)
         X      -0.0000      Y      -0.0000      Z      -0.5409
       Tot       0.5409
    Quadrupole Moments (Debye-Ang)
        XX     -26.1522     XY       0.0000     YY     -26.1290
        XZ      -0.0000     YZ      -0.0000     ZZ     -25.7995
    Octopole Moments (Debye-Ang^2)
       XXX      -0.0000    XXY      -0.0000    XYY      -0.0000
       YYY      -0.0000    XXZ     -25.3266    XYZ       0.0000
       YYZ     -25.3165    XZZ      -0.0000    YZZ      -0.0000
       ZZZ     -74.6142
    Hexadecapole Moments (Debye-Ang^3)
      XXXX     -37.2617   XXXY       0.0000   XXYY     -12.3994
      XYYY       0.0000   YYYY     -37.1347   XXXZ      -0.0000
      XXYZ      -0.0000   XYYZ       0.0000   YYYZ      -0.0000
      XXZZ     -63.9123   XYZZ       0.0000   YYZZ     -63.8656
      XZZZ      -0.0000   YZZZ      -0.0000   ZZZZ    -325.1461
 -----------------------------------------------------------------
Archival summary:
1\1\n0066.mhg0\SP\ROProcedureUnspecified\BasisUnspecified\l11(3)\yhljason\WedNov1118:30:572020WedNov1118:30:572020\0\\#,ROProcedureUnspecified,BasisUnspecified,\\0,3\P\Cl,1,2.0176\\\@

 Total job time:  1167.24s(wall), 9098.39s(cpu) 
 Wed Nov 11 18:30:57 2020

        *************************************************************
        *                                                           *
        *  Thank you very much for using Q-Chem.  Have a nice day.  *
        *                                                           *
        *************************************************************


 
User input: 5 of 146 of 14 
 
Q-Chem Developer Version!
                  Welcome to Q-Chem
     A Quantum Leap Into The Future Of Chemistry


 Q-Chem 5.1, Q-Chem, Inc., Pleasanton, CA (2018)

 Yihan Shao,  Zhengting Gan,  E. Epifanovsky,  A. T. B. Gilbert,  M. Wormit,  
 J. Kussmann,  A. W. Lange,  A. Behn,  Jia Deng,  Xintian Feng,  D. Ghosh,  
 M. Goldey,  P. R. Horn,  L. D. Jacobson,  I. Kaliman,  T. Kus,  A. Landau,  
 Jie Liu,  E. I. Proynov,  R. M. Richard,  R. P. Steele,  E. J. Sundstrom,  
 H. L. Woodcock III,  P. M. Zimmerman,  D. Zuev,  B. Albrecht,  E. Alguire,  
 S. A. Baeppler,  D. Barton,  Z. Benda,  Y. A. Bernard,  E. J. Berquist,  
 K. B. Bravaya,  H. Burton,  D. Casanova,  Chun-Min Chang,  Yunqing Chen,  
 A. Chien,  K. D. Closser,  M. P. Coons,  S. Coriani,  S. Dasgupta,  
 A. L. Dempwolff,  M. Diedenhofen,  Hainam Do,  R. G. Edgar,  Po-Tung Fang,  
 S. Faraji,  S. Fatehi,  Qingguo Feng,  K. D. Fenk,  J. Fosso-Tande,  
 Qinghui Ge,  A. Ghysels,  G. Gidofalvi,  J. Gomes,  J. Gonthier,  A. Gunina,  
 D. Hait,  M. W. D. Hanson-Heine,  P. H. P. Harbach,  A. W. Hauser,  
 J. E. Herr,  E. G. Hohenstein,  Z. C. Holden,  Kerwin Hui,  B. C. Huynh,  
 T.-C. Jagau,  Hyunjun Ji,  B. Kaduk,  K. Khistyaev,  Jaehoon Kim,  
 P. Klunzinger,  K. Koh,  D. Kosenkov,  L. Koulias,  T. Kowalczyk,  
 C. M. Krauter,  A. Kunitsa,  Ka Un Lao,  A. Laurent,  K. V. Lawler,  
 Joonho Lee,  D. Lefrancois,  S. Lehtola,  D. S. Levine,  Yi-Pei Li,  
 You-Sheng Lin,  Fenglai Liu,  E. Livshits,  A. Luenser,  P. Manohar,  
 E. Mansoor,  S. F. Manzer,  Shan-Ping Mao,  Yuezhi Mao,  N. Mardirossian,  
 A. V. Marenich,  T. Markovich,  L. A. Martinez-Martinez,  S. A. Maurer,  
 N. J. Mayhall,  S. C. McKenzie,  J.-M. Mewes,  A. F. Morrison,  
 J. W. Mullinax,  K. Nanda,  T. S. Nguyen-Beck,  R. Olivares-Amaya,  
 J. A. Parkhill,  T. M. Perrine,  F. Plasser,  P. Pokhilko,  S. Prager,  
 A. Prociuk,  E. Ramos,  D. R. Rehn,  F. Rob,  M. Schneider,  N. Sergueev,  
 S. M. Sharada,  S. Sharma,  D. W. Small,  T. Stauch,  T. Stein,  
 Yu-Chuan Su,  A. J. W. Thom,  A. Tkatchenko,  T. Tsuchimochi,  N. M. Tubman,  
 L. Vogt,  M. L. Vidal,  O. Vydrov,  M. A. Watson,  J. Wenzel,  
 M. de Wergifosse,  T. A. Wesolowski,  A. White,  J. Witte,  A. Yamada,  
 Jun Yang,  K. Yao,  S. Yeganeh,  S. R. Yost,  Zhi-Qiang You,  A. Zech,  
 Igor Ying Zhang,  Xing Zhang,  Yan Zhao,  Ying Zhu,  B. R. Brooks,  
 G. K. L. Chan,  C. J. Cramer,  M. S. Gordon,  W. J. Hehre,  A. Klamt,  
 M. W. Schmidt,  C. D. Sherrill,  D. G. Truhlar,  A. Aspuru-Guzik,  R. Baer,  
 A. T. Bell,  N. A. Besley,  Jeng-Da Chai,  A. E. DePrince, III,  
 R. A. DiStasio Jr.,  A. Dreuw,  B. D. Dunietz,  T. R. Furlani,  
 Chao-Ping Hsu,  Yousung Jung,  Jing Kong,  D. S. Lambrecht,  WanZhen Liang,  
 C. Ochsenfeld,  V. A. Rassolov,  L. V. Slipchenko,  J. E. Subotnik,  
 T. Van Voorhis,  J. M. Herbert,  A. I. Krylov,  P. M. W. Gill,  M. Head-Gordon

 Contributors to earlier versions of Q-Chem not listed above: 
 R. D. Adamson,  B. Austin,  J. Baker,  G. J. O. Beran,  K. Brandhorst,  
 S. T. Brown,  E. F. C. Byrd,  A. K. Chakraborty,  C.-L. Cheng,  
 Siu Hung Chien,  D. M. Chipman,  D. L. Crittenden,  H. Dachsel,  
 R. J. Doerksen,  A. D. Dutoi,  L. Fusti-Molnar,  W. A. Goddard III,  
 A. Golubeva-Zadorozhnaya,  S. R. Gwaltney,  G. Hawkins,  A. Heyden,  
 S. Hirata,  G. Kedziora,  F. J. Keil,  C. Kelley,  Jihan Kim,  R. A. King,  
 R. Z. Khaliullin,  P. P. Korambath,  W. Kurlancheek,  A. M. Lee,  M. S. Lee,  
 S. V. Levchenko,  Ching Yeh Lin,  D. Liotard,  R. C. Lochan,  I. Lotan,  
 P. E. Maslen,  N. Nair,  D. P. O'Neill,  D. Neuhauser,  E. Neuscamman,  
 C. M. Oana,  R. Olson,  B. Peters,  R. Peverati,  P. A. Pieniazek,  
 Y. M. Rhee,  J. Ritchie,  M. A. Rohrdanz,  E. Rosta,  N. J. Russ,  
 H. F. Schaefer III,  N. E. Schultz,  N. Shenvi,  A. C. Simmonett,  A. Sodt,  
 D. Stuck,  K. S. Thanthiriwatte,  V. Vanovschi,  Tao Wang,  A. Warshel,  
 C. F. Williams,  Q. Wu,  X. Xu,  W. Zhang

 Please cite Q-Chem as follows:
 Y. Shao et al., Mol. Phys. 113, 184-215 (2015)
 DOI: 10.1080/00268976.2014.952696

 Q-Chem 5.1.1 for Intel X86 EM64T Linux

 Parts of Q-Chem use Armadillo 8.300.2 (Tropical Shenanigans).
 http://arma.sourceforge.net/

 Q-Chem begins on Wed Nov 11 18:41:11 2020  

Host: n0066.mhg0
0

     Scratch files written to /local/scratch/users/yhljason/PCl_wB97M2_aug-cc-pcVQZ.inp20201111140442//
The previous job contains 0 fragments, simply inherited here
Input Ideriv = 0
Curr. Ideriv = -1
Max.  Ideriv = 0
Input Ideriv = 1
Curr. Ideriv = 0
Max.  Ideriv = 0

Checking the input file for inconsistencies... 	...done.

--------------------------------------------------------------
User input:
--------------------------------------------------------------
$molecule
read
$end

$rem

jobtype sp
exchange wb97m(2)
xc_grid 000099000590
basis aug-cc-pcVQZ
max_scf_cycles 200
thresh 14
scf_convergence 8
mem_total 128000
cc_memory 96000
cc_backend xm
mem_static 1500
symmetry false
sym_ignore true
scf_guess read
unrestricted false
scf_algorithm gdm
n_frozen_core 0
$end

$multipole_field
XX -0.0001
$end



--------------------------------------------------------------
 ----------------------------------------------------------------
             Standard Nuclear Orientation (Angstroms)
    I     Atom           X                Y                Z
 ----------------------------------------------------------------
    1      P       0.0000000000     0.0000000000     0.0000000000
    2      Cl      0.0000000000     0.0000000000     2.0176000000
 ----------------------------------------------------------------
 Nuclear Repulsion Energy =    66.8815368527 hartrees
 There are       17 alpha and       15 beta electrons
 Requested basis set is aug-cc-pCVQZ
 There are 68 shells and 268 basis functions

 Total QAlloc Memory Limit 128000 MB
 Mega-Array Size      1467 MB
 MEM_STATIC part      1500 MB

                       Distance Matrix (Angstroms)
             P (  1)
   Cl(  2)  2.017600
 
 Applying Cartesian multipole field
    Component          Value
    ---------          -----
     (2,0,0)       -1.00000E-04
 A cutoff of  1.0D-14 yielded   2219 shell pairs
 There are     34437 function pairs (     58236 Cartesian)
 
 -------------------------------------------------------
 OpenMP Integral Computing Module                       
 Release: version 1.0, May 2013, Q-Chem Inc. Pittsburgh 
 -------------------------------------------------------
 Integral Job Info:
 Integral job number is                      11
 Integral operator is                         1
 short-range coefficients              15000000
 long-range coefficients              100000000
 Omega coefficients                         300
 if combine SR and LR in K                    1
 Integral screening is                        0
 Integral computing path is                   2
 max size of driver memory is           3200000
 size of driver memory is               1704330
 size of scratch memory is             28840424
 max col of scratch BK array              50625
 max len of scratch array in speh3         2114
 max len of scratch index in speh4           50
 max int batch size is                      520
 min int batch size is                       52
 fixed nKL is                                21
 max L of basis functions is                  4
 order of int derivative is                   0
 number of shells is                         68
 number of basis is                         348
 number of cartesian basis is               348
 number of contracted shell pairs          2219
 number of primitive shell pairs          10935
 maxK2 (contraction) of shell pair          169
 max number of K2 of shell pair               1
 max number of CS2 of shell pair            200
 max number of PS2 of shell pair           2028
 mem total for path MDJ                  752464
 -------------------------------------------------------
 Smallest overlap matrix eigenvalue = 2.48E-05
 Guess MOs from SCF MO coefficient file
 Reading MOs from coefficient file
 Reading MOs from coefficient file
 Long-range K will be added via erf
 Coulomb attenuation parameter = 0.3 bohr**(-1)
 A restricted hybrid HF-DFT SCF calculation will be
 performed using Geometric Direct Minimization
 Exchange:     0.1500 Hartree-Fock + 1.0000 wB97M-V + LR-HF
 Correlation:  1.0000 wB97M-V
 Using Euler-Maclaurin-Lebedev (99,590) quadrature formula
 Nonlocal Correlation:  VV10 with C = 0.0100 and b = 6.00 and scale = 1.00000
 Grid used for NLC:  SG-1 standard quadrature
 SCF converges when RMS gradient is below 1.0E-08
Using Q-Chem read-in guess as SCF_GUESS READ specified.

 using 8 threads for integral computing
 -------------------------------------------------------
 OpenMP Integral computing Module                
 Release: version 1.0, May 2013, Q-Chem Inc. Pittsburgh 
 -------------------------------------------------------
 using 8 threads for integral computing
 -------------------------------------------------------
 OpenMP Integral computing Module                
 Release: version 1.0, May 2013, Q-Chem Inc. Pittsburgh 
 -------------------------------------------------------
TIMEINFO->: J/JK contribution 385.32 sec.
 -------------------------------------------------------
 OpenMP BLAS3 based DFT computing Module                
 Release: version 1.0, May 2013, Q-Chem Inc. Pittsburgh 
 -------------------------------------------------------
 -------------------------------------------------------
 OpenMP BLAS3 based DFT computing Module                
 Release: version 1.0, May 2013, Q-Chem Inc. Pittsburgh 
 -------------------------------------------------------
 -------------------------------------------------------
 OpenMP BLAS3 based DFT computing Module                
 Release: version 1.0, May 2013, Q-Chem Inc. Pittsburgh 
 -------------------------------------------------------
 ---------------------------------------
  Cycle       Energy        RMS Gradient
 ---------------------------------------
    1    -801.5172429663      1.56E-09 Normal BFGS step
TIMEINFO->: J/JK contribution 379.78 sec.
   GDM::WARNING energy changes are now smaller than effective accuracy.
   GDM::        calculation will continue, but THRESH should be increased
   GDM::        or SCF_CONVERGENCE decreased.
   GDM::        effective_thresh =   1.700000000000000E-010
 Nonlocal correlation =     0.0431357626
    2    -801.5172429663      5.06E-10 Convergence criterion met
 ---------------------------------------
 wB97M-V orbitals are now ready for the wB97M(2) calculation.
 wB97M(2) energy = Exch (0.62194 SRHF + 1.0 LRHF + wB97M(2)_EXCH) + 
               Corr (wB97M(2)_CORR + 0.34096 MP2 + 0.65904 VV10(b=10))
 SCF time:  CPU 1621.32 s  wall 205.16 s
 SCF   energy in the final basis set = -801.39008594
 Total energy in the final basis set = -801.39008594
 
 Components of the MP2 correlation energy:
        aaaa  correlation energy =        -0.0574675053 au
        abab  correlation energy =        -0.3073346810 au
        bbbb  correlation energy =        -0.0502310235 au
        non-Brillouin singles    =        -0.0008645715 au

 Total  MP2   correlation energy =                    -0.41589778 au
        MP2         total energy =                  -801.80598373 au
 
 --------------------------------------------------------------
 
                    Orbital Energies (a.u.)
 --------------------------------------------------------------
 
 Alpha MOs
 -- Occupied --
******* -77.428  -9.669  -7.371  -7.367  -7.367  -6.777  -4.888
 -4.892  -4.892  -0.988  -0.709  -0.488  -0.478  -0.478  -0.325
 -0.325
 -- Virtual --
  0.018   0.034   0.051   0.054   0.075   0.079   0.092   0.094
  0.130   0.130   0.172   0.173   0.174   0.198   0.257   0.258
  0.258   0.276   0.277   0.318   0.319   0.332   0.360   0.360
  0.395   0.395   0.404   0.404   0.425   0.442   0.457   0.457
  0.472   0.472   0.517   0.527   0.528   0.577   0.577   0.612
  0.697   0.697   0.713   0.771   0.771   0.879   0.899   0.899
  0.984   0.985   0.985   1.003   1.003   1.061   1.061   1.086
  1.086   1.124   1.124   1.133   1.132   1.142   1.142   1.132
  1.195   1.195   1.240   1.255   1.255   1.339   1.362   1.362
  1.438   1.438   1.470   1.530   1.530   1.544   1.606   1.607
  1.736   1.736   1.845   1.845   1.842   1.843   1.911   1.926
  1.926   1.957   1.957   2.032   2.174   2.174   2.208   2.208
  2.294   2.333   2.334   2.552   2.604   2.604   2.663   2.715
  2.715   2.803   2.803   2.850   2.850   2.920   2.970   2.970
  2.983   2.983   3.030   3.030   3.157   3.157   3.194   3.491
  3.497   3.497   3.851   3.851   4.002   4.002   4.310   4.310
  4.354   4.354   4.357   4.396   4.396   4.429   4.429   4.463
  4.463   4.509   4.509   4.564   4.625   4.625   4.733   4.817
  4.817   5.454   5.719   5.719   6.418   6.584   8.200   8.200
  8.457   8.457   8.816   9.997  11.586  11.586  11.753  11.753
 12.124  13.756  13.756  14.376  15.848  15.848  15.862  15.862
 15.907  15.907  16.053  17.592  17.592  18.200  21.006  21.006
 21.025  21.025  21.076  21.076  21.092  22.583  26.666  26.666
 26.832  26.832  27.120  33.425  37.070  37.070  37.194  37.194
 37.423  39.517  39.517  40.048  46.389  46.388  46.388  46.389
 46.389  46.389  46.391  46.391  46.392  51.319  51.319  51.851
 56.529  56.529  56.539  56.539  56.564  56.564  56.616  64.725
 64.725  64.726  64.726  64.726  64.727  64.727  64.729  64.729
 67.394  75.153  75.153  75.164  75.164  75.191  75.191  75.200
 79.523  79.526  79.645  79.645  79.860  97.396 110.018 110.020
110.112 110.112 110.266 124.372 124.372 124.768 165.299 165.299
165.624 323.595 455.878
 
 Beta MOs
 -- Occupied --
******* -77.420  -9.667  -7.370  -7.364  -7.364  -6.769  -4.883
 -4.874  -4.874  -0.977  -0.656  -0.457  -0.458  -0.458
 -- Virtual --
 -0.033  -0.033   0.023   0.031   0.049   0.051   0.083   0.083
  0.091   0.093   0.131   0.131   0.174   0.175   0.176   0.197
  0.257   0.257   0.257   0.284   0.285   0.321   0.322   0.341
  0.403   0.403   0.382   0.382   0.418   0.419   0.424   0.447
  0.449   0.449   0.468   0.469   0.521   0.529   0.530   0.584
  0.584   0.621   0.710   0.711   0.721   0.770   0.770   0.884
  0.905   0.905   0.991   1.025   1.026   1.016   1.017   1.082
  1.082   1.145   1.145   1.135   1.135   1.161   1.196   1.177
  1.177   1.197   1.205   1.205   1.254   1.270   1.270   1.348
  1.374   1.374   1.452   1.452   1.489   1.537   1.537   1.597
  1.615   1.615   1.737   1.737   1.847   1.847   1.859   1.860
  1.924   1.933   1.933   1.964   1.964   2.044   2.184   2.184
  2.222   2.222   2.317   2.358   2.358   2.572   2.701   2.701
  2.680   2.848   2.848   2.886   2.886   2.913   2.913   2.956
  3.032   3.032   3.145   3.145   3.143   3.143   3.237   3.237
  3.256   3.495   3.531   3.531   3.861   3.861   4.017   4.017
  4.379   4.379   4.366   4.366   4.361   4.408   4.408   4.436
  4.436   4.473   4.473   4.517   4.517   4.569   4.634   4.634
  4.749   4.832   4.832   5.467   5.731   5.731   6.441   6.610
  8.273   8.273   8.499   8.499   8.840  10.002  11.593  11.593
 11.758  11.758  12.127  13.837  13.837  14.400  15.853  15.853
 15.865  15.865  15.910  15.910  16.056  17.600  17.601  18.204
 21.006  21.006  21.025  21.025  21.076  21.076  21.092  22.613
 26.695  26.695  26.850  26.850  27.134  33.431  37.074  37.074
 37.196  37.196  37.425  39.553  39.553  40.061  46.399  46.400
 46.400  46.399  46.403  46.403  46.400  46.400  46.402  51.323
 51.323  51.852  56.552  56.552  56.557  56.557  56.579  56.579
 56.629  64.727  64.727  64.728  64.728  64.728  64.729  64.729
 64.731  64.731  67.419  75.157  75.157  75.167  75.167  75.194
 75.194  75.202  79.552  79.555  79.664  79.664  79.875  97.401
110.023 110.025 110.115 110.115 110.269 124.388 124.388 124.775
165.301 165.301 165.625 323.611 455.881
 --------------------------------------------------------------
 
          Ground-State Mulliken Net Atomic Charges

     Atom                 Charge (a.u.)
  ----------------------------------------
      1 P                     0.151221
      2 Cl                   -0.151221
  ----------------------------------------
  Sum of atomic charges =    -0.000000

 -----------------------------------------------------------------
                    Cartesian Multipole Moments
 -----------------------------------------------------------------
    Charge (ESU x 10^10)
                -0.0000
    Dipole Moment (Debye)
         X      -0.0000      Y       0.0000      Z      -0.5449
       Tot       0.5449
    Quadrupole Moments (Debye-Ang)
        XX     -26.0979     XY      -0.0000     YY     -26.1209
        XZ       0.0000     YZ       0.0000     ZZ     -25.8027
    Octopole Moments (Debye-Ang^2)
       XXX      -0.0000    XXY       0.0000    XYY       0.0000
       YYY       0.0000    XXZ     -25.3057    XYZ      -0.0000
       YYZ     -25.3159    XZZ       0.0000    YZZ       0.0000
       ZZZ     -74.6324
    Hexadecapole Moments (Debye-Ang^3)
      XXXX     -36.9527   XXXY      -0.0000   XXYY     -12.3383
      XYYY      -0.0000   YYYY     -37.0771   XXXZ       0.0000
      XXYZ       0.0000   XYYZ       0.0000   YYYZ       0.0000
      XXZZ     -63.7992   XYZZ      -0.0000   YYZZ     -63.8454
      XZZZ       0.0000   YZZZ       0.0000   ZZZZ    -325.1320
 -----------------------------------------------------------------
Archival summary:
1\1\n0066.mhg0\SP\ROProcedureUnspecified\BasisUnspecified\l11(3)\yhljason\WedNov1119:01:062020WedNov1119:01:062020\0\\#,ROProcedureUnspecified,BasisUnspecified,\\0,3\P\Cl,1,2.0176\\\@

 Total job time:  1195.62s(wall), 9306.22s(cpu) 
 Wed Nov 11 19:01:06 2020

        *************************************************************
        *                                                           *
        *  Thank you very much for using Q-Chem.  Have a nice day.  *
        *                                                           *
        *************************************************************


 
User input: 7 of 148 of 14 
 
Q-Chem Developer Version!
                  Welcome to Q-Chem
     A Quantum Leap Into The Future Of Chemistry


 Q-Chem 5.1, Q-Chem, Inc., Pleasanton, CA (2018)

 Yihan Shao,  Zhengting Gan,  E. Epifanovsky,  A. T. B. Gilbert,  M. Wormit,  
 J. Kussmann,  A. W. Lange,  A. Behn,  Jia Deng,  Xintian Feng,  D. Ghosh,  
 M. Goldey,  P. R. Horn,  L. D. Jacobson,  I. Kaliman,  T. Kus,  A. Landau,  
 Jie Liu,  E. I. Proynov,  R. M. Richard,  R. P. Steele,  E. J. Sundstrom,  
 H. L. Woodcock III,  P. M. Zimmerman,  D. Zuev,  B. Albrecht,  E. Alguire,  
 S. A. Baeppler,  D. Barton,  Z. Benda,  Y. A. Bernard,  E. J. Berquist,  
 K. B. Bravaya,  H. Burton,  D. Casanova,  Chun-Min Chang,  Yunqing Chen,  
 A. Chien,  K. D. Closser,  M. P. Coons,  S. Coriani,  S. Dasgupta,  
 A. L. Dempwolff,  M. Diedenhofen,  Hainam Do,  R. G. Edgar,  Po-Tung Fang,  
 S. Faraji,  S. Fatehi,  Qingguo Feng,  K. D. Fenk,  J. Fosso-Tande,  
 Qinghui Ge,  A. Ghysels,  G. Gidofalvi,  J. Gomes,  J. Gonthier,  A. Gunina,  
 D. Hait,  M. W. D. Hanson-Heine,  P. H. P. Harbach,  A. W. Hauser,  
 J. E. Herr,  E. G. Hohenstein,  Z. C. Holden,  Kerwin Hui,  B. C. Huynh,  
 T.-C. Jagau,  Hyunjun Ji,  B. Kaduk,  K. Khistyaev,  Jaehoon Kim,  
 P. Klunzinger,  K. Koh,  D. Kosenkov,  L. Koulias,  T. Kowalczyk,  
 C. M. Krauter,  A. Kunitsa,  Ka Un Lao,  A. Laurent,  K. V. Lawler,  
 Joonho Lee,  D. Lefrancois,  S. Lehtola,  D. S. Levine,  Yi-Pei Li,  
 You-Sheng Lin,  Fenglai Liu,  E. Livshits,  A. Luenser,  P. Manohar,  
 E. Mansoor,  S. F. Manzer,  Shan-Ping Mao,  Yuezhi Mao,  N. Mardirossian,  
 A. V. Marenich,  T. Markovich,  L. A. Martinez-Martinez,  S. A. Maurer,  
 N. J. Mayhall,  S. C. McKenzie,  J.-M. Mewes,  A. F. Morrison,  
 J. W. Mullinax,  K. Nanda,  T. S. Nguyen-Beck,  R. Olivares-Amaya,  
 J. A. Parkhill,  T. M. Perrine,  F. Plasser,  P. Pokhilko,  S. Prager,  
 A. Prociuk,  E. Ramos,  D. R. Rehn,  F. Rob,  M. Schneider,  N. Sergueev,  
 S. M. Sharada,  S. Sharma,  D. W. Small,  T. Stauch,  T. Stein,  
 Yu-Chuan Su,  A. J. W. Thom,  A. Tkatchenko,  T. Tsuchimochi,  N. M. Tubman,  
 L. Vogt,  M. L. Vidal,  O. Vydrov,  M. A. Watson,  J. Wenzel,  
 M. de Wergifosse,  T. A. Wesolowski,  A. White,  J. Witte,  A. Yamada,  
 Jun Yang,  K. Yao,  S. Yeganeh,  S. R. Yost,  Zhi-Qiang You,  A. Zech,  
 Igor Ying Zhang,  Xing Zhang,  Yan Zhao,  Ying Zhu,  B. R. Brooks,  
 G. K. L. Chan,  C. J. Cramer,  M. S. Gordon,  W. J. Hehre,  A. Klamt,  
 M. W. Schmidt,  C. D. Sherrill,  D. G. Truhlar,  A. Aspuru-Guzik,  R. Baer,  
 A. T. Bell,  N. A. Besley,  Jeng-Da Chai,  A. E. DePrince, III,  
 R. A. DiStasio Jr.,  A. Dreuw,  B. D. Dunietz,  T. R. Furlani,  
 Chao-Ping Hsu,  Yousung Jung,  Jing Kong,  D. S. Lambrecht,  WanZhen Liang,  
 C. Ochsenfeld,  V. A. Rassolov,  L. V. Slipchenko,  J. E. Subotnik,  
 T. Van Voorhis,  J. M. Herbert,  A. I. Krylov,  P. M. W. Gill,  M. Head-Gordon

 Contributors to earlier versions of Q-Chem not listed above: 
 R. D. Adamson,  B. Austin,  J. Baker,  G. J. O. Beran,  K. Brandhorst,  
 S. T. Brown,  E. F. C. Byrd,  A. K. Chakraborty,  C.-L. Cheng,  
 Siu Hung Chien,  D. M. Chipman,  D. L. Crittenden,  H. Dachsel,  
 R. J. Doerksen,  A. D. Dutoi,  L. Fusti-Molnar,  W. A. Goddard III,  
 A. Golubeva-Zadorozhnaya,  S. R. Gwaltney,  G. Hawkins,  A. Heyden,  
 S. Hirata,  G. Kedziora,  F. J. Keil,  C. Kelley,  Jihan Kim,  R. A. King,  
 R. Z. Khaliullin,  P. P. Korambath,  W. Kurlancheek,  A. M. Lee,  M. S. Lee,  
 S. V. Levchenko,  Ching Yeh Lin,  D. Liotard,  R. C. Lochan,  I. Lotan,  
 P. E. Maslen,  N. Nair,  D. P. O'Neill,  D. Neuhauser,  E. Neuscamman,  
 C. M. Oana,  R. Olson,  B. Peters,  R. Peverati,  P. A. Pieniazek,  
 Y. M. Rhee,  J. Ritchie,  M. A. Rohrdanz,  E. Rosta,  N. J. Russ,  
 H. F. Schaefer III,  N. E. Schultz,  N. Shenvi,  A. C. Simmonett,  A. Sodt,  
 D. Stuck,  K. S. Thanthiriwatte,  V. Vanovschi,  Tao Wang,  A. Warshel,  
 C. F. Williams,  Q. Wu,  X. Xu,  W. Zhang

 Please cite Q-Chem as follows:
 Y. Shao et al., Mol. Phys. 113, 184-215 (2015)
 DOI: 10.1080/00268976.2014.952696

 Q-Chem 5.1.1 for Intel X86 EM64T Linux

 Parts of Q-Chem use Armadillo 8.300.2 (Tropical Shenanigans).
 http://arma.sourceforge.net/

 Q-Chem begins on Wed Nov 11 19:12:02 2020  

Host: n0066.mhg0
0

     Scratch files written to /local/scratch/users/yhljason/PCl_wB97M2_aug-cc-pcVQZ.inp20201111140442//
The previous job contains 0 fragments, simply inherited here
Input Ideriv = 0
Curr. Ideriv = -1
Max.  Ideriv = 0
Input Ideriv = 1
Curr. Ideriv = 0
Max.  Ideriv = 0

Checking the input file for inconsistencies... 	...done.

--------------------------------------------------------------
User input:
--------------------------------------------------------------
$molecule
read
$end

$rem

jobtype sp
exchange wb97m(2)
xc_grid 000099000590
basis aug-cc-pcVQZ
max_scf_cycles 200
thresh 14
scf_convergence 8
mem_total 128000
cc_memory 96000
cc_backend xm
mem_static 1500
symmetry false
sym_ignore true
scf_guess read
unrestricted false
scf_algorithm gdm
n_frozen_core 0
$end

$multipole_field
YY 0.0001
$end



--------------------------------------------------------------
 ----------------------------------------------------------------
             Standard Nuclear Orientation (Angstroms)
    I     Atom           X                Y                Z
 ----------------------------------------------------------------
    1      P       0.0000000000     0.0000000000     0.0000000000
    2      Cl      0.0000000000     0.0000000000     2.0176000000
 ----------------------------------------------------------------
 Nuclear Repulsion Energy =    66.8815368527 hartrees
 There are       17 alpha and       15 beta electrons
 Requested basis set is aug-cc-pCVQZ
 There are 68 shells and 268 basis functions

 Total QAlloc Memory Limit 128000 MB
 Mega-Array Size      1467 MB
 MEM_STATIC part      1500 MB

                       Distance Matrix (Angstroms)
             P (  1)
   Cl(  2)  2.017600
 
 Applying Cartesian multipole field
    Component          Value
    ---------          -----
     (0,2,0)        1.00000E-04
 A cutoff of  1.0D-14 yielded   2219 shell pairs
 There are     34437 function pairs (     58236 Cartesian)
 
 -------------------------------------------------------
 OpenMP Integral Computing Module                       
 Release: version 1.0, May 2013, Q-Chem Inc. Pittsburgh 
 -------------------------------------------------------
 Integral Job Info:
 Integral job number is                      11
 Integral operator is                         1
 short-range coefficients              15000000
 long-range coefficients              100000000
 Omega coefficients                         300
 if combine SR and LR in K                    1
 Integral screening is                        0
 Integral computing path is                   2
 max size of driver memory is           3200000
 size of driver memory is               1704330
 size of scratch memory is             28840424
 max col of scratch BK array              50625
 max len of scratch array in speh3         2114
 max len of scratch index in speh4           50
 max int batch size is                      520
 min int batch size is                       52
 fixed nKL is                                21
 max L of basis functions is                  4
 order of int derivative is                   0
 number of shells is                         68
 number of basis is                         348
 number of cartesian basis is               348
 number of contracted shell pairs          2219
 number of primitive shell pairs          10935
 maxK2 (contraction) of shell pair          169
 max number of K2 of shell pair               1
 max number of CS2 of shell pair            200
 max number of PS2 of shell pair           2028
 mem total for path MDJ                  752464
 -------------------------------------------------------
 Smallest overlap matrix eigenvalue = 2.48E-05
 Guess MOs from SCF MO coefficient file
 Reading MOs from coefficient file
 Reading MOs from coefficient file
 Long-range K will be added via erf
 Coulomb attenuation parameter = 0.3 bohr**(-1)
 A restricted hybrid HF-DFT SCF calculation will be
 performed using Geometric Direct Minimization
 Exchange:     0.1500 Hartree-Fock + 1.0000 wB97M-V + LR-HF
 Correlation:  1.0000 wB97M-V
 Using Euler-Maclaurin-Lebedev (99,590) quadrature formula
 Nonlocal Correlation:  VV10 with C = 0.0100 and b = 6.00 and scale = 1.00000
 Grid used for NLC:  SG-1 standard quadrature
 SCF converges when RMS gradient is below 1.0E-08
Using Q-Chem read-in guess as SCF_GUESS READ specified.

 using 8 threads for integral computing
 -------------------------------------------------------
 OpenMP Integral computing Module                
 Release: version 1.0, May 2013, Q-Chem Inc. Pittsburgh 
 -------------------------------------------------------
 using 8 threads for integral computing
 -------------------------------------------------------
 OpenMP Integral computing Module                
 Release: version 1.0, May 2013, Q-Chem Inc. Pittsburgh 
 -------------------------------------------------------
TIMEINFO->: J/JK contribution 465.26 sec.
 -------------------------------------------------------
 OpenMP BLAS3 based DFT computing Module                
 Release: version 1.0, May 2013, Q-Chem Inc. Pittsburgh 
 -------------------------------------------------------
 -------------------------------------------------------
 OpenMP BLAS3 based DFT computing Module                
 Release: version 1.0, May 2013, Q-Chem Inc. Pittsburgh 
 -------------------------------------------------------
 -------------------------------------------------------
 OpenMP BLAS3 based DFT computing Module                
 Release: version 1.0, May 2013, Q-Chem Inc. Pittsburgh 
 -------------------------------------------------------
 ---------------------------------------
  Cycle       Energy        RMS Gradient
 ---------------------------------------
    1    -801.5211276181      1.23E-09 Normal BFGS step
TIMEINFO->: J/JK contribution 485.77 sec.
   GDM::WARNING energy changes are now smaller than effective accuracy.
   GDM::        calculation will continue, but THRESH should be increased
   GDM::        or SCF_CONVERGENCE decreased.
   GDM::        effective_thresh =   1.700000000000000E-010
 Nonlocal correlation =     0.0431345868
    2    -801.5211276181      4.66E-10 Convergence criterion met
 ---------------------------------------
 wB97M-V orbitals are now ready for the wB97M(2) calculation.
 wB97M(2) energy = Exch (0.62194 SRHF + 1.0 LRHF + wB97M(2)_EXCH) + 
               Corr (wB97M(2)_CORR + 0.34096 MP2 + 0.65904 VV10(b=10))
 SCF time:  CPU 1748.44 s  wall 221.22 s
 SCF   energy in the final basis set = -801.39394147
 Total energy in the final basis set = -801.39394147
 
 Components of the MP2 correlation energy:
        aaaa  correlation energy =        -0.0574669412 au
        abab  correlation energy =        -0.3073340680 au
        bbbb  correlation energy =        -0.0502332547 au
        non-Brillouin singles    =        -0.0008642250 au

 Total  MP2   correlation energy =                    -0.41589849 au
        MP2         total energy =                  -801.80983996 au
 
 --------------------------------------------------------------
 
                    Orbital Energies (a.u.)
 --------------------------------------------------------------
 
 Alpha MOs
 -- Occupied --
******* -77.429  -9.670  -7.372  -7.368  -7.368  -6.778  -4.889
 -4.893  -4.893  -0.988  -0.710  -0.488  -0.479  -0.479  -0.326
 -0.326
 -- Virtual --
  0.016   0.031   0.046   0.049   0.072   0.077   0.088   0.090
  0.128   0.128   0.170   0.171   0.171   0.196   0.255   0.256
  0.256   0.274   0.275   0.316   0.317   0.330   0.358   0.358
  0.393   0.393   0.402   0.403   0.423   0.441   0.456   0.456
  0.470   0.471   0.515   0.525   0.526   0.575   0.575   0.611
  0.696   0.696   0.712   0.770   0.770   0.878   0.897   0.897
  0.983   0.983   0.983   1.002   1.002   1.060   1.060   1.085
  1.085   1.123   1.123   1.132   1.131   1.131   1.141   1.141
  1.194   1.194   1.239   1.254   1.254   1.338   1.361   1.361
  1.437   1.437   1.469   1.529   1.529   1.543   1.605   1.606
  1.735   1.735   1.844   1.844   1.842   1.842   1.910   1.925
  1.925   1.956   1.956   2.031   2.173   2.173   2.207   2.207
  2.293   2.332   2.333   2.551   2.603   2.603   2.662   2.714
  2.714   2.802   2.802   2.850   2.850   2.919   2.969   2.969
  2.982   2.982   3.029   3.029   3.156   3.156   3.193   3.490
  3.497   3.497   3.850   3.850   4.002   4.002   4.309   4.310
  4.353   4.353   4.356   4.395   4.395   4.429   4.429   4.462
  4.462   4.508   4.508   4.563   4.624   4.624   4.733   4.816
  4.816   5.453   5.718   5.718   6.417   6.584   8.199   8.199
  8.456   8.456   8.815   9.996  11.585  11.585  11.752  11.752
 12.123  13.755  13.755  14.375  15.847  15.847  15.861  15.861
 15.906  15.906  16.053  17.591  17.591  18.200  21.005  21.005
 21.024  21.024  21.075  21.075  21.091  22.583  26.665  26.666
 26.832  26.832  27.119  33.425  37.069  37.070  37.193  37.193
 37.422  39.517  39.517  40.048  46.388  46.387  46.387  46.388
 46.388  46.388  46.390  46.390  46.392  51.319  51.319  51.850
 56.528  56.528  56.538  56.538  56.564  56.564  56.615  64.724
 64.724  64.725  64.725  64.725  64.726  64.726  64.728  64.728
 67.393  75.152  75.152  75.163  75.163  75.191  75.191  75.199
 79.522  79.525  79.644  79.644  79.859  97.396 110.017 110.019
110.111 110.111 110.265 124.372 124.372 124.767 165.298 165.298
165.623 323.594 455.877
 
 Beta MOs
 -- Occupied --
******* -77.421  -9.668  -7.371  -7.365  -7.365  -6.770  -4.884
 -4.875  -4.875  -0.977  -0.657  -0.458  -0.459  -0.459
 -- Virtual --
 -0.034  -0.034   0.021   0.028   0.044   0.046   0.080   0.081
  0.087   0.089   0.128   0.128   0.172   0.173   0.172   0.195
  0.255   0.255   0.256   0.282   0.283   0.319   0.320   0.339
  0.402   0.402   0.380   0.380   0.417   0.418   0.423   0.445
  0.447   0.447   0.467   0.467   0.519   0.527   0.528   0.583
  0.583   0.619   0.709   0.710   0.720   0.769   0.769   0.883
  0.903   0.903   0.990   1.024   1.024   1.015   1.015   1.081
  1.081   1.144   1.144   1.134   1.134   1.160   1.195   1.195
  1.176   1.176   1.204   1.204   1.254   1.269   1.269   1.347
  1.373   1.373   1.451   1.451   1.488   1.536   1.536   1.596
  1.614   1.614   1.736   1.736   1.846   1.846   1.859   1.859
  1.923   1.932   1.932   1.963   1.963   2.043   2.183   2.183
  2.221   2.221   2.316   2.357   2.357   2.571   2.701   2.701
  2.680   2.847   2.847   2.885   2.885   2.912   2.912   2.956
  3.031   3.031   3.145   3.145   3.142   3.142   3.236   3.236
  3.255   3.494   3.531   3.531   3.860   3.860   4.016   4.016
  4.378   4.378   4.365   4.365   4.360   4.407   4.407   4.435
  4.435   4.473   4.473   4.516   4.516   4.569   4.633   4.633
  4.748   4.832   4.832   5.467   5.730   5.730   6.440   6.610
  8.272   8.272   8.498   8.498   8.839  10.001  11.592  11.592
 11.757  11.757  12.127  13.836  13.836  14.399  15.852  15.852
 15.864  15.864  15.909  15.909  16.056  17.600  17.600  18.203
 21.005  21.005  21.024  21.024  21.075  21.075  21.091  22.612
 26.694  26.695  26.849  26.849  27.133  33.430  37.073  37.073
 37.195  37.195  37.424  39.552  39.552  40.060  46.398  46.400
 46.400  46.399  46.402  46.402  46.399  46.399  46.401  51.322
 51.322  51.851  56.551  56.551  56.556  56.556  56.578  56.578
 56.629  64.726  64.726  64.727  64.727  64.727  64.728  64.728
 64.731  64.731  67.419  75.156  75.156  75.166  75.166  75.193
 75.193  75.201  79.551  79.554  79.663  79.663  79.875  97.400
110.022 110.024 110.114 110.114 110.268 124.387 124.387 124.774
165.300 165.300 165.624 323.610 455.880
 --------------------------------------------------------------
 
          Ground-State Mulliken Net Atomic Charges

     Atom                 Charge (a.u.)
  ----------------------------------------
      1 P                     0.150270
      2 Cl                   -0.150270
  ----------------------------------------
  Sum of atomic charges =    -0.000000

 -----------------------------------------------------------------
                    Cartesian Multipole Moments
 -----------------------------------------------------------------
    Charge (ESU x 10^10)
                -0.0000
    Dipole Moment (Debye)
         X       0.0000      Y      -0.0000      Z      -0.5409
       Tot       0.5409
    Quadrupole Moments (Debye-Ang)
        XX     -26.1290     XY      -0.0000     YY     -26.1522
        XZ       0.0000     YZ      -0.0000     ZZ     -25.7995
    Octopole Moments (Debye-Ang^2)
       XXX       0.0000    XXY      -0.0000    XYY      -0.0000
       YYY      -0.0000    XXZ     -25.3165    XYZ       0.0000
       YYZ     -25.3266    XZZ       0.0000    YZZ      -0.0000
       ZZZ     -74.6142
    Hexadecapole Moments (Debye-Ang^3)
      XXXX     -37.1347   XXXY      -0.0000   XXYY     -12.3994
      XYYY      -0.0000   YYYY     -37.2617   XXXZ       0.0000
      XXYZ       0.0000   XYYZ       0.0000   YYYZ      -0.0000
      XXZZ     -63.8656   XYZZ       0.0000   YYZZ     -63.9123
      XZZZ       0.0000   YZZZ      -0.0000   ZZZZ    -325.1461
 -----------------------------------------------------------------
Archival summary:
1\1\n0066.mhg0\SP\ROProcedureUnspecified\BasisUnspecified\l11(3)\yhljason\WedNov1119:31:502020WedNov1119:31:502020\0\\#,ROProcedureUnspecified,BasisUnspecified,\\0,3\P\Cl,1,2.0176\\\@

 Total job time:  1188.35s(wall), 9271.39s(cpu) 
 Wed Nov 11 19:31:50 2020

        *************************************************************
        *                                                           *
        *  Thank you very much for using Q-Chem.  Have a nice day.  *
        *                                                           *
        *************************************************************


 
User input: 9 of 1410 of 14 
 
Q-Chem Developer Version!
                  Welcome to Q-Chem
     A Quantum Leap Into The Future Of Chemistry


 Q-Chem 5.1, Q-Chem, Inc., Pleasanton, CA (2018)

 Yihan Shao,  Zhengting Gan,  E. Epifanovsky,  A. T. B. Gilbert,  M. Wormit,  
 J. Kussmann,  A. W. Lange,  A. Behn,  Jia Deng,  Xintian Feng,  D. Ghosh,  
 M. Goldey,  P. R. Horn,  L. D. Jacobson,  I. Kaliman,  T. Kus,  A. Landau,  
 Jie Liu,  E. I. Proynov,  R. M. Richard,  R. P. Steele,  E. J. Sundstrom,  
 H. L. Woodcock III,  P. M. Zimmerman,  D. Zuev,  B. Albrecht,  E. Alguire,  
 S. A. Baeppler,  D. Barton,  Z. Benda,  Y. A. Bernard,  E. J. Berquist,  
 K. B. Bravaya,  H. Burton,  D. Casanova,  Chun-Min Chang,  Yunqing Chen,  
 A. Chien,  K. D. Closser,  M. P. Coons,  S. Coriani,  S. Dasgupta,  
 A. L. Dempwolff,  M. Diedenhofen,  Hainam Do,  R. G. Edgar,  Po-Tung Fang,  
 S. Faraji,  S. Fatehi,  Qingguo Feng,  K. D. Fenk,  J. Fosso-Tande,  
 Qinghui Ge,  A. Ghysels,  G. Gidofalvi,  J. Gomes,  J. Gonthier,  A. Gunina,  
 D. Hait,  M. W. D. Hanson-Heine,  P. H. P. Harbach,  A. W. Hauser,  
 J. E. Herr,  E. G. Hohenstein,  Z. C. Holden,  Kerwin Hui,  B. C. Huynh,  
 T.-C. Jagau,  Hyunjun Ji,  B. Kaduk,  K. Khistyaev,  Jaehoon Kim,  
 P. Klunzinger,  K. Koh,  D. Kosenkov,  L. Koulias,  T. Kowalczyk,  
 C. M. Krauter,  A. Kunitsa,  Ka Un Lao,  A. Laurent,  K. V. Lawler,  
 Joonho Lee,  D. Lefrancois,  S. Lehtola,  D. S. Levine,  Yi-Pei Li,  
 You-Sheng Lin,  Fenglai Liu,  E. Livshits,  A. Luenser,  P. Manohar,  
 E. Mansoor,  S. F. Manzer,  Shan-Ping Mao,  Yuezhi Mao,  N. Mardirossian,  
 A. V. Marenich,  T. Markovich,  L. A. Martinez-Martinez,  S. A. Maurer,  
 N. J. Mayhall,  S. C. McKenzie,  J.-M. Mewes,  A. F. Morrison,  
 J. W. Mullinax,  K. Nanda,  T. S. Nguyen-Beck,  R. Olivares-Amaya,  
 J. A. Parkhill,  T. M. Perrine,  F. Plasser,  P. Pokhilko,  S. Prager,  
 A. Prociuk,  E. Ramos,  D. R. Rehn,  F. Rob,  M. Schneider,  N. Sergueev,  
 S. M. Sharada,  S. Sharma,  D. W. Small,  T. Stauch,  T. Stein,  
 Yu-Chuan Su,  A. J. W. Thom,  A. Tkatchenko,  T. Tsuchimochi,  N. M. Tubman,  
 L. Vogt,  M. L. Vidal,  O. Vydrov,  M. A. Watson,  J. Wenzel,  
[...]
  ----------------------------------------
  Sum of atomic charges =    -0.000000

 -----------------------------------------------------------------
                    Cartesian Multipole Moments
 -----------------------------------------------------------------
    Charge (ESU x 10^10)
                -0.0000
    Dipole Moment (Debye)
         X       0.0000      Y       0.0000      Z      -0.5885
       Tot       0.5885
    Quadrupole Moments (Debye-Ang)
        XX     -26.1234     XY      -0.0000     YY     -26.1234
        XZ       0.0000     YZ       0.0000     ZZ     -25.9612
    Octopole Moments (Debye-Ang^2)
       XXX       0.0000    XXY       0.0000    XYY      -0.0000
       YYY      -0.0000    XXZ     -25.3527    XYZ      -0.0000
       YYZ     -25.3527    XZZ       0.0000    YZZ      -0.0000
       ZZZ     -75.1554
    Hexadecapole Moments (Debye-Ang^3)
      XXXX     -37.1012   XXXY      -0.0000   XXYY     -12.3671
      XYYY      -0.0000   YYYY     -37.1012   XXXZ       0.0000
      XXYZ       0.0000   XYYZ       0.0000   YYYZ       0.0000
      XXZZ     -63.9836   XYZZ      -0.0000   YYZZ     -63.9836
      XZZZ       0.0000   YZZZ      -0.0000   ZZZZ    -326.9670
 -----------------------------------------------------------------
Archival summary:
1\1\n0066.mhg0\SP\ROProcedureUnspecified\BasisUnspecified\l11(3)\yhljason\WedNov1120:33:092020WedNov1120:33:092020\0\\#,ROProcedureUnspecified,BasisUnspecified,\\0,3\P\Cl,1,2.0176\\\@

 Total job time:  1177.70s(wall), 9188.55s(cpu) 
 Wed Nov 11 20:33:09 2020

        *************************************************************
        *                                                           *
        *  Thank you very much for using Q-Chem.  Have a nice day.  *
        *                                                           *
        *************************************************************


 
User input: 13 of 1414 of 14 
 
Q-Chem Developer Version!
                  Welcome to Q-Chem
     A Quantum Leap Into The Future Of Chemistry


 Q-Chem 5.1, Q-Chem, Inc., Pleasanton, CA (2018)

 Yihan Shao,  Zhengting Gan,  E. Epifanovsky,  A. T. B. Gilbert,  M. Wormit,  
 J. Kussmann,  A. W. Lange,  A. Behn,  Jia Deng,  Xintian Feng,  D. Ghosh,  
 M. Goldey,  P. R. Horn,  L. D. Jacobson,  I. Kaliman,  T. Kus,  A. Landau,  
 Jie Liu,  E. I. Proynov,  R. M. Richard,  R. P. Steele,  E. J. Sundstrom,  
 H. L. Woodcock III,  P. M. Zimmerman,  D. Zuev,  B. Albrecht,  E. Alguire,  
 S. A. Baeppler,  D. Barton,  Z. Benda,  Y. A. Bernard,  E. J. Berquist,  
 K. B. Bravaya,  H. Burton,  D. Casanova,  Chun-Min Chang,  Yunqing Chen,  
 A. Chien,  K. D. Closser,  M. P. Coons,  S. Coriani,  S. Dasgupta,  
 A. L. Dempwolff,  M. Diedenhofen,  Hainam Do,  R. G. Edgar,  Po-Tung Fang,  
 S. Faraji,  S. Fatehi,  Qingguo Feng,  K. D. Fenk,  J. Fosso-Tande,  
 Qinghui Ge,  A. Ghysels,  G. Gidofalvi,  J. Gomes,  J. Gonthier,  A. Gunina,  
 D. Hait,  M. W. D. Hanson-Heine,  P. H. P. Harbach,  A. W. Hauser,  
 J. E. Herr,  E. G. Hohenstein,  Z. C. Holden,  Kerwin Hui,  B. C. Huynh,  
 T.-C. Jagau,  Hyunjun Ji,  B. Kaduk,  K. Khistyaev,  Jaehoon Kim,  
 P. Klunzinger,  K. Koh,  D. Kosenkov,  L. Koulias,  T. Kowalczyk,  
 C. M. Krauter,  A. Kunitsa,  Ka Un Lao,  A. Laurent,  K. V. Lawler,  
 Joonho Lee,  D. Lefrancois,  S. Lehtola,  D. S. Levine,  Yi-Pei Li,  
 You-Sheng Lin,  Fenglai Liu,  E. Livshits,  A. Luenser,  P. Manohar,  
 E. Mansoor,  S. F. Manzer,  Shan-Ping Mao,  Yuezhi Mao,  N. Mardirossian,  
 A. V. Marenich,  T. Markovich,  L. A. Martinez-Martinez,  S. A. Maurer,  
 N. J. Mayhall,  S. C. McKenzie,  J.-M. Mewes,  A. F. Morrison,  
 J. W. Mullinax,  K. Nanda,  T. S. Nguyen-Beck,  R. Olivares-Amaya,  
 J. A. Parkhill,  T. M. Perrine,  F. Plasser,  P. Pokhilko,  S. Prager,  
 A. Prociuk,  E. Ramos,  D. R. Rehn,  F. Rob,  M. Schneider,  N. Sergueev,  
 S. M. Sharada,  S. Sharma,  D. W. Small,  T. Stauch,  T. Stein,  
 Yu-Chuan Su,  A. J. W. Thom,  A. Tkatchenko,  T. Tsuchimochi,  N. M. Tubman,  
 L. Vogt,  M. L. Vidal,  O. Vydrov,  M. A. Watson,  J. Wenzel,  
 M. de Wergifosse,  T. A. Wesolowski,  A. White,  J. Witte,  A. Yamada,  
 Jun Yang,  K. Yao,  S. Yeganeh,  S. R. Yost,  Zhi-Qiang You,  A. Zech,  
 Igor Ying Zhang,  Xing Zhang,  Yan Zhao,  Ying Zhu,  B. R. Brooks,  
 G. K. L. Chan,  C. J. Cramer,  M. S. Gordon,  W. J. Hehre,  A. Klamt,  
 M. W. Schmidt,  C. D. Sherrill,  D. G. Truhlar,  A. Aspuru-Guzik,  R. Baer,  
 A. T. Bell,  N. A. Besley,  Jeng-Da Chai,  A. E. DePrince, III,  
 R. A. DiStasio Jr.,  A. Dreuw,  B. D. Dunietz,  T. R. Furlani,  
 Chao-Ping Hsu,  Yousung Jung,  Jing Kong,  D. S. Lambrecht,  WanZhen Liang,  
 C. Ochsenfeld,  V. A. Rassolov,  L. V. Slipchenko,  J. E. Subotnik,  
 T. Van Voorhis,  J. M. Herbert,  A. I. Krylov,  P. M. W. Gill,  M. Head-Gordon

 Contributors to earlier versions of Q-Chem not listed above: 
 R. D. Adamson,  B. Austin,  J. Baker,  G. J. O. Beran,  K. Brandhorst,  
 S. T. Brown,  E. F. C. Byrd,  A. K. Chakraborty,  C.-L. Cheng,  
 Siu Hung Chien,  D. M. Chipman,  D. L. Crittenden,  H. Dachsel,  
 R. J. Doerksen,  A. D. Dutoi,  L. Fusti-Molnar,  W. A. Goddard III,  
 A. Golubeva-Zadorozhnaya,  S. R. Gwaltney,  G. Hawkins,  A. Heyden,  
 S. Hirata,  G. Kedziora,  F. J. Keil,  C. Kelley,  Jihan Kim,  R. A. King,  
 R. Z. Khaliullin,  P. P. Korambath,  W. Kurlancheek,  A. M. Lee,  M. S. Lee,  
 S. V. Levchenko,  Ching Yeh Lin,  D. Liotard,  R. C. Lochan,  I. Lotan,  
 P. E. Maslen,  N. Nair,  D. P. O'Neill,  D. Neuhauser,  E. Neuscamman,  
 C. M. Oana,  R. Olson,  B. Peters,  R. Peverati,  P. A. Pieniazek,  
 Y. M. Rhee,  J. Ritchie,  M. A. Rohrdanz,  E. Rosta,  N. J. Russ,  
 H. F. Schaefer III,  N. E. Schultz,  N. Shenvi,  A. C. Simmonett,  A. Sodt,  
 D. Stuck,  K. S. Thanthiriwatte,  V. Vanovschi,  Tao Wang,  A. Warshel,  
 C. F. Williams,  Q. Wu,  X. Xu,  W. Zhang

 Please cite Q-Chem as follows:
 Y. Shao et al., Mol. Phys. 113, 184-215 (2015)
 DOI: 10.1080/00268976.2014.952696

 Q-Chem 5.1.1 for Intel X86 EM64T Linux

 Parts of Q-Chem use Armadillo 8.300.2 (Tropical Shenanigans).
 http://arma.sourceforge.net/

 Q-Chem begins on Wed Nov 11 20:43:59 2020  

Host: n0066.mhg0
0

     Scratch files written to /local/scratch/users/yhljason/PCl_wB97M2_aug-cc-pcVQZ.inp20201111140442//
The previous job contains 0 fragments, simply inherited here
Input Ideriv = 0
Curr. Ideriv = -1
Max.  Ideriv = 0
Input Ideriv = 1
Curr. Ideriv = 0
Max.  Ideriv = 0

Checking the input file for inconsistencies... 	...done.

--------------------------------------------------------------
User input:
--------------------------------------------------------------
$molecule
read
$end

$rem

jobtype sp
exchange wb97m(2)
xc_grid 000099000590
basis aug-cc-pcVQZ
max_scf_cycles 200
thresh 14
scf_convergence 8
mem_total 128000
cc_memory 96000
cc_backend xm
mem_static 1500
symmetry false
sym_ignore true
scf_guess read
unrestricted false
scf_algorithm gdm
n_frozen_core 0
$end

$multipole_field
ZZ -0.0001
$end


--------------------------------------------------------------
 ----------------------------------------------------------------
             Standard Nuclear Orientation (Angstroms)
    I     Atom           X                Y                Z
 ----------------------------------------------------------------
    1      P       0.0000000000     0.0000000000     0.0000000000
    2      Cl      0.0000000000     0.0000000000     2.0176000000
 ----------------------------------------------------------------
 Nuclear Repulsion Energy =    66.8815368527 hartrees
 There are       17 alpha and       15 beta electrons
 Requested basis set is aug-cc-pCVQZ
 There are 68 shells and 268 basis functions

 Total QAlloc Memory Limit 128000 MB
 Mega-Array Size      1467 MB
 MEM_STATIC part      1500 MB

                       Distance Matrix (Angstroms)
             P (  1)
   Cl(  2)  2.017600
 
 Applying Cartesian multipole field
    Component          Value
    ---------          -----
     (0,0,2)       -1.00000E-04
 Nucleus-field energy     =    -0.0247125064 hartrees
 A cutoff of  1.0D-14 yielded   2219 shell pairs
 There are     34437 function pairs (     58236 Cartesian)
 
 -------------------------------------------------------
 OpenMP Integral Computing Module                       
 Release: version 1.0, May 2013, Q-Chem Inc. Pittsburgh 
 -------------------------------------------------------
 Integral Job Info:
 Integral job number is                      11
 Integral operator is                         1
 short-range coefficients              15000000
 long-range coefficients              100000000
 Omega coefficients                         300
 if combine SR and LR in K                    1
 Integral screening is                        0
 Integral computing path is                   2
 max size of driver memory is           3200000
 size of driver memory is               1704330
 size of scratch memory is             28840424
 max col of scratch BK array              50625
 max len of scratch array in speh3         2114
 max len of scratch index in speh4           50
 max int batch size is                      520
 min int batch size is                       52
 fixed nKL is                                21
 max L of basis functions is                  4
 order of int derivative is                   0
 number of shells is                         68
 number of basis is                         348
 number of cartesian basis is               348
 number of contracted shell pairs          2219
 number of primitive shell pairs          10935
 maxK2 (contraction) of shell pair          169
 max number of K2 of shell pair               1
 max number of CS2 of shell pair            200
 max number of PS2 of shell pair           2028
 mem total for path MDJ                  752464
 -------------------------------------------------------
 Smallest overlap matrix eigenvalue = 2.48E-05
 Guess MOs from SCF MO coefficient file
 Reading MOs from coefficient file
 Reading MOs from coefficient file
 Long-range K will be added via erf
 Coulomb attenuation parameter = 0.3 bohr**(-1)
 A restricted hybrid HF-DFT SCF calculation will be
 performed using Geometric Direct Minimization
 Exchange:     0.1500 Hartree-Fock + 1.0000 wB97M-V + LR-HF
 Correlation:  1.0000 wB97M-V
 Using Euler-Maclaurin-Lebedev (99,590) quadrature formula
 Nonlocal Correlation:  VV10 with C = 0.0100 and b = 6.00 and scale = 1.00000
 Grid used for NLC:  SG-1 standard quadrature
 SCF converges when RMS gradient is below 1.0E-08
Using Q-Chem read-in guess as SCF_GUESS READ specified.

 using 8 threads for integral computing
 -------------------------------------------------------
 OpenMP Integral computing Module                
 Release: version 1.0, May 2013, Q-Chem Inc. Pittsburgh 
 -------------------------------------------------------
 using 8 threads for integral computing
 -------------------------------------------------------
 OpenMP Integral computing Module                
 Release: version 1.0, May 2013, Q-Chem Inc. Pittsburgh 
 -------------------------------------------------------
TIMEINFO->: J/JK contribution 364.47 sec.
 -------------------------------------------------------
 OpenMP BLAS3 based DFT computing Module                
 Release: version 1.0, May 2013, Q-Chem Inc. Pittsburgh 
 -------------------------------------------------------
 -------------------------------------------------------
 OpenMP BLAS3 based DFT computing Module                
 Release: version 1.0, May 2013, Q-Chem Inc. Pittsburgh 
 -------------------------------------------------------
 -------------------------------------------------------
 OpenMP BLAS3 based DFT computing Module                
 Release: version 1.0, May 2013, Q-Chem Inc. Pittsburgh 
 -------------------------------------------------------
 ---------------------------------------
  Cycle       Energy        RMS Gradient
 ---------------------------------------
    1    -801.5172719546      4.75E-09 Normal BFGS step
TIMEINFO->: J/JK contribution 379.22 sec.
   GDM::WARNING energy changes are now smaller than effective accuracy.
   GDM::        calculation will continue, but THRESH should be increased
   GDM::        or SCF_CONVERGENCE decreased.
   GDM::        effective_thresh =   1.700000000000000E-010
 Nonlocal correlation =     0.0431351931
    2    -801.5172719546      3.14E-09 Convergence criterion met
 ---------------------------------------
 wB97M-V orbitals are now ready for the wB97M(2) calculation.
 wB97M(2) energy = Exch (0.62194 SRHF + 1.0 LRHF + wB97M(2)_EXCH) + 
               Corr (wB97M(2)_CORR + 0.34096 MP2 + 0.65904 VV10(b=10))
 SCF time:  CPU 1392.90 s  wall 175.92 s
 SCF   energy in the final basis set = -801.39006803
 Total energy in the final basis set = -801.39006803
 
 Components of the MP2 correlation energy:
        aaaa  correlation energy =        -0.0574683390 au
        abab  correlation energy =        -0.3073659798 au
        bbbb  correlation energy =        -0.0502456532 au
        non-Brillouin singles    =        -0.0008651054 au

 Total  MP2   correlation energy =                    -0.41594508 au
        MP2         total energy =                  -801.80601311 au
 
 --------------------------------------------------------------
 
                    Orbital Energies (a.u.)
 --------------------------------------------------------------
 
 Alpha MOs
 -- Occupied --
******* -77.428  -9.668  -7.370  -7.366  -7.366  -6.777  -4.888
 -4.891  -4.891  -0.987  -0.708  -0.487  -0.477  -0.477  -0.324
 -0.324
 -- Virtual --
  0.020   0.036   0.051   0.051   0.076   0.084   0.095   0.095
  0.130   0.130   0.173   0.173   0.176   0.200   0.259   0.259
  0.260   0.278   0.278   0.319   0.319   0.333   0.360   0.360
  0.395   0.395   0.405   0.405   0.427   0.443   0.458   0.458
  0.473   0.473   0.520   0.529   0.529   0.577   0.577   0.613
  0.698   0.698   0.715   0.772   0.772   0.880   0.900   0.900
  0.986   0.985   0.985   1.005   1.005   1.061   1.061   1.086
  1.086   1.124   1.124   1.134   1.132   1.132   1.142   1.142
  1.195   1.195   1.241   1.256   1.256   1.340   1.362   1.362
  1.439   1.439   1.472   1.531   1.531   1.544   1.608   1.608
  1.737   1.737   1.845   1.845   1.844   1.844   1.912   1.927
  1.927   1.958   1.958   2.033   2.175   2.175   2.209   2.209
  2.295   2.334   2.334   2.553   2.604   2.604   2.664   2.715
  2.715   2.803   2.803   2.851   2.851   2.921   2.970   2.970
  2.984   2.984   3.030   3.030   3.158   3.158   3.194   3.492
  3.498   3.498   3.852   3.852   4.003   4.003   4.311   4.311
  4.355   4.355   4.358   4.396   4.396   4.430   4.430   4.464
  4.464   4.510   4.510   4.565   4.626   4.626   4.734   4.818
  4.818   5.455   5.720   5.720   6.418   6.585   8.200   8.200
  8.457   8.457   8.817   9.997  11.587  11.587  11.754  11.754
 12.125  13.756  13.756  14.377  15.849  15.849  15.862  15.862
 15.908  15.908  16.054  17.593  17.593  18.201  21.007  21.007
 21.026  21.026  21.077  21.077  21.093  22.584  26.667  26.667
 26.833  26.833  27.121  33.426  37.071  37.071  37.195  37.195
 37.424  39.518  39.518  40.049  46.389  46.389  46.389  46.389
 46.389  46.389  46.391  46.391  46.393  51.320  51.320  51.851
 56.530  56.530  56.540  56.540  56.565  56.565  56.616  64.726
 64.726  64.727  64.727  64.727  64.727  64.727  64.730  64.730
 67.395  75.154  75.154  75.165  75.165  75.192  75.192  75.201
 79.524  79.526  79.646  79.646  79.860  97.397 110.019 110.021
110.113 110.113 110.267 124.373 124.373 124.769 165.300 165.300
165.625 323.595 455.879
 
 Beta MOs
 -- Occupied --
******* -77.420  -9.667  -7.369  -7.363  -7.363  -6.768  -4.882
 -4.873  -4.873  -0.976  -0.656  -0.456  -0.457  -0.457
 -- Virtual --
 -0.033  -0.033   0.026   0.032   0.049   0.049   0.086   0.085
  0.094   0.094   0.130   0.130   0.175   0.175   0.177   0.199
  0.258   0.258   0.260   0.286   0.286   0.322   0.322   0.342
  0.403   0.403   0.382   0.382   0.420   0.420   0.426   0.448
  0.450   0.450   0.469   0.469   0.524   0.531   0.531   0.585
  0.585   0.622   0.712   0.712   0.722   0.771   0.771   0.886
  0.906   0.906   0.993   1.026   1.026   1.018   1.018   1.082
  1.082   1.145   1.145   1.135   1.135   1.162   1.197   1.197
  1.178   1.178   1.206   1.206   1.256   1.271   1.271   1.349
  1.374   1.374   1.453   1.453   1.491   1.538   1.538   1.598
  1.616   1.616   1.738   1.738   1.847   1.847   1.861   1.861
  1.925   1.934   1.934   1.965   1.965   2.046   2.185   2.185
  2.223   2.223   2.318   2.359   2.359   2.573   2.702   2.702
  2.682   2.849   2.849   2.886   2.886   2.914   2.914   2.957
  3.033   3.033   3.146   3.146   3.143   3.143   3.238   3.238
  3.256   3.496   3.532   3.532   3.862   3.862   4.018   4.018
  4.380   4.380   4.367   4.367   4.362   4.409   4.409   4.437
  4.437   4.474   4.474   4.518   4.518   4.570   4.635   4.635
  4.750   4.833   4.833   5.468   5.732   5.732   6.442   6.611
  8.273   8.273   8.500   8.500   8.841  10.003  11.594  11.594
 11.759  11.759  12.128  13.837  13.837  14.400  15.853  15.853
 15.866  15.866  15.910  15.910  16.057  17.601  17.601  18.205
 21.007  21.007  21.026  21.026  21.077  21.077  21.093  22.614
 26.696  26.696  26.850  26.850  27.135  33.432  37.075  37.075
 37.197  37.197  37.426  39.554  39.554  40.062  46.400  46.401
 46.401  46.400  46.404  46.404  46.401  46.401  46.402  51.324
 51.324  51.853  56.552  56.552  56.557  56.557  56.580  56.580
 56.630  64.728  64.728  64.729  64.729  64.729  64.730  64.730
 64.732  64.732  67.420  75.158  75.158  75.168  75.168  75.195
 75.195  75.203  79.553  79.555  79.665  79.665  79.876  97.402
110.024 110.025 110.116 110.116 110.269 124.388 124.388 124.775
165.302 165.302 165.626 323.611 455.881
 --------------------------------------------------------------
 
          Ground-State Mulliken Net Atomic Charges

     Atom                 Charge (a.u.)
  ----------------------------------------
      1 P                     0.147502
      2 Cl                   -0.147502
  ----------------------------------------
  Sum of atomic charges =    -0.000000

 -----------------------------------------------------------------
                    Cartesian Multipole Moments
 -----------------------------------------------------------------
    Charge (ESU x 10^10)
                -0.0000
    Dipole Moment (Debye)
         X       0.0000      Y      -0.0000      Z      -0.4975
       Tot       0.4975
    Quadrupole Moments (Debye-Ang)
        XX     -26.1266     XY      -0.0000     YY     -26.1266
        XZ       0.0000     YZ      -0.0000     ZZ     -25.6420
    Octopole Moments (Debye-Ang^2)
       XXX       0.0000    XXY      -0.0000    XYY      -0.0000
       YYY      -0.0000    XXZ     -25.2801    XYZ       0.0000
       YYZ     -25.2801    XZZ       0.0000    YZZ      -0.0000
       ZZZ     -74.0961
    Hexadecapole Moments (Debye-Ang^3)
      XXXX     -37.1105   XXXY      -0.0000   XXYY     -12.3702
      XYYY      -0.0000   YYYY     -37.1105   XXXZ       0.0000
      XXYZ       0.0000   XYYZ       0.0000   YYYZ      -0.0000
      XXZZ     -63.7290   XYZZ      -0.0000   YYZZ     -63.7290
      XZZZ       0.0000   YZZZ      -0.0000   ZZZZ    -323.3311
 -----------------------------------------------------------------
Archival summary:
1\1\n0066.mhg0\SP\ROProcedureUnspecified\BasisUnspecified\l11(3)\yhljason\WedNov1121:02:462020WedNov1121:02:462020\0\\#,ROProcedureUnspecified,BasisUnspecified,\\0,3\P\Cl,1,2.0176\\\@

 Total job time:  1127.75s(wall), 8788.65s(cpu) 
 Wed Nov 11 21:02:46 2020

        *************************************************************
        *                                                           *
        *  Thank you very much for using Q-Chem.  Have a nice day.  *
        *                                                           *
        *************************************************************


