Q-Chem Developer Version!
                  Welcome to Q-Chem
     A Quantum Leap Into The Future Of Chemistry


 Q-Chem 5.1, Q-Chem, Inc., Pleasanton, CA (2018)

 Yihan Shao,  Zhengting Gan,  E. Epifanovsky,  A. T. B. Gilbert,  M. Wormit,  
 J. Kussmann,  A. W. Lange,  A. Behn,  Jia Deng,  Xintian Feng,  D. Ghosh,  
 M. Goldey,  P. R. Horn,  L. D. Jacobson,  I. Kaliman,  T. Kus,  A. Landau,  
 Jie Liu,  E. I. Proynov,  R. M. Richard,  R. P. Steele,  E. J. Sundstrom,  
 H. L. Woodcock III,  P. M. Zimmerman,  D. Zuev,  B. Albrecht,  E. Alguire,  
 S. A. Baeppler,  D. Barton,  Z. Benda,  Y. A. Bernard,  E. J. Berquist,  
 K. B. Bravaya,  H. Burton,  D. Casanova,  Chun-Min Chang,  Yunqing Chen,  
 A. Chien,  K. D. Closser,  M. P. Coons,  S. Coriani,  S. Dasgupta,  
 A. L. Dempwolff,  M. Diedenhofen,  Hainam Do,  R. G. Edgar,  Po-Tung Fang,  
 S. Faraji,  S. Fatehi,  Qingguo Feng,  K. D. Fenk,  J. Fosso-Tande,  
 Qinghui Ge,  A. Ghysels,  G. Gidofalvi,  J. Gomes,  J. Gonthier,  A. Gunina,  
 D. Hait,  M. W. D. Hanson-Heine,  P. H. P. Harbach,  A. W. Hauser,  
 J. E. Herr,  E. G. Hohenstein,  Z. C. Holden,  Kerwin Hui,  B. C. Huynh,  
 T.-C. Jagau,  Hyunjun Ji,  B. Kaduk,  K. Khistyaev,  Jaehoon Kim,  
 P. Klunzinger,  K. Koh,  D. Kosenkov,  L. Koulias,  T. Kowalczyk,  
 C. M. Krauter,  A. Kunitsa,  Ka Un Lao,  A. Laurent,  K. V. Lawler,  
 Joonho Lee,  D. Lefrancois,  S. Lehtola,  D. S. Levine,  Yi-Pei Li,  
 You-Sheng Lin,  Fenglai Liu,  E. Livshits,  A. Luenser,  P. Manohar,  
 E. Mansoor,  S. F. Manzer,  Shan-Ping Mao,  Yuezhi Mao,  N. Mardirossian,  
 A. V. Marenich,  T. Markovich,  L. A. Martinez-Martinez,  S. A. Maurer,  
 N. J. Mayhall,  S. C. McKenzie,  J.-M. Mewes,  A. F. Morrison,  
 J. W. Mullinax,  K. Nanda,  T. S. Nguyen-Beck,  R. Olivares-Amaya,  
 J. A. Parkhill,  T. M. Perrine,  F. Plasser,  P. Pokhilko,  S. Prager,  
 A. Prociuk,  E. Ramos,  D. R. Rehn,  F. Rob,  M. Schneider,  N. Sergueev,  
 S. M. Sharada,  S. Sharma,  D. W. Small,  T. Stauch,  T. Stein,  
 Yu-Chuan Su,  A. J. W. Thom,  A. Tkatchenko,  T. Tsuchimochi,  N. M. Tubman,  
 L. Vogt,  M. L. Vidal,  O. Vydrov,  M. A. Watson,  J. Wenzel,  
 M. de Wergifosse,  T. A. Wesolowski,  A. White,  J. Witte,  A. Yamada,  
 Jun Yang,  K. Yao,  S. Yeganeh,  S. R. Yost,  Zhi-Qiang You,  A. Zech,  
 Igor Ying Zhang,  Xing Zhang,  Yan Zhao,  Ying Zhu,  B. R. Brooks,  
 G. K. L. Chan,  C. J. Cramer,  M. S. Gordon,  W. J. Hehre,  A. Klamt,  
 M. W. Schmidt,  C. D. Sherrill,  D. G. Truhlar,  A. Aspuru-Guzik,  R. Baer,  
 A. T. Bell,  N. A. Besley,  Jeng-Da Chai,  A. E. DePrince, III,  
 R. A. DiStasio Jr.,  A. Dreuw,  B. D. Dunietz,  T. R. Furlani,  
 Chao-Ping Hsu,  Yousung Jung,  Jing Kong,  D. S. Lambrecht,  WanZhen Liang,  
 C. Ochsenfeld,  V. A. Rassolov,  L. V. Slipchenko,  J. E. Subotnik,  
 T. Van Voorhis,  J. M. Herbert,  A. I. Krylov,  P. M. W. Gill,  M. Head-Gordon

 Contributors to earlier versions of Q-Chem not listed above: 
 R. D. Adamson,  B. Austin,  J. Baker,  G. J. O. Beran,  K. Brandhorst,  
 S. T. Brown,  E. F. C. Byrd,  A. K. Chakraborty,  C.-L. Cheng,  
 Siu Hung Chien,  D. M. Chipman,  D. L. Crittenden,  H. Dachsel,  
 R. J. Doerksen,  A. D. Dutoi,  L. Fusti-Molnar,  W. A. Goddard III,  
 A. Golubeva-Zadorozhnaya,  S. R. Gwaltney,  G. Hawkins,  A. Heyden,  
 S. Hirata,  G. Kedziora,  F. J. Keil,  C. Kelley,  Jihan Kim,  R. A. King,  
 R. Z. Khaliullin,  P. P. Korambath,  W. Kurlancheek,  A. M. Lee,  M. S. Lee,  
 S. V. Levchenko,  Ching Yeh Lin,  D. Liotard,  R. C. Lochan,  I. Lotan,  
 P. E. Maslen,  N. Nair,  D. P. O'Neill,  D. Neuhauser,  E. Neuscamman,  
 C. M. Oana,  R. Olson,  B. Peters,  R. Peverati,  P. A. Pieniazek,  
 Y. M. Rhee,  J. Ritchie,  M. A. Rohrdanz,  E. Rosta,  N. J. Russ,  
 H. F. Schaefer III,  N. E. Schultz,  N. Shenvi,  A. C. Simmonett,  A. Sodt,  
 D. Stuck,  K. S. Thanthiriwatte,  V. Vanovschi,  Tao Wang,  A. Warshel,  
 C. F. Williams,  Q. Wu,  X. Xu,  W. Zhang

 Please cite Q-Chem as follows:
 Y. Shao et al., Mol. Phys. 113, 184-215 (2015)
 DOI: 10.1080/00268976.2014.952696

 Q-Chem 5.1.1 for Intel X86 EM64T Linux

 Parts of Q-Chem use Armadillo 8.300.2 (Tropical Shenanigans).
 http://arma.sourceforge.net/

 Q-Chem begins on Thu Nov 19 15:18:42 2020  

Host: n0043.mhg0
0

     Scratch files written to /local/scratch/users/yhljason/Cl2_ccsd_aug-cc-pcVTZ.inp20201119151720//
Input Ideriv = 1
Curr. Ideriv = -1
Max.  Ideriv = 1

Checking the input file for inconsistencies... 	...done.

--------------------------------------------------------------
User input:
--------------------------------------------------------------
$molecule
0 1
Cl1	0.0000	0.0000	0.0000
Cl2	0.0000	0.0000	1.9879
$end

$rem
method ccsd
basis aug-cc-pcVTZ
CC_REF_PROP true
cc_fullresponse true
n_frozen_core 0
unrestricted true
scf_convergence 8
scf_algorithm gdm
thresh 14
symmetry false
sym_ignore true
cc_memory 48000
mem_total 63000
mem_static  1500
internal_stability_iter 15
$end
--------------------------------------------------------------
 ----------------------------------------------------------------
             Standard Nuclear Orientation (Angstroms)
    I     Atom           X                Y                Z
 ----------------------------------------------------------------
    1      Cl      0.0000000000     0.0000000000     0.0000000000
    2      Cl      0.0000000000     0.0000000000     1.9879000000
 ----------------------------------------------------------------
 Nuclear Repulsion Energy =    76.9315427945 hartrees
 There are       17 alpha and       17 beta electrons
 Requested basis set is aug-cc-pCVTZ
 There are 46 shells and 150 basis functions
 Total memory of 63000MB is distributed as follows: 
   QALLOC including MEM_STATIC uses 15000MB
   MEM_STATIC is set to 1500MB
   CCMAN JOB total memory use is  48000MB
 Warning: actual memory use might exceed 63000MB

 Total QAlloc Memory Limit  15000 MB
 Mega-Array Size      1467 MB
 MEM_STATIC part      1500 MB

                       Distance Matrix (Angstroms)
             Cl(  1)
   Cl(  2)  1.987900
 
 A cutoff of  1.0D-14 yielded   1052 shell pairs
 There are     11116 function pairs (     15675 Cartesian)
 
 -------------------------------------------------------
 OpenMP Integral Computing Module                       
 Release: version 1.0, May 2013, Q-Chem Inc. Pittsburgh 
 -------------------------------------------------------
 Integral Job Info:
 Integral job number is                      11
 Integral operator is                         1
 short-range coefficients                     0
 long-range coefficients              100000000
 Omega coefficients                           0
 if combine SR and LR in K                    0
 Integral screening is                        0
 Integral computing path is                   2
 max size of driver memory is            800000
 size of driver memory is                776718
 size of scratch memory is             29531563
 max col of scratch BK array              10000
 max len of scratch array in speh3          662
 max len of scratch index in speh4           32
 max int batch size is                      520
 min int batch size is                       52
 fixed nKL is                                31
 max L of basis functions is                  3
 order of int derivative is                   0
 number of shells is                         46
 number of basis is                         178
 number of cartesian basis is               178
 number of contracted shell pairs          1052
 number of primitive shell pairs           7853
 maxK2 (contraction) of shell pair          169
 max number of K2 of shell pair               1
 max number of CS2 of shell pair            100
 max number of PS2 of shell pair           2028
 mem total for path MDJ                  585852
 -------------------------------------------------------
 Smallest overlap matrix eigenvalue = 3.63E-04

 Scale SEOQF with 1.000000e-01/1.000000e-01/1.000000e-01

 Standard Electronic Orientation quadrupole field applied
 Nucleus-field energy     =    -0.0000000072 hartrees
 Guess from superposition of atomic densities
 Warning:  Energy on first SCF cycle will be non-variational
 SAD guess density has 34.000000 electrons

 -----------------------------------------------------------------------
  General SCF calculation program by
  Eric Jon Sundstrom, Paul Horn, Yuezhi Mao, Dmitri Zuev, Alec White,
  David Stuck, Shaama M.S., Shane Yost, Joonho Lee, David Small,
  Daniel Levine, Susi Lehtola, Hugh Burton, Evgeny Epifanovsky
 -----------------------------------------------------------------------
Running Object-Oriented UHF
performing a single roothaan step with Fock from read density so that orbitals are available to all algorithms
energy of the guess density (C=0) -919.090663680815
We will preform up to 15 macro iterations over saddle points until a stable solution is found
Energy prior to optimization (guess energy) = -918.983322252112
Begin Timing: Total SCF Calculation
Begin Timing: SCF Single Stationary Point Calculation
begin iterations for algorithm: GDM          
the SCF tolerance is set to 1.00e-08
    1    -918.9833222521      6.60e-02     00000  Normal BFGS step
    2    -918.9990873476      2.14e-02     00000  Normal BFGS step
    3    -919.0022631526      3.54e-03     00000  Normal BFGS step
    4    -919.0024001355      1.44e-03     00000  Normal BFGS step
    5    -919.0024086781      1.23e-04     00000  Normal BFGS step
    6    -919.0024088021      2.88e-05     00000  Normal BFGS step
    7    -919.0024088076      5.11e-06     00000  Normal BFGS step
    8    -919.0024088077      7.91e-07     00000  Normal BFGS step
    9    -919.0024088077      1.61e-07     00000  Normal BFGS step
   10    -919.0024088077      2.31e-08     00000  Normal BFGS step
   11    -919.0024088077      2.81e-09     00000 Convergence criterion met
Timing for Single Stationary Point: 22.00s (wall), 350.38s (cpu)
Begin Timing: Stability
===================================================
Beginning Test for Internal Stability
===================================================
generating davidson guess vectors based on koopmans excitations
    1      1.04e+00     00000 Davidson Iteration
    2      4.77e-01     00000 Davidson Iteration
    3      2.10e-01     00000 Davidson Iteration
    4      3.96e-02     00000 Davidson Iteration
    5      5.33e-03     00000 Davidson Iteration
    6      1.12e-03     00000 Davidson Iteration
    7      4.22e-04     00000 Davidson Iteration
    8      2.50e-04     00000 Davidson Iteration
    9      1.07e-04     00000 Davidson Iteration
   10      3.30e-05     00000 Davidson Iteration
   11      3.71e-05     00000 Davidson Converged
converged_eigenvalues
   0.1391
   0.3291
Threshold for negative eigenvalues: -1.0e-05
solution was a local minimum (stable)
===================================================
End Test for Internal Stability
===================================================
Our SCF solution is stable!
Timing for Total SCF: 47.00s (wall), 755.11s (cpu)
 Total energy in the final basis set =     -919.0024088077
<S^2> =          0.000000000
    ==================================================
              The end of Object-Oriented SCFman       
    ==================================================


 ------------------------------------------------------------------------------

   CCMAN2: suite of methods based on coupled cluster
           and equation of motion theories.

   Components:
   * libvmm-1.3-trunk
     by Evgeny Epifanovsky, Ilya Kaliman.
   * libtensor-2.5-trunk
     by Evgeny Epifanovsky, Michael Wormit, Dmitry Zuev, Sam Manzer, 
        Ilya Kaliman.
   * libcc-2.5-trunk
     by Evgeny Epifanovsky, Arik Landau, Tomasz Kus, Kirill Khistyaev, 
        Dmitry Zuev, Prashant Manohar, Xintian Feng, Anna Krylov, 
        Matthew Goldey, Alec White, Thomas Jagau, Kaushik Nanda, 
        Anastasia Gunina, Alexander Kunitsa, Joonho Lee.

   CCMAN original authors:
   Anna I. Krylov, C. David Sherrill, Steven R. Gwaltney,
   Edward F. C. Byrd (2000)
   Sergey V. Levchenko, Lyudmila V. Slipchenko, Tao Wang,
   Ana-Maria C. Cristian (2003)
   Piotr A. Pieniazek, C. Melania Oana, Evgeny Epifanovsky (2007)
   Prashant Manohar (2009)

 ------------------------------------------------------------------------------


 Allocating and initializing 48000MB of RAM...
 Calculation will run on 16 cores.

 
 Alpha MOs, Unrestricted
 -- Occupied --                  
-104.90 -104.90  -10.62  -10.62   -8.09   -8.09   -8.08   -8.08
  1 A     2 A     3 A     4 A     5 A     6 A     7 A     8 A                  
 -8.085  -8.085  -1.220  -1.015  -0.599  -0.570  -0.570  -0.444
  9 A    10 A    11 A    12 A    13 A    14 A    15 A    16 A                  
 -0.444
 17 A                                                                          
 -- Virtual --                   
  0.025   0.100   0.107   0.111   0.111   0.138   0.139   0.139
 18 A    19 A    20 A    21 A    22 A    23 A    24 A    25 A                  
  0.251   0.291   0.291   0.328   0.328   0.396   0.411   0.411
 26 A    27 A    28 A    29 A    30 A    31 A    32 A    33 A                  
  0.492   0.509   0.509   0.605   0.605   0.680   0.718   0.718
 34 A    35 A    36 A    37 A    38 A    39 A    40 A    41 A                  
  0.734   0.775   0.778   0.778   0.835   0.835   0.858   0.905
 42 A    43 A    44 A    45 A    46 A    47 A    48 A    49 A                  
  0.905   0.988   0.988   1.071   1.103   1.103   1.104   1.104
 50 A    51 A    52 A    53 A    54 A    55 A    56 A    57 A                  
  1.254   1.254   1.314   1.393   1.393   1.485   1.485   1.664
 58 A    59 A    60 A    61 A    62 A    63 A    64 A    65 A                  
  1.692   1.701   1.701   2.307   2.307   2.318   2.330   2.330
 66 A    67 A    68 A    69 A    70 A    71 A    72 A    73 A                  
  2.390   2.390   2.496   2.496   2.552   2.574   2.574   2.752
 74 A    75 A    76 A    77 A    78 A    79 A    80 A    81 A                  
  2.828   2.828   2.947   2.947   2.954   3.000   3.000   3.006
 82 A    83 A    84 A    85 A    86 A    87 A    88 A    89 A                  
  3.006   3.065   3.065   3.146   3.146   3.232   3.379   3.379
 90 A    91 A    92 A    93 A    94 A    95 A    96 A    97 A                  
  3.502   3.824   4.400  10.314  10.314  10.338  10.338  10.349
 98 A    99 A   100 A   101 A   102 A   103 A   104 A   105 A                  
 10.349  10.378  10.419  10.419  10.538  12.606  12.606  12.693
106 A   107 A   108 A   109 A   110 A   111 A   112 A   113 A                  
 12.693  12.761  13.428  17.951  18.477  36.873  36.876  36.876
114 A   115 A   116 A   117 A   118 A   119 A   120 A   121 A                  
 36.882  36.882  36.887  36.887  36.890  36.890  36.892  36.892
122 A   123 A   124 A   125 A   126 A   127 A   128 A   129 A                  
 36.894  36.894  36.900  46.459  46.459  46.472  46.472  46.479
130 A   131 A   132 A   133 A   134 A   135 A   136 A   137 A                  
 46.479  46.513  46.523  46.523  46.593  54.941  54.941  55.038
138 A   139 A   140 A   141 A   142 A   143 A   144 A   145 A                  
 55.038  55.122  55.853 103.146 104.332
146 A   147 A   148 A   149 A   150 A                                          
 
 Beta MOs, Unrestricted
 -- Occupied --                  
-104.90 -104.90  -10.62  -10.62   -8.09   -8.09   -8.08   -8.08
  1 A     2 A     3 A     4 A     5 A     6 A     7 A     8 A                  
 -8.085  -8.085  -1.220  -1.015  -0.599  -0.570  -0.570  -0.444
  9 A    10 A    11 A    12 A    13 A    14 A    15 A    16 A                  
 -0.444
 17 A                                                                          
 -- Virtual --                   
  0.025   0.100   0.107   0.111   0.111   0.138   0.139   0.139
 18 A    19 A    20 A    21 A    22 A    23 A    24 A    25 A                  
  0.251   0.291   0.291   0.328   0.328   0.396   0.411   0.411
 26 A    27 A    28 A    29 A    30 A    31 A    32 A    33 A                  
  0.492   0.509   0.509   0.605   0.605   0.680   0.718   0.718
 34 A    35 A    36 A    37 A    38 A    39 A    40 A    41 A                  
  0.734   0.775   0.778   0.778   0.835   0.835   0.858   0.905
 42 A    43 A    44 A    45 A    46 A    47 A    48 A    49 A                  
  0.905   0.988   0.988   1.071   1.103   1.103   1.104   1.104
 50 A    51 A    52 A    53 A    54 A    55 A    56 A    57 A                  
  1.254   1.254   1.314   1.393   1.393   1.485   1.485   1.664
 58 A    59 A    60 A    61 A    62 A    63 A    64 A    65 A                  
  1.692   1.701   1.701   2.307   2.307   2.318   2.330   2.330
 66 A    67 A    68 A    69 A    70 A    71 A    72 A    73 A                  
  2.390   2.390   2.496   2.496   2.552   2.574   2.574   2.752
 74 A    75 A    76 A    77 A    78 A    79 A    80 A    81 A                  
  2.828   2.828   2.947   2.947   2.954   3.000   3.000   3.006
 82 A    83 A    84 A    85 A    86 A    87 A    88 A    89 A                  
  3.006   3.065   3.065   3.146   3.146   3.232   3.379   3.379
 90 A    91 A    92 A    93 A    94 A    95 A    96 A    97 A                  
  3.502   3.824   4.400  10.314  10.314  10.338  10.338  10.349
 98 A    99 A   100 A   101 A   102 A   103 A   104 A   105 A                  
 10.349  10.378  10.419  10.419  10.538  12.606  12.606  12.693
106 A   107 A   108 A   109 A   110 A   111 A   112 A   113 A                  
 12.693  12.761  13.428  17.951  18.477  36.873  36.876  36.876
114 A   115 A   116 A   117 A   118 A   119 A   120 A   121 A                  
 36.882  36.882  36.887  36.887  36.890  36.890  36.892  36.892
122 A   123 A   124 A   125 A   126 A   127 A   128 A   129 A                  
 36.894  36.894  36.900  46.459  46.459  46.472  46.472  46.479
130 A   131 A   132 A   133 A   134 A   135 A   136 A   137 A                  
 46.479  46.513  46.523  46.523  46.593  54.941  54.941  55.038
138 A   139 A   140 A   141 A   142 A   143 A   144 A   145 A                  
 55.038  55.122  55.853 103.146 104.332
146 A   147 A   148 A   149 A   150 A                                          

 Occupation and symmetry of molecular orbitals

 Point group: C1 (1 irreducible representation).

                           A     All 
 -------------------------------------
 All molecular orbitals:
  - Alpha                  150   150 
  - Beta                   150   150 
 -------------------------------------
 Alpha orbitals:
  - Frozen occupied        0     0   
  - Active occupied        17    17  
  - Active virtual         133   133 
  - Frozen virtual         0     0   
 -------------------------------------
 Beta orbitals:
  - Frozen occupied        0     0   
  - Active occupied        17    17  
  - Active virtual         133   133 
  - Frozen virtual         0     0   
 -------------------------------------

 Import integrals:   CPU 0.00 s  wall 0.00 s

 Import integrals:   CPU 486.31 s  wall 34.05 s

 MP2 amplitudes:   CPU 9.81 s  wall 0.75 s

Running a double precision version
           CCSD T amplitudes will be solved using DIIS.

           Start     Size      MaxIter   EConv     TConv     
           3         7         100       1.00e-06  1.00e-04  
 ------------------------------------------------------------------------------
           Energy (a.u.)   Ediff      Tdiff       Comment
 ------------------------------------------------------------------------------
          -920.07157119                           
     1    -920.08422615   1.27e-02   6.95e-01     
     2    -920.09527706   1.11e-02   7.16e-02     
     3    -920.09624588   9.69e-04   2.43e-02     
     4    -920.09712122   8.75e-04   7.56e-03     Switched to DIIS steps.
     5    -920.09727008   1.49e-04   4.04e-03     
     6    -920.09726856   1.52e-06   7.17e-04     
     7    -920.09726794   6.19e-07   2.05e-04     
     8    -920.09726818   2.41e-07   8.30e-05     
 ------------------------------------------------------------------------------
          -920.09726818                           CCSD T converged.

End of double precision
 SCF energy                 = -919.00240881
 MP2 energy                 = -920.07157119
 CCSD correlation energy     =   -1.09485937
 CCSD total energy           = -920.09726818

 CCSD  T1^2 = 0.0025  T2^2 = 0.1837  Leading amplitudes:

 Amplitude    Orbitals with energies
  0.0149       13 (A) B                  ->    48 (A) B                   
              -0.5985                          0.8579                     
  0.0149       13 (A) A                  ->    48 (A) A                   
              -0.5985                          0.8579                     
 -0.0126       14 (A) B                  ->    29 (A) B                   
              -0.5704                          0.3283                     
  0.0126       15 (A) B                  ->    30 (A) B                   
              -0.5704                          0.3283                     
 -0.0126       14 (A) A                  ->    29 (A) A                   
              -0.5704                          0.3283                     
  0.0126       15 (A) A                  ->    30 (A) A                   
              -0.5704                          0.3283                     

 Amplitude    Orbitals with energies
 -0.0601       13 (A) A      13 (A) B    ->    18 (A) A      18 (A) B     
              -0.5985       -0.5985            0.0250        0.0250       
  0.0601       13 (A) A      13 (A) B    ->    18 (A) B      18 (A) A     
              -0.5985       -0.5985            0.0250        0.0250       
  0.0601       13 (A) B      13 (A) A    ->    18 (A) A      18 (A) B     
              -0.5985       -0.5985            0.0250        0.0250       
 -0.0601       13 (A) B      13 (A) A    ->    18 (A) B      18 (A) A     
              -0.5985       -0.5985            0.0250        0.0250       

 Computing CCSD intemediates for later calculations in double precision
 Finished.

Running a double precision version
           CCSD Lambda amplitudes will be solved using DIIS.
           Start     Size      MaxIter   EConv     LConv     
           3         7         100       1.00e-06  1.00e-04  
 ------------------------------------------------------------------------------
            Enorm      Ldiff       Comment
 ------------------------------------------------------------------------------
     1     3.46e-02   3.11e-02     
     2     5.47e-03   1.42e-03     
     3     2.13e-03   1.08e-03     
     4     5.95e-04   3.27e-04     Switched to DIIS steps.
     5     1.79e-04   1.32e-04     
     6     4.24e-05   1.49e-05     
     7     1.61e-05   1.47e-06     
     8     4.25e-06   5.65e-08     
     9     1.41e-06   5.71e-08     
    10     4.30e-07   2.26e-08     
 ------------------------------------------------------------------------------
                                   CCSD Lambda converged.

 Computing density matrices in double precision...
           Orbital response amplitudes will be solved using DIIS.
           Start     Size      MaxIter   EConv     LConv     
           3         7         100       1.00e-06  1.00e-06  
 ------------------------------------------------------------------------------
            Enorm      Ldiff       Comment
 ------------------------------------------------------------------------------
     1     2.24e-02   3.87e-03     
     2     1.06e-02   2.63e-03     
     3     8.86e-03   1.97e-03     
     4     3.49e-04   1.94e-03     Switched to DIIS steps.
     5     4.88e-05   4.88e-05     
     6     3.54e-06   5.48e-06     
     7     1.30e-06   4.70e-07     
     8     1.65e-07   4.64e-08     
 ------------------------------------------------------------------------------
                                   Orbital response converged.

 Computing density matrices... Done.
 Reference state properties
 Relaxed dipole moment (a.u.): 0.000000 (X 0.000000, Y 0.000000, Z 0.000000)
 Relaxed R-squared (a.u.): 294.318772 (XX 18.910581, YY 18.910581, ZZ 256.497611)
 Relaxed density matrix was written to a file for further analysis.

 CCSD calculation:   CPU 8072.84 s  wall 812.90 s

 Total ccman2 time:   CPU 8665.90 s  wall 858.13 s

 
 --------------------------------------------------------------
 
                    Orbital Energies (a.u.)
 --------------------------------------------------------------
 
 Alpha MOs
 -- Occupied --
*******-104.899 -10.621 -10.621  -8.087  -8.087  -8.085  -8.085
 -8.085  -8.085  -1.220  -1.015  -0.599  -0.570  -0.570  -0.444
 -0.444
 -- Virtual --
  0.025   0.100   0.107   0.111   0.111   0.138   0.139   0.139
  0.251   0.291   0.291   0.328   0.328   0.396   0.411   0.411
  0.492   0.509   0.509   0.605   0.605   0.680   0.718   0.718
  0.734   0.775   0.778   0.778   0.835   0.835   0.858   0.905
  0.905   0.988   0.988   1.071   1.103   1.103   1.104   1.104
  1.254   1.254   1.314   1.393   1.393   1.485   1.485   1.664
  1.692   1.701   1.701   2.307   2.307   2.318   2.330   2.330
  2.390   2.390   2.496   2.496   2.552   2.574   2.574   2.752
  2.828   2.828   2.947   2.947   2.954   3.000   3.000   3.006
  3.006   3.065   3.065   3.146   3.146   3.232   3.379   3.379
  3.502   3.824   4.400  10.314  10.314  10.338  10.338  10.349
 10.349  10.378  10.419  10.419  10.538  12.606  12.606  12.693
 12.693  12.761  13.428  17.951  18.477  36.873  36.876  36.876
 36.882  36.882  36.887  36.887  36.890  36.890  36.892  36.892
 36.894  36.894  36.900  46.459  46.459  46.472  46.472  46.479
 46.479  46.513  46.523  46.523  46.593  54.941  54.941  55.038
 55.038  55.122  55.853 103.146 104.332
 
 Beta MOs
 -- Occupied --
*******-104.899 -10.621 -10.621  -8.087  -8.087  -8.085  -8.085
 -8.085  -8.085  -1.220  -1.015  -0.599  -0.570  -0.570  -0.444
 -0.444
 -- Virtual --
  0.025   0.100   0.107   0.111   0.111   0.138   0.139   0.139
  0.251   0.291   0.291   0.328   0.328   0.396   0.411   0.411
  0.492   0.509   0.509   0.605   0.605   0.680   0.718   0.718
  0.734   0.775   0.778   0.778   0.835   0.835   0.858   0.905
  0.905   0.988   0.988   1.071   1.103   1.103   1.104   1.104
  1.254   1.254   1.314   1.393   1.393   1.485   1.485   1.664
  1.692   1.701   1.701   2.307   2.307   2.318   2.330   2.330
  2.390   2.390   2.496   2.496   2.552   2.574   2.574   2.752
  2.828   2.828   2.947   2.947   2.954   3.000   3.000   3.006
  3.006   3.065   3.065   3.146   3.146   3.232   3.379   3.379
  3.502   3.824   4.400  10.314  10.314  10.338  10.338  10.349
 10.349  10.378  10.419  10.419  10.538  12.606  12.606  12.693
 12.693  12.761  13.428  17.951  18.477  36.873  36.876  36.876
 36.882  36.882  36.887  36.887  36.890  36.890  36.892  36.892
 36.894  36.894  36.900  46.459  46.459  46.472  46.472  46.479
 46.479  46.513  46.523  46.523  46.593  54.941  54.941  55.038
 55.038  55.122  55.853 103.146 104.332
 --------------------------------------------------------------
 
          Ground-State Mulliken Net Atomic Charges

     Atom                 Charge (a.u.)    Spin (a.u.)
  --------------------------------------------------------
      1 Cl                   -0.000000       0.000000
      2 Cl                    0.000000      -0.000000
  --------------------------------------------------------
  Sum of atomic charges =     0.000000
  Sum of spin   charges =    -0.000000

 -----------------------------------------------------------------
                    Cartesian Multipole Moments
 -----------------------------------------------------------------
    Charge (ESU x 10^10)
                -0.0000
    Dipole Moment (Debye)
         X       0.0000      Y      -0.0000      Z       0.0000
       Tot       0.0000
    Quadrupole Moments (Debye-Ang)
        XX     -25.4354     XY       0.0000     YY     -25.4354
        XZ       0.0000     YZ       0.0000     ZZ     -22.3203
    Octopole Moments (Debye-Ang^2)
       XXX       0.0000    XXY       0.0000    XYY      -0.0000
       YYY       0.0000    XXZ     -25.2815    XYZ      -0.0000
       YYZ     -25.2815    XZZ       0.0000    YZZ       0.0000
       ZZZ     -66.5557
    Hexadecapole Moments (Debye-Ang^3)
      XXXX     -28.7686   XXXY      -0.0000   XXYY      -9.5895
      XYYY       0.0000   YYYY     -28.7686   XXXZ       0.0000
      XXYZ       0.0000   XYYZ       0.0000   YYYZ       0.0000
      XXZZ     -59.7378   XYZZ      -0.0000   YYZZ     -59.7378
      XZZZ       0.0000   YZZZ       0.0000   ZZZZ    -283.3866
 -----------------------------------------------------------------
Archival summary:
1\1\n0043.mhg0\SP\ProcedureUnspecified\BasisUnspecified\l2\yhljason\ThuNov1915:34:392020ThuNov1915:34:392020\0\\#,ProcedureUnspecified,BasisUnspecified,\\0,1\Cl\Cl,1,1.9879\\HF=-919.002409\\@

 Total job time:  957.71s(wall), 9534.23s(cpu) 
 Thu Nov 19 15:34:39 2020

        *************************************************************
        *                                                           *
        *  Thank you very much for using Q-Chem.  Have a nice day.  *
        *                                                           *
        *************************************************************


