Q-Chem Developer Version!
                  Welcome to Q-Chem
     A Quantum Leap Into The Future Of Chemistry


 Q-Chem 5.1, Q-Chem, Inc., Pleasanton, CA (2018)

 Yihan Shao,  Zhengting Gan,  E. Epifanovsky,  A. T. B. Gilbert,  M. Wormit,  
 J. Kussmann,  A. W. Lange,  A. Behn,  Jia Deng,  Xintian Feng,  D. Ghosh,  
 M. Goldey,  P. R. Horn,  L. D. Jacobson,  I. Kaliman,  T. Kus,  A. Landau,  
 Jie Liu,  E. I. Proynov,  R. M. Richard,  R. P. Steele,  E. J. Sundstrom,  
 H. L. Woodcock III,  P. M. Zimmerman,  D. Zuev,  B. Albrecht,  E. Alguire,  
 S. A. Baeppler,  D. Barton,  Z. Benda,  Y. A. Bernard,  E. J. Berquist,  
 K. B. Bravaya,  H. Burton,  D. Casanova,  Chun-Min Chang,  Yunqing Chen,  
 A. Chien,  K. D. Closser,  M. P. Coons,  S. Coriani,  S. Dasgupta,  
 A. L. Dempwolff,  M. Diedenhofen,  Hainam Do,  R. G. Edgar,  Po-Tung Fang,  
 S. Faraji,  S. Fatehi,  Qingguo Feng,  K. D. Fenk,  J. Fosso-Tande,  
 Qinghui Ge,  A. Ghysels,  G. Gidofalvi,  J. Gomes,  J. Gonthier,  A. Gunina,  
 D. Hait,  M. W. D. Hanson-Heine,  P. H. P. Harbach,  A. W. Hauser,  
 J. E. Herr,  E. G. Hohenstein,  Z. C. Holden,  Kerwin Hui,  B. C. Huynh,  
 T.-C. Jagau,  Hyunjun Ji,  B. Kaduk,  K. Khistyaev,  Jaehoon Kim,  
 P. Klunzinger,  K. Koh,  D. Kosenkov,  L. Koulias,  T. Kowalczyk,  
 C. M. Krauter,  A. Kunitsa,  Ka Un Lao,  A. Laurent,  K. V. Lawler,  
 Joonho Lee,  D. Lefrancois,  S. Lehtola,  D. S. Levine,  Yi-Pei Li,  
 You-Sheng Lin,  Fenglai Liu,  E. Livshits,  A. Luenser,  P. Manohar,  
 E. Mansoor,  S. F. Manzer,  Shan-Ping Mao,  Yuezhi Mao,  N. Mardirossian,  
 A. V. Marenich,  T. Markovich,  L. A. Martinez-Martinez,  S. A. Maurer,  
 N. J. Mayhall,  S. C. McKenzie,  J.-M. Mewes,  A. F. Morrison,  
 J. W. Mullinax,  K. Nanda,  T. S. Nguyen-Beck,  R. Olivares-Amaya,  
 J. A. Parkhill,  T. M. Perrine,  F. Plasser,  P. Pokhilko,  S. Prager,  
 A. Prociuk,  E. Ramos,  D. R. Rehn,  F. Rob,  M. Schneider,  N. Sergueev,  
 S. M. Sharada,  S. Sharma,  D. W. Small,  T. Stauch,  T. Stein,  
 Yu-Chuan Su,  A. J. W. Thom,  A. Tkatchenko,  T. Tsuchimochi,  N. M. Tubman,  
 L. Vogt,  M. L. Vidal,  O. Vydrov,  M. A. Watson,  J. Wenzel,  
 M. de Wergifosse,  T. A. Wesolowski,  A. White,  J. Witte,  A. Yamada,  
 Jun Yang,  K. Yao,  S. Yeganeh,  S. R. Yost,  Zhi-Qiang You,  A. Zech,  
 Igor Ying Zhang,  Xing Zhang,  Yan Zhao,  Ying Zhu,  B. R. Brooks,  
 G. K. L. Chan,  C. J. Cramer,  M. S. Gordon,  W. J. Hehre,  A. Klamt,  
 M. W. Schmidt,  C. D. Sherrill,  D. G. Truhlar,  A. Aspuru-Guzik,  R. Baer,  
 A. T. Bell,  N. A. Besley,  Jeng-Da Chai,  A. E. DePrince, III,  
 R. A. DiStasio Jr.,  A. Dreuw,  B. D. Dunietz,  T. R. Furlani,  
 Chao-Ping Hsu,  Yousung Jung,  Jing Kong,  D. S. Lambrecht,  WanZhen Liang,  
 C. Ochsenfeld,  V. A. Rassolov,  L. V. Slipchenko,  J. E. Subotnik,  
 T. Van Voorhis,  J. M. Herbert,  A. I. Krylov,  P. M. W. Gill,  M. Head-Gordon

 Contributors to earlier versions of Q-Chem not listed above: 
 R. D. Adamson,  B. Austin,  J. Baker,  G. J. O. Beran,  K. Brandhorst,  
 S. T. Brown,  E. F. C. Byrd,  A. K. Chakraborty,  C.-L. Cheng,  
 Siu Hung Chien,  D. M. Chipman,  D. L. Crittenden,  H. Dachsel,  
 R. J. Doerksen,  A. D. Dutoi,  L. Fusti-Molnar,  W. A. Goddard III,  
 A. Golubeva-Zadorozhnaya,  S. R. Gwaltney,  G. Hawkins,  A. Heyden,  
 S. Hirata,  G. Kedziora,  F. J. Keil,  C. Kelley,  Jihan Kim,  R. A. King,  
 R. Z. Khaliullin,  P. P. Korambath,  W. Kurlancheek,  A. M. Lee,  M. S. Lee,  
 S. V. Levchenko,  Ching Yeh Lin,  D. Liotard,  R. C. Lochan,  I. Lotan,  
 P. E. Maslen,  N. Nair,  D. P. O'Neill,  D. Neuhauser,  E. Neuscamman,  
 C. M. Oana,  R. Olson,  B. Peters,  R. Peverati,  P. A. Pieniazek,  
 Y. M. Rhee,  J. Ritchie,  M. A. Rohrdanz,  E. Rosta,  N. J. Russ,  
 H. F. Schaefer III,  N. E. Schultz,  N. Shenvi,  A. C. Simmonett,  A. Sodt,  
 D. Stuck,  K. S. Thanthiriwatte,  V. Vanovschi,  Tao Wang,  A. Warshel,  
 C. F. Williams,  Q. Wu,  X. Xu,  W. Zhang

 Please cite Q-Chem as follows:
 Y. Shao et al., Mol. Phys. 113, 184-215 (2015)
 DOI: 10.1080/00268976.2014.952696

 Q-Chem 5.1.1 for Intel X86 EM64T Linux

 Parts of Q-Chem use Armadillo 8.300.2 (Tropical Shenanigans).
 http://arma.sourceforge.net/

 Q-Chem begins on Thu Nov 19 15:34:27 2020  

Host: n0088.mhg0
0

     Scratch files written to /local/scratch/users/yhljason/Mg2_ccsd_aug-cc-pcVTZ.inp20201119151912//
Input Ideriv = 1
Curr. Ideriv = -1
Max.  Ideriv = 1

Checking the input file for inconsistencies... 	...done.

--------------------------------------------------------------
User input:
--------------------------------------------------------------
$molecule
0 1
Mg1	0.0000	0.0000	0.0000
Mg2	0.0000	0.0000	3.8905
$end

$rem
method ccsd
basis aug-cc-pcVTZ
CC_REF_PROP true
cc_fullresponse true
n_frozen_core 0
unrestricted true
scf_convergence 8
scf_algorithm gdm
thresh 14
symmetry false
sym_ignore true
cc_memory 48000
mem_total 63000
mem_static  1500
internal_stability_iter 15
$end
--------------------------------------------------------------
 ----------------------------------------------------------------
             Standard Nuclear Orientation (Angstroms)
    I     Atom           X                Y                Z
 ----------------------------------------------------------------
    1      Mg      0.0000000000     0.0000000000     0.0000000000
    2      Mg      0.0000000000     0.0000000000     3.8905000000
 ----------------------------------------------------------------
 Nuclear Repulsion Energy =    19.5865617158 hartrees
 There are       12 alpha and       12 beta electrons
 Requested basis set is aug-cc-pCVTZ
 There are 46 shells and 150 basis functions
 Total memory of 63000MB is distributed as follows: 
   QALLOC including MEM_STATIC uses 15000MB
   MEM_STATIC is set to 1500MB
   CCMAN JOB total memory use is  48000MB
 Warning: actual memory use might exceed 63000MB

 Total QAlloc Memory Limit  15000 MB
 Mega-Array Size      1467 MB
 MEM_STATIC part      1500 MB

                       Distance Matrix (Angstroms)
             Mg(  1)
   Mg(  2)  3.890500
 
 A cutoff of  1.0D-14 yielded   1032 shell pairs
 There are     10968 function pairs (     15493 Cartesian)
 
 -------------------------------------------------------
 OpenMP Integral Computing Module                       
 Release: version 1.0, May 2013, Q-Chem Inc. Pittsburgh 
 -------------------------------------------------------
 Integral Job Info:
 Integral job number is                      11
 Integral operator is                         1
 short-range coefficients                     0
 long-range coefficients              100000000
 Omega coefficients                           0
 if combine SR and LR in K                    0
 Integral screening is                        0
 Integral computing path is                   2
 max size of driver memory is            800000
 size of driver memory is                776718
 size of scratch memory is             29834641
 max col of scratch BK array              10000
 max len of scratch array in speh3          662
 max len of scratch index in speh4           32
 max int batch size is                      520
 min int batch size is                       52
 fixed nKL is                                23
 max L of basis functions is                  3
 order of int derivative is                   0
 number of shells is                         46
 number of basis is                         178
 number of cartesian basis is               178
 number of contracted shell pairs          1032
 number of primitive shell pairs           8318
 maxK2 (contraction) of shell pair          169
 max number of K2 of shell pair               1
 max number of CS2 of shell pair            104
 max number of PS2 of shell pair           2028
 mem total for path MDJ                  585852
 -------------------------------------------------------
 Smallest overlap matrix eigenvalue = 4.72E-04

 Scale SEOQF with 1.000000e-02/1.000000e-02/1.000000e-02

 Standard Electronic Orientation quadrupole field applied
 Nucleus-field energy     =    -0.0000000019 hartrees
 Guess from superposition of atomic densities
 Warning:  Energy on first SCF cycle will be non-variational
 SAD guess density has 24.000000 electrons

 -----------------------------------------------------------------------
  General SCF calculation program by
  Eric Jon Sundstrom, Paul Horn, Yuezhi Mao, Dmitri Zuev, Alec White,
  David Stuck, Shaama M.S., Shane Yost, Joonho Lee, David Small,
  Daniel Levine, Susi Lehtola, Hugh Burton, Evgeny Epifanovsky
 -----------------------------------------------------------------------
Running Object-Oriented UHF
performing a single roothaan step with Fock from read density so that orbitals are available to all algorithms
energy of the guess density (C=0) -399.255611623190
We will preform up to 15 macro iterations over saddle points until a stable solution is found
Energy prior to optimization (guess energy) = -399.223795729119
Begin Timing: Total SCF Calculation
Begin Timing: SCF Single Stationary Point Calculation
begin iterations for algorithm: GDM          
the SCF tolerance is set to 1.00e-08
    1    -399.2237957291      7.29e-03     00000  Normal BFGS step
    2    -399.2239870524      1.74e-03     00000  Normal BFGS step
    3    -399.2240100504      4.61e-04     00000  Normal BFGS step
    4    -399.2240109657      1.28e-04     00000  Normal BFGS step
    5    -399.2240110273      1.46e-05     00000  Normal BFGS step
    6    -399.2240110290      3.96e-06     00000  Normal BFGS step
    7    -399.2240110291      4.91e-07     00000  Normal BFGS step
    8    -399.2240110291      8.16e-08     00000  Normal BFGS step
    9    -399.2240110291      9.57e-09     00000 Convergence criterion met
Timing for Single Stationary Point: 21.00s (wall), 345.59s (cpu)
Begin Timing: Stability
===================================================
Beginning Test for Internal Stability
===================================================
generating davidson guess vectors based on koopmans excitations
    1      5.33e-01     00000 Davidson Iteration
    2      5.43e-01     00000 Davidson Iteration
    3      6.37e-02     00000 Davidson Iteration
    4      2.26e-02     00000 Davidson Iteration
    5      4.67e-03     00000 Davidson Iteration
    6      1.33e-03     00000 Davidson Iteration
    7      6.10e-04     00000 Davidson Iteration
    8      1.11e-04     00000 Davidson Iteration
    9      7.20e-05     00000 Davidson Iteration
   10      8.55e-04     00000 Davidson Iteration
   11      1.67e-03     00000 Davidson Iteration
   12      4.87e-04     00000 Davidson Iteration
   13      5.25e-04     00000 Davidson Iteration
   14      2.81e-04     00000 Davidson Iteration
   15      3.61e-04     00000 Davidson Iteration
   16      4.97e-03     00000 Davidson Iteration
   17      2.05e-03     00000 Davidson Iteration
   18      1.49e-03     00000 Davidson Iteration
   19      1.39e-03     00000 Davidson Iteration
   20      9.93e-04     00000 Davidson Iteration
   21      3.15e-04     00000 Davidson Iteration
   22      6.34e-05     00000 Davidson Converged
converged_eigenvalues
   0.0170
   0.0030
Threshold for negative eigenvalues: -1.0e-05
solution was a local minimum (stable)
===================================================
End Test for Internal Stability
===================================================
Our SCF solution is stable!
Timing for Total SCF: 76.00s (wall), 1212.18s (cpu)
 Total energy in the final basis set =     -399.2240110291
<S^2> =         -0.000000000
    ==================================================
              The end of Object-Oriented SCFman       
    ==================================================


 ------------------------------------------------------------------------------

   CCMAN2: suite of methods based on coupled cluster
           and equation of motion theories.

   Components:
   * libvmm-1.3-trunk
     by Evgeny Epifanovsky, Ilya Kaliman.
   * libtensor-2.5-trunk
     by Evgeny Epifanovsky, Michael Wormit, Dmitry Zuev, Sam Manzer, 
        Ilya Kaliman.
   * libcc-2.5-trunk
     by Evgeny Epifanovsky, Arik Landau, Tomasz Kus, Kirill Khistyaev, 
        Dmitry Zuev, Prashant Manohar, Xintian Feng, Anna Krylov, 
        Matthew Goldey, Alec White, Thomas Jagau, Kaushik Nanda, 
        Anastasia Gunina, Alexander Kunitsa, Joonho Lee.

   CCMAN original authors:
   Anna I. Krylov, C. David Sherrill, Steven R. Gwaltney,
   Edward F. C. Byrd (2000)
   Sergey V. Levchenko, Lyudmila V. Slipchenko, Tao Wang,
   Ana-Maria C. Cristian (2003)
   Piotr A. Pieniazek, C. Melania Oana, Evgeny Epifanovsky (2007)
   Prashant Manohar (2009)

 ------------------------------------------------------------------------------


 Allocating and initializing 48000MB of RAM...
 Calculation will run on 16 cores.

 
 Alpha MOs, Unrestricted
 -- Occupied --                  
-49.031 -49.031  -3.767  -3.767  -2.282  -2.282  -2.282  -2.282
  1 A     2 A     3 A     4 A     5 A     6 A     7 A     8 A                  
 -2.282  -2.282  -0.283  -0.227
  9 A    10 A    11 A    12 A                                                  
 -- Virtual --                   
  0.010   0.010   0.014   0.015   0.023   0.023   0.032   0.040
 13 A    14 A    15 A    16 A    17 A    18 A    19 A    20 A                  
  0.041   0.041   0.056   0.065   0.065   0.098   0.122   0.122
 21 A    22 A    23 A    24 A    25 A    26 A    27 A    28 A                  
  0.141   0.141   0.150   0.157   0.157   0.186   0.190   0.198
 29 A    30 A    31 A    32 A    33 A    34 A    35 A    36 A                  
  0.198   0.201   0.201   0.212   0.212   0.218   0.249   0.344
 37 A    38 A    39 A    40 A    41 A    42 A    43 A    44 A                  
  0.354   0.354   0.361   0.361   0.370   0.370   0.398   0.398
 45 A    46 A    47 A    48 A    49 A    50 A    51 A    52 A                  
  0.400   0.416   0.416   0.431   0.431   0.458   0.458   0.468
 53 A    54 A    55 A    56 A    57 A    58 A    59 A    60 A                  
  0.468   0.471   0.471   0.489   0.543   0.544   0.556   0.556
 61 A    62 A    63 A    64 A    65 A    66 A    67 A    68 A                  
  0.725   0.725   0.766   0.766   0.769   0.904   0.956   0.992
 69 A    70 A    71 A    72 A    73 A    74 A    75 A    76 A                  
  1.038   1.038   1.045   1.045   1.057   1.057   1.105   1.105
 77 A    78 A    79 A    80 A    81 A    82 A    83 A    84 A                  
  1.112   1.143   1.143   1.154   1.154   1.158   1.158   1.179
 85 A    86 A    87 A    88 A    89 A    90 A    91 A    92 A                  
  1.180   1.180   1.182   1.182   1.223   1.223   1.223   1.469
 93 A    94 A    95 A    96 A    97 A    98 A    99 A   100 A                  
  4.664   4.664   4.667   4.667   4.671   4.671   4.690   4.690
101 A   102 A   103 A   104 A   105 A   106 A   107 A   108 A                  
  4.694   4.716   5.721   5.721   5.744   5.744   5.777   5.919
109 A   110 A   111 A   112 A   113 A   114 A   115 A   116 A                  
  7.279   7.687  15.750  15.750  15.750  15.750  15.750  15.750
117 A   118 A   119 A   120 A   121 A   122 A   123 A   124 A                  
 15.751  15.751  15.751  15.751  15.752  15.752  15.753  15.753
125 A   126 A   127 A   128 A   129 A   130 A   131 A   132 A                  
 19.150  19.150  19.151  19.151  19.154  19.154  19.165  19.165
133 A   134 A   135 A   136 A   137 A   138 A   139 A   140 A                  
 19.167  19.187  32.932  32.932  32.946  32.946  32.963  33.054
141 A   142 A   143 A   144 A   145 A   146 A   147 A   148 A                  
 74.870  75.116
149 A   150 A                                                                  
 
 Beta MOs, Unrestricted
 -- Occupied --                  
-49.031 -49.031  -3.767  -3.767  -2.282  -2.282  -2.282  -2.282
  1 A     2 A     3 A     4 A     5 A     6 A     7 A     8 A                  
 -2.282  -2.282  -0.283  -0.227
  9 A    10 A    11 A    12 A                                                  
 -- Virtual --                   
  0.010   0.010   0.014   0.015   0.023   0.023   0.032   0.040
 13 A    14 A    15 A    16 A    17 A    18 A    19 A    20 A                  
  0.041   0.041   0.056   0.065   0.065   0.098   0.122   0.122
 21 A    22 A    23 A    24 A    25 A    26 A    27 A    28 A                  
  0.141   0.141   0.150   0.157   0.157   0.186   0.190   0.198
 29 A    30 A    31 A    32 A    33 A    34 A    35 A    36 A                  
  0.198   0.201   0.201   0.212   0.212   0.218   0.249   0.344
 37 A    38 A    39 A    40 A    41 A    42 A    43 A    44 A                  
  0.354   0.354   0.361   0.361   0.370   0.370   0.398   0.398
 45 A    46 A    47 A    48 A    49 A    50 A    51 A    52 A                  
  0.400   0.416   0.416   0.431   0.431   0.458   0.458   0.468
 53 A    54 A    55 A    56 A    57 A    58 A    59 A    60 A                  
  0.468   0.471   0.471   0.489   0.543   0.544   0.556   0.556
 61 A    62 A    63 A    64 A    65 A    66 A    67 A    68 A                  
  0.725   0.725   0.766   0.766   0.769   0.904   0.956   0.992
 69 A    70 A    71 A    72 A    73 A    74 A    75 A    76 A                  
  1.038   1.038   1.045   1.045   1.057   1.057   1.105   1.105
 77 A    78 A    79 A    80 A    81 A    82 A    83 A    84 A                  
  1.112   1.143   1.143   1.154   1.154   1.158   1.158   1.179
 85 A    86 A    87 A    88 A    89 A    90 A    91 A    92 A                  
  1.180   1.180   1.182   1.182   1.223   1.223   1.223   1.469
 93 A    94 A    95 A    96 A    97 A    98 A    99 A   100 A                  
  4.664   4.664   4.667   4.667   4.671   4.671   4.690   4.690
101 A   102 A   103 A   104 A   105 A   106 A   107 A   108 A                  
  4.694   4.716   5.721   5.721   5.744   5.744   5.777   5.919
109 A   110 A   111 A   112 A   113 A   114 A   115 A   116 A                  
  7.279   7.687  15.750  15.750  15.750  15.750  15.750  15.750
117 A   118 A   119 A   120 A   121 A   122 A   123 A   124 A                  
 15.751  15.751  15.751  15.751  15.752  15.752  15.753  15.753
125 A   126 A   127 A   128 A   129 A   130 A   131 A   132 A                  
 19.150  19.150  19.151  19.151  19.154  19.154  19.165  19.165
133 A   134 A   135 A   136 A   137 A   138 A   139 A   140 A                  
 19.167  19.187  32.932  32.932  32.946  32.946  32.963  33.054
141 A   142 A   143 A   144 A   145 A   146 A   147 A   148 A                  
 74.870  75.116
149 A   150 A                                                                  

 Occupation and symmetry of molecular orbitals

 Point group: C1 (1 irreducible representation).

                           A     All 
 -------------------------------------
 All molecular orbitals:
  - Alpha                  150   150 
  - Beta                   150   150 
 -------------------------------------
 Alpha orbitals:
  - Frozen occupied        0     0   
  - Active occupied        12    12  
  - Active virtual         138   138 
  - Frozen virtual         0     0   
 -------------------------------------
 Beta orbitals:
  - Frozen occupied        0     0   
  - Active occupied        12    12  
  - Active virtual         138   138 
  - Frozen virtual         0     0   
 -------------------------------------

 Import integrals:   CPU 0.00 s  wall 0.00 s

 Import integrals:   CPU 353.54 s  wall 23.06 s

 MP2 amplitudes:   CPU 6.16 s  wall 0.46 s

Running a double precision version
           CCSD T amplitudes will be solved using DIIS.

           Start     Size      MaxIter   EConv     TConv     
           3         7         100       1.00e-06  1.00e-04  
 ------------------------------------------------------------------------------
           Energy (a.u.)   Ediff      Tdiff       Comment
 ------------------------------------------------------------------------------
          -399.87787786                           
     1    -399.89160248   1.37e-02   4.82e-01     
     2    -399.89800100   6.40e-03   7.40e-02     
     3    -399.89969290   1.69e-03   3.30e-02     
     4    -399.90131321   1.62e-03   2.89e-02     Switched to DIIS steps.
     5    -399.90136578   5.26e-05   3.47e-03     
     6    -399.90137126   5.47e-06   1.58e-03     
     7    -399.90137495   3.69e-06   2.74e-04     
     8    -399.90137485   9.34e-08   1.32e-04     
     9    -399.90137422   6.37e-07   3.87e-05     
 ------------------------------------------------------------------------------
          -399.90137422                           CCSD T converged.

End of double precision
 SCF energy                 = -399.22401103
 MP2 energy                 = -399.87787786
 CCSD correlation energy     =   -0.67736319
 CCSD total energy           = -399.90137422

 CCSD  T1^2 = 0.0040  T2^2 = 0.1641  Leading amplitudes:

 Amplitude    Orbitals with energies
 -0.0223       12 (A) A                  ->    23 (A) A                   
              -0.2269                          0.0564                     
 -0.0223       12 (A) B                  ->    23 (A) B                   
              -0.2269                          0.0564                     
  0.0154       11 (A) B                  ->    34 (A) B                   
              -0.2830                          0.1862                     
  0.0154       11 (A) A                  ->    34 (A) A                   
              -0.2830                          0.1862                     

 Amplitude    Orbitals with energies
 -0.0598       12 (A) A      12 (A) B    ->    20 (A) A      20 (A) B     
              -0.2269       -0.2269            0.0403        0.0403       
  0.0598       12 (A) A      12 (A) B    ->    20 (A) B      20 (A) A     
              -0.2269       -0.2269            0.0403        0.0403       
  0.0598       12 (A) B      12 (A) A    ->    20 (A) A      20 (A) B     
              -0.2269       -0.2269            0.0403        0.0403       
 -0.0598       12 (A) B      12 (A) A    ->    20 (A) B      20 (A) A     
              -0.2269       -0.2269            0.0403        0.0403       

 Computing CCSD intemediates for later calculations in double precision
 Finished.

Running a double precision version
           CCSD Lambda amplitudes will be solved using DIIS.
           Start     Size      MaxIter   EConv     LConv     
           3         7         100       1.00e-06  1.00e-04  
 ------------------------------------------------------------------------------
            Enorm      Ldiff       Comment
 ------------------------------------------------------------------------------
     1     4.19e-02   3.53e-02     
     2     1.01e-02   6.51e-03     
     3     4.68e-03   3.12e-03     
     4     1.33e-03   2.27e-03     Switched to DIIS steps.
     5     5.30e-04   5.59e-04     
     6     1.81e-04   1.52e-04     
     7     8.96e-05   1.27e-05     
     8     2.63e-05   5.26e-06     
     9     9.15e-06   2.38e-06     
    10     3.16e-06   5.65e-07     
    11     1.18e-06   2.49e-07     
    12     4.69e-07   9.40e-08     
 ------------------------------------------------------------------------------
                                   CCSD Lambda converged.

 Computing density matrices in double precision...
           Orbital response amplitudes will be solved using DIIS.
           Start     Size      MaxIter   EConv     LConv     
           3         7         100       1.00e-06  1.00e-06  
 ------------------------------------------------------------------------------
            Enorm      Ldiff       Comment
 ------------------------------------------------------------------------------
     1     1.60e-02   2.70e-03     
     2     3.58e-03   2.51e-03     
     3     1.42e-03   1.09e-03     
     4     8.14e-05   3.69e-04     Switched to DIIS steps.
     5     1.39e-05   1.84e-05     
     6     2.59e-06   1.66e-06     
     7     2.24e-07   8.84e-08     
 ------------------------------------------------------------------------------
                                   Orbital response converged.

 Computing density matrices... Done.
 Reference state properties
 Relaxed dipole moment (a.u.): 0.000000 (X 0.000000, Y 0.000000, Z 0.000000)
 Relaxed R-squared (a.u.): 705.950357 (XX 18.769529, YY 18.769529, ZZ 668.411298)
 Relaxed density matrix was written to a file for further analysis.

 CCSD calculation:   CPU 5013.95 s  wall 413.90 s

 Total ccman2 time:   CPU 5461.43 s  wall 446.37 s

 
 --------------------------------------------------------------
 
                    Orbital Energies (a.u.)
 --------------------------------------------------------------
 
 Alpha MOs
 -- Occupied --
-49.031 -49.031  -3.767  -3.767  -2.282  -2.282  -2.282  -2.282
 -2.282  -2.282  -0.283  -0.227
 -- Virtual --
  0.010   0.010   0.014   0.015   0.023   0.023   0.032   0.040
  0.041   0.041   0.056   0.065   0.065   0.098   0.122   0.122
  0.141   0.141   0.150   0.157   0.157   0.186   0.190   0.198
  0.198   0.201   0.201   0.212   0.212   0.218   0.249   0.344
  0.354   0.354   0.361   0.361   0.370   0.370   0.398   0.398
  0.400   0.416   0.416   0.431   0.431   0.458   0.458   0.468
  0.468   0.471   0.471   0.489   0.543   0.544   0.556   0.556
  0.725   0.725   0.766   0.766   0.769   0.904   0.956   0.992
  1.038   1.038   1.045   1.045   1.057   1.057   1.105   1.105
  1.112   1.143   1.143   1.154   1.154   1.158   1.158   1.179
  1.180   1.180   1.182   1.182   1.223   1.223   1.223   1.469
  4.664   4.664   4.667   4.667   4.671   4.671   4.690   4.690
  4.694   4.716   5.721   5.721   5.744   5.744   5.777   5.919
  7.279   7.687  15.750  15.750  15.750  15.750  15.750  15.750
 15.751  15.751  15.751  15.751  15.752  15.752  15.753  15.753
 19.150  19.150  19.151  19.151  19.154  19.154  19.165  19.165
 19.167  19.187  32.932  32.932  32.946  32.946  32.963  33.054
 74.870  75.116
 
 Beta MOs
 -- Occupied --
-49.031 -49.031  -3.767  -3.767  -2.282  -2.282  -2.282  -2.282
 -2.282  -2.282  -0.283  -0.227
 -- Virtual --
  0.010   0.010   0.014   0.015   0.023   0.023   0.032   0.040
  0.041   0.041   0.056   0.065   0.065   0.098   0.122   0.122
  0.141   0.141   0.150   0.157   0.157   0.186   0.190   0.198
  0.198   0.201   0.201   0.212   0.212   0.218   0.249   0.344
  0.354   0.354   0.361   0.361   0.370   0.370   0.398   0.398
  0.400   0.416   0.416   0.431   0.431   0.458   0.458   0.468
  0.468   0.471   0.471   0.489   0.543   0.544   0.556   0.556
  0.725   0.725   0.766   0.766   0.769   0.904   0.956   0.992
  1.038   1.038   1.045   1.045   1.057   1.057   1.105   1.105
  1.112   1.143   1.143   1.154   1.154   1.158   1.158   1.179
  1.180   1.180   1.182   1.182   1.223   1.223   1.223   1.469
  4.664   4.664   4.667   4.667   4.671   4.671   4.690   4.690
  4.694   4.716   5.721   5.721   5.744   5.744   5.777   5.919
  7.279   7.687  15.750  15.750  15.750  15.750  15.750  15.750
 15.751  15.751  15.751  15.751  15.752  15.752  15.753  15.753
 19.150  19.150  19.151  19.151  19.154  19.154  19.165  19.165
 19.167  19.187  32.932  32.932  32.946  32.946  32.963  33.054
 74.870  75.116
 --------------------------------------------------------------
 
          Ground-State Mulliken Net Atomic Charges

     Atom                 Charge (a.u.)    Spin (a.u.)
  --------------------------------------------------------
      1 Mg                   -0.000000      -0.000000
      2 Mg                    0.000000       0.000000
  --------------------------------------------------------
  Sum of atomic charges =    -0.000000
  Sum of spin   charges =    -0.000000

 -----------------------------------------------------------------
                    Cartesian Multipole Moments
 -----------------------------------------------------------------
    Charge (ESU x 10^10)
                -0.0000
    Dipole Moment (Debye)
         X      -0.0000      Y      -0.0000      Z       0.0000
       Tot       0.0000
    Quadrupole Moments (Debye-Ang)
        XX     -25.2457     XY       0.0000     YY     -25.2457
        XZ      -0.0000     YZ      -0.0000     ZZ     -26.6210
    Octopole Moments (Debye-Ang^2)
       XXX      -0.0000    XXY      -0.0000    XYY      -0.0000
       YYY      -0.0000    XXZ     -49.1091    XYZ       0.0000
       YYZ     -49.1091    XZZ      -0.0000    YZZ      -0.0000
       ZZZ    -155.3536
    Hexadecapole Moments (Debye-Ang^3)
      XXXX     -72.5149   XXXY      -0.0000   XXYY     -24.1716
      XYYY      -0.0000   YYYY     -72.5149   XXXZ      -0.0000
      XXYZ      -0.0000   XYYZ      -0.0000   YYYZ      -0.0000
      XXZZ    -218.5359   XYZZ      -0.0000   YYZZ    -218.5359
      XZZZ      -0.0000   YZZZ      -0.0000   ZZZZ   -1279.3522
 -----------------------------------------------------------------
Archival summary:
1\1\n0088.mhg0\SP\ProcedureUnspecified\BasisUnspecified\g2\yhljason\ThuNov1915:43:562020ThuNov1915:43:562020\0\\#,ProcedureUnspecified,BasisUnspecified,\\0,1\Mg\Mg,1,3.8905\\HF=-399.224011\\@

 Total job time:  569.22s(wall), 6790.26s(cpu) 
 Thu Nov 19 15:43:56 2020

        *************************************************************
        *                                                           *
        *  Thank you very much for using Q-Chem.  Have a nice day.  *
        *                                                           *
        *************************************************************


