                  Welcome to Q-Chem
     A Quantum Leap Into The Future Of Chemistry


 Q-Chem 5.3 (devel), Q-Chem, Inc., Pleasanton, CA (2020)

 Yihan Shao,  Zhengting Gan,  E. Epifanovsky,  A. T. B. Gilbert,  M. Wormit,  
 J. Kussmann,  A. W. Lange,  A. Behn,  Jia Deng,  Xintian Feng,  D. Ghosh,  
 M. Goldey,  P. R. Horn,  L. D. Jacobson,  I. Kaliman,  T. Kus,  A. Landau,  
 Jie Liu,  E. I. Proynov,  R. M. Richard,  R. P. Steele,  E. J. Sundstrom,  
 H. L. Woodcock III,  P. M. Zimmerman,  D. Zuev,  B. Alam,  B. Albrecht,  
 A. Aldossary,  E. Alguire,  S. A. Baeppler,  D. Barton,  Z. Benda,  
 Y. A. Bernard,  E. J. Berquist,  K. B. Bravaya,  H. Burton,  K. Carter-Fenk,  
 D. Casanova,  Chun-Min Chang,  Yunqing Chen,  A. Chien,  K. D. Closser,  
 M. P. Coons,  S. Coriani,  S. Dasgupta,  A. L. Dempwolff,  M. Diedenhofen,  
 Hainam Do,  R. G. Edgar,  Po-Tung Fang,  S. Faraji,  S. Fatehi,  
 Qingguo Feng,  J. Fosso-Tande,  J. Gayvert,  Qinghui Ge,  A. Ghysels,  
 G. Gidofalvi,  J. Gomes,  J. Gonthier,  S. Gulania,  A. Gunina,  D. Hait,  
 M. W. D. Hanson-Heine,  S. Hammes-Schiffer,  P. H. P. Harbach,  
 A. W. Hauser,  M. F. Herbst,  J. E. Herr,  E. G. Hohenstein,  Z. C. Holden,  
 S. Houck,  Kerwin Hui,  B. C. Huynh,  M. Ivanov,  T.-C. Jagau,  Hyunjun Ji,  
 B. Kaduk,  K. Khistyaev,  Jaehoon Kim,  P. Klunzinger,  K. Koh,  
 D. Kosenkov,  L. Koulias,  T. Kowalczyk,  C. M. Krauter,  A. Kunitsa,  
 Ka Un Lao,  A. Laurent,  K. V. Lawler,  Joonho Lee,  D. Lefrancois,  
 S. Lehtola,  D. S. Levine,  Yi-Pei Li,  You-Sheng Lin,  Fenglai Liu,  
 Kuan-Yu Liu,  E. Livshits,  M. Loipersberger,  A. Luenser,  P. Manohar,  
 E. Mansoor,  S. F. Manzer,  Shan-Ping Mao,  Yuezhi Mao,  N. Mardirossian,  
 A. V. Marenich,  T. Markovich,  L. A. Martinez-Martinez,  S. A. Maurer,  
 N. J. Mayhall,  S. C. McKenzie,  J.-M. Mewes,  P. Morgante,  A. F. Morrison,  
 J. W. Mullinax,  K. Nanda,  T. S. Nguyen-Beck,  R. Olivares-Amaya,  
 K. J. Oosterbaan,  J. A. Parkhill,  S. K. Paul,  F. Pavosevic,  Zheng Pei,  
 T. M. Perrine,  F. Plasser,  P. Pokhilko,  S. Prager,  A. Prociuk,  
 E. Ramos,  B. Rana,  D. R. Rehn,  F. Rob,  E. Rossomme,  M. Scheurer,  
 M. Schneider,  N. Sergueev,  S. M. Sharada,  S. Sharma,  W. Skomorowski,  
 D. W. Small,  T. Stauch,  C. J. Stein,  T. Stein,  Yu-Chuan Su,  
 S. P. Veccham,  Zhen Tao,  A. J. W. Thom,  A. Tkatchenko,  T. Tsuchimochi,  
 N. M. Tubman,  L. Vogt,  M. L. Vidal,  O. Vydrov,  M. A. Watson,  J. Wenzel,  
 M. de Wergifosse,  T. A. Wesolowski,  A. White,  J. Witte,  A. Yamada,  
 Jun Yang,  K. Yao,  S. Yeganeh,  S. R. Yost,  Zhi-Qiang You,  A. Zech,  
 Igor Ying Zhang,  Xing Zhang,  Yan Zhao,  Ying Zhu,  B. R. Brooks,  
 G. K. L. Chan,  C. J. Cramer,  M. S. Gordon,  W. J. Hehre,  A. Klamt,  
 M. W. Schmidt,  C. D. Sherrill,  D. G. Truhlar,  A. Aspuru-Guzik,  R. Baer,  
 A. T. Bell,  N. A. Besley,  Jeng-Da Chai,  A. E. DePrince, III,  
 R. A. DiStasio Jr.,  A. Dreuw,  B. D. Dunietz,  T. R. Furlani,  
 Chao-Ping Hsu,  Yousung Jung,  Jing Kong,  D. S. Lambrecht,  WanZhen Liang,  
 C. Ochsenfeld,  V. A. Rassolov,  L. V. Slipchenko,  J. E. Subotnik,  
 T. Van Voorhis,  J. M. Herbert,  A. I. Krylov,  P. M. W. Gill,  M. Head-Gordon

 Contributors to earlier versions of Q-Chem not listed above: 
 R. D. Adamson,  B. Austin,  J. Baker,  G. J. O. Beran,  K. Brandhorst,  
 S. T. Brown,  E. F. C. Byrd,  A. K. Chakraborty,  C.-L. Cheng,  
 Siu Hung Chien,  D. M. Chipman,  D. L. Crittenden,  H. Dachsel,  
 R. J. Doerksen,  A. D. Dutoi,  L. Fusti-Molnar,  W. A. Goddard III,  
 A. Golubeva-Zadorozhnaya,  S. R. Gwaltney,  G. Hawkins,  A. Heyden,  
 S. Hirata,  G. Kedziora,  F. J. Keil,  C. Kelley,  Jihan Kim,  R. A. King,  
 R. Z. Khaliullin,  P. P. Korambath,  W. Kurlancheek,  A. M. Lee,  M. S. Lee,  
 S. V. Levchenko,  Ching Yeh Lin,  D. Liotard,  R. C. Lochan,  I. Lotan,  
 P. E. Maslen,  N. Nair,  D. P. O'Neill,  D. Neuhauser,  E. Neuscamman,  
 C. M. Oana,  R. Olson,  B. Peters,  R. Peverati,  P. A. Pieniazek,  
 Y. M. Rhee,  J. Ritchie,  M. A. Rohrdanz,  E. Rosta,  N. J. Russ,  
 H. F. Schaefer III,  N. E. Schultz,  N. Shenvi,  A. C. Simmonett,  A. Sodt,  
 D. Stuck,  K. S. Thanthiriwatte,  V. Vanovschi,  Tao Wang,  A. Warshel,  
 C. F. Williams,  Q. Wu,  X. Xu,  W. Zhang

 Please cite Q-Chem as follows:
 Y. Shao et al., Mol. Phys. 113, 184-215 (2015)
 DOI: 10.1080/00268976.2014.952696

 Q-Chem 5.3.1 for Intel X86 EM64T Linux

 Parts of Q-Chem use Armadillo 9.800.1 (Horizon Scraper).
 http://arma.sourceforge.net/

 Q-Chem begins on Thu Nov 19 14:02:40 2020  

n0012.cm1
Host: 0

     Scratch files written to /local/scratch/users/diptarka/qchem38571//
Processing $rem in /clusterfs/mhg/diptarka/qchem_rokstrans//config/preferences:
Processing $rem in /global/home/users/diptarka/.qchemrc:

Checking the input file for inconsistencies... 	...done.

--------------------------------------------------------------
User input:
--------------------------------------------------------------
$molecule
0 2
P1	0.0000	0.0000	0.2879
O2	0.0000	1.3563	-0.2699
O3	0.0000	-1.3563	-0.2699
$end

$rem
method ccsd
basis aug-cc-pcVTZ
CC_REF_PROP true
cc_fullresponse true
n_frozen_core 0
unrestricted true
scf_convergence 8
scf_algorithm gdm
thresh 14
symmetry false
sym_ignore true
cc_memory 128000
mem_total 156000
mem_static  1500
internal_stability_iter 15
$end
--------------------------------------------------------------
 ----------------------------------------------------------------
             Standard Nuclear Orientation (Angstroms)
    I     Atom           X                Y                Z
 ----------------------------------------------------------------
    1      P       0.0000000000     0.0000000000     0.2879000000
    2      O       0.0000000000     1.3563000000    -0.2699000000
    3      O       0.0000000000    -1.3563000000    -0.2699000000
 ----------------------------------------------------------------
 Nuclear Repulsion Energy =          99.08629651 hartrees
 There are       16 alpha and       15 beta electrons
 Requested basis set is aug-cc-pCVTZ
 There are 61 shells and 193 basis functions
 Total memory of 156000 MB is distributed as follows: 
   MEM_STATIC is set to 1500 MB
   QALLOC/CCMAN JOB total memory use is  154500 MB
 Warning: actual memory use might exceed 156000 MB

 Total QAlloc Memory Limit 156000 MB
 Mega-Array Size      1467 MB
 MEM_STATIC part      1500 MB

                       Distance Matrix (Angstroms)
             P (  1)   O (  2)
   O (  2)  1.466523
   O (  3)  1.466523  2.712600

 A cutoff of  1.0D-14 yielded   1808 shell pairs
 There are     18384 function pairs (     25621 Cartesian)
 Smallest overlap matrix eigenvalue = 2.46E-04

 Scale SEOQF with 1.000000e-01/1.000000e-01/1.000000e-01

 Standard Electronic Orientation quadrupole field applied
 Nucleus-field energy     =     0.0000000018 hartrees
 Guess from superposition of atomic densities
 Warning:  Energy on first SCF cycle will be non-variational
 SAD guess density has 31.000000 electrons

 -----------------------------------------------------------------------
  General SCF calculation program by
  Eric Jon Sundstrom, Paul Horn, Yuezhi Mao, Dmitri Zuev, Alec White,
  David Stuck, Shaama M.S., Shane Yost, Joonho Lee, David Small,
  Daniel Levine, Susi Lehtola, Hugh Burton, Evgeny Epifanovsky,
  Bang C. Huynh
 -----------------------------------------------------------------------
 Hartree-Fock
Running Object-Oriented UKS (UHF)
performing a single roothaan step with Fock from read density so that orbitals are available to all algorithms
 using 24 threads for integral computing
 -------------------------------------------------------
 OpenMP Integral computing Module                
 Release: version 1.0, May 2013, Q-Chem Inc. Pittsburgh 
 -------------------------------------------------------
energy of the guess density (C=0) -490.814448127786
 using 24 threads for integral computing
 -------------------------------------------------------
 OpenMP Integral computing Module                
 Release: version 1.0, May 2013, Q-Chem Inc. Pittsburgh 
 -------------------------------------------------------
We will preform up to 15 macro iterations over saddle points until a stable solution is found
Energy prior to optimization (guess energy) = -490.418676252318
Begin Timing: Total SCF Calculation
Begin Timing: SCF Single Stationary Point Calculation
begin iterations for algorithm: GDM          
the SCF tolerance is set to 1.00e-08
    1    -490.4186762523      1.47e-01     00000  Descent step
    2    -490.5244089500      2.88e-02     00000  Normal BFGS step
    3    -490.5353379168      1.44e-02     00000  Normal BFGS step
    4    -490.5370717525      3.95e-03     00000  Normal BFGS step
    5    -490.5372105380      1.77e-03     00000  Normal BFGS step
    6    -490.5372407872      5.63e-04     00000  Normal BFGS step
    7    -490.5372440013      2.53e-04     00000  Normal BFGS step
    8    -490.5372449777      1.91e-04     00000  Normal BFGS step
    9    -490.5372451363      1.13e-04     00000  Normal BFGS step
   10    -490.5372452211      3.81e-05     00000  Normal BFGS step
   11    -490.5372452513      3.61e-05     00000  Normal BFGS step
   12    -490.5372452630      1.92e-05     00000  Normal BFGS step
   13    -490.5372452653      6.53e-06     00000  Normal BFGS step
   14    -490.5372452657      3.66e-06     00000  Normal BFGS step
   15    -490.5372452657      2.05e-06     00000  Normal BFGS step
   16    -490.5372452658      9.79e-07     00000  Normal BFGS step
   17    -490.5372452658      3.55e-07     00000  Normal BFGS step
   18    -490.5372452658      1.23e-07     00000  Normal BFGS step
   19    -490.5372452658      4.44e-08     00000  Normal BFGS step
   20    -490.5372452658      3.12e-08     00000  Normal BFGS step
   21    -490.5372452658      1.40e-08     00000  Normal BFGS step
   22    -490.5372452658      4.93e-09     00000 Convergence criterion met
Timing for Single Stationary Point: 11.00s (wall), 160.69s (cpu)
Begin Timing: Stability
===================================================
Beginning Test for Internal Stability
===================================================
generating davidson guess vectors based on koopmans excitations
    1      9.90e-01     00000 Davidson Iteration
    2      4.55e-01     00000 Davidson Iteration
    3      4.46e-01     00000 Davidson Iteration
    4      5.54e-02     00000 Davidson Iteration
    5      3.51e-02     00000 Davidson Iteration
    6      2.42e-02     00000 Davidson Iteration
    7      1.18e-02     00000 Davidson Iteration
    8      1.11e-02     00000 Davidson Iteration
    9      3.44e-03     00000 Davidson Iteration
   10      7.66e-04     00000 Davidson Iteration
   11      3.86e-04     00000 Davidson Iteration
   12      2.66e-04     00000 Davidson Iteration
   13      6.40e-05     00000 Davidson Iteration
   14      2.83e-04     00000 Davidson Iteration
   15      1.08e-04     00000 Davidson Iteration
   16      3.83e-05     00000 Davidson Converged
converged_eigenvalues
   0.1953
   0.1261
Threshold for negative eigenvalues: -1.0e-05
solution was a local minimum (stable)
===================================================
End Test for Internal Stability
===================================================
Timing for Internal Stability: 18.00s (wall), 279.65s (cpu)
Our SCF solution is stable!
Timing for Total SCF: 29.00s (wall), 440.35s (cpu)
 Total energy in the final basis set =     -490.5372452658
<S^2> =          0.771655795
    ==================================================
              The end of Object-Oriented SCFman       
    ==================================================


 ------------------------------------------------------------------------------

   CCMAN2: suite of methods based on coupled cluster
           and equation of motion theories.

   Components:
   * libvmm-1.3-trunk
     by Evgeny Epifanovsky, Ilya Kaliman.
   * libtensor-2.5-trunk
     by Evgeny Epifanovsky, Michael Wormit, Dmitry Zuev, Sam Manzer, 
        Ilya Kaliman.
   * libcc-2.5-trunk
     by Evgeny Epifanovsky, Arik Landau, Tomasz Kus, Kirill Khistyaev, 
        Dmitry Zuev, Prashant Manohar, Xintian Feng, Anna Krylov, 
        Matthew Goldey, Alec White, Thomas Jagau, Kaushik Nanda, 
        Anastasia Gunina, Alexander Kunitsa, Joonho Lee.

   CCMAN original authors:
   Anna I. Krylov, C. David Sherrill, Steven R. Gwaltney,
   Edward F. C. Byrd (2000)
   Sergey V. Levchenko, Lyudmila V. Slipchenko, Tao Wang,
   Ana-Maria C. Cristian (2003)
   Piotr A. Pieniazek, C. Melania Oana, Evgeny Epifanovsky (2007)
   Prashant Manohar (2009)

 ------------------------------------------------------------------------------


 Allocating and initializing 128000MB of RAM (this may take a while)...
 Calculation will run on 24 cores.


 Alpha MOs, Unrestricted
 -- Occupied --                  
-80.098 -20.620 -20.620  -7.630  -5.529  -5.524  -5.521  -1.430
  1 A     2 A     3 A     4 A     5 A     6 A     7 A     8 A                  
 -1.380  -0.793  -0.678  -0.645  -0.613  -0.551  -0.531  -0.480
  9 A    10 A    11 A    12 A    13 A    14 A    15 A    16 A                  
 -- Virtual --                   
  0.022   0.054   0.062   0.068   0.081   0.148   0.161   0.170
 17 A    18 A    19 A    20 A    21 A    22 A    23 A    24 A                  
  0.178   0.208   0.212   0.217   0.233   0.244   0.249   0.308
 25 A    26 A    27 A    28 A    29 A    30 A    31 A    32 A                  
  0.332   0.346   0.372   0.414   0.447   0.479   0.538   0.553
 33 A    34 A    35 A    36 A    37 A    38 A    39 A    40 A                  
  0.583   0.601   0.601   0.607   0.617   0.702   0.729   0.758
 41 A    42 A    43 A    44 A    45 A    46 A    47 A    48 A                  
  0.770   0.772   0.850   0.858   0.859   0.868   0.882   0.887
 49 A    50 A    51 A    52 A    53 A    54 A    55 A    56 A                  
  0.923   0.949   0.986   1.013   1.029   1.030   1.282   1.288
 57 A    58 A    59 A    60 A    61 A    62 A    63 A    64 A                  
  1.293   1.295   1.385   1.434   1.501   1.513   1.577   1.614
 65 A    66 A    67 A    68 A    69 A    70 A    71 A    72 A                  
  1.634   1.736   1.738   1.747   1.801   1.811   1.812   1.857
 73 A    74 A    75 A    76 A    77 A    78 A    79 A    80 A                  
  2.037   2.079   2.113   2.128   2.130   2.155   2.237   2.297
 81 A    82 A    83 A    84 A    85 A    86 A    87 A    88 A                  
  2.303   2.358   2.366   2.390   2.407   2.423   2.452   2.454
 89 A    90 A    91 A    92 A    93 A    94 A    95 A    96 A                  
  2.470   2.536   2.554   2.622   2.749   2.755   2.804   2.907
 97 A    98 A    99 A   100 A   101 A   102 A   103 A   104 A                  
  3.071   3.085   3.192   3.375   3.557   3.740   4.306   4.325
105 A   106 A   107 A   108 A   109 A   110 A   111 A   112 A                  
  4.400   4.613   5.162   5.169   5.848   5.960   6.499   6.508
113 A   114 A   115 A   116 A   117 A   118 A   119 A   120 A                  
  6.509   6.509   6.570   6.637   6.649   6.654   6.730   6.733
121 A   122 A   123 A   124 A   125 A   126 A   127 A   128 A                  
  6.738   6.759   6.787   6.805   7.062   7.086   7.087   7.087
129 A   130 A   131 A   132 A   133 A   134 A   135 A   136 A                  
  7.185   7.261   7.261   7.549   7.570   7.580   7.640   7.653
137 A   138 A   139 A   140 A   141 A   142 A   143 A   144 A                  
  7.870   8.202   8.593  10.238  10.395  11.277  12.996  26.185
145 A   146 A   147 A   148 A   149 A   150 A   151 A   152 A                  
 26.201  26.231  26.396  27.039  27.096  27.174  27.175  27.189
153 A   154 A   155 A   156 A   157 A   158 A   159 A   160 A                  
 27.199  27.200  27.232  27.236  28.791  28.967  33.575  33.581
161 A   162 A   163 A   164 A   165 A   166 A   167 A   168 A                  
 33.723  33.921  34.142  42.316  42.516  43.382  43.902  43.909
169 A   170 A   171 A   172 A   173 A   174 A   175 A   176 A                  
 43.912  43.913  43.981  43.986  44.009  44.102  44.109  44.124
177 A   178 A   179 A   180 A   181 A   182 A   183 A   184 A                  
 72.948 138.330 138.345 138.365 138.485 138.986 139.056 149.469
185 A   186 A   187 A   188 A   189 A   190 A   191 A   192 A                  
149.724
193 A                                                                          

 Beta MOs, Unrestricted
 -- Occupied --                  
-80.093 -20.608 -20.608  -7.623  -5.520  -5.519  -5.512  -1.391
  1 A     2 A     3 A     4 A     5 A     6 A     7 A     8 A                  
 -1.338  -0.730  -0.607  -0.605  -0.592  -0.529  -0.513
  9 A    10 A    11 A    12 A    13 A    14 A    15 A                          
 -- Virtual --                   
 -0.045   0.047   0.063   0.069   0.075   0.102   0.164   0.165
 16 A    17 A    18 A    19 A    20 A    21 A    22 A    23 A                  
  0.173   0.178   0.210   0.219   0.222   0.236   0.253   0.255
 24 A    25 A    26 A    27 A    28 A    29 A    30 A    31 A                  
  0.327   0.334   0.354   0.377   0.446   0.460   0.502   0.556
 32 A    33 A    34 A    35 A    36 A    37 A    38 A    39 A                  
  0.566   0.587   0.609   0.609   0.614   0.623   0.706   0.729
 40 A    41 A    42 A    43 A    44 A    45 A    46 A    47 A                  
  0.775   0.777   0.784   0.851   0.860   0.866   0.874   0.893
 48 A    49 A    50 A    51 A    52 A    53 A    54 A    55 A                  
  0.904   0.934   0.958   0.990   1.014   1.033   1.034   1.285
 56 A    57 A    58 A    59 A    60 A    61 A    62 A    63 A                  
  1.289   1.311   1.326   1.399   1.440   1.522   1.534   1.582
 64 A    65 A    66 A    67 A    68 A    69 A    70 A    71 A                  
  1.620   1.636   1.745   1.756   1.771   1.805   1.819   1.822
 72 A    73 A    74 A    75 A    76 A    77 A    78 A    79 A                  
  1.868   2.060   2.085   2.115   2.129   2.130   2.167   2.253
 80 A    81 A    82 A    83 A    84 A    85 A    86 A    87 A                  
  2.300   2.306   2.359   2.375   2.409   2.416   2.441   2.458
 88 A    89 A    90 A    91 A    92 A    93 A    94 A    95 A                  
  2.460   2.484   2.545   2.563   2.626   2.756   2.756   2.818
 96 A    97 A    98 A    99 A   100 A   101 A   102 A   103 A                  
  2.923   3.080   3.089   3.201   3.390   3.564   3.746   4.310
104 A   105 A   106 A   107 A   108 A   109 A   110 A   111 A                  
  4.349   4.404   4.623   5.177   5.194   5.863   5.974   6.501
112 A   113 A   114 A   115 A   116 A   117 A   118 A   119 A                  
  6.512   6.516   6.516   6.583   6.646   6.661   6.665   6.740
120 A   121 A   122 A   123 A   124 A   125 A   126 A   127 A                  
  6.747   6.752   6.765   6.800   6.813   7.077   7.095   7.098
128 A   129 A   130 A   131 A   132 A   133 A   134 A   135 A                  
  7.100   7.198   7.278   7.284   7.560   7.579   7.602   7.666
136 A   137 A   138 A   139 A   140 A   141 A   142 A   143 A                  
  7.672   7.873   8.207   8.599  10.242  10.412  11.277  13.001
144 A   145 A   146 A   147 A   148 A   149 A   150 A   151 A                  
 26.188  26.213  26.234  26.404  27.053  27.106  27.176  27.177
152 A   153 A   154 A   155 A   156 A   157 A   158 A   159 A                  
 27.190  27.200  27.202  27.234  27.239  28.800  28.975  33.582
160 A   161 A   162 A   163 A   164 A   165 A   166 A   167 A                  
 33.588  33.724  33.927  34.144  42.318  42.524  43.383  43.909
168 A   169 A   170 A   171 A   172 A   173 A   174 A   175 A                  
 43.915  43.917  43.917  43.992  43.992  44.017  44.113  44.120
176 A   177 A   178 A   179 A   180 A   181 A   182 A   183 A                  
 44.134  72.952 138.331 138.348 138.366 138.487 138.989 139.058
184 A   185 A   186 A   187 A   188 A   189 A   190 A   191 A                  
149.471 149.727
192 A   193 A                                                                  

 Occupation and symmetry of molecular orbitals

 Point group: C1 (1 irreducible representation).

                           A     All 
 -------------------------------------
 All molecular orbitals:
  - Alpha                  193   193 
  - Beta                   193   193 
 -------------------------------------
 Alpha orbitals:
  - Frozen occupied        0     0   
  - Active occupied        16    16  
  - Active virtual         177   177 
  - Frozen virtual         0     0   
 -------------------------------------
 Beta orbitals:
  - Frozen occupied        0     0   
  - Active occupied        15    15  
  - Active virtual         178   178 
  - Frozen virtual         0     0   
 -------------------------------------

 Import integrals:   CPU 0.00 s  wall 0.00 s

 Import integrals:   CPU 554.57 s  wall 31.48 s

 MP2 amplitudes:   CPU 2.75 s  wall 0.14 s

Running a double precision version
           CCSD T amplitudes will be solved using DIIS.

           Start     Size      MaxIter   EConv     TConv     
           3         7         100       1.00e-06  1.00e-04  
 ------------------------------------------------------------------------------
           Energy (a.u.)   Ediff      Tdiff       Comment
 ------------------------------------------------------------------------------
          -491.59185326                           
     1    -491.55742041   3.44e-02   6.84e-01     
     2    -491.58863703   3.12e-02   1.02e-01     
     3    -491.58181151   6.83e-03   5.35e-02     
     4    -491.58573004   3.92e-03   3.37e-02     Switched to DIIS steps.
     5    -491.58685088   1.12e-03   1.18e-02     
     6    -491.58696351   1.13e-04   2.83e-03     
     7    -491.58699043   2.69e-05   1.65e-03     
     8    -491.58700549   1.51e-05   5.73e-04     
     9    -491.58701351   8.02e-06   3.68e-04     
    10    -491.58701238   1.13e-06   1.22e-04     
    11    -491.58701220   1.73e-07   6.84e-05     
 ------------------------------------------------------------------------------
          -491.58701220                           CCSD T converged.

End of double precision
 SCF energy                 = -490.53724527
 MP2 energy                 = -491.59185326
 CCSD correlation energy    =   -1.04976694
 CCSD total energy          = -491.58701220

 CCSD  T1^2 = 0.0224  T2^2 = 0.1970  Leading amplitudes:

 Amplitude    Orbitals with energies
  0.0576       13 (A) B                  ->    16 (A) B                   
              -0.5916                         -0.0448                     
  0.0474       13 (A) A                  ->    17 (A) A                   
              -0.6134                          0.0223                     
 -0.0432       12 (A) B                  ->    21 (A) B                   
              -0.6047                          0.1019                     
 -0.0372       10 (A) B                  ->    16 (A) B                   
              -0.7296                         -0.0448                     

 Amplitude    Orbitals with energies
 -0.0334       15 (A) A      14 (A) B    ->    17 (A) A      21 (A) B     
              -0.5308       -0.5291            0.0223        0.1019       
  0.0334       15 (A) A      14 (A) B    ->    21 (A) B      17 (A) A     
              -0.5308       -0.5291            0.1019        0.0223       
  0.0334       14 (A) B      15 (A) A    ->    17 (A) A      21 (A) B     
              -0.5291       -0.5308            0.0223        0.1019       
 -0.0334       14 (A) B      15 (A) A    ->    21 (A) B      17 (A) A     
              -0.5291       -0.5308            0.1019        0.0223       

 Computing CCSD intermediates for later calculations in double precision
 Finished.

Running a double precision version
           CCSD Lambda amplitudes will be solved using DIIS.
           Start     Size      MaxIter   EConv     LConv     
           3         7         100       1.00e-06  1.00e-04  
 ------------------------------------------------------------------------------
            Enorm      Ldiff       Comment
 ------------------------------------------------------------------------------
     1     6.35e-02   3.27e-02     
     2     2.60e-02   1.24e-02     
     3     1.20e-02   6.18e-04     
     4     5.79e-03   2.81e-03     Switched to DIIS steps.
     5     1.48e-03   1.29e-03     
     6     8.29e-04   2.99e-04     
     7     3.45e-04   1.46e-04     
     8     2.01e-04   4.05e-05     
     9     7.79e-05   1.97e-05     
    10     3.36e-05   8.16e-06     
    11     1.21e-05   3.30e-06     
    12     5.04e-06   2.42e-07     
    13     2.18e-06   7.93e-08     
    14     1.01e-06   3.50e-07     
    15     4.63e-07   8.30e-08     
 ------------------------------------------------------------------------------
                                   CCSD Lambda converged.

 Computing density matrices in double precision...
           Orbital response amplitudes will be solved using DIIS.
           Start     Size      MaxIter   EConv     LConv     
           3         7         100       1.00e-06  1.00e-06  
 ------------------------------------------------------------------------------
            Enorm      Ldiff       Comment
 ------------------------------------------------------------------------------
     1     9.12e-02   2.52e-02     
     2     7.64e-02   3.51e-02     
     3     9.72e-02   5.46e-02     
     4     6.09e-03   5.26e-02     Switched to DIIS steps.
     5     1.60e-03   1.65e-03     
     6     6.86e-04   4.20e-04     
     7     3.23e-04   2.91e-05     
     8     1.18e-04   7.93e-05     
     9     6.55e-05   2.42e-05     
    10     3.43e-05   1.55e-06     
    11     8.37e-06   6.22e-06     
    12     2.82e-06   2.65e-06     
    13     1.12e-06   7.56e-07     
    14     6.18e-07   5.15e-07     
 ------------------------------------------------------------------------------
                                   Orbital response converged.

 Computing density matrices... Done.
 Reference state properties
 Relaxed dipole moment (a.u.): 0.601212 (X 0.000000, Y 0.000000, Z 0.601212)
 Relaxed R-squared (a.u.): 167.089618 (XX 15.537296, YY 126.645007, ZZ 24.907315)
 Gauge origin (a.u.): (0.000000, 0.000000, 0.000000)
 Relaxed angular momentum (a.u.) against gauge origin: 
 (X 0.000000i, Y 0.000000i, Z 0.000000i)
 Traces of the OPDMs: AA 16.000000, BB 15.000000
 Relaxed density matrix was written to a file for further analysis.

 CCSD calculation:   CPU 29607.84 s  wall 1476.02 s

 Total ccman2 time:   CPU 30289.33 s  wall 1516.23 s


 --------------------------------------------------------------

                    Orbital Energies (a.u.)
 --------------------------------------------------------------

 Alpha MOs
 -- Occupied --
-80.0980 -20.6195 -20.6195  -7.6303  -5.5286  -5.5241  -5.5208  -1.4305
 -1.3803  -0.7934  -0.6779  -0.6455  -0.6134  -0.5512  -0.5308  -0.4798
 -- Virtual --
  0.0223   0.0545   0.0615   0.0680   0.0808   0.1477   0.1613   0.1697
  0.1776   0.2075   0.2116   0.2169   0.2333   0.2440   0.2491   0.3079
  0.3324   0.3456   0.3716   0.4144   0.4471   0.4786   0.5379   0.5528
  0.5826   0.6008   0.6008   0.6072   0.6166   0.7021   0.7292   0.7584
  0.7704   0.7716   0.8502   0.8582   0.8593   0.8684   0.8821   0.8865
  0.9233   0.9487   0.9862   1.0125   1.0286   1.0301   1.2823   1.2879
  1.2929   1.2947   1.3845   1.4341   1.5006   1.5133   1.5767   1.6141
  1.6341   1.7355   1.7381   1.7475   1.8006   1.8111   1.8124   1.8575
  2.0374   2.0787   2.1128   2.1284   2.1297   2.1550   2.2373   2.2968
  2.3028   2.3578   2.3662   2.3902   2.4074   2.4232   2.4519   2.4545
  2.4699   2.5364   2.5544   2.6221   2.7492   2.7547   2.8036   2.9067
  3.0714   3.0853   3.1917   3.3752   3.5566   3.7404   4.3059   4.3247
  4.3997   4.6127   5.1618   5.1691   5.8483   5.9601   6.4986   6.5079
  6.5087   6.5091   6.5703   6.6366   6.6490   6.6541   6.7302   6.7331
  6.7380   6.7592   6.7866   6.8047   7.0624   7.0865   7.0868   7.0870
  7.1849   7.2611   7.2614   7.5489   7.5696   7.5804   7.6400   7.6526
  7.8703   8.2020   8.5934  10.2377  10.3949  11.2766  12.9964  26.1851
 26.2007  26.2314  26.3963  27.0394  27.0959  27.1742  27.1754  27.1888
 27.1987  27.1998  27.2321  27.2365  28.7915  28.9667  33.5753  33.5807
 33.7226  33.9212  34.1417  42.3158  42.5162  43.3823  43.9025  43.9091
 43.9118  43.9127  43.9807  43.9856  44.0086  44.1021  44.1095  44.1238
 72.9477 138.3303 138.3452 138.3650 138.4853 138.9859 139.0555 149.4688
149.7244

 Beta MOs
 -- Occupied --
-80.0931 -20.6080 -20.6080  -7.6226  -5.5200  -5.5194  -5.5119  -1.3909
 -1.3376  -0.7296  -0.6069  -0.6047  -0.5916  -0.5291  -0.5132
 -- Virtual --
 -0.0448   0.0467   0.0627   0.0692   0.0753   0.1019   0.1637   0.1649
  0.1728   0.1779   0.2097   0.2189   0.2218   0.2357   0.2529   0.2548
  0.3267   0.3338   0.3535   0.3774   0.4455   0.4596   0.5024   0.5558
  0.5662   0.5871   0.6087   0.6095   0.6135   0.6229   0.7061   0.7290
  0.7748   0.7773   0.7837   0.8510   0.8605   0.8656   0.8739   0.8928
  0.9043   0.9335   0.9583   0.9902   1.0137   1.0329   1.0340   1.2847
  1.2891   1.3110   1.3265   1.3987   1.4403   1.5215   1.5338   1.5821
  1.6196   1.6358   1.7447   1.7562   1.7705   1.8053   1.8188   1.8219
  1.8677   2.0600   2.0849   2.1150   2.1295   2.1298   2.1671   2.2533
  2.3000   2.3056   2.3593   2.3752   2.4088   2.4159   2.4409   2.4583
  2.4598   2.4844   2.5454   2.5629   2.6262   2.7560   2.7564   2.8183
  2.9229   3.0800   3.0892   3.2014   3.3903   3.5644   3.7465   4.3097
  4.3486   4.4044   4.6232   5.1773   5.1940   5.8632   5.9745   6.5007
  6.5123   6.5156   6.5159   6.5830   6.6464   6.6608   6.6648   6.7397
  6.7473   6.7516   6.7647   6.8002   6.8131   7.0770   7.0951   7.0980
  7.1000   7.1979   7.2776   7.2838   7.5597   7.5790   7.6016   7.6656
  7.6716   7.8732   8.2070   8.5988  10.2418  10.4119  11.2772  13.0010
 26.1881  26.2126  26.2345  26.4042  27.0528  27.1056  27.1755  27.1769
 27.1900  27.1999  27.2017  27.2339  27.2391  28.7997  28.9748  33.5821
 33.5880  33.7239  33.9266  34.1436  42.3179  42.5239  43.3828  43.9095
 43.9146  43.9172  43.9175  43.9916  43.9922  44.0170  44.1131  44.1197
 44.1345  72.9518 138.3314 138.3481 138.3661 138.4875 138.9895 139.0584
149.4711 149.7267
 --------------------------------------------------------------

          Ground-State Mulliken Net Atomic Charges

     Atom                 Charge (a.u.)    Spin (a.u.)
  --------------------------------------------------------
      1 P                     1.242981       0.518076
      2 O                    -0.621491       0.240962
      3 O                    -0.621491       0.240962
  --------------------------------------------------------
  Sum of atomic charges =    -0.000000
  Sum of spin   charges =     1.000000

 -----------------------------------------------------------------
                    Cartesian Multipole Moments
 -----------------------------------------------------------------
    Charge (ESU x 10^10)
                 0.0000
    Dipole Moment (Debye)
         X      -0.0000      Y       0.0000      Z       1.5281
       Tot       1.5281
    Quadrupole Moments (Debye-Ang)
        XX     -20.8982     XY      -0.0000     YY     -28.9701
        XZ      -0.0000     YZ      -0.0000     ZZ     -21.9311
    Octopole Moments (Debye-Ang^2)
       XXX      -0.0000    XXY      -0.0000    XYY      -0.0000
       YYY       0.0000    XXZ       0.0030    XYZ       0.0000
       YYZ       0.7374    XZZ      -0.0000    YZZ      -0.0000
       ZZZ      -1.0157
    Hexadecapole Moments (Debye-Ang^3)
      XXXX     -21.1490   XXXY       0.0000   XXYY     -28.7207
      XYYY      -0.0000   YYYY    -158.8753   XXXZ       0.0000
      XXYZ      -0.0000   XYYZ       0.0000   YYYZ      -0.0000
      XXZZ      -9.1900   XYZZ       0.0000   YYZZ     -30.6378
      XZZZ       0.0000   YZZZ      -0.0000   ZZZZ     -34.9365
 -----------------------------------------------------------------
Archival summary:
1\1\n0012.cm1\SP\ProcedureUnspecified\BasisUnspecified\12(2)\diptarka\ThuNov1914:29:192020ThuNov1914:29:192020\0\\#,ProcedureUnspecified,BasisUnspecified,\\0,2\P\O,1,1.46652\O,1,1.46652,2,135.289\\HF=-490.537245\\@

 Total job time:  1599.21s(wall), 30795.48s(cpu) 
 Thu Nov 19 14:29:19 2020

        *************************************************************
        *                                                           *
        *  Thank you very much for using Q-Chem.  Have a nice day.  *
        *                                                           *
        *************************************************************


