Q-Chem Developer Version!
                  Welcome to Q-Chem
     A Quantum Leap Into The Future Of Chemistry


 Q-Chem 5.1, Q-Chem, Inc., Pleasanton, CA (2018)

 Yihan Shao,  Zhengting Gan,  E. Epifanovsky,  A. T. B. Gilbert,  M. Wormit,  
 J. Kussmann,  A. W. Lange,  A. Behn,  Jia Deng,  Xintian Feng,  D. Ghosh,  
 M. Goldey,  P. R. Horn,  L. D. Jacobson,  I. Kaliman,  T. Kus,  A. Landau,  
 Jie Liu,  E. I. Proynov,  R. M. Richard,  R. P. Steele,  E. J. Sundstrom,  
 H. L. Woodcock III,  P. M. Zimmerman,  D. Zuev,  B. Albrecht,  E. Alguire,  
 S. A. Baeppler,  D. Barton,  Z. Benda,  Y. A. Bernard,  E. J. Berquist,  
 K. B. Bravaya,  H. Burton,  D. Casanova,  Chun-Min Chang,  Yunqing Chen,  
 A. Chien,  K. D. Closser,  M. P. Coons,  S. Coriani,  S. Dasgupta,  
 A. L. Dempwolff,  M. Diedenhofen,  Hainam Do,  R. G. Edgar,  Po-Tung Fang,  
 S. Faraji,  S. Fatehi,  Qingguo Feng,  K. D. Fenk,  J. Fosso-Tande,  
 Qinghui Ge,  A. Ghysels,  G. Gidofalvi,  J. Gomes,  J. Gonthier,  A. Gunina,  
 D. Hait,  M. W. D. Hanson-Heine,  P. H. P. Harbach,  A. W. Hauser,  
 J. E. Herr,  E. G. Hohenstein,  Z. C. Holden,  Kerwin Hui,  B. C. Huynh,  
 T.-C. Jagau,  Hyunjun Ji,  B. Kaduk,  K. Khistyaev,  Jaehoon Kim,  
 P. Klunzinger,  K. Koh,  D. Kosenkov,  L. Koulias,  T. Kowalczyk,  
 C. M. Krauter,  A. Kunitsa,  Ka Un Lao,  A. Laurent,  K. V. Lawler,  
 Joonho Lee,  D. Lefrancois,  S. Lehtola,  D. S. Levine,  Yi-Pei Li,  
 You-Sheng Lin,  Fenglai Liu,  E. Livshits,  A. Luenser,  P. Manohar,  
 E. Mansoor,  S. F. Manzer,  Shan-Ping Mao,  Yuezhi Mao,  N. Mardirossian,  
 A. V. Marenich,  T. Markovich,  L. A. Martinez-Martinez,  S. A. Maurer,  
 N. J. Mayhall,  S. C. McKenzie,  J.-M. Mewes,  A. F. Morrison,  
 J. W. Mullinax,  K. Nanda,  T. S. Nguyen-Beck,  R. Olivares-Amaya,  
 J. A. Parkhill,  T. M. Perrine,  F. Plasser,  P. Pokhilko,  S. Prager,  
 A. Prociuk,  E. Ramos,  D. R. Rehn,  F. Rob,  M. Schneider,  N. Sergueev,  
 S. M. Sharada,  S. Sharma,  D. W. Small,  T. Stauch,  T. Stein,  
 Yu-Chuan Su,  A. J. W. Thom,  A. Tkatchenko,  T. Tsuchimochi,  N. M. Tubman,  
 L. Vogt,  M. L. Vidal,  O. Vydrov,  M. A. Watson,  J. Wenzel,  
 M. de Wergifosse,  T. A. Wesolowski,  A. White,  J. Witte,  A. Yamada,  
 Jun Yang,  K. Yao,  S. Yeganeh,  S. R. Yost,  Zhi-Qiang You,  A. Zech,  
 Igor Ying Zhang,  Xing Zhang,  Yan Zhao,  Ying Zhu,  B. R. Brooks,  
 G. K. L. Chan,  C. J. Cramer,  M. S. Gordon,  W. J. Hehre,  A. Klamt,  
 M. W. Schmidt,  C. D. Sherrill,  D. G. Truhlar,  A. Aspuru-Guzik,  R. Baer,  
 A. T. Bell,  N. A. Besley,  Jeng-Da Chai,  A. E. DePrince, III,  
 R. A. DiStasio Jr.,  A. Dreuw,  B. D. Dunietz,  T. R. Furlani,  
 Chao-Ping Hsu,  Yousung Jung,  Jing Kong,  D. S. Lambrecht,  WanZhen Liang,  
 C. Ochsenfeld,  V. A. Rassolov,  L. V. Slipchenko,  J. E. Subotnik,  
 T. Van Voorhis,  J. M. Herbert,  A. I. Krylov,  P. M. W. Gill,  M. Head-Gordon

 Contributors to earlier versions of Q-Chem not listed above: 
 R. D. Adamson,  B. Austin,  J. Baker,  G. J. O. Beran,  K. Brandhorst,  
 S. T. Brown,  E. F. C. Byrd,  A. K. Chakraborty,  C.-L. Cheng,  
 Siu Hung Chien,  D. M. Chipman,  D. L. Crittenden,  H. Dachsel,  
 R. J. Doerksen,  A. D. Dutoi,  L. Fusti-Molnar,  W. A. Goddard III,  
 A. Golubeva-Zadorozhnaya,  S. R. Gwaltney,  G. Hawkins,  A. Heyden,  
 S. Hirata,  G. Kedziora,  F. J. Keil,  C. Kelley,  Jihan Kim,  R. A. King,  
 R. Z. Khaliullin,  P. P. Korambath,  W. Kurlancheek,  A. M. Lee,  M. S. Lee,  
 S. V. Levchenko,  Ching Yeh Lin,  D. Liotard,  R. C. Lochan,  I. Lotan,  
 P. E. Maslen,  N. Nair,  D. P. O'Neill,  D. Neuhauser,  E. Neuscamman,  
 C. M. Oana,  R. Olson,  B. Peters,  R. Peverati,  P. A. Pieniazek,  
 Y. M. Rhee,  J. Ritchie,  M. A. Rohrdanz,  E. Rosta,  N. J. Russ,  
 H. F. Schaefer III,  N. E. Schultz,  N. Shenvi,  A. C. Simmonett,  A. Sodt,  
 D. Stuck,  K. S. Thanthiriwatte,  V. Vanovschi,  Tao Wang,  A. Warshel,  
 C. F. Williams,  Q. Wu,  X. Xu,  W. Zhang

 Please cite Q-Chem as follows:
 Y. Shao et al., Mol. Phys. 113, 184-215 (2015)
 DOI: 10.1080/00268976.2014.952696

 Q-Chem 5.1.1 for Intel X86 EM64T Linux

 Parts of Q-Chem use Armadillo 8.300.2 (Tropical Shenanigans).
 http://arma.sourceforge.net/

 Q-Chem begins on Mon Jul 27 04:16:10 2020  

Host: n0047.mhg0
0

     Scratch files written to /local/scratch/users/yhljason/H2CN_B97M-V_aug-pc-4.inp20200727025401//
Input Ideriv = 2
Curr. Ideriv = -1
Max.  Ideriv = 2
Input Ideriv = 1
Curr. Ideriv = 2
Max.  Ideriv = 1

Checking the input file for inconsistencies... 	...done.

--------------------------------------------------------------
User input:
--------------------------------------------------------------
$molecule
0 2
        C         0.0000000000    0.0000000000   -0.4906000000
        N         0.0000000000    0.0000000000    0.7226000000
        H         0.0000000000    0.9342000000   -1.0572000000
        H         0.0000000000   -0.9342000000   -1.0572000000
$end

$rem
jobtype sp
method B97M-V
xc_grid 000099000590
basis aug-pc-4
max_scf_cycles 200
thresh 14
scf_convergence 8
scf_algorithm gdm
symmetry false
sym_ignore true
unrestricted true
gen_scfman true
internal_stability_iter 15
internal_stability_davidson_iter 200
mem_total 64000
mem_static 1500
n_frozen_core 0
$end


--------------------------------------------------------------
 ----------------------------------------------------------------
             Standard Nuclear Orientation (Angstroms)
    I     Atom           X                Y                Z
 ----------------------------------------------------------------
    1      C       0.0000000000     0.0000000000    -0.4906000000
    2      N       0.0000000000     0.0000000000     0.7226000000
    3      H       0.0000000000     0.9342000000    -1.0572000000
    4      H       0.0000000000    -0.9342000000    -1.0572000000
 ----------------------------------------------------------------
 Nuclear Repulsion Energy =    28.1005412294 hartrees
 There are        8 alpha and        7 beta electrons
 Requested basis set is aug-pc-4
 There are 114 shells and 466 basis functions

 Total QAlloc Memory Limit  64000 MB
 Mega-Array Size      1467 MB
 MEM_STATIC part      1500 MB

                       Distance Matrix (Angstroms)
             C (  1)   N (  2)   H (  3)
   N (  2)  1.213200
   H (  3)  1.092596  2.010079
   H (  4)  1.092596  2.010079  1.868400
 
 A cutoff of  1.0D-14 yielded   6498 shell pairs
 There are    109666 function pairs (    201334 Cartesian)
 
 -------------------------------------------------------
 OpenMP Integral Computing Module                       
 Release: version 1.0, May 2013, Q-Chem Inc. Pittsburgh 
 -------------------------------------------------------
 Integral Job Info:
 Integral job number is                      11
 Integral operator is                         1
 short-range coefficients                     0
 long-range coefficients              100000000
 Omega coefficients                           0
 if combine SR and LR in K                    0
 Integral screening is                        0
 Integral computing path is                   2
 max size of driver memory is           6400000
 size of driver memory is               5498286
 size of scratch memory is             29792225
 max col of scratch BK array             194481
 max len of scratch array in speh3         5572
 max len of scratch index in speh4           72
 max int batch size is                      520
 min int batch size is                       52
 fixed nKL is                                25
 max L of basis functions is                  5
 order of int derivative is                   0
 number of shells is                        114
 number of basis is                         630
 number of cartesian basis is               630
 number of contracted shell pairs          6498
 number of primitive shell pairs          12774
 maxK2 (contraction) of shell pair          121
 max number of K2 of shell pair               1
 max number of CS2 of shell pair            784
 max number of PS2 of shell pair            784
 mem total for path MDJ                 1105572
 -------------------------------------------------------
 Smallest overlap matrix eigenvalue = 1.53E-07
 Linear dependence detected in AO basis
 Number of orthogonalized atomic orbitals = 463
 Maximum deviation from orthogonality = 2.371E-10

 Scale SEOQF with 1.000000e-01/1.000000e-01/1.000000e-01

 Standard Electronic Orientation quadrupole field applied
 Nucleus-field energy     =    -0.0000000007 hartrees
 Guess from superposition of atomic densities
 Warning:  Energy on first SCF cycle will be non-variational
 SAD guess density has 15.000000 electrons

 -----------------------------------------------------------------------
  General SCF calculation program by
  Eric Jon Sundstrom, Paul Horn, Yuezhi Mao, Dmitri Zuev, Alec White,
  David Stuck, Shaama M.S., Shane Yost, Joonho Lee, David Small,
  Daniel Levine, Susi Lehtola, Hugh Burton, Evgeny Epifanovsky
 -----------------------------------------------------------------------
 Exchange:  B97M-V      Correlation:  B97M-V
 Using Euler-Maclaurin-Lebedev (99,590) quadrature formula
 Nonlocal Correlation:  VV10 with C = 0.0100 and b = 6.00 and scale = 1.00000
 Grid used for NLC:  SG-1 standard quadrature
Running Object-Oriented UKS (UHF)
performing a single roothaan step with Fock from read density so that orbitals are available to all algorithms
 Nonlocal correlation = 0.061445574193
energy of the guess density (C=0) -94.167656120924
 Nonlocal correlation = 0.062334043433
We will preform up to 15 macro iterations over saddle points until a stable solution is found
Energy prior to optimization (guess energy) = -93.976741080259
Begin Timing: Total SCF Calculation
Begin Timing: SCF Single Stationary Point Calculation
begin iterations for algorithm: GDM          
the SCF tolerance is set to 1.00e-08
 Nonlocal correlation = 6.179034452044e-02
    1     -93.9767410803      1.52e-01     00000  Descent step
 Nonlocal correlation = 6.206283686511e-02
    2     -93.9811075999      1.69e-01     00000  Normal BFGS step
 Nonlocal correlation = 6.213162515522e-02
    3     -94.0098423571      9.00e-02     00000  Normal BFGS step
 Nonlocal correlation = 6.209108852933e-02
    4     -94.0063619509      6.98e-02     00000 Line search: overstep
 Nonlocal correlation = 6.205147613951e-02
    5     -94.0146828209      2.51e-02     00000  Normal BFGS step
 Nonlocal correlation = 6.205420745447e-02
    6     -94.0152945832      3.44e-03     00000  Normal BFGS step
 Nonlocal correlation = 6.205464309598e-02
    7     -94.0153161645      1.95e-03     00000  Normal BFGS step
 Nonlocal correlation = 6.205489250603e-02
    8     -94.0153238663      3.19e-04     00000  Normal BFGS step
 Nonlocal correlation = 6.205470975888e-02
    9     -94.0153242042      4.04e-05     00000  Normal BFGS step
 Nonlocal correlation = 6.205473538096e-02
   10     -94.0153242236      6.47e-06     00000  Normal BFGS step
 Nonlocal correlation = 6.205473354984e-02
   11     -94.0153242243      1.68e-06     00000  Normal BFGS step
 Nonlocal correlation = 6.205473301513e-02
   12     -94.0153242243      4.89e-07     00000  Normal BFGS step
 Nonlocal correlation = 6.205473310171e-02
   13     -94.0153242243      3.07e-08     00000  Normal BFGS step
 Nonlocal correlation = 6.205473310472e-02
   14     -94.0153242243      5.35e-09     00000 Convergence criterion met
Timing for Single Stationary Point: 380.00s (wall), 6044.62s (cpu)
Begin Timing: Stability
===================================================
Beginning Test for Internal Stability
===================================================
generating davidson guess vectors based on koopmans excitations
computing hessian-vector products by finite difference
 Nonlocal correlation = 0.062054733105
 Nonlocal correlation = 0.062054733098
 Nonlocal correlation = 0.062054733054
 Nonlocal correlation = 0.062054733159
 Nonlocal correlation = 0.062054733105
    1      4.46e-01     00000 Davidson Iteration
computing hessian-vector products by finite difference
 Nonlocal correlation = 6.205473244907e-02
 Nonlocal correlation = 6.205473375438e-02
 Nonlocal correlation = 6.205473219978e-02
 Nonlocal correlation = 6.205473401068e-02
 Nonlocal correlation = 6.205473310472e-02
    2      1.05e-01     00000 Davidson Iteration
computing hessian-vector products by finite difference
 Nonlocal correlation = 6.205471521562e-02
 Nonlocal correlation = 6.205475099349e-02
 Nonlocal correlation = 6.205471717161e-02
 Nonlocal correlation = 6.205474903640e-02
 Nonlocal correlation = 6.205473310472e-02
    3      1.02e-02     00000 Davidson Iteration
computing hessian-vector products by finite difference
 Nonlocal correlation = 6.205482073076e-02
 Nonlocal correlation = 6.205464548002e-02
 Nonlocal correlation = 6.205475210149e-02
 Nonlocal correlation = 6.205471410888e-02
 Nonlocal correlation = 6.205473310472e-02
    4      3.40e-03     00000 Davidson Iteration
computing hessian-vector products by finite difference
 Nonlocal correlation = 6.205479652486e-02
 Nonlocal correlation = 6.205466968355e-02
 Nonlocal correlation = 6.205473120911e-02
 Nonlocal correlation = 6.205473499981e-02
 Nonlocal correlation = 6.205473310472e-02
    5      1.15e-03     00000 Davidson Iteration
computing hessian-vector products by finite difference
 Nonlocal correlation = 6.205481127939e-02
 Nonlocal correlation = 6.205465492981e-02
 Nonlocal correlation = 6.205476858940e-02
 Nonlocal correlation = 6.205469761692e-02
 Nonlocal correlation = 6.205473310472e-02
    6      1.72e-04     00000 Davidson Converged
converged_eigenvalues
   0.2789
   0.3552
Threshold for negative eigenvalues: -1.0e-05
solution was a local minimum (stable)
===================================================
End Test for Internal Stability
===================================================
Our SCF solution is stable!
Timing for Total SCF: 1195.00s (wall), 18991.03s (cpu)
 Total energy in the final basis set =      -94.0153242243
<S^2> =          0.759941482
    ==================================================
              The end of Object-Oriented SCFman       
    ==================================================
 
 --------------------------------------------------------------
 
                    Orbital Energies (a.u.)
 --------------------------------------------------------------
 
 Alpha MOs
 -- Occupied --
-14.365 -10.224  -0.920  -0.586  -0.474  -0.365  -0.338  -0.237
 -- Virtual --
 -0.049  -0.014   0.010   0.015   0.019   0.037   0.038   0.045
  0.055   0.058   0.059   0.066   0.073   0.084   0.095   0.111
  0.111   0.122   0.125   0.128   0.129   0.132   0.132   0.137
  0.144   0.166   0.174   0.183   0.197   0.197   0.203   0.223
  0.228   0.229   0.232   0.235   0.244   0.245   0.245   0.256
  0.259   0.263   0.269   0.279   0.285   0.286   0.292   0.295
  0.299   0.302   0.322   0.326   0.343   0.352   0.370   0.377
  0.378   0.381   0.388   0.396   0.400   0.403   0.409   0.411
  0.414   0.426   0.439   0.442   0.447   0.462   0.474   0.476
  0.479   0.485   0.490   0.492   0.496   0.499   0.510   0.514
  0.516   0.522   0.536   0.541   0.543   0.543   0.551   0.562
  0.575   0.576   0.582   0.616   0.620   0.624   0.635   0.645
  0.653   0.654   0.656   0.662   0.667   0.669   0.712   0.715
  0.722   0.728   0.733   0.747   0.761   0.768   0.774   0.781
  0.781   0.786   0.786   0.786   0.819   0.820   0.821   0.822
  0.824   0.831   0.834   0.854   0.864   0.866   0.868   0.872
  0.875   0.877   0.882   0.890   0.891   0.918   0.923   0.928
  0.929   0.940   0.941   0.951   0.974   0.977   0.997   1.004
  1.007   1.014   1.034   1.043   1.050   1.067   1.073   1.090
  1.110   1.120   1.143   1.167   1.186   1.225   1.226   1.238
  1.239   1.266   1.305   1.318   1.345   1.403   1.433   1.493
  1.518   1.519   1.562   1.566   1.604   1.618   1.625   1.651
  1.682   1.691   1.714   1.736   1.751   1.798   1.811   1.822
  1.828   1.852   1.909   1.927   1.940   1.972   2.014   2.147
  2.168   2.206   2.224   2.231   2.265   2.285   2.315   2.382
  2.393   2.411   2.456   2.503   2.568   2.575   2.576   2.762
  2.784   2.836   2.874   3.020   3.144   3.156   3.200   3.247
  3.290   3.298   3.367   3.393   3.492   3.518   3.523   3.563
  3.642   3.671   3.677   3.798   3.815   3.820   3.868   3.914
  3.929   3.974   4.043   4.082   4.136   4.212   4.231   4.279
  4.338   4.382   4.400   4.525   4.624   4.650   4.657   4.663
  4.668   4.715   4.776   4.838   4.845   4.858   4.903   4.927
  5.003   5.060   5.071   5.121   5.256   5.275   5.287   5.355
  5.392   5.475   5.546   5.602   5.624   5.699   5.790   5.835
  5.933   5.968   6.089   6.137   6.306   6.341   6.395   6.486
  6.539   6.624   6.700   6.718   6.792   6.805   7.006   7.126
  7.184   7.233   7.241   7.289   7.301   7.409   7.654   7.661
  7.806   7.960   8.096   8.160   8.639   8.724   8.742   8.869
  8.932   9.346   9.389   9.409   9.621   9.630   9.656   9.696
  9.777   9.861   9.901   9.997  10.180  10.258  10.592  10.625
 10.711  11.090  11.094  11.151  11.216  11.226  11.256  11.445
 11.497  11.508  11.567  11.584  11.742  11.778  11.967  11.983
 12.035  12.043  12.061  12.075  12.129  12.161  12.162  12.175
 12.305  12.342  12.344  12.556  12.570  12.609  12.823  12.838
 12.961  13.015  13.079  13.080  13.128  13.257  13.405  13.445
 13.579  13.584  13.616  13.671  13.778  13.894  13.924  13.925
 13.989  14.106  14.137  14.198  14.237  14.626  14.740  14.907
 15.059  15.067  15.083  15.225  15.481  15.518  15.546  15.556
 15.807  15.866  16.166  16.262  16.324  16.483  16.583  16.583
 16.617  17.016  17.385  17.500  17.624  17.656  17.889  18.252
 18.265  18.505  18.514  18.523  18.561  18.576  18.604  18.638
 18.716  18.896  18.994  19.724  19.728  19.748  19.879  19.939
 20.119  20.984  21.121  21.236  21.384  21.534  22.162  22.176
 22.257  24.163  24.218  24.429  24.647  25.198  25.561  25.884
 26.886  27.112  28.794  33.149  33.773  34.297  35.311  35.676
 39.422  39.517  48.823  48.848  49.093  49.281  50.060  78.847
 87.742  87.918  88.096  88.129  88.312  88.529 107.087
 
 Beta MOs
 -- Occupied --
-14.344 -10.226  -0.882  -0.570  -0.449  -0.337  -0.326
 -- Virtual --
 -0.121  -0.038  -0.010   0.013   0.017   0.019   0.040   0.040
  0.046   0.056   0.061   0.061   0.069   0.076   0.084   0.101
  0.113   0.117   0.125   0.127   0.129   0.132   0.133   0.134
  0.141   0.147   0.171   0.175   0.188   0.199   0.200   0.209
  0.229   0.230   0.232   0.235   0.240   0.246   0.247   0.248
  0.257   0.262   0.266   0.273   0.281   0.288   0.288   0.294
  0.300   0.304   0.305   0.325   0.330   0.349   0.356   0.373
  0.382   0.384   0.388   0.392   0.396   0.402   0.406   0.416
  0.416   0.419   0.429   0.442   0.446   0.451   0.467   0.478
  0.480   0.486   0.489   0.494   0.495   0.500   0.505   0.514
  0.518   0.518   0.523   0.539   0.545   0.545   0.546   0.554
  0.564   0.577   0.582   0.587   0.620   0.624   0.630   0.638
  0.650   0.654   0.656   0.660   0.665   0.669   0.675   0.715
  0.723   0.733   0.733   0.735   0.750   0.763   0.772   0.777
  0.784   0.784   0.788   0.789   0.790   0.821   0.822   0.825
  0.826   0.827   0.837   0.837   0.858   0.867   0.869   0.871
  0.875   0.880   0.881   0.893   0.893   0.898   0.922   0.926
  0.935   0.936   0.944   0.948   0.953   0.975   0.984   1.000
  1.014   1.016   1.018   1.036   1.045   1.052   1.070   1.077
  1.094   1.115   1.121   1.145   1.175   1.191   1.228   1.231
  1.241   1.243   1.276   1.316   1.321   1.353   1.411   1.438
  1.501   1.525   1.551   1.570   1.577   1.620   1.632   1.634
  1.674   1.694   1.706   1.719   1.763   1.765   1.804   1.824
  1.832   1.844   1.870   1.931   1.963   1.970   1.998   2.027
  2.159   2.181   2.218   2.237   2.244   2.272   2.305   2.340
  2.401   2.408   2.427   2.474   2.520   2.580   2.595   2.597
  2.772   2.796   2.863   2.899   3.034   3.162   3.175   3.225
  3.305   3.330   3.345   3.387   3.436   3.512   3.545   3.578
  3.600   3.667   3.698   3.704   3.821   3.843   3.848   3.887
  3.952   3.952   4.003   4.071   4.127   4.194   4.227   4.254
  4.306   4.369   4.420   4.431   4.549   4.677   4.689   4.690
  4.692   4.714   4.744   4.823   4.873   4.892   4.895   4.932
  4.960   5.043   5.096   5.125   5.168   5.313   5.329   5.351
  5.414   5.424   5.510   5.589   5.649   5.678   5.732   5.832
  5.903   5.977   6.028   6.132   6.186   6.354   6.402   6.445
  6.559   6.592   6.668   6.774   6.788   6.837   6.846   7.058
  7.186   7.264   7.278   7.307   7.375   7.391   7.501   7.734
  7.752   7.880   7.999   8.129   8.216   8.750   8.824   8.845
  8.958   9.017   9.430   9.444   9.464   9.693   9.695   9.743
  9.794   9.805   9.915   9.929  10.015  10.247  10.299  10.642
 10.673  10.786  11.153  11.166  11.202  11.248  11.263  11.334
 11.506  11.565  11.583  11.658  11.664  11.840  11.868  12.055
 12.074  12.099  12.116  12.132  12.182  12.213  12.224  12.243
 12.269  12.382  12.424  12.437  12.599  12.621  12.709  12.873
 12.958  13.039  13.113  13.176  13.184  13.188  13.318  13.475
 13.514  13.637  13.660  13.701  13.735  13.844  13.981  13.986
 13.987  14.057  14.144  14.225  14.239  14.339  14.682  14.786
 14.994  15.132  15.137  15.163  15.309  15.633  15.647  15.657
 15.673  15.926  15.934  16.264  16.430  16.478  16.512  16.651
 16.672  16.809  17.084  17.433  17.608  17.677  17.719  17.990
 18.323  18.425  18.524  18.545  18.578  18.583  18.606  18.625
 18.707  18.765  18.969  19.036  19.717  19.721  19.814  19.929
 19.938  20.122  20.980  21.130  21.254  21.398  21.565  22.210
 22.231  22.306  24.605  24.660  24.856  25.032  25.364  25.933
 26.281  26.999  27.133  28.900  33.159  33.785  34.321  35.339
 35.701  40.338  40.429  48.877  48.902  49.210  49.354  50.150
 78.853  89.872  90.016  90.243  90.276  90.442  90.628 107.138
 --------------------------------------------------------------
 
          Ground-State Mulliken Net Atomic Charges

     Atom                 Charge (a.u.)    Spin (a.u.)
  --------------------------------------------------------
      1 C                    -0.156439      -0.213101
      2 N                     0.053877       0.859197
      3 H                     0.051281       0.176952
      4 H                     0.051281       0.176952
  --------------------------------------------------------
  Sum of atomic charges =     0.000000
  Sum of spin   charges =     1.000000

 -----------------------------------------------------------------
                    Cartesian Multipole Moments
 -----------------------------------------------------------------
    Charge (ESU x 10^10)
                 0.0000
    Dipole Moment (Debye)
         X       0.0000      Y       0.0000      Z      -2.4098
       Tot       2.4098
    Quadrupole Moments (Debye-Ang)
        XX     -12.7418     XY      -0.0000     YY     -11.1415
        XZ      -0.0000     YZ      -0.0000     ZZ     -13.0945
    Octopole Moments (Debye-Ang^2)
       XXX       0.0000    XXY       0.0000    XYY      -0.0000
       YYY       0.0000    XXZ      -0.1654    XYZ      -0.0000
       YYZ      -1.4946    XZZ       0.0000    YZZ       0.0000
       ZZZ      -3.6245
    Hexadecapole Moments (Debye-Ang^3)
      XXXX     -13.3883   XXXY      -0.0000   XXYY      -5.6833
      XYYY      -0.0000   YYYY     -18.3501   XXXZ      -0.0000
      XXYZ      -0.0000   XYYZ      -0.0000   YYYZ      -0.0000
      XXZZ     -10.6282   XYZZ      -0.0000   YYZZ     -10.4678
      XZZZ      -0.0000   YZZZ      -0.0000   ZZZZ     -51.5988
 -----------------------------------------------------------------
Archival summary:
1\1\n0047.mhg0\SP\ProcedureUnspecified\BasisUnspecified\112(2)\yhljason\MonJul2704:36:542020MonJul2704:36:542020\0\\#,ProcedureUnspecified,BasisUnspecified,\\0,2\C\H,1,1.0926\H,1,1.0926,2,117.526\N,1,1.2132,2,121.237,3,-180,0\\\@

 Total job time:  1243.82s(wall), 19679.47s(cpu) 
 Mon Jul 27 04:36:54 2020

        *************************************************************
        *                                                           *
        *  Thank you very much for using Q-Chem.  Have a nice day.  *
        *                                                           *
        *************************************************************


