Q-Chem Developer Version!
                  Welcome to Q-Chem
     A Quantum Leap Into The Future Of Chemistry


 Q-Chem 5.1, Q-Chem, Inc., Pleasanton, CA (2018)

 Yihan Shao,  Zhengting Gan,  E. Epifanovsky,  A. T. B. Gilbert,  M. Wormit,  
 J. Kussmann,  A. W. Lange,  A. Behn,  Jia Deng,  Xintian Feng,  D. Ghosh,  
 M. Goldey,  P. R. Horn,  L. D. Jacobson,  I. Kaliman,  T. Kus,  A. Landau,  
 Jie Liu,  E. I. Proynov,  R. M. Richard,  R. P. Steele,  E. J. Sundstrom,  
 H. L. Woodcock III,  P. M. Zimmerman,  D. Zuev,  B. Albrecht,  E. Alguire,  
 S. A. Baeppler,  D. Barton,  Z. Benda,  Y. A. Bernard,  E. J. Berquist,  
 K. B. Bravaya,  H. Burton,  D. Casanova,  Chun-Min Chang,  Yunqing Chen,  
 A. Chien,  K. D. Closser,  M. P. Coons,  S. Coriani,  S. Dasgupta,  
 A. L. Dempwolff,  M. Diedenhofen,  Hainam Do,  R. G. Edgar,  Po-Tung Fang,  
 S. Faraji,  S. Fatehi,  Qingguo Feng,  K. D. Fenk,  J. Fosso-Tande,  
 Qinghui Ge,  A. Ghysels,  G. Gidofalvi,  J. Gomes,  J. Gonthier,  A. Gunina,  
 D. Hait,  M. W. D. Hanson-Heine,  P. H. P. Harbach,  A. W. Hauser,  
 J. E. Herr,  E. G. Hohenstein,  Z. C. Holden,  Kerwin Hui,  B. C. Huynh,  
 T.-C. Jagau,  Hyunjun Ji,  B. Kaduk,  K. Khistyaev,  Jaehoon Kim,  
 P. Klunzinger,  K. Koh,  D. Kosenkov,  L. Koulias,  T. Kowalczyk,  
 C. M. Krauter,  A. Kunitsa,  Ka Un Lao,  A. Laurent,  K. V. Lawler,  
 Joonho Lee,  D. Lefrancois,  S. Lehtola,  D. S. Levine,  Yi-Pei Li,  
 You-Sheng Lin,  Fenglai Liu,  E. Livshits,  A. Luenser,  P. Manohar,  
 E. Mansoor,  S. F. Manzer,  Shan-Ping Mao,  Yuezhi Mao,  N. Mardirossian,  
 A. V. Marenich,  T. Markovich,  L. A. Martinez-Martinez,  S. A. Maurer,  
 N. J. Mayhall,  S. C. McKenzie,  J.-M. Mewes,  A. F. Morrison,  
 J. W. Mullinax,  K. Nanda,  T. S. Nguyen-Beck,  R. Olivares-Amaya,  
 J. A. Parkhill,  T. M. Perrine,  F. Plasser,  P. Pokhilko,  S. Prager,  
 A. Prociuk,  E. Ramos,  D. R. Rehn,  F. Rob,  M. Schneider,  N. Sergueev,  
 S. M. Sharada,  S. Sharma,  D. W. Small,  T. Stauch,  T. Stein,  
 Yu-Chuan Su,  A. J. W. Thom,  A. Tkatchenko,  T. Tsuchimochi,  N. M. Tubman,  
 L. Vogt,  M. L. Vidal,  O. Vydrov,  M. A. Watson,  J. Wenzel,  
 M. de Wergifosse,  T. A. Wesolowski,  A. White,  J. Witte,  A. Yamada,  
 Jun Yang,  K. Yao,  S. Yeganeh,  S. R. Yost,  Zhi-Qiang You,  A. Zech,  
 Igor Ying Zhang,  Xing Zhang,  Yan Zhao,  Ying Zhu,  B. R. Brooks,  
 G. K. L. Chan,  C. J. Cramer,  M. S. Gordon,  W. J. Hehre,  A. Klamt,  
 M. W. Schmidt,  C. D. Sherrill,  D. G. Truhlar,  A. Aspuru-Guzik,  R. Baer,  
 A. T. Bell,  N. A. Besley,  Jeng-Da Chai,  A. E. DePrince, III,  
 R. A. DiStasio Jr.,  A. Dreuw,  B. D. Dunietz,  T. R. Furlani,  
 Chao-Ping Hsu,  Yousung Jung,  Jing Kong,  D. S. Lambrecht,  WanZhen Liang,  
 C. Ochsenfeld,  V. A. Rassolov,  L. V. Slipchenko,  J. E. Subotnik,  
 T. Van Voorhis,  J. M. Herbert,  A. I. Krylov,  P. M. W. Gill,  M. Head-Gordon

 Contributors to earlier versions of Q-Chem not listed above: 
 R. D. Adamson,  B. Austin,  J. Baker,  G. J. O. Beran,  K. Brandhorst,  
 S. T. Brown,  E. F. C. Byrd,  A. K. Chakraborty,  C.-L. Cheng,  
 Siu Hung Chien,  D. M. Chipman,  D. L. Crittenden,  H. Dachsel,  
 R. J. Doerksen,  A. D. Dutoi,  L. Fusti-Molnar,  W. A. Goddard III,  
 A. Golubeva-Zadorozhnaya,  S. R. Gwaltney,  G. Hawkins,  A. Heyden,  
 S. Hirata,  G. Kedziora,  F. J. Keil,  C. Kelley,  Jihan Kim,  R. A. King,  
 R. Z. Khaliullin,  P. P. Korambath,  W. Kurlancheek,  A. M. Lee,  M. S. Lee,  
 S. V. Levchenko,  Ching Yeh Lin,  D. Liotard,  R. C. Lochan,  I. Lotan,  
 P. E. Maslen,  N. Nair,  D. P. O'Neill,  D. Neuhauser,  E. Neuscamman,  
 C. M. Oana,  R. Olson,  B. Peters,  R. Peverati,  P. A. Pieniazek,  
 Y. M. Rhee,  J. Ritchie,  M. A. Rohrdanz,  E. Rosta,  N. J. Russ,  
 H. F. Schaefer III,  N. E. Schultz,  N. Shenvi,  A. C. Simmonett,  A. Sodt,  
 D. Stuck,  K. S. Thanthiriwatte,  V. Vanovschi,  Tao Wang,  A. Warshel,  
 C. F. Williams,  Q. Wu,  X. Xu,  W. Zhang

 Please cite Q-Chem as follows:
 Y. Shao et al., Mol. Phys. 113, 184-215 (2015)
 DOI: 10.1080/00268976.2014.952696

 Q-Chem 5.1.1 for Intel X86 EM64T Linux

 Parts of Q-Chem use Armadillo 8.300.2 (Tropical Shenanigans).
 http://arma.sourceforge.net/

 Q-Chem begins on Mon Jul 27 04:38:20 2020  

Host: n0100.mhg0
0

     Scratch files written to /local/scratch/users/yhljason/H2CN_MN15_aug-pc-4.inp20200727025403//
Input Ideriv = 2
Curr. Ideriv = -1
Max.  Ideriv = 2
Input Ideriv = 1
Curr. Ideriv = 2
Max.  Ideriv = 1

Checking the input file for inconsistencies... 	...done.

--------------------------------------------------------------
User input:
--------------------------------------------------------------
$molecule
0 2
        C         0.0000000000    0.0000000000   -0.4906000000
        N         0.0000000000    0.0000000000    0.7226000000
        H         0.0000000000    0.9342000000   -1.0572000000
        H         0.0000000000   -0.9342000000   -1.0572000000
$end

$rem
jobtype sp
method MN15
xc_grid 000099000590
basis aug-pc-4
max_scf_cycles 200
thresh 14
scf_convergence 8
scf_algorithm gdm
symmetry false
sym_ignore true
unrestricted true
gen_scfman true
internal_stability_iter 15
internal_stability_davidson_iter 200
mem_total 64000
mem_static 1500
n_frozen_core 0
$end


--------------------------------------------------------------
 ----------------------------------------------------------------
             Standard Nuclear Orientation (Angstroms)
    I     Atom           X                Y                Z
 ----------------------------------------------------------------
    1      C       0.0000000000     0.0000000000    -0.4906000000
    2      N       0.0000000000     0.0000000000     0.7226000000
    3      H       0.0000000000     0.9342000000    -1.0572000000
    4      H       0.0000000000    -0.9342000000    -1.0572000000
 ----------------------------------------------------------------
 Nuclear Repulsion Energy =    28.1005412294 hartrees
 There are        8 alpha and        7 beta electrons
 Requested basis set is aug-pc-4
 There are 114 shells and 466 basis functions

 Total QAlloc Memory Limit  64000 MB
 Mega-Array Size      1467 MB
 MEM_STATIC part      1500 MB

                       Distance Matrix (Angstroms)
             C (  1)   N (  2)   H (  3)
   N (  2)  1.213200
   H (  3)  1.092596  2.010079
   H (  4)  1.092596  2.010079  1.868400
 
 A cutoff of  1.0D-14 yielded   6498 shell pairs
 There are    109666 function pairs (    201334 Cartesian)
 
 -------------------------------------------------------
 OpenMP Integral Computing Module                       
 Release: version 1.0, May 2013, Q-Chem Inc. Pittsburgh 
 -------------------------------------------------------
 Integral Job Info:
 Integral job number is                      11
 Integral operator is                         1
 short-range coefficients                     0
 long-range coefficients              100000000
 Omega coefficients                           0
 if combine SR and LR in K                    0
 Integral screening is                        0
 Integral computing path is                   2
 max size of driver memory is           6400000
 size of driver memory is               5498286
 size of scratch memory is             29792225
 max col of scratch BK array             194481
 max len of scratch array in speh3         5572
 max len of scratch index in speh4           72
 max int batch size is                      520
 min int batch size is                       52
 fixed nKL is                                25
 max L of basis functions is                  5
 order of int derivative is                   0
 number of shells is                        114
 number of basis is                         630
 number of cartesian basis is               630
 number of contracted shell pairs          6498
 number of primitive shell pairs          12774
 maxK2 (contraction) of shell pair          121
 max number of K2 of shell pair               1
 max number of CS2 of shell pair            784
 max number of PS2 of shell pair            784
 mem total for path MDJ                 1105572
 -------------------------------------------------------
 Smallest overlap matrix eigenvalue = 1.53E-07
 Linear dependence detected in AO basis
 Number of orthogonalized atomic orbitals = 463
 Maximum deviation from orthogonality = 2.371E-10

 Scale SEOQF with 1.000000e-01/1.000000e-01/1.000000e-01

 Standard Electronic Orientation quadrupole field applied
 Nucleus-field energy     =    -0.0000000007 hartrees
 Guess from superposition of atomic densities
 Warning:  Energy on first SCF cycle will be non-variational
 SAD guess density has 15.000000 electrons

 -----------------------------------------------------------------------
  General SCF calculation program by
  Eric Jon Sundstrom, Paul Horn, Yuezhi Mao, Dmitri Zuev, Alec White,
  David Stuck, Shaama M.S., Shane Yost, Joonho Lee, David Small,
  Daniel Levine, Susi Lehtola, Hugh Burton, Evgeny Epifanovsky
 -----------------------------------------------------------------------
 Exchange:     0.4400 Hartree-Fock + 1.0000 MN15
 Correlation:  1.0000 MN15
 Using Euler-Maclaurin-Lebedev (99,590) quadrature formula
Running Object-Oriented UKS (UHF)
performing a single roothaan step with Fock from read density so that orbitals are available to all algorithms
 LTot/LBra/LKet=          18           9           9

 Q-Chem warning:

 in GenH1, ket side, handled with new code

 LTot/LBra/LBra=          18           9           9

 Q-Chem warning:

 in GenH1, bra side, handled with new code

energy of the guess density (C=0) -94.090938080885
We will preform up to 15 macro iterations over saddle points until a stable solution is found
Energy prior to optimization (guess energy) = -93.902130714289
Begin Timing: Total SCF Calculation
Begin Timing: SCF Single Stationary Point Calculation
begin iterations for algorithm: GDM          
the SCF tolerance is set to 1.00e-08
    1     -93.9021307143      1.55e-01     00000  Descent step
    2     -93.8978023807      1.32e-01     00000 Line search: overstep
    3     -93.9288302259      3.63e-02     00000  Normal BFGS step
    4     -93.9326425579      2.78e-02     00000  Normal BFGS step
    5     -93.9346072851      6.36e-03     00000  Normal BFGS step
    6     -93.9347699140      4.05e-03     00000  Normal BFGS step
    7     -93.9348056584      1.73e-03     00000  Normal BFGS step
    8     -93.9348168126      7.57e-04     00000  Normal BFGS step
    9     -93.9348177203      2.64e-04     00000  Normal BFGS step
   10     -93.9348178466      3.29e-05     00000  Normal BFGS step
   11     -93.9348178568      5.07e-06     00000  Normal BFGS step
   12     -93.9348178573      1.28e-06     00000  Normal BFGS step
   13     -93.9348178574      1.37e-06     00000  Normal BFGS step
   14     -93.9348178574      3.48e-07     00000  Normal BFGS step
   15     -93.9348178574      5.33e-08     00000  Normal BFGS step
   16     -93.9348178574      1.66e-08     00000  Normal BFGS step
   17     -93.9348178574      2.57e-08     00000  Normal BFGS step
   18     -93.9348178574      9.26e-10     00000 Convergence criterion met
Timing for Single Stationary Point: 4435.00s (wall), 70945.83s (cpu)
Begin Timing: Stability
===================================================
Beginning Test for Internal Stability
===================================================
generating davidson guess vectors based on koopmans excitations
    1      3.74e-01     00000 Davidson Iteration
    2      2.38e-01     00000 Davidson Iteration
    3      1.50e-01     00000 Davidson Iteration
    4      1.43e-01     00000 Davidson Iteration
    5      1.41e-01     00000 Davidson Iteration
    6      3.82e-02     00000 Davidson Iteration
    7      8.67e-03     00000 Davidson Iteration
    8      2.14e-03     00000 Davidson Iteration
    9      6.00e-04     00000 Davidson Iteration
   10      2.47e-04     00000 Davidson Iteration
   11      7.19e-05     00000 Davidson Iteration
   12      7.34e-05     00000 Davidson Converged
converged_eigenvalues
   0.2743
   0.3497
Threshold for negative eigenvalues: -1.0e-05
solution was a local minimum (stable)
===================================================
End Test for Internal Stability
===================================================
Our SCF solution is stable!
Timing for Total SCF: 9205.00s (wall), 141930.93s (cpu)
 Total energy in the final basis set =      -93.9348178574
<S^2> =          0.761484771
    ==================================================
              The end of Object-Oriented SCFman       
    ==================================================
 
 --------------------------------------------------------------
 
                    Orbital Energies (a.u.)
 --------------------------------------------------------------
 
 Alpha MOs
 -- Occupied --
-14.170 -10.121  -0.976  -0.650  -0.548  -0.439  -0.408  -0.302
 -- Virtual --
  0.009   0.016   0.029   0.034   0.034   0.048   0.059   0.063
  0.073   0.084   0.088   0.099   0.107   0.117   0.121   0.139
  0.141   0.145   0.150   0.151   0.156   0.157   0.163   0.166
  0.180   0.197   0.210   0.211   0.222   0.232   0.233   0.256
  0.260   0.266   0.266   0.267   0.278   0.279   0.285   0.294
  0.297   0.302   0.304   0.314   0.317   0.325   0.333   0.336
  0.344   0.346   0.359   0.366   0.383   0.392   0.409   0.419
  0.420   0.422   0.429   0.437   0.442   0.444   0.448   0.456
  0.457   0.469   0.479   0.480   0.489   0.505   0.518   0.519
  0.522   0.525   0.526   0.533   0.534   0.544   0.552   0.562
  0.566   0.573   0.583   0.586   0.588   0.589   0.599   0.611
  0.626   0.630   0.631   0.667   0.671   0.677   0.687   0.695
  0.707   0.710   0.711   0.717   0.722   0.724   0.766   0.770
  0.774   0.781   0.788   0.798   0.816   0.820   0.827   0.837
  0.838   0.840   0.842   0.842   0.872   0.876   0.879   0.881
  0.882   0.884   0.891   0.907   0.920   0.923   0.924   0.927
  0.930   0.931   0.937   0.947   0.947   0.969   0.978   0.980
  0.987   0.994   0.994   1.007   1.027   1.038   1.055   1.055
  1.063   1.071   1.102   1.107   1.118   1.129   1.133   1.146
  1.170   1.182   1.196   1.223   1.238   1.279   1.289   1.298
  1.302   1.315   1.351   1.357   1.389   1.441   1.482   1.535
  1.559   1.565   1.598   1.598   1.645   1.658   1.671   1.690
  1.716   1.735   1.758   1.766   1.791   1.834   1.850   1.869
  1.869   1.881   1.923   1.933   1.956   1.978   2.025   2.166
  2.195   2.205   2.217   2.233   2.254   2.291   2.308   2.364
  2.365   2.405   2.437   2.487   2.546   2.546   2.564   2.723
  2.730   2.803   2.833   2.977   3.047   3.095   3.111   3.154
  3.198   3.202   3.238   3.296   3.373   3.395   3.426   3.443
  3.523   3.537   3.550   3.656   3.673   3.687   3.716   3.776
  3.794   3.862   3.888   3.913   3.944   4.010   4.052   4.107
  4.129   4.172   4.231   4.294   4.377   4.412   4.432   4.440
  4.442   4.485   4.550   4.592   4.593   4.607   4.627   4.657
  4.726   4.787   4.795   4.812   4.871   4.963   4.965   5.025
  5.094   5.179   5.218   5.274   5.285   5.339   5.395   5.495
  5.575   5.612   5.733   5.757   5.884   5.903   5.993   6.035
  6.123   6.214   6.233   6.308   6.360   6.377   6.576   6.643
  6.651   6.707   6.781   6.831   6.834   6.888   7.067   7.135
  7.209   7.430   7.564   7.631   8.052   8.104   8.129   8.362
  8.362   8.684   8.704   8.755   8.768   8.792   8.804   8.899
  9.021   9.081   9.131   9.153   9.370   9.403   9.666   9.706
  9.911  10.137  10.205  10.222  10.244  10.347  10.351  10.477
 10.488  10.609  10.641  10.680  10.788  10.813  10.951  10.959
 11.036  11.039  11.062  11.134  11.166  11.182  11.189  11.222
 11.241  11.273  11.407  11.437  11.461  11.634  11.758  11.776
 11.917  11.918  11.938  11.945  12.017  12.116  12.117  12.127
 12.250  12.283  12.283  12.340  12.516  12.698  12.729  12.785
 12.802  12.808  12.851  13.022  13.058  13.186  13.252  13.612
 13.677  13.698  13.727  13.903  14.118  14.129  14.184  14.189
 14.407  14.429  14.697  14.830  14.966  15.018  15.157  15.207
 15.332  15.563  15.772  16.144  16.156  16.157  16.167  16.226
 16.359  16.381  16.393  16.411  16.415  16.461  16.831  16.922
 17.107  17.356  17.464  17.598  17.684  17.809  18.034  18.474
 18.501  18.983  19.168  19.467  19.468  19.503  20.272  21.066
 21.070  22.632  22.679  22.873  23.089  23.838  24.338  24.648
 25.876  25.960  27.616  31.660  32.215  32.724  33.609  33.945
 38.500  38.586  46.742  46.771  47.104  47.159  47.959  71.786
 86.260  86.290  86.415  86.434  86.748  86.778  97.929
 
 Beta MOs
 -- Occupied --
-14.157 -10.123  -0.940  -0.633  -0.517  -0.410  -0.394
 -- Virtual --
 -0.063   0.017   0.017   0.029   0.034   0.034   0.048   0.058
  0.065   0.073   0.086   0.090   0.102   0.106   0.116   0.125
  0.140   0.141   0.146   0.150   0.150   0.155   0.156   0.163
  0.167   0.181   0.203   0.212   0.214   0.224   0.235   0.235
  0.259   0.262   0.265   0.266   0.274   0.278   0.280   0.286
  0.293   0.298   0.303   0.305   0.315   0.318   0.325   0.334
  0.336   0.347   0.348   0.358   0.365   0.387   0.392   0.407
  0.419   0.423   0.426   0.430   0.437   0.443   0.443   0.458
  0.459   0.460   0.472   0.478   0.478   0.493   0.508   0.521
  0.522   0.525   0.525   0.529   0.535   0.536   0.549   0.553
  0.565   0.567   0.573   0.585   0.589   0.590   0.591   0.600
  0.613   0.629   0.631   0.635   0.668   0.671   0.683   0.688
  0.703   0.709   0.710   0.713   0.718   0.723   0.726   0.765
  0.774   0.784   0.786   0.789   0.799   0.818   0.822   0.827
  0.839   0.842   0.842   0.843   0.849   0.871   0.877   0.880
  0.882   0.888   0.889   0.891   0.909   0.923   0.924   0.927
  0.930   0.932   0.936   0.946   0.948   0.953   0.973   0.983
  0.984   0.990   0.999   1.002   1.009   1.030   1.040   1.058
  1.059   1.072   1.075   1.106   1.107   1.124   1.130   1.136
  1.148   1.169   1.182   1.196   1.229   1.239   1.279   1.291
  1.304   1.306   1.328   1.354   1.361   1.390   1.446   1.489
  1.538   1.571   1.587   1.603   1.608   1.650   1.674   1.680
  1.711   1.718   1.748   1.765   1.793   1.810   1.846   1.856
  1.876   1.879   1.885   1.955   1.972   1.982   1.999   2.034
  2.161   2.198   2.201   2.220   2.230   2.247   2.306   2.329
  2.374   2.387   2.399   2.434   2.494   2.555   2.556   2.567
  2.712   2.732   2.813   2.860   2.983   3.042   3.094   3.151
  3.197   3.208   3.221   3.273   3.346   3.382   3.414   3.448
  3.477   3.547   3.552   3.552   3.697   3.699   3.710   3.767
  3.808   3.820   3.874   3.945   3.953   3.976   4.053   4.091
  4.142   4.158   4.246   4.251   4.336   4.374   4.442   4.445
  4.450   4.453   4.468   4.575   4.580   4.605   4.617   4.662
  4.663   4.785   4.809   4.827   4.859   4.965   4.995   4.999
  5.052   5.124   5.231   5.243   5.256   5.302   5.353   5.423
  5.470   5.619   5.636   5.740   5.753   5.923   5.951   5.990
  6.037   6.102   6.175   6.216   6.294   6.368   6.406   6.565
  6.658   6.733   6.748   6.797   6.805   6.844   7.012   7.131
  7.219   7.282   7.445   7.594   7.596   7.969   8.141   8.162
  8.335   8.339   8.678   8.745   8.759   8.802   8.823   8.871
  8.909   9.077   9.087   9.136   9.280   9.400   9.536   9.703
  9.722   9.765  10.106  10.169  10.199  10.230  10.292  10.305
 10.448  10.487  10.576  10.632  10.633  10.994  10.997  11.018
 11.024  11.082  11.092  11.101  11.175  11.181  11.192  11.200
 11.221  11.259  11.296  11.384  11.464  11.478  11.516  11.713
 11.803  11.883  11.909  11.951  11.976  11.977  12.109  12.162
 12.195  12.245  12.254  12.310  12.336  12.559  12.638  12.714
 12.717  12.726  12.838  12.865  12.909  12.957  13.222  13.304
 13.610  13.741  13.815  13.968  13.974  14.103  14.124  14.247
 14.282  14.419  14.455  14.735  14.825  14.847  15.078  15.107
 15.234  15.241  15.651  15.775  16.009  16.255  16.257  16.261
 16.271  16.380  16.499  16.500  16.578  16.641  16.671  16.849
 16.952  16.976  17.408  17.527  17.714  17.727  17.868  18.146
 18.437  18.474  19.020  19.236  19.503  19.534  19.547  20.229
 20.992  21.021  22.617  22.664  22.810  23.054  23.812  24.026
 24.357  25.860  26.230  27.538  31.622  32.172  32.682  33.594
 33.889  38.468  38.559  46.929  46.962  47.008  47.304  47.896
 71.771  85.651  85.789  86.439  86.469  86.600  86.756  97.940
 --------------------------------------------------------------
 
          Ground-State Mulliken Net Atomic Charges

     Atom                 Charge (a.u.)    Spin (a.u.)
  --------------------------------------------------------
      1 C                    -0.202047      -0.487551
      2 N                     0.774931       1.105084
      3 H                    -0.286442       0.191234
      4 H                    -0.286442       0.191234
  --------------------------------------------------------
  Sum of atomic charges =     0.000000
  Sum of spin   charges =     1.000000

 -----------------------------------------------------------------
                    Cartesian Multipole Moments
 -----------------------------------------------------------------
    Charge (ESU x 10^10)
                 0.0000
    Dipole Moment (Debye)
         X      -0.0000      Y       0.0000      Z      -2.4820
       Tot       2.4820
    Quadrupole Moments (Debye-Ang)
        XX     -12.7960     XY       0.0000     YY     -11.1398
        XZ       0.0000     YZ       0.0000     ZZ     -13.0225
    Octopole Moments (Debye-Ang^2)
       XXX      -0.0000    XXY      -0.0000    XYY      -0.0000
       YYY      -0.0000    XXZ      -0.1943    XYZ      -0.0000
       YYZ      -1.6763    XZZ      -0.0000    YZZ      -0.0000
       ZZZ      -3.8688
    Hexadecapole Moments (Debye-Ang^3)
      XXXX     -13.3818   XXXY       0.0000   XXYY      -5.6651
      XYYY       0.0000   YYYY     -18.1242   XXXZ       0.0000
      XXYZ       0.0000   XYYZ      -0.0000   YYYZ      -0.0000
      XXZZ     -10.5938   XYZZ       0.0000   YYZZ     -10.2630
      XZZZ       0.0000   YZZZ       0.0000   ZZZZ     -51.3702
 -----------------------------------------------------------------
Archival summary:
1\1\n0100.mhg0\SP\ProcedureUnspecified\BasisUnspecified\112(2)\yhljason\MonJul2707:16:262020MonJul2707:16:262020\0\\#,ProcedureUnspecified,BasisUnspecified,\\0,2\C\H,1,1.0926\H,1,1.0926,2,117.526\N,1,1.2132,2,121.237,3,-180,0\\\@

 Total job time:  9486.18s(wall), 146312.15s(cpu) 
 Mon Jul 27 07:16:26 2020

        *************************************************************
        *                                                           *
        *  Thank you very much for using Q-Chem.  Have a nice day.  *
        *                                                           *
        *************************************************************


