Q-Chem Developer Version!
                  Welcome to Q-Chem
     A Quantum Leap Into The Future Of Chemistry


 Q-Chem 5.1, Q-Chem, Inc., Pleasanton, CA (2018)

 Yihan Shao,  Zhengting Gan,  E. Epifanovsky,  A. T. B. Gilbert,  M. Wormit,  
 J. Kussmann,  A. W. Lange,  A. Behn,  Jia Deng,  Xintian Feng,  D. Ghosh,  
 M. Goldey,  P. R. Horn,  L. D. Jacobson,  I. Kaliman,  T. Kus,  A. Landau,  
 Jie Liu,  E. I. Proynov,  R. M. Richard,  R. P. Steele,  E. J. Sundstrom,  
 H. L. Woodcock III,  P. M. Zimmerman,  D. Zuev,  B. Albrecht,  E. Alguire,  
 S. A. Baeppler,  D. Barton,  Z. Benda,  Y. A. Bernard,  E. J. Berquist,  
 K. B. Bravaya,  H. Burton,  D. Casanova,  Chun-Min Chang,  Yunqing Chen,  
 A. Chien,  K. D. Closser,  M. P. Coons,  S. Coriani,  S. Dasgupta,  
 A. L. Dempwolff,  M. Diedenhofen,  Hainam Do,  R. G. Edgar,  Po-Tung Fang,  
 S. Faraji,  S. Fatehi,  Qingguo Feng,  K. D. Fenk,  J. Fosso-Tande,  
 Qinghui Ge,  A. Ghysels,  G. Gidofalvi,  J. Gomes,  J. Gonthier,  A. Gunina,  
 D. Hait,  M. W. D. Hanson-Heine,  P. H. P. Harbach,  A. W. Hauser,  
 J. E. Herr,  E. G. Hohenstein,  Z. C. Holden,  Kerwin Hui,  B. C. Huynh,  
 T.-C. Jagau,  Hyunjun Ji,  B. Kaduk,  K. Khistyaev,  Jaehoon Kim,  
 P. Klunzinger,  K. Koh,  D. Kosenkov,  L. Koulias,  T. Kowalczyk,  
 C. M. Krauter,  A. Kunitsa,  Ka Un Lao,  A. Laurent,  K. V. Lawler,  
 Joonho Lee,  D. Lefrancois,  S. Lehtola,  D. S. Levine,  Yi-Pei Li,  
 You-Sheng Lin,  Fenglai Liu,  E. Livshits,  A. Luenser,  P. Manohar,  
 E. Mansoor,  S. F. Manzer,  Shan-Ping Mao,  Yuezhi Mao,  N. Mardirossian,  
 A. V. Marenich,  T. Markovich,  L. A. Martinez-Martinez,  S. A. Maurer,  
 N. J. Mayhall,  S. C. McKenzie,  J.-M. Mewes,  A. F. Morrison,  
 J. W. Mullinax,  K. Nanda,  T. S. Nguyen-Beck,  R. Olivares-Amaya,  
 J. A. Parkhill,  T. M. Perrine,  F. Plasser,  P. Pokhilko,  S. Prager,  
 A. Prociuk,  E. Ramos,  D. R. Rehn,  F. Rob,  M. Schneider,  N. Sergueev,  
 S. M. Sharada,  S. Sharma,  D. W. Small,  T. Stauch,  T. Stein,  
 Yu-Chuan Su,  A. J. W. Thom,  A. Tkatchenko,  T. Tsuchimochi,  N. M. Tubman,  
 L. Vogt,  M. L. Vidal,  O. Vydrov,  M. A. Watson,  J. Wenzel,  
 M. de Wergifosse,  T. A. Wesolowski,  A. White,  J. Witte,  A. Yamada,  
 Jun Yang,  K. Yao,  S. Yeganeh,  S. R. Yost,  Zhi-Qiang You,  A. Zech,  
 Igor Ying Zhang,  Xing Zhang,  Yan Zhao,  Ying Zhu,  B. R. Brooks,  
 G. K. L. Chan,  C. J. Cramer,  M. S. Gordon,  W. J. Hehre,  A. Klamt,  
 M. W. Schmidt,  C. D. Sherrill,  D. G. Truhlar,  A. Aspuru-Guzik,  R. Baer,  
 A. T. Bell,  N. A. Besley,  Jeng-Da Chai,  A. E. DePrince, III,  
 R. A. DiStasio Jr.,  A. Dreuw,  B. D. Dunietz,  T. R. Furlani,  
 Chao-Ping Hsu,  Yousung Jung,  Jing Kong,  D. S. Lambrecht,  WanZhen Liang,  
 C. Ochsenfeld,  V. A. Rassolov,  L. V. Slipchenko,  J. E. Subotnik,  
 T. Van Voorhis,  J. M. Herbert,  A. I. Krylov,  P. M. W. Gill,  M. Head-Gordon

 Contributors to earlier versions of Q-Chem not listed above: 
 R. D. Adamson,  B. Austin,  J. Baker,  G. J. O. Beran,  K. Brandhorst,  
 S. T. Brown,  E. F. C. Byrd,  A. K. Chakraborty,  C.-L. Cheng,  
 Siu Hung Chien,  D. M. Chipman,  D. L. Crittenden,  H. Dachsel,  
 R. J. Doerksen,  A. D. Dutoi,  L. Fusti-Molnar,  W. A. Goddard III,  
 A. Golubeva-Zadorozhnaya,  S. R. Gwaltney,  G. Hawkins,  A. Heyden,  
 S. Hirata,  G. Kedziora,  F. J. Keil,  C. Kelley,  Jihan Kim,  R. A. King,  
 R. Z. Khaliullin,  P. P. Korambath,  W. Kurlancheek,  A. M. Lee,  M. S. Lee,  
 S. V. Levchenko,  Ching Yeh Lin,  D. Liotard,  R. C. Lochan,  I. Lotan,  
 P. E. Maslen,  N. Nair,  D. P. O'Neill,  D. Neuhauser,  E. Neuscamman,  
 C. M. Oana,  R. Olson,  B. Peters,  R. Peverati,  P. A. Pieniazek,  
 Y. M. Rhee,  J. Ritchie,  M. A. Rohrdanz,  E. Rosta,  N. J. Russ,  
 H. F. Schaefer III,  N. E. Schultz,  N. Shenvi,  A. C. Simmonett,  A. Sodt,  
 D. Stuck,  K. S. Thanthiriwatte,  V. Vanovschi,  Tao Wang,  A. Warshel,  
 C. F. Williams,  Q. Wu,  X. Xu,  W. Zhang

 Please cite Q-Chem as follows:
 Y. Shao et al., Mol. Phys. 113, 184-215 (2015)
 DOI: 10.1080/00268976.2014.952696

 Q-Chem 5.1.1 for Intel X86 EM64T Linux

 Parts of Q-Chem use Armadillo 8.300.2 (Tropical Shenanigans).
 http://arma.sourceforge.net/

 Q-Chem begins on Wed Aug  5 03:02:53 2020  

Host: n0060.mhg0
0

     Scratch files written to /local/scratch/users/yhljason/N2H4_mPW91_aug-pc-4.inp20200805030249//
Input Ideriv = 2
Curr. Ideriv = -1
Max.  Ideriv = 2

Checking the input file for inconsistencies... 	...done.

--------------------------------------------------------------
User input:
--------------------------------------------------------------
$molecule
0 1
N1      0.0000  0.7230  -0.1123
N2      0.0000  -0.7230 -0.1123
H3      -0.4470 1.0031  0.7562
H4      0.4470  -1.0031 0.7562
H5      0.9663  1.0031  0.0301
H6      -0.9663 -1.0031 0.0301
$end

$rem
jobtype sp
method mPW91
xc_grid 000099000590
basis aug-pc-4
max_scf_cycles 200
thresh 14
scf_convergence 8
scf_algorithm gdm
symmetry false
sym_ignore true
unrestricted true
gen_scfman true
internal_stability_iter 15
internal_stability_davidson_iter 200
mem_total 64000
mem_static 1500
n_frozen_core 0
$end


--------------------------------------------------------------
 ----------------------------------------------------------------
             Standard Nuclear Orientation (Angstroms)
    I     Atom           X                Y                Z
 ----------------------------------------------------------------
    1      N       0.0000000000     0.7230000000    -0.1123000000
    2      N       0.0000000000    -0.7230000000    -0.1123000000
    3      H      -0.4470000000     1.0031000000     0.7562000000
    4      H       0.4470000000    -1.0031000000     0.7562000000
    5      H       0.9663000000     1.0031000000     0.0301000000
    6      H      -0.9663000000    -1.0031000000     0.0301000000
 ----------------------------------------------------------------
 Nuclear Repulsion Energy =    41.5636436839 hartrees
 There are        9 alpha and        9 beta electrons
 Requested basis set is aug-pc-4
 There are 162 shells and 642 basis functions

 Total QAlloc Memory Limit  64000 MB
 Mega-Array Size      1467 MB
 MEM_STATIC part      1500 MB

                       Distance Matrix (Angstroms)
             N (  1)   N (  2)   H (  3)   H (  4)   H (  5)
   N (  2)  1.446000
   H (  3)  1.016148  1.983311
   H (  4)  1.983311  1.016148  2.196378
   H (  5)  1.016105  1.983289  1.588911  2.195844
   H (  6)  1.983289  1.016105  2.195844  1.588911  2.785638
 
 A cutoff of  1.0D-14 yielded  12985 shell pairs
 There are    206233 function pairs (    368081 Cartesian)
 
 -------------------------------------------------------
 OpenMP Integral Computing Module                       
 Release: version 1.0, May 2013, Q-Chem Inc. Pittsburgh 
 -------------------------------------------------------
 Integral Job Info:
 Integral job number is                      11
 Integral operator is                         1
 short-range coefficients                     0
 long-range coefficients              100000000
 Omega coefficients                           0
 if combine SR and LR in K                    0
 Integral screening is                        0
 Integral computing path is                   2
 max size of driver memory is           6400000
 size of driver memory is               5498286
 size of scratch memory is             29792225
 max col of scratch BK array             194481
 max len of scratch array in speh3         5572
 max len of scratch index in speh4           72
 max int batch size is                      520
 min int batch size is                       52
 fixed nKL is                                25
 max L of basis functions is                  5
 order of int derivative is                   0
 number of shells is                        162
 number of basis is                         856
 number of cartesian basis is               856
 number of contracted shell pairs         12985
 number of primitive shell pairs          22219
 maxK2 (contraction) of shell pair          121
 max number of K2 of shell pair               1
 max number of CS2 of shell pair           1760
 max number of PS2 of shell pair           1760
 mem total for path MDJ                 1567648
 -------------------------------------------------------
 Smallest overlap matrix eigenvalue = 2.07E-07
 Linear dependence detected in AO basis
 Number of orthogonalized atomic orbitals = 634
 Maximum deviation from orthogonality = 4.761E-10

 Scale SEOQF with 1.000000e-01/1.000000e-01/1.000000e-01

 Standard Electronic Orientation quadrupole field applied
 Nucleus-field energy     =     0.0000000007 hartrees
 Guess from superposition of atomic densities
 Warning:  Energy on first SCF cycle will be non-variational
 SAD guess density has 18.000000 electrons

 -----------------------------------------------------------------------
  General SCF calculation program by
  Eric Jon Sundstrom, Paul Horn, Yuezhi Mao, Dmitri Zuev, Alec White,
  David Stuck, Shaama M.S., Shane Yost, Joonho Lee, David Small,
  Daniel Levine, Susi Lehtola, Hugh Burton, Evgeny Epifanovsky
 -----------------------------------------------------------------------
 Exchange:  mPW91      Correlation:  PW91
 Using Euler-Maclaurin-Lebedev (99,590) quadrature formula
Running Object-Oriented UKS (UHF)
performing a single roothaan step with Fock from read density so that orbitals are available to all algorithms
energy of the guess density (C=0) -112.064787945941
We will preform up to 15 macro iterations over saddle points until a stable solution is found
Energy prior to optimization (guess energy) = -111.814319603500
Begin Timing: Total SCF Calculation
Begin Timing: SCF Single Stationary Point Calculation
begin iterations for algorithm: GDM          
the SCF tolerance is set to 1.00e-08
    1    -111.8143196035      8.33e-02     00000  Descent step
    2    -111.8921344864      5.06e-02     00000  Normal BFGS step
    3    -111.9090276485      9.09e-03     00000  Normal BFGS step
    4    -111.9100374993      4.08e-03     00000  Normal BFGS step
    5    -111.9101944924      6.49e-04     00000  Normal BFGS step
    6    -111.9101978752      5.49e-05     00000  Normal BFGS step
    7    -111.9101979401      1.43e-05     00000  Normal BFGS step
    8    -111.9101979474      4.11e-06     00000  Normal BFGS step
    9    -111.9101979478      1.47e-06     00000  Normal BFGS step
   10    -111.9101979479      4.65e-07     00000  Normal BFGS step
   11    -111.9101979479      3.81e-08     00000  Normal BFGS step
   12    -111.9101979479      3.76e-08     00000  Normal BFGS step
   13    -111.9101979479      2.50e-08     00000  Normal BFGS step
   14    -111.9101979479      1.71e-09     00000 Convergence criterion met
Timing for Single Stationary Point: 1711.00s (wall), 13572.06s (cpu)
Begin Timing: Stability
===================================================
Beginning Test for Internal Stability
===================================================
generating davidson guess vectors based on koopmans excitations
    1      4.24e-01     00000 Davidson Iteration
    2      1.27e-01     00000 Davidson Iteration
    3      1.12e-02     00000 Davidson Iteration
    4      8.13e-03     00000 Davidson Iteration
    5      1.47e-03     00000 Davidson Iteration
    6      6.20e-04     00000 Davidson Iteration
    7      1.34e-04     00000 Davidson Iteration
    8      4.57e-05     00000 Davidson Iteration
    9      5.40e-05     00000 Davidson Converged
converged_eigenvalues
   0.2913
   0.3190
Threshold for negative eigenvalues: -1.0e-05
solution was a local minimum (stable)
===================================================
End Test for Internal Stability
===================================================
Our SCF solution is stable!
Timing for Total SCF: 21848.00s (wall), 173782.30s (cpu)
 Total energy in the final basis set =     -111.9101979479
<S^2> =         -0.000000000
    ==================================================
              The end of Object-Oriented SCFman       
    ==================================================
 
 --------------------------------------------------------------
 
                    Orbital Energies (a.u.)
 --------------------------------------------------------------
 
 Alpha MOs
 -- Occupied --
-14.011 -14.011  -0.880  -0.686  -0.463  -0.443  -0.392  -0.254
 -0.196
 -- Virtual --
 -0.038  -0.008   0.004   0.013   0.032   0.039   0.039   0.044
  0.046   0.047   0.052   0.055   0.062   0.091   0.098   0.100
  0.101   0.106   0.106   0.110   0.116   0.120   0.123   0.132
  0.138   0.147   0.147   0.152   0.169   0.171   0.181   0.188
  0.193   0.199   0.201   0.206   0.208   0.211   0.222   0.223
  0.227   0.229   0.231   0.239   0.246   0.257   0.265   0.266
  0.270   0.270   0.274   0.276   0.279   0.281   0.289   0.291
  0.296   0.299   0.322   0.330   0.334   0.339   0.348   0.351
  0.354   0.370   0.379   0.385   0.388   0.400   0.406   0.406
  0.412   0.415   0.420   0.422   0.426   0.430   0.437   0.441
  0.444   0.451   0.452   0.456   0.458   0.463   0.471   0.474
  0.476   0.483   0.490   0.490   0.501   0.506   0.507   0.514
  0.516   0.522   0.533   0.539   0.541   0.547   0.547   0.551
  0.557   0.557   0.569   0.584   0.592   0.594   0.608   0.619
  0.625   0.637   0.638   0.646   0.659   0.664   0.669   0.673
  0.681   0.697   0.701   0.706   0.713   0.715   0.728   0.735
  0.740   0.746   0.750   0.761   0.762   0.766   0.770   0.775
  0.777   0.779   0.789   0.790   0.794   0.807   0.809   0.817
  0.823   0.824   0.836   0.837   0.838   0.843   0.852   0.852
  0.857   0.863   0.871   0.875   0.877   0.879   0.891   0.894
  0.901   0.905   0.908   0.912   0.914   0.916   0.919   0.931
  0.938   0.943   0.953   0.954   0.961   0.964   0.970   0.970
  0.989   0.990   1.003   1.008   1.020   1.032   1.036   1.043
  1.045   1.056   1.073   1.079   1.096   1.102   1.113   1.122
  1.131   1.146   1.171   1.206   1.214   1.218   1.240   1.253
  1.259   1.274   1.282   1.286   1.300   1.312   1.316   1.318
  1.326   1.327   1.338   1.350   1.357   1.373   1.398   1.428
  1.451   1.461   1.475   1.510   1.516   1.548   1.548   1.585
  1.593   1.613   1.619   1.630   1.655   1.666   1.671   1.679
  1.702   1.715   1.731   1.734   1.747   1.776   1.805   1.811
  1.829   1.861   1.880   1.896   1.919   1.928   1.941   1.967
  1.977   2.003   2.026   2.030   2.049   2.090   2.112   2.119
  2.139   2.213   2.222   2.295   2.349   2.358   2.385   2.452
  2.458   2.475   2.494   2.575   2.585   2.625   2.679   2.729
  2.736   2.755   2.798   2.818   2.882   2.888   2.922   2.964
  2.997   3.156   3.204   3.243   3.244   3.254   3.297   3.315
  3.360   3.380   3.390   3.437   3.447   3.466   3.469   3.486
  3.491   3.520   3.534   3.567   3.579   3.596   3.665   3.676
  3.705   3.756   3.771   3.783   3.803   3.825   3.829   3.891
  3.913   3.946   3.950   3.958   3.986   4.012   4.033   4.062
  4.108   4.126   4.162   4.223   4.231   4.264   4.270   4.286
  4.320   4.365   4.425   4.444   4.466   4.495   4.515   4.598
  4.652   4.709   4.744   4.774   4.778   4.876   4.896   4.924
  4.976   4.999   5.063   5.080   5.136   5.144   5.277   5.311
  5.351   5.395   5.402   5.487   5.551   5.656   5.764   5.788
  5.798   5.837   5.892   5.898   5.984   6.071   6.086   6.125
  6.183   6.260   6.289   6.307   6.318   6.366   6.460   6.501
  6.547   6.555   6.663   6.667   6.702   6.720   6.837   6.857
  7.042   7.075   7.083   7.135   7.297   7.344   7.415   7.417
  7.605   7.610   7.700   7.702   7.773   7.798   7.941   7.981
  8.047   8.140   8.216   8.237   8.659   8.667   8.691   8.702
  8.785   8.807   8.835   8.861   8.966   9.014   9.035   9.085
  9.146   9.177   9.177   9.331   9.372   9.397   9.403   9.613
  9.636   9.694   9.706   9.762   9.860  10.009  10.025  10.048
 10.108  10.125  10.183  10.202  10.216  10.304  10.493  10.534
 11.070  11.150  11.188  11.216  11.352  11.395  11.469  11.480
 11.539  11.564  11.614  11.618  11.704  11.759  11.780  11.795
 11.800  11.922  11.935  11.956  12.019  12.061  12.196  12.366
 12.382  12.459  12.516  12.525  12.579  12.588  12.689  12.702
 12.744  12.761  12.840  12.858  12.901  12.907  12.950  12.956
 12.978  13.068  13.139  13.142  13.190  13.211  13.608  13.661
 13.724  13.748  13.872  14.006  14.056  14.163  14.243  14.262
 14.378  14.424  14.645  14.692  15.175  15.290  15.302  15.409
 15.423  15.433  15.470  15.509  15.597  15.606  15.666  15.849
 15.901  15.941  15.975  15.987  16.000  16.052  16.131  16.158
 16.321  16.358  16.466  16.630  16.669  16.687  16.771  16.771
 16.786  16.820  16.821  16.850  16.861  16.949  16.990  17.050
 17.142  17.160  17.280  17.281  17.354  17.395  17.401  17.648
 17.679  17.729  17.780  17.788  17.868  17.888  17.973  18.123
 18.281  18.616  18.780  18.799  18.969  18.969  19.283  19.289
 19.554  19.611  19.676  19.732  19.935  20.740  20.852  20.958
 20.959  21.020  21.043  21.192  21.239  21.241  21.721  22.099
 22.167  23.640  23.703  23.748  23.788  23.799  23.805  23.869
 23.888  24.382  24.520  25.627  25.684  26.001  26.005  27.642
 27.852  28.346  28.777  28.887  29.100  41.405  41.449  41.645
 41.664  48.191  48.213  48.349  48.365  48.414  48.432  48.929
 49.331  49.388  49.402  91.070  91.123  91.149  91.195  91.209
 91.209  91.270  91.282  92.876  92.898  92.996  93.055 105.834
106.184
 
 Beta MOs
 -- Occupied --
-14.011 -14.011  -0.880  -0.686  -0.463  -0.443  -0.392  -0.254
 -0.196
 -- Virtual --
 -0.038  -0.008   0.004   0.013   0.032   0.039   0.039   0.044
  0.046   0.047   0.052   0.055   0.062   0.091   0.098   0.100
  0.101   0.106   0.106   0.110   0.116   0.120   0.123   0.132
  0.138   0.147   0.147   0.152   0.169   0.171   0.181   0.188
  0.193   0.199   0.201   0.206   0.208   0.211   0.222   0.223
  0.227   0.229   0.231   0.239   0.246   0.257   0.265   0.266
  0.270   0.270   0.274   0.276   0.279   0.281   0.289   0.291
  0.296   0.299   0.322   0.330   0.334   0.339   0.348   0.351
  0.354   0.370   0.379   0.385   0.388   0.400   0.406   0.406
  0.412   0.415   0.420   0.422   0.426   0.430   0.437   0.441
  0.444   0.451   0.452   0.456   0.458   0.463   0.471   0.474
  0.476   0.483   0.490   0.490   0.501   0.506   0.507   0.514
  0.516   0.522   0.533   0.539   0.541   0.547   0.547   0.551
  0.557   0.557   0.569   0.584   0.592   0.594   0.608   0.619
  0.625   0.637   0.638   0.646   0.659   0.664   0.669   0.673
  0.681   0.697   0.701   0.706   0.713   0.715   0.728   0.735
  0.740   0.746   0.750   0.761   0.762   0.766   0.770   0.775
  0.777   0.779   0.789   0.790   0.794   0.807   0.809   0.817
  0.823   0.824   0.836   0.837   0.838   0.843   0.852   0.852
  0.857   0.863   0.871   0.875   0.877   0.879   0.891   0.894
  0.901   0.905   0.908   0.912   0.914   0.916   0.919   0.931
  0.938   0.943   0.953   0.954   0.961   0.964   0.970   0.970
  0.989   0.990   1.003   1.008   1.020   1.032   1.036   1.043
  1.045   1.056   1.073   1.079   1.096   1.102   1.113   1.122
  1.131   1.146   1.171   1.206   1.214   1.218   1.240   1.253
  1.259   1.274   1.282   1.286   1.300   1.312   1.316   1.318
  1.326   1.327   1.338   1.350   1.357   1.373   1.398   1.428
  1.451   1.461   1.475   1.510   1.516   1.548   1.548   1.585
  1.593   1.613   1.619   1.630   1.655   1.666   1.671   1.679
  1.702   1.715   1.731   1.734   1.747   1.776   1.805   1.811
  1.829   1.861   1.880   1.896   1.919   1.928   1.941   1.967
  1.977   2.003   2.026   2.030   2.049   2.090   2.112   2.119
  2.139   2.213   2.222   2.295   2.349   2.358   2.385   2.452
  2.458   2.475   2.494   2.575   2.585   2.625   2.679   2.729
  2.736   2.755   2.798   2.818   2.882   2.888   2.922   2.964
  2.997   3.156   3.204   3.243   3.244   3.254   3.297   3.315
  3.360   3.380   3.390   3.437   3.447   3.466   3.469   3.486
  3.491   3.520   3.534   3.567   3.579   3.596   3.665   3.676
  3.705   3.756   3.771   3.783   3.803   3.825   3.829   3.891
  3.913   3.946   3.950   3.958   3.986   4.012   4.033   4.062
  4.108   4.126   4.162   4.223   4.231   4.264   4.270   4.286
  4.320   4.365   4.425   4.444   4.466   4.495   4.515   4.598
  4.652   4.709   4.744   4.774   4.778   4.876   4.896   4.924
  4.976   4.999   5.063   5.080   5.136   5.144   5.277   5.311
  5.351   5.395   5.402   5.487   5.551   5.656   5.764   5.788
  5.798   5.837   5.892   5.898   5.984   6.071   6.086   6.125
  6.183   6.260   6.289   6.307   6.318   6.366   6.460   6.501
  6.547   6.555   6.663   6.667   6.702   6.720   6.837   6.857
  7.042   7.075   7.083   7.135   7.297   7.344   7.415   7.417
  7.605   7.610   7.700   7.702   7.773   7.798   7.941   7.981
  8.047   8.140   8.216   8.237   8.659   8.667   8.691   8.702
  8.785   8.807   8.835   8.861   8.966   9.014   9.035   9.085
  9.146   9.177   9.177   9.331   9.372   9.397   9.403   9.613
  9.636   9.694   9.706   9.762   9.860  10.009  10.025  10.048
 10.108  10.125  10.183  10.202  10.216  10.304  10.493  10.534
 11.070  11.150  11.188  11.216  11.352  11.395  11.469  11.480
 11.539  11.564  11.614  11.618  11.704  11.759  11.780  11.795
 11.800  11.922  11.935  11.956  12.019  12.061  12.196  12.366
 12.382  12.459  12.516  12.525  12.579  12.588  12.689  12.702
 12.744  12.761  12.840  12.858  12.901  12.907  12.950  12.956
 12.978  13.068  13.139  13.142  13.190  13.211  13.608  13.661
 13.724  13.748  13.872  14.006  14.056  14.163  14.243  14.262
 14.378  14.424  14.645  14.692  15.175  15.290  15.302  15.409
 15.423  15.433  15.470  15.509  15.597  15.606  15.666  15.849
 15.901  15.941  15.975  15.987  16.000  16.052  16.131  16.158
 16.321  16.358  16.466  16.630  16.669  16.687  16.771  16.771
 16.786  16.820  16.821  16.850  16.861  16.949  16.990  17.050
 17.142  17.160  17.280  17.281  17.354  17.395  17.401  17.648
 17.679  17.729  17.780  17.788  17.868  17.888  17.973  18.123
 18.281  18.616  18.780  18.799  18.969  18.969  19.283  19.289
 19.554  19.611  19.676  19.732  19.935  20.740  20.852  20.958
 20.959  21.020  21.043  21.192  21.239  21.241  21.721  22.099
 22.167  23.640  23.703  23.748  23.788  23.799  23.805  23.869
 23.888  24.382  24.520  25.627  25.684  26.001  26.005  27.642
 27.852  28.346  28.777  28.887  29.100  41.405  41.449  41.645
 41.664  48.191  48.213  48.349  48.365  48.414  48.432  48.929
 49.331  49.388  49.402  91.070  91.123  91.149  91.195  91.209
 91.209  91.270  91.282  92.876  92.898  92.996  93.055 105.834
106.184
 --------------------------------------------------------------
 
          Ground-State Mulliken Net Atomic Charges

     Atom                 Charge (a.u.)    Spin (a.u.)
  --------------------------------------------------------
      1 N                    -0.316365       0.000000
      2 N                    -0.316365      -0.000000
      3 H                     0.148769       0.000000
      4 H                     0.148769      -0.000000
      5 H                     0.167596      -0.000000
      6 H                     0.167596      -0.000000
  --------------------------------------------------------
  Sum of atomic charges =    -0.000000
  Sum of spin   charges =    -0.000000

 -----------------------------------------------------------------
                    Cartesian Multipole Moments
 -----------------------------------------------------------------
    Charge (ESU x 10^10)
                -0.0000
    Dipole Moment (Debye)
         X      -0.0000      Y       0.0000      Z       2.6384
       Tot       2.6384
    Quadrupole Moments (Debye-Ang)
        XX     -11.6648     XY       1.9804     YY     -14.1986
        XZ       0.0000     YZ      -0.0000     ZZ     -14.5155
    Octopole Moments (Debye-Ang^2)
       XXX      -0.0000    XXY      -0.0000    XYY      -0.0000
       YYY      -0.0000    XXZ       1.0317    XYZ      -1.4897
       YYZ       4.0326    XZZ       0.0000    YZZ      -0.0000
       ZZZ       2.9240
    Hexadecapole Moments (Debye-Ang^3)
      XXXX     -19.0624   XXXY       1.5017   XXYY     -12.8188
      XYYY       1.4976   YYYY     -67.9176   XXXZ      -0.0000
      XXYZ      -0.0000   XYYZ      -0.0000   YYYZ      -0.0000
      XXZZ      -7.1029   XYZZ      -1.0163   YYZZ     -16.0115
      XZZZ      -0.0000   YZZZ       0.0000   ZZZZ     -21.8571
 -----------------------------------------------------------------
Archival summary:
1\1\n0060.mhg0\SP\ProcedureUnspecified\BasisUnspecified\24\yhljason\WedAug509:09:442020WedAug509:09:442020\0\\#,ProcedureUnspecified,BasisUnspecified,\\0,1\N\H,1,1.01611\H,1,1.01615,2,102.86\N,1,1.446,2,106.001,3,-111.076,0\H,4,1.01611,1,106.001,2,163.234,0\H,4,1.01615,1,106.001,2,54.3829,0\\\@

 Total job time:  22010.68s(wall), 174966.72s(cpu) 
 Wed Aug  5 09:09:44 2020

        *************************************************************
        *                                                           *
        *  Thank you very much for using Q-Chem.  Have a nice day.  *
        *                                                           *
        *************************************************************


