Q-Chem Developer Version!
                  Welcome to Q-Chem
     A Quantum Leap Into The Future Of Chemistry


 Q-Chem 5.1, Q-Chem, Inc., Pleasanton, CA (2018)

 Yihan Shao,  Zhengting Gan,  E. Epifanovsky,  A. T. B. Gilbert,  M. Wormit,  
 J. Kussmann,  A. W. Lange,  A. Behn,  Jia Deng,  Xintian Feng,  D. Ghosh,  
 M. Goldey,  P. R. Horn,  L. D. Jacobson,  I. Kaliman,  T. Kus,  A. Landau,  
 Jie Liu,  E. I. Proynov,  R. M. Richard,  R. P. Steele,  E. J. Sundstrom,  
 H. L. Woodcock III,  P. M. Zimmerman,  D. Zuev,  B. Albrecht,  E. Alguire,  
 S. A. Baeppler,  D. Barton,  Z. Benda,  Y. A. Bernard,  E. J. Berquist,  
 K. B. Bravaya,  H. Burton,  D. Casanova,  Chun-Min Chang,  Yunqing Chen,  
 A. Chien,  K. D. Closser,  M. P. Coons,  S. Coriani,  S. Dasgupta,  
 A. L. Dempwolff,  M. Diedenhofen,  Hainam Do,  R. G. Edgar,  Po-Tung Fang,  
 S. Faraji,  S. Fatehi,  Qingguo Feng,  K. D. Fenk,  J. Fosso-Tande,  
 Qinghui Ge,  A. Ghysels,  G. Gidofalvi,  J. Gomes,  J. Gonthier,  A. Gunina,  
 D. Hait,  M. W. D. Hanson-Heine,  P. H. P. Harbach,  A. W. Hauser,  
 J. E. Herr,  E. G. Hohenstein,  Z. C. Holden,  Kerwin Hui,  B. C. Huynh,  
 T.-C. Jagau,  Hyunjun Ji,  B. Kaduk,  K. Khistyaev,  Jaehoon Kim,  
 P. Klunzinger,  K. Koh,  D. Kosenkov,  L. Koulias,  T. Kowalczyk,  
 C. M. Krauter,  A. Kunitsa,  Ka Un Lao,  A. Laurent,  K. V. Lawler,  
 Joonho Lee,  D. Lefrancois,  S. Lehtola,  D. S. Levine,  Yi-Pei Li,  
 You-Sheng Lin,  Fenglai Liu,  E. Livshits,  A. Luenser,  P. Manohar,  
 E. Mansoor,  S. F. Manzer,  Shan-Ping Mao,  Yuezhi Mao,  N. Mardirossian,  
 A. V. Marenich,  T. Markovich,  L. A. Martinez-Martinez,  S. A. Maurer,  
 N. J. Mayhall,  S. C. McKenzie,  J.-M. Mewes,  A. F. Morrison,  
 J. W. Mullinax,  K. Nanda,  T. S. Nguyen-Beck,  R. Olivares-Amaya,  
 J. A. Parkhill,  T. M. Perrine,  F. Plasser,  P. Pokhilko,  S. Prager,  
 A. Prociuk,  E. Ramos,  D. R. Rehn,  F. Rob,  M. Schneider,  N. Sergueev,  
 S. M. Sharada,  S. Sharma,  D. W. Small,  T. Stauch,  T. Stein,  
 Yu-Chuan Su,  A. J. W. Thom,  A. Tkatchenko,  T. Tsuchimochi,  N. M. Tubman,  
 L. Vogt,  M. L. Vidal,  O. Vydrov,  M. A. Watson,  J. Wenzel,  
 M. de Wergifosse,  T. A. Wesolowski,  A. White,  J. Witte,  A. Yamada,  
 Jun Yang,  K. Yao,  S. Yeganeh,  S. R. Yost,  Zhi-Qiang You,  A. Zech,  
 Igor Ying Zhang,  Xing Zhang,  Yan Zhao,  Ying Zhu,  B. R. Brooks,  
 G. K. L. Chan,  C. J. Cramer,  M. S. Gordon,  W. J. Hehre,  A. Klamt,  
 M. W. Schmidt,  C. D. Sherrill,  D. G. Truhlar,  A. Aspuru-Guzik,  R. Baer,  
 A. T. Bell,  N. A. Besley,  Jeng-Da Chai,  A. E. DePrince, III,  
 R. A. DiStasio Jr.,  A. Dreuw,  B. D. Dunietz,  T. R. Furlani,  
 Chao-Ping Hsu,  Yousung Jung,  Jing Kong,  D. S. Lambrecht,  WanZhen Liang,  
 C. Ochsenfeld,  V. A. Rassolov,  L. V. Slipchenko,  J. E. Subotnik,  
 T. Van Voorhis,  J. M. Herbert,  A. I. Krylov,  P. M. W. Gill,  M. Head-Gordon

 Contributors to earlier versions of Q-Chem not listed above: 
 R. D. Adamson,  B. Austin,  J. Baker,  G. J. O. Beran,  K. Brandhorst,  
 S. T. Brown,  E. F. C. Byrd,  A. K. Chakraborty,  C.-L. Cheng,  
 Siu Hung Chien,  D. M. Chipman,  D. L. Crittenden,  H. Dachsel,  
 R. J. Doerksen,  A. D. Dutoi,  L. Fusti-Molnar,  W. A. Goddard III,  
 A. Golubeva-Zadorozhnaya,  S. R. Gwaltney,  G. Hawkins,  A. Heyden,  
 S. Hirata,  G. Kedziora,  F. J. Keil,  C. Kelley,  Jihan Kim,  R. A. King,  
 R. Z. Khaliullin,  P. P. Korambath,  W. Kurlancheek,  A. M. Lee,  M. S. Lee,  
 S. V. Levchenko,  Ching Yeh Lin,  D. Liotard,  R. C. Lochan,  I. Lotan,  
 P. E. Maslen,  N. Nair,  D. P. O'Neill,  D. Neuhauser,  E. Neuscamman,  
 C. M. Oana,  R. Olson,  B. Peters,  R. Peverati,  P. A. Pieniazek,  
 Y. M. Rhee,  J. Ritchie,  M. A. Rohrdanz,  E. Rosta,  N. J. Russ,  
 H. F. Schaefer III,  N. E. Schultz,  N. Shenvi,  A. C. Simmonett,  A. Sodt,  
 D. Stuck,  K. S. Thanthiriwatte,  V. Vanovschi,  Tao Wang,  A. Warshel,  
 C. F. Williams,  Q. Wu,  X. Xu,  W. Zhang

 Please cite Q-Chem as follows:
 Y. Shao et al., Mol. Phys. 113, 184-215 (2015)
 DOI: 10.1080/00268976.2014.952696

 Q-Chem 5.1.1 for Intel X86 EM64T Linux

 Parts of Q-Chem use Armadillo 8.300.2 (Tropical Shenanigans).
 http://arma.sourceforge.net/

 Q-Chem begins on Sun Aug  2 23:12:03 2020  

Host: n0089.mhg0
0

     Scratch files written to /local/scratch/users/yhljason/NaCl_MN15-L_aug-pc-4.inp20200802231201//
Input Ideriv = 2
Curr. Ideriv = -1
Max.  Ideriv = 2
Input Ideriv = 1
Curr. Ideriv = 2
Max.  Ideriv = 1

Checking the input file for inconsistencies... 	...done.

--------------------------------------------------------------
User input:
--------------------------------------------------------------
$molecule
0 1
Na1     0.0000  0.0000  0.0000
Cl2     0.0000  0.0000  2.3608
$end

$rem
jobtype sp
method MN15-L
xc_grid 000099000590
basis aug-pc-4
max_scf_cycles 200
thresh 14
scf_convergence 8
scf_algorithm gdm
symmetry false
sym_ignore true
unrestricted true
gen_scfman true
internal_stability_iter 15
internal_stability_davidson_iter 200
mem_total 64000
mem_static 1500
n_frozen_core 0
$end


--------------------------------------------------------------
 ----------------------------------------------------------------
             Standard Nuclear Orientation (Angstroms)
    I     Atom           X                Y                Z
 ----------------------------------------------------------------
    1      Na      0.0000000000     0.0000000000     0.0000000000
    2      Cl      0.0000000000     0.0000000000     2.3608000000
 ----------------------------------------------------------------
 Nuclear Repulsion Energy =    41.9163581920 hartrees
 There are       14 alpha and       14 beta electrons
 Requested basis set is aug-pc-4
 There are 54 shells and 226 basis functions

 Total QAlloc Memory Limit  64000 MB
 Mega-Array Size      1467 MB
 MEM_STATIC part      1500 MB

                       Distance Matrix (Angstroms)
             Na(  1)
   Cl(  2)  2.360800
 
 A cutoff of  1.0D-14 yielded   1482 shell pairs
 There are     26206 function pairs (     49007 Cartesian)
 
 -------------------------------------------------------
 OpenMP Integral Computing Module                       
 Release: version 1.0, May 2013, Q-Chem Inc. Pittsburgh 
 -------------------------------------------------------
 Integral Job Info:
 Integral job number is                      11
 Integral operator is                         1
 short-range coefficients                     0
 long-range coefficients              100000000
 Omega coefficients                           0
 if combine SR and LR in K                    0
 Integral screening is                        0
 Integral computing path is                   2
 max size of driver memory is           6400000
 size of driver memory is               5498286
 size of scratch memory is             27847117
 max col of scratch BK array             194481
 max len of scratch array in speh3         5572
 max len of scratch index in speh4           72
 max int batch size is                      520
 min int batch size is                       52
 fixed nKL is                                 7
 max L of basis functions is                  5
 order of int derivative is                   0
 number of shells is                         54
 number of basis is                         308
 number of cartesian basis is               308
 number of contracted shell pairs          1482
 number of primitive shell pairs          10013
 maxK2 (contraction) of shell pair          225
 max number of K2 of shell pair               1
 max number of CS2 of shell pair            113
 max number of PS2 of shell pair            528
 mem total for path MDJ                  846532
 -------------------------------------------------------
 Smallest overlap matrix eigenvalue = 4.49E-05

 Scale SEOQF with 1.000000e-02/1.000000e-02/1.000000e-02

 Standard Electronic Orientation quadrupole field applied
 Nucleus-field energy     =    -0.0000000010 hartrees
 Guess from superposition of atomic densities
 Warning:  Energy on first SCF cycle will be non-variational
 SAD guess density has 28.000000 electrons

 -----------------------------------------------------------------------
  General SCF calculation program by
  Eric Jon Sundstrom, Paul Horn, Yuezhi Mao, Dmitri Zuev, Alec White,
  David Stuck, Shaama M.S., Shane Yost, Joonho Lee, David Small,
  Daniel Levine, Susi Lehtola, Hugh Burton, Evgeny Epifanovsky
 -----------------------------------------------------------------------
 Exchange:  MN15-L      Correlation:  MN15-L
 Using Euler-Maclaurin-Lebedev (99,590) quadrature formula
Running Object-Oriented UKS (UHF)
performing a single roothaan step with Fock from read density so that orbitals are available to all algorithms
energy of the guess density (C=0) -622.383495608582
We will preform up to 15 macro iterations over saddle points until a stable solution is found
Energy prior to optimization (guess energy) = -622.463495567168
Begin Timing: Total SCF Calculation
Begin Timing: SCF Single Stationary Point Calculation
begin iterations for algorithm: GDM          
the SCF tolerance is set to 1.00e-08
    1    -622.4634955672      9.55e-02     00000  Descent step
    2    -622.4525452083      1.59e-01     00000 Line search: overstep
    3    -622.4989655977      1.70e-02     00000  Normal BFGS step
    4    -622.5007909646      6.38e-03     00000  Normal BFGS step
    5    -622.5008744626      3.63e-03     00000  Normal BFGS step
    6    -622.5009220767      2.60e-04     00000  Normal BFGS step
    7    -622.5009226800      1.35e-04     00000  Normal BFGS step
    8    -622.5009228526      7.05e-06     00000  Normal BFGS step
    9    -622.5009228533      1.85e-06     00000  Normal BFGS step
   10    -622.5009228533      1.77e-07     00000  Normal BFGS step
   11    -622.5009228533      5.26e-08     00000  Normal BFGS step
   12    -622.5009228533      2.10e-08     00000  Normal BFGS step
   13    -622.5009228533      3.58e-09     00000 Convergence criterion met
Timing for Single Stationary Point: 135.00s (wall), 982.57s (cpu)
Begin Timing: Stability
===================================================
Beginning Test for Internal Stability
===================================================
generating davidson guess vectors based on koopmans excitations
    1      6.77e-01     00000 Davidson Iteration
    2      1.24e-01     00000 Davidson Iteration
    3      5.96e-03     00000 Davidson Iteration
    4      3.00e-03     00000 Davidson Iteration
    5      9.89e-04     00000 Davidson Iteration
    6      2.95e-04     00000 Davidson Iteration
    7      1.09e-04     00000 Davidson Iteration
    8      2.59e-05     00000 Davidson Iteration
    9      6.84e-04     00000 Davidson Iteration
   10      1.05e-04     00000 Davidson Iteration
   11      2.87e-05     00000 Davidson Converged
converged_eigenvalues
   0.2662
   0.2662
   0.2735
Threshold for negative eigenvalues: -1.0e-05
solution was a local minimum (stable)
===================================================
End Test for Internal Stability
===================================================
Our SCF solution is stable!
Timing for Total SCF: 769.00s (wall), 5970.83s (cpu)
 Total energy in the final basis set =     -622.5009228533
<S^2> =         -0.000000000
    ==================================================
              The end of Object-Oriented SCFman       
    ==================================================
 
 --------------------------------------------------------------
 
                    Orbital Energies (a.u.)
 --------------------------------------------------------------
 
 Alpha MOs
 -- Occupied --
******* -38.264  -9.309  -7.056  -7.055  -7.055  -2.276  -1.135
 -1.135  -1.133  -0.670  -0.225  -0.210  -0.210
 -- Virtual --
 -0.072  -0.014  -0.014  -0.003   0.001   0.016   0.016   0.022
  0.026   0.028   0.028   0.034   0.034   0.040   0.065   0.068
  0.068   0.069   0.069   0.073   0.073   0.074   0.074   0.079
  0.095   0.101   0.101   0.108   0.123   0.123   0.127   0.127
  0.127   0.127   0.128   0.128   0.139   0.161   0.186   0.186
  0.193   0.193   0.212   0.212   0.231   0.235   0.237   0.237
  0.276   0.305   0.317   0.317   0.394   0.394   0.397   0.397
  0.431   0.431   0.432   0.435   0.435   0.462   0.464   0.464
  0.553   0.553   0.560   0.560   0.563   0.594   0.594   0.616
  0.616   0.618   0.632   0.632   0.658   0.658   0.661   0.743
  0.790   0.790   0.837   0.837   0.840   0.840   0.850   0.850
  0.877   0.881   0.881   0.925   0.925   1.023   1.023   1.044
  1.044   1.047   1.097   1.097   1.136   1.163   1.163   1.198
  1.198   1.273   1.403   1.403   1.451   1.470   1.470   1.484
  1.484   1.499   1.499   1.581   1.581   1.625   1.625   1.646
  1.688   1.688   1.827   1.827   1.829   1.975   1.975   2.105
  2.105   2.157   2.190   2.569   2.569   2.755   2.755   2.771
  3.296   3.296   3.298   3.298   3.388   3.388   3.423   3.482
  3.482   3.893   3.963   3.963   4.021   4.021   4.211   4.226
  4.226   4.265   4.265   4.419   4.419   4.513   4.513   4.517
  4.671   5.295   5.295   5.448   5.897   5.897   6.004   6.004
  6.078   6.322   6.322   6.426   6.426   6.460   6.460   6.462
  6.462   6.464   6.465   6.465   6.486   6.486   6.537   6.537
  6.902   9.975   9.975   9.976   9.976  10.022  10.022  10.098
 10.098  10.102  13.750  13.750  13.779  13.779  13.874  13.874
 13.937  18.488  18.488  18.579  18.579  18.658  38.429  67.233
 67.234  67.287  67.287  67.335
 
 Beta MOs
 -- Occupied --
******* -38.264  -9.309  -7.056  -7.055  -7.055  -2.276  -1.135
 -1.135  -1.133  -0.670  -0.225  -0.210  -0.210
 -- Virtual --
 -0.072  -0.014  -0.014  -0.003   0.001   0.016   0.016   0.022
  0.026   0.028   0.028   0.034   0.034   0.040   0.065   0.068
  0.068   0.069   0.069   0.073   0.073   0.074   0.074   0.079
  0.095   0.101   0.101   0.108   0.123   0.123   0.127   0.127
  0.127   0.127   0.128   0.128   0.139   0.161   0.186   0.186
  0.193   0.193   0.212   0.212   0.231   0.235   0.237   0.237
  0.276   0.305   0.317   0.317   0.394   0.394   0.397   0.397
  0.431   0.431   0.432   0.435   0.435   0.462   0.464   0.464
  0.553   0.553   0.560   0.560   0.563   0.594   0.594   0.616
  0.616   0.618   0.632   0.632   0.658   0.658   0.661   0.743
  0.790   0.790   0.837   0.837   0.840   0.840   0.850   0.850
  0.877   0.881   0.881   0.925   0.925   1.023   1.023   1.044
  1.044   1.047   1.097   1.097   1.136   1.163   1.163   1.198
  1.198   1.273   1.403   1.403   1.451   1.470   1.470   1.484
  1.484   1.499   1.499   1.581   1.581   1.625   1.625   1.646
  1.688   1.688   1.827   1.827   1.829   1.975   1.975   2.105
  2.105   2.157   2.190   2.569   2.569   2.755   2.755   2.771
  3.296   3.296   3.298   3.298   3.388   3.388   3.423   3.482
  3.482   3.893   3.963   3.963   4.021   4.021   4.211   4.226
  4.226   4.265   4.265   4.419   4.419   4.513   4.513   4.517
  4.671   5.295   5.295   5.448   5.897   5.897   6.004   6.004
  6.078   6.322   6.322   6.426   6.426   6.460   6.460   6.462
  6.462   6.464   6.465   6.465   6.486   6.486   6.537   6.537
  6.902   9.975   9.975   9.976   9.976  10.022  10.022  10.098
 10.098  10.102  13.750  13.750  13.779  13.779  13.874  13.874
 13.937  18.488  18.488  18.579  18.579  18.658  38.429  67.233
 67.234  67.287  67.287  67.335
 --------------------------------------------------------------
 
          Ground-State Mulliken Net Atomic Charges

     Atom                 Charge (a.u.)    Spin (a.u.)
  --------------------------------------------------------
      1 Na                    0.769262       0.000000
      2 Cl                   -0.769262      -0.000000
  --------------------------------------------------------
  Sum of atomic charges =    -0.000000
  Sum of spin   charges =     0.000000

 -----------------------------------------------------------------
                    Cartesian Multipole Moments
 -----------------------------------------------------------------
    Charge (ESU x 10^10)
                -0.0000
    Dipole Moment (Debye)
         X       0.0000      Y       0.0000      Z      -8.9964
       Tot       8.9964
    Quadrupole Moments (Debye-Ang)
        XX     -19.6728     XY       0.0000     YY     -19.6728
        XZ       0.0000     YZ       0.0000     ZZ     -37.0918
    Octopole Moments (Debye-Ang^2)
       XXX       0.0000    XXY       0.0000    XYY       0.0000
       YYY       0.0000    XXZ     -37.5161    XYZ       0.0000
       YYZ     -37.5161    XZZ       0.0000    YZZ       0.0000
       ZZZ    -146.1534
    Hexadecapole Moments (Debye-Ang^3)
      XXXX     -27.2991   XXXY       0.0000   XXYY      -9.0997
      XYYY       0.0000   YYYY     -27.2991   XXXZ       0.0000
      XXYZ       0.0000   XYYZ       0.0000   YYYZ       0.0000
      XXZZ     -94.4302   XYZZ       0.0000   YYZZ     -94.4302
      XZZZ       0.0000   YZZZ       0.0000   ZZZZ    -605.0733
 -----------------------------------------------------------------
Archival summary:
1\1\n0089.mhg0\SP\ProcedureUnspecified\BasisUnspecified\l1a1\yhljason\SunAug223:25:122020SunAug223:25:122020\0\\#,ProcedureUnspecified,BasisUnspecified,\\0,1\Na\Cl,1,2.3608\\\@

 Total job time:  789.52s(wall), 6089.71s(cpu) 
 Sun Aug  2 23:25:12 2020

        *************************************************************
        *                                                           *
        *  Thank you very much for using Q-Chem.  Have a nice day.  *
        *                                                           *
        *************************************************************


