Q-Chem Developer Version!
                  Welcome to Q-Chem
     A Quantum Leap Into The Future Of Chemistry


 Q-Chem 5.1, Q-Chem, Inc., Pleasanton, CA (2018)

 Yihan Shao,  Zhengting Gan,  E. Epifanovsky,  A. T. B. Gilbert,  M. Wormit,  
 J. Kussmann,  A. W. Lange,  A. Behn,  Jia Deng,  Xintian Feng,  D. Ghosh,  
 M. Goldey,  P. R. Horn,  L. D. Jacobson,  I. Kaliman,  T. Kus,  A. Landau,  
 Jie Liu,  E. I. Proynov,  R. M. Richard,  R. P. Steele,  E. J. Sundstrom,  
 H. L. Woodcock III,  P. M. Zimmerman,  D. Zuev,  B. Albrecht,  E. Alguire,  
 S. A. Baeppler,  D. Barton,  Z. Benda,  Y. A. Bernard,  E. J. Berquist,  
 K. B. Bravaya,  H. Burton,  D. Casanova,  Chun-Min Chang,  Yunqing Chen,  
 A. Chien,  K. D. Closser,  M. P. Coons,  S. Coriani,  S. Dasgupta,  
 A. L. Dempwolff,  M. Diedenhofen,  Hainam Do,  R. G. Edgar,  Po-Tung Fang,  
 S. Faraji,  S. Fatehi,  Qingguo Feng,  K. D. Fenk,  J. Fosso-Tande,  
 Qinghui Ge,  A. Ghysels,  G. Gidofalvi,  J. Gomes,  J. Gonthier,  A. Gunina,  
 D. Hait,  M. W. D. Hanson-Heine,  P. H. P. Harbach,  A. W. Hauser,  
 J. E. Herr,  E. G. Hohenstein,  Z. C. Holden,  Kerwin Hui,  B. C. Huynh,  
 T.-C. Jagau,  Hyunjun Ji,  B. Kaduk,  K. Khistyaev,  Jaehoon Kim,  
 P. Klunzinger,  K. Koh,  D. Kosenkov,  L. Koulias,  T. Kowalczyk,  
 C. M. Krauter,  A. Kunitsa,  Ka Un Lao,  A. Laurent,  K. V. Lawler,  
 Joonho Lee,  D. Lefrancois,  S. Lehtola,  D. S. Levine,  Yi-Pei Li,  
 You-Sheng Lin,  Fenglai Liu,  E. Livshits,  A. Luenser,  P. Manohar,  
 E. Mansoor,  S. F. Manzer,  Shan-Ping Mao,  Yuezhi Mao,  N. Mardirossian,  
 A. V. Marenich,  T. Markovich,  L. A. Martinez-Martinez,  S. A. Maurer,  
 N. J. Mayhall,  S. C. McKenzie,  J.-M. Mewes,  A. F. Morrison,  
 J. W. Mullinax,  K. Nanda,  T. S. Nguyen-Beck,  R. Olivares-Amaya,  
 J. A. Parkhill,  T. M. Perrine,  F. Plasser,  P. Pokhilko,  S. Prager,  
 A. Prociuk,  E. Ramos,  D. R. Rehn,  F. Rob,  M. Schneider,  N. Sergueev,  
 S. M. Sharada,  S. Sharma,  D. W. Small,  T. Stauch,  T. Stein,  
 Yu-Chuan Su,  A. J. W. Thom,  A. Tkatchenko,  T. Tsuchimochi,  N. M. Tubman,  
 L. Vogt,  M. L. Vidal,  O. Vydrov,  M. A. Watson,  J. Wenzel,  
 M. de Wergifosse,  T. A. Wesolowski,  A. White,  J. Witte,  A. Yamada,  
 Jun Yang,  K. Yao,  S. Yeganeh,  S. R. Yost,  Zhi-Qiang You,  A. Zech,  
 Igor Ying Zhang,  Xing Zhang,  Yan Zhao,  Ying Zhu,  B. R. Brooks,  
 G. K. L. Chan,  C. J. Cramer,  M. S. Gordon,  W. J. Hehre,  A. Klamt,  
 M. W. Schmidt,  C. D. Sherrill,  D. G. Truhlar,  A. Aspuru-Guzik,  R. Baer,  
 A. T. Bell,  N. A. Besley,  Jeng-Da Chai,  A. E. DePrince, III,  
 R. A. DiStasio Jr.,  A. Dreuw,  B. D. Dunietz,  T. R. Furlani,  
 Chao-Ping Hsu,  Yousung Jung,  Jing Kong,  D. S. Lambrecht,  WanZhen Liang,  
 C. Ochsenfeld,  V. A. Rassolov,  L. V. Slipchenko,  J. E. Subotnik,  
 T. Van Voorhis,  J. M. Herbert,  A. I. Krylov,  P. M. W. Gill,  M. Head-Gordon

 Contributors to earlier versions of Q-Chem not listed above: 
 R. D. Adamson,  B. Austin,  J. Baker,  G. J. O. Beran,  K. Brandhorst,  
 S. T. Brown,  E. F. C. Byrd,  A. K. Chakraborty,  C.-L. Cheng,  
 Siu Hung Chien,  D. M. Chipman,  D. L. Crittenden,  H. Dachsel,  
 R. J. Doerksen,  A. D. Dutoi,  L. Fusti-Molnar,  W. A. Goddard III,  
 A. Golubeva-Zadorozhnaya,  S. R. Gwaltney,  G. Hawkins,  A. Heyden,  
 S. Hirata,  G. Kedziora,  F. J. Keil,  C. Kelley,  Jihan Kim,  R. A. King,  
 R. Z. Khaliullin,  P. P. Korambath,  W. Kurlancheek,  A. M. Lee,  M. S. Lee,  
 S. V. Levchenko,  Ching Yeh Lin,  D. Liotard,  R. C. Lochan,  I. Lotan,  
 P. E. Maslen,  N. Nair,  D. P. O'Neill,  D. Neuhauser,  E. Neuscamman,  
 C. M. Oana,  R. Olson,  B. Peters,  R. Peverati,  P. A. Pieniazek,  
 Y. M. Rhee,  J. Ritchie,  M. A. Rohrdanz,  E. Rosta,  N. J. Russ,  
 H. F. Schaefer III,  N. E. Schultz,  N. Shenvi,  A. C. Simmonett,  A. Sodt,  
 D. Stuck,  K. S. Thanthiriwatte,  V. Vanovschi,  Tao Wang,  A. Warshel,  
 C. F. Williams,  Q. Wu,  X. Xu,  W. Zhang

 Please cite Q-Chem as follows:
 Y. Shao et al., Mol. Phys. 113, 184-215 (2015)
 DOI: 10.1080/00268976.2014.952696

 Q-Chem 5.1.1 for Intel X86 EM64T Linux

 Parts of Q-Chem use Armadillo 8.300.2 (Tropical Shenanigans).
 http://arma.sourceforge.net/

 Q-Chem begins on Sun Aug  2 23:11:49 2020  

Host: n0068.mhg0
0

     Scratch files written to /local/scratch/users/yhljason/NH2_CAM-B3LYP_aug-pc-4.inp20200802231147//
Input Ideriv = 2
Curr. Ideriv = -1
Max.  Ideriv = 2

Checking the input file for inconsistencies... 	...done.

--------------------------------------------------------------
User input:
--------------------------------------------------------------
$molecule
0 2
N1	0.0000	0.0000	0.0000
H2	0.0000	0.8036	0.6347
H3	0.0000	-0.8036	0.6347
$end

$rem
jobtype sp
method CAM-B3LYP
xc_grid 000099000590
basis aug-pc-4
max_scf_cycles 200
thresh 14
scf_convergence 8
scf_algorithm gdm
symmetry false
sym_ignore true
unrestricted true
gen_scfman true
internal_stability_iter 15
internal_stability_davidson_iter 200
mem_total 64000
mem_static 1500
n_frozen_core 0
$end


--------------------------------------------------------------
 ----------------------------------------------------------------
             Standard Nuclear Orientation (Angstroms)
    I     Atom           X                Y                Z
 ----------------------------------------------------------------
    1      N       0.0000000000     0.0000000000     0.0000000000
    2      H       0.0000000000     0.8036000000     0.6347000000
    3      H       0.0000000000    -0.8036000000     0.6347000000
 ----------------------------------------------------------------
 Nuclear Repulsion Energy =     7.5639571803 hartrees
 There are        5 alpha and        4 beta electrons
 Requested basis set is aug-pc-4
 There are 81 shells and 321 basis functions

 Total QAlloc Memory Limit  64000 MB
 Mega-Array Size      1467 MB
 MEM_STATIC part      1500 MB

                       Distance Matrix (Angstroms)
             N (  1)   H (  2)
   H (  2)  1.024020
   H (  3)  1.024020  1.607200
 
 A cutoff of  1.0D-14 yielded   3311 shell pairs
 There are     52423 function pairs (     93656 Cartesian)
 
 -------------------------------------------------------
 OpenMP Integral Computing Module                       
 Release: version 1.0, May 2013, Q-Chem Inc. Pittsburgh 
 -------------------------------------------------------
 Integral Job Info:
 Integral job number is                      11
 Integral operator is                         1
 short-range coefficients              19000000
 long-range coefficients               65000000
 Omega coefficients                         330
 if combine SR and LR in K                    1
 Integral screening is                        0
 Integral computing path is                   2
 max size of driver memory is           6400000
 size of driver memory is               5498286
 size of scratch memory is             28955960
 max col of scratch BK array             194481
 max len of scratch array in speh3         5572
 max len of scratch index in speh4           72
 max int batch size is                      520
 min int batch size is                       52
 fixed nKL is                                24
 max L of basis functions is                  5
 order of int derivative is                   0
 number of shells is                         81
 number of basis is                         428
 number of cartesian basis is               428
 number of contracted shell pairs          3311
 number of primitive shell pairs           6027
 maxK2 (contraction) of shell pair          121
 max number of K2 of shell pair               1
 max number of CS2 of shell pair            443
 max number of PS2 of shell pair            443
 mem total for path MDJ                  900380
 -------------------------------------------------------
 Smallest overlap matrix eigenvalue = 2.58E-06

 Scale SEOQF with 1.000000e-01/1.000000e-01/1.000000e-01

 Standard Electronic Orientation quadrupole field applied
 Guess from superposition of atomic densities
 Warning:  Energy on first SCF cycle will be non-variational
 SAD guess density has 9.000000 electrons

 -----------------------------------------------------------------------
  General SCF calculation program by
  Eric Jon Sundstrom, Paul Horn, Yuezhi Mao, Dmitri Zuev, Alec White,
  David Stuck, Shaama M.S., Shane Yost, Joonho Lee, David Small,
  Daniel Levine, Susi Lehtola, Hugh Burton, Evgeny Epifanovsky
 -----------------------------------------------------------------------
 Exchange:     0.1900 Hartree-Fock + 0.3500 B88 + 0.4600 muB88 + LR-HF
 Correlation:  0.1900 VWN5 + 0.8100 LYP
 Using Euler-Maclaurin-Lebedev (99,590) quadrature formula
Running Object-Oriented UKS (UHF)
performing a single roothaan step with Fock from read density so that orbitals are available to all algorithms
energy of the guess density (C=0) -55.742972005679
We will preform up to 15 macro iterations over saddle points until a stable solution is found
Energy prior to optimization (guess energy) = -55.865118999763
Begin Timing: Total SCF Calculation
Begin Timing: SCF Single Stationary Point Calculation
begin iterations for algorithm: GDM          
the SCF tolerance is set to 1.00e-08
    1     -55.8651189998      4.93e-02     00000  Normal BFGS step
    2     -55.8707546331      3.87e-02     00000  Normal BFGS step
    3     -55.8825827359      3.02e-03     00000  Normal BFGS step
    4     -55.8827019929      1.08e-03     00000  Normal BFGS step
    5     -55.8827167416      3.30e-04     00000  Normal BFGS step
    6     -55.8827179422      9.10e-05     00000  Normal BFGS step
    7     -55.8827180636      3.31e-05     00000  Normal BFGS step
    8     -55.8827180717      7.49e-06     00000  Normal BFGS step
    9     -55.8827180722      1.61e-06     00000  Normal BFGS step
   10     -55.8827180723      3.35e-07     00000  Normal BFGS step
   11     -55.8827180723      6.84e-08     00000  Normal BFGS step
   12     -55.8827180723      1.47e-08     00000  Normal BFGS step
   13     -55.8827180723      1.03e-08     00000  Normal BFGS step
   14     -55.8827180723      1.20e-09     00000 Convergence criterion met
Timing for Single Stationary Point: 1403.00s (wall), 11195.46s (cpu)
Begin Timing: Stability
===================================================
Beginning Test for Internal Stability
===================================================
generating davidson guess vectors based on koopmans excitations
    1      4.73e-01     00000 Davidson Iteration
    2      1.33e-01     00000 Davidson Iteration
    3      6.25e-02     00000 Davidson Iteration
    4      6.83e-03     00000 Davidson Iteration
    5      8.05e-04     00000 Davidson Iteration
    6      1.47e-04     00000 Davidson Iteration
    7      3.74e-05     00000 Davidson Iteration
    8      2.33e-03     00000 Davidson Iteration
    9      1.47e-03     00000 Davidson Iteration
   10      2.34e-03     00000 Davidson Iteration
   11      1.82e-03     00000 Davidson Iteration
   12      4.88e-04     00000 Davidson Iteration
   13      1.24e-04     00000 Davidson Iteration
   14      7.65e-05     00000 Davidson Converged
converged_eigenvalues
   0.1504
   0.5099
Threshold for negative eigenvalues: -1.0e-05
solution was a local minimum (stable)
===================================================
End Test for Internal Stability
===================================================
Our SCF solution is stable!
Timing for Total SCF: 5006.00s (wall), 40011.62s (cpu)
 Total energy in the final basis set =      -55.8827180723
<S^2> =          0.753278566
    ==================================================
              The end of Object-Oriented SCFman       
    ==================================================
 
 --------------------------------------------------------------
 
                    Orbital Energies (a.u.)
 --------------------------------------------------------------
 
 Alpha MOs
 -- Occupied --
-14.425  -0.941  -0.548  -0.404  -0.394
 -- Virtual --
  0.000   0.021   0.037   0.039   0.059   0.060   0.081   0.091
  0.095   0.099   0.100   0.131   0.151   0.154   0.162   0.179
  0.189   0.189   0.197   0.198   0.204   0.208   0.222   0.239
  0.241   0.246   0.249   0.255   0.258   0.270   0.297   0.314
  0.335   0.338   0.339   0.345   0.377   0.379   0.382   0.390
  0.417   0.424   0.424   0.426   0.432   0.434   0.455   0.456
  0.458   0.464   0.486   0.494   0.503   0.514   0.528   0.532
  0.543   0.555   0.560   0.567   0.570   0.574   0.576   0.594
  0.598   0.633   0.642   0.643   0.693   0.703   0.706   0.713
  0.720   0.724   0.728   0.746   0.750   0.756   0.758   0.775
  0.786   0.809   0.812   0.822   0.837   0.839   0.846   0.852
  0.854   0.867   0.880   0.897   0.902   0.925   0.942   0.942
  0.953   0.958   0.977   0.983   0.986   0.994   1.025   1.030
  1.045   1.047   1.076   1.082   1.089   1.116   1.232   1.255
  1.275   1.379   1.444   1.448   1.478   1.545   1.563   1.574
  1.601   1.627   1.665   1.685   1.690   1.704   1.733   1.737
  1.842   1.912   1.928   1.946   1.958   2.087   2.149   2.252
  2.429   2.438   2.496   2.500   2.537   2.682   2.722   2.768
  2.868   2.984   3.024   3.039   3.144   3.206   3.235   3.385
  3.424   3.432   3.531   3.539   3.564   3.584   3.623   3.652
  3.703   3.781   3.850   3.867   3.911   3.936   4.074   4.115
  4.165   4.216   4.271   4.362   4.433   4.491   4.538   4.638
  4.973   5.039   5.104   5.134   5.166   5.314   5.314   5.626
  5.700   5.743   5.811   5.861   5.920   6.071   6.279   6.313
  6.337   6.380   6.437   6.461   6.659   6.662   6.706   7.025
  7.360   7.549   7.619   7.706   7.961   8.194   8.499   8.507
  8.516   8.583   8.766   8.906   9.018   9.120   9.234   9.244
  9.571   9.597   9.794   9.804   9.990  10.116  10.179  10.232
 11.408  11.466  11.480  11.493  11.508  11.510  11.631  11.662
 11.678  11.690  11.802  11.831  11.929  11.952  12.387  12.538
 12.565  12.676  12.689  12.832  12.833  12.949  12.982  13.079
 13.567  13.594  14.080  14.161  14.314  14.325  14.968  15.103
 15.182  15.274  15.381  15.464  15.505  15.565  15.809  16.053
 16.214  16.365  16.571  16.787  16.894  16.921  16.941  17.069
 17.213  17.248  17.339  17.339  17.461  17.682  17.824  17.898
 17.954  18.483  18.987  19.207  19.643  19.664  20.662  20.700
 20.873  21.016  21.154  22.148  23.594  23.639  23.789  23.791
 24.285  25.721  26.052  26.381  28.103  28.722  41.390  41.480
 48.204  48.311  48.396  48.707  49.557  91.154  91.197  91.262
 91.274  92.951  93.043 105.705
 
 Beta MOs
 -- Occupied --
-14.404  -0.886  -0.534  -0.379
 -- Virtual --
 -0.068   0.001   0.021   0.037   0.043   0.060   0.060   0.082
  0.090   0.095   0.099   0.100   0.131   0.153   0.154   0.172
  0.180   0.188   0.189   0.199   0.200   0.203   0.208   0.222
  0.242   0.242   0.246   0.249   0.257   0.259   0.269   0.297
  0.314   0.334   0.337   0.338   0.343   0.378   0.380   0.383
  0.392   0.418   0.424   0.424   0.431   0.433   0.435   0.455
  0.456   0.458   0.467   0.487   0.495   0.504   0.514   0.530
  0.534   0.543   0.557   0.559   0.568   0.570   0.575   0.579
  0.593   0.598   0.638   0.639   0.654   0.692   0.703   0.705
  0.713   0.720   0.726   0.726   0.747   0.750   0.756   0.758
  0.773   0.787   0.812   0.815   0.825   0.838   0.838   0.850
  0.853   0.854   0.868   0.885   0.897   0.909   0.926   0.941
  0.942   0.951   0.956   0.981   0.986   0.987   0.995   1.025
  1.029   1.043   1.045   1.075   1.081   1.090   1.114   1.237
  1.269   1.277   1.390   1.454   1.466   1.481   1.566   1.572
  1.578   1.607   1.645   1.678   1.684   1.695   1.711   1.737
  1.739   1.847   1.929   1.938   1.961   1.967   2.103   2.168
  2.267   2.437   2.444   2.510   2.511   2.554   2.686   2.732
  2.775   2.886   2.994   3.056   3.073   3.150   3.230   3.240
  3.411   3.428   3.432   3.539   3.567   3.577   3.588   3.626
  3.654   3.709   3.792   3.869   3.875   3.916   3.941   4.117
  4.134   4.178   4.227   4.276   4.369   4.451   4.504   4.559
  4.646   4.976   5.071   5.124   5.169   5.198   5.324   5.331
  5.640   5.711   5.762   5.839   5.895   5.938   6.087   6.316
  6.317   6.358   6.434   6.468   6.500   6.666   6.700   6.737
  7.037   7.363   7.599   7.671   7.752   7.977   8.203   8.508
  8.513   8.517   8.606   8.763   8.906   9.019   9.119   9.242
  9.314   9.577   9.604   9.824   9.826  10.000  10.142  10.203
 10.243  11.424  11.507  11.521  11.525  11.558  11.562  11.655
 11.722  11.725  11.725  11.848  11.880  11.930  11.949  12.395
 12.542  12.565  12.682  12.692  12.843  12.875  12.953  13.024
 13.089  13.576  13.610  14.094  14.171  14.335  14.347  15.038
 15.173  15.244  15.335  15.432  15.514  15.544  15.596  15.822
 16.054  16.245  16.395  16.605  16.796  16.893  16.920  16.939
 17.071  17.228  17.313  17.348  17.389  17.490  17.685  17.839
 17.901  17.977  18.491  18.990  19.211  19.645  19.670  20.679
 20.716  20.889  21.014  21.154  22.153  23.589  23.635  23.782
 23.783  24.309  25.721  26.056  26.456  28.120  28.740  41.380
 41.470  48.253  48.360  48.443  48.732  49.567  91.143  91.186
 91.249  91.262  92.940  93.031 105.720
 --------------------------------------------------------------
 
          Ground-State Mulliken Net Atomic Charges

     Atom                 Charge (a.u.)    Spin (a.u.)
  --------------------------------------------------------
      1 N                    -0.415882       1.029653
      2 H                     0.207941      -0.014826
      3 H                     0.207941      -0.014826
  --------------------------------------------------------
  Sum of atomic charges =    -0.000000
  Sum of spin   charges =     1.000000

 -----------------------------------------------------------------
                    Cartesian Multipole Moments
 -----------------------------------------------------------------
    Charge (ESU x 10^10)
                 0.0000
    Dipole Moment (Debye)
         X      -0.0000      Y      -0.0000      Z       1.8209
       Tot       1.8209
    Quadrupole Moments (Debye-Ang)
        XX      -7.3272     XY      -0.0000     YY      -5.6319
        XZ       0.0000     YZ       0.0000     ZZ      -7.2978
    Octopole Moments (Debye-Ang^2)
       XXX      -0.0000    XXY      -0.0000    XYY      -0.0000
       YYY      -0.0000    XXZ      -0.6189    XYZ       0.0000
       YYZ       0.5559    XZZ      -0.0000    YZZ      -0.0000
       ZZZ      -1.5265
    Hexadecapole Moments (Debye-Ang^3)
      XXXX      -7.3865   XXXY      -0.0000   XXYY      -3.1784
      XYYY       0.0000   YYYY      -9.9403   XXXZ       0.0000
      XXYZ      -0.0000   XYYZ       0.0000   YYYZ       0.0000
      XXZZ      -3.3114   XYZZ      -0.0000   YYZZ      -3.1131
      XZZZ       0.0000   YZZZ      -0.0000   ZZZZ     -12.1267
 -----------------------------------------------------------------
Archival summary:
1\1\n0068.mhg0\SP\ProcedureUnspecified\BasisUnspecified\12(2)\yhljason\MonAug300:37:062020MonAug300:37:062020\0\\#,ProcedureUnspecified,BasisUnspecified,\\0,2\N\H,1,1.02402\H,1,1.02402,2,103.395\\\@

 Total job time:  5117.15s(wall), 40876.12s(cpu) 
 Mon Aug  3 00:37:06 2020

        *************************************************************
        *                                                           *
        *  Thank you very much for using Q-Chem.  Have a nice day.  *
        *                                                           *
        *************************************************************


