Q-Chem Developer Version!
                  Welcome to Q-Chem
     A Quantum Leap Into The Future Of Chemistry


 Q-Chem 5.1, Q-Chem, Inc., Pleasanton, CA (2018)

 Yihan Shao,  Zhengting Gan,  E. Epifanovsky,  A. T. B. Gilbert,  M. Wormit,  
 J. Kussmann,  A. W. Lange,  A. Behn,  Jia Deng,  Xintian Feng,  D. Ghosh,  
 M. Goldey,  P. R. Horn,  L. D. Jacobson,  I. Kaliman,  T. Kus,  A. Landau,  
 Jie Liu,  E. I. Proynov,  R. M. Richard,  R. P. Steele,  E. J. Sundstrom,  
 H. L. Woodcock III,  P. M. Zimmerman,  D. Zuev,  B. Albrecht,  E. Alguire,  
 S. A. Baeppler,  D. Barton,  Z. Benda,  Y. A. Bernard,  E. J. Berquist,  
 K. B. Bravaya,  H. Burton,  D. Casanova,  Chun-Min Chang,  Yunqing Chen,  
 A. Chien,  K. D. Closser,  M. P. Coons,  S. Coriani,  S. Dasgupta,  
 A. L. Dempwolff,  M. Diedenhofen,  Hainam Do,  R. G. Edgar,  Po-Tung Fang,  
 S. Faraji,  S. Fatehi,  Qingguo Feng,  K. D. Fenk,  J. Fosso-Tande,  
 Qinghui Ge,  A. Ghysels,  G. Gidofalvi,  J. Gomes,  J. Gonthier,  A. Gunina,  
 D. Hait,  M. W. D. Hanson-Heine,  P. H. P. Harbach,  A. W. Hauser,  
 J. E. Herr,  E. G. Hohenstein,  Z. C. Holden,  Kerwin Hui,  B. C. Huynh,  
 T.-C. Jagau,  Hyunjun Ji,  B. Kaduk,  K. Khistyaev,  Jaehoon Kim,  
 P. Klunzinger,  K. Koh,  D. Kosenkov,  L. Koulias,  T. Kowalczyk,  
 C. M. Krauter,  A. Kunitsa,  Ka Un Lao,  A. Laurent,  K. V. Lawler,  
 Joonho Lee,  D. Lefrancois,  S. Lehtola,  D. S. Levine,  Yi-Pei Li,  
 You-Sheng Lin,  Fenglai Liu,  E. Livshits,  A. Luenser,  P. Manohar,  
 E. Mansoor,  S. F. Manzer,  Shan-Ping Mao,  Yuezhi Mao,  N. Mardirossian,  
 A. V. Marenich,  T. Markovich,  L. A. Martinez-Martinez,  S. A. Maurer,  
 N. J. Mayhall,  S. C. McKenzie,  J.-M. Mewes,  A. F. Morrison,  
 J. W. Mullinax,  K. Nanda,  T. S. Nguyen-Beck,  R. Olivares-Amaya,  
 J. A. Parkhill,  T. M. Perrine,  F. Plasser,  P. Pokhilko,  S. Prager,  
 A. Prociuk,  E. Ramos,  D. R. Rehn,  F. Rob,  M. Schneider,  N. Sergueev,  
 S. M. Sharada,  S. Sharma,  D. W. Small,  T. Stauch,  T. Stein,  
 Yu-Chuan Su,  A. J. W. Thom,  A. Tkatchenko,  T. Tsuchimochi,  N. M. Tubman,  
 L. Vogt,  M. L. Vidal,  O. Vydrov,  M. A. Watson,  J. Wenzel,  
 M. de Wergifosse,  T. A. Wesolowski,  A. White,  J. Witte,  A. Yamada,  
 Jun Yang,  K. Yao,  S. Yeganeh,  S. R. Yost,  Zhi-Qiang You,  A. Zech,  
 Igor Ying Zhang,  Xing Zhang,  Yan Zhao,  Ying Zhu,  B. R. Brooks,  
 G. K. L. Chan,  C. J. Cramer,  M. S. Gordon,  W. J. Hehre,  A. Klamt,  
 M. W. Schmidt,  C. D. Sherrill,  D. G. Truhlar,  A. Aspuru-Guzik,  R. Baer,  
 A. T. Bell,  N. A. Besley,  Jeng-Da Chai,  A. E. DePrince, III,  
 R. A. DiStasio Jr.,  A. Dreuw,  B. D. Dunietz,  T. R. Furlani,  
 Chao-Ping Hsu,  Yousung Jung,  Jing Kong,  D. S. Lambrecht,  WanZhen Liang,  
 C. Ochsenfeld,  V. A. Rassolov,  L. V. Slipchenko,  J. E. Subotnik,  
 T. Van Voorhis,  J. M. Herbert,  A. I. Krylov,  P. M. W. Gill,  M. Head-Gordon

 Contributors to earlier versions of Q-Chem not listed above: 
 R. D. Adamson,  B. Austin,  J. Baker,  G. J. O. Beran,  K. Brandhorst,  
 S. T. Brown,  E. F. C. Byrd,  A. K. Chakraborty,  C.-L. Cheng,  
 Siu Hung Chien,  D. M. Chipman,  D. L. Crittenden,  H. Dachsel,  
 R. J. Doerksen,  A. D. Dutoi,  L. Fusti-Molnar,  W. A. Goddard III,  
 A. Golubeva-Zadorozhnaya,  S. R. Gwaltney,  G. Hawkins,  A. Heyden,  
 S. Hirata,  G. Kedziora,  F. J. Keil,  C. Kelley,  Jihan Kim,  R. A. King,  
 R. Z. Khaliullin,  P. P. Korambath,  W. Kurlancheek,  A. M. Lee,  M. S. Lee,  
 S. V. Levchenko,  Ching Yeh Lin,  D. Liotard,  R. C. Lochan,  I. Lotan,  
 P. E. Maslen,  N. Nair,  D. P. O'Neill,  D. Neuhauser,  E. Neuscamman,  
 C. M. Oana,  R. Olson,  B. Peters,  R. Peverati,  P. A. Pieniazek,  
 Y. M. Rhee,  J. Ritchie,  M. A. Rohrdanz,  E. Rosta,  N. J. Russ,  
 H. F. Schaefer III,  N. E. Schultz,  N. Shenvi,  A. C. Simmonett,  A. Sodt,  
 D. Stuck,  K. S. Thanthiriwatte,  V. Vanovschi,  Tao Wang,  A. Warshel,  
 C. F. Williams,  Q. Wu,  X. Xu,  W. Zhang

 Please cite Q-Chem as follows:
 Y. Shao et al., Mol. Phys. 113, 184-215 (2015)
 DOI: 10.1080/00268976.2014.952696

 Q-Chem 5.1.1 for Intel X86 EM64T Linux

 Parts of Q-Chem use Armadillo 8.300.2 (Tropical Shenanigans).
 http://arma.sourceforge.net/

 Q-Chem begins on Sun Aug  2 23:11:27 2020  

Host: n0081.mhg0
0

     Scratch files written to /local/scratch/users/yhljason/NH2F_B97M-V_aug-pc-4.inp20200802231126//
Input Ideriv = 2
Curr. Ideriv = -1
Max.  Ideriv = 2
Input Ideriv = 1
Curr. Ideriv = 2
Max.  Ideriv = 1

Checking the input file for inconsistencies... 	...done.

--------------------------------------------------------------
User input:
--------------------------------------------------------------
$molecule
0 1
          N       0.0000000000     0.0000000000     0.0000000000
          H       0.0000000000     0.0000000000     1.0171780000
          H       0.9838480958     0.0000000000    -0.2582518307
          F      -0.3678444665     1.3400564697    -0.2837498835
$end

$rem
jobtype sp
method B97M-V
xc_grid 000099000590
basis aug-pc-4
max_scf_cycles 200
thresh 14
scf_convergence 8
scf_algorithm gdm
symmetry false
sym_ignore true
unrestricted true
gen_scfman true
internal_stability_iter 15
internal_stability_davidson_iter 200
mem_total 64000
mem_static 1500
n_frozen_core 0
$end


--------------------------------------------------------------
 ----------------------------------------------------------------
             Standard Nuclear Orientation (Angstroms)
    I     Atom           X                Y                Z
 ----------------------------------------------------------------
    1      N       0.0000000000     0.0000000000     0.0000000000
    2      H       0.0000000000     0.0000000000     1.0171780000
    3      H       0.9838480958     0.0000000000    -0.2582518307
    4      F      -0.3678444665     1.3400564697    -0.2837498835
 ----------------------------------------------------------------
 Nuclear Repulsion Energy =    36.1215344980 hartrees
 There are        9 alpha and        9 beta electrons
 Requested basis set is aug-pc-4
 There are 114 shells and 466 basis functions

 Total QAlloc Memory Limit  64000 MB
 Mega-Array Size      1467 MB
 MEM_STATIC part      1500 MB

                       Distance Matrix (Angstroms)
             N (  1)   H (  2)   H (  3)
   H (  2)  1.017178
   H (  3)  1.017178  1.610801
   F (  4)  1.418300  1.903543  1.903543
 
 A cutoff of  1.0D-14 yielded   6477 shell pairs
 There are    109531 function pairs (    201144 Cartesian)
 
 -------------------------------------------------------
 OpenMP Integral Computing Module                       
 Release: version 1.0, May 2013, Q-Chem Inc. Pittsburgh 
 -------------------------------------------------------
 Integral Job Info:
 Integral job number is                      11
 Integral operator is                         1
 short-range coefficients                     0
 long-range coefficients              100000000
 Omega coefficients                           0
 if combine SR and LR in K                    0
 Integral screening is                        0
 Integral computing path is                   2
 max size of driver memory is           6400000
 size of driver memory is               5498286
 size of scratch memory is             29792225
 max col of scratch BK array             194481
 max len of scratch array in speh3         5572
 max len of scratch index in speh4           72
 max int batch size is                      520
 min int batch size is                       52
 fixed nKL is                                25
 max L of basis functions is                  5
 order of int derivative is                   0
 number of shells is                        114
 number of basis is                         630
 number of cartesian basis is               630
 number of contracted shell pairs          6477
 number of primitive shell pairs          12490
 maxK2 (contraction) of shell pair          121
 max number of K2 of shell pair               1
 max number of CS2 of shell pair            785
 max number of PS2 of shell pair            785
 mem total for path MDJ                 1105572
 -------------------------------------------------------
 Smallest overlap matrix eigenvalue = 1.50E-06

 Scale SEOQF with 1.000000e-01/1.000000e-01/1.000000e-01

 Standard Electronic Orientation quadrupole field applied
 Nucleus-field energy     =     0.0000000010 hartrees
 Guess from superposition of atomic densities
 Warning:  Energy on first SCF cycle will be non-variational
 SAD guess density has 18.000000 electrons

 -----------------------------------------------------------------------
  General SCF calculation program by
  Eric Jon Sundstrom, Paul Horn, Yuezhi Mao, Dmitri Zuev, Alec White,
  David Stuck, Shaama M.S., Shane Yost, Joonho Lee, David Small,
  Daniel Levine, Susi Lehtola, Hugh Burton, Evgeny Epifanovsky
 -----------------------------------------------------------------------
 Exchange:  B97M-V      Correlation:  B97M-V
 Using Euler-Maclaurin-Lebedev (99,590) quadrature formula
 Nonlocal Correlation:  VV10 with C = 0.0100 and b = 6.00 and scale = 1.00000
 Grid used for NLC:  SG-1 standard quadrature
Running Object-Oriented UKS (UHF)
performing a single roothaan step with Fock from read density so that orbitals are available to all algorithms
 Nonlocal correlation = 0.074737579708
energy of the guess density (C=0) -155.821559967926
 Nonlocal correlation = 0.075596389574
We will preform up to 15 macro iterations over saddle points until a stable solution is found
Energy prior to optimization (guess energy) = -155.730356200221
Begin Timing: Total SCF Calculation
Begin Timing: SCF Single Stationary Point Calculation
begin iterations for algorithm: GDM          
the SCF tolerance is set to 1.00e-08
 Nonlocal correlation = 7.502688176986e-02
    1    -155.7303562002      3.67e-02     00000  Normal BFGS step
 Nonlocal correlation = 7.533486630339e-02
    2    -155.7252036320      4.33e-02     00000 Line search: overstep
 Nonlocal correlation = 7.534424320082e-02
    3    -155.7488412336      6.59e-03     00000  Normal BFGS step
 Nonlocal correlation = 7.533557301060e-02
    4    -155.7496350932      8.32e-03     00000  Normal BFGS step
 Nonlocal correlation = 7.534120334046e-02
    5    -155.7499630943      6.37e-03     00000  Normal BFGS step
 Nonlocal correlation = 7.533928680172e-02
    6    -155.7499606873      3.90e-03     00000  Normal BFGS step
 Nonlocal correlation = 7.533925465462e-02
    7    -155.7500547611      2.31e-04     00000  Normal BFGS step
 Nonlocal correlation = 7.533917806659e-02
    8    -155.7500551228      5.22e-05     00000  Normal BFGS step
 Nonlocal correlation = 7.533921618418e-02
    9    -155.7500551436      7.67e-06     00000  Normal BFGS step
 Nonlocal correlation = 7.533920833931e-02
   10    -155.7500551444      2.18e-06     00000  Normal BFGS step
 Nonlocal correlation = 7.533920808381e-02
   11    -155.7500551445      1.84e-07     00000  Normal BFGS step
 Nonlocal correlation = 7.533920821078e-02
   12    -155.7500551445      8.56e-08     00000  Normal BFGS step
 Nonlocal correlation = 7.533920823228e-02
   13    -155.7500551445      2.47e-09     00000 Convergence criterion met
Timing for Single Stationary Point: 790.00s (wall), 6285.76s (cpu)
Begin Timing: Stability
===================================================
Beginning Test for Internal Stability
===================================================
generating davidson guess vectors based on koopmans excitations
computing hessian-vector products by finite difference
 Nonlocal correlation = 0.075339208902
 Nonlocal correlation = 0.075339207549
 Nonlocal correlation = 0.075339207578
 Nonlocal correlation = 0.075339208874
 Nonlocal correlation = 0.075339208232
    1      5.48e-01     00000 Davidson Iteration
computing hessian-vector products by finite difference
 Nonlocal correlation = 7.533921171767e-02
 Nonlocal correlation = 7.533920473862e-02
 Nonlocal correlation = 7.533920833409e-02
 Nonlocal correlation = 7.533920812125e-02
 Nonlocal correlation = 7.533920823228e-02
    2      4.48e-01     00000 Davidson Iteration
computing hessian-vector products by finite difference
 Nonlocal correlation = 7.533920684209e-02
 Nonlocal correlation = 7.533920960783e-02
 Nonlocal correlation = 7.533935016308e-02
 Nonlocal correlation = 7.533906617283e-02
 Nonlocal correlation = 7.533920823228e-02
    3      9.44e-02     00000 Davidson Iteration
computing hessian-vector products by finite difference
 Nonlocal correlation = 7.533920175634e-02
 Nonlocal correlation = 7.533921469255e-02
 Nonlocal correlation = 7.533921327262e-02
 Nonlocal correlation = 7.533920318043e-02
 Nonlocal correlation = 7.533920823228e-02
    4      2.85e-02     00000 Davidson Iteration
computing hessian-vector products by finite difference
 Nonlocal correlation = 7.533920017625e-02
 Nonlocal correlation = 7.533921627761e-02
 Nonlocal correlation = 7.533923054103e-02
 Nonlocal correlation = 7.533918591773e-02
 Nonlocal correlation = 7.533920823228e-02
    5      1.45e-02     00000 Davidson Iteration
computing hessian-vector products by finite difference
 Nonlocal correlation = 7.533914475123e-02
 Nonlocal correlation = 7.533927170109e-02
 Nonlocal correlation = 7.533922082661e-02
 Nonlocal correlation = 7.533919563414e-02
 Nonlocal correlation = 7.533920823228e-02
    6      4.25e-03     00000 Davidson Iteration
computing hessian-vector products by finite difference
 Nonlocal correlation = 7.533932624702e-02
 Nonlocal correlation = 7.533909020966e-02
 Nonlocal correlation = 7.533906688117e-02
 Nonlocal correlation = 7.533934957733e-02
 Nonlocal correlation = 7.533920823228e-02
    7      1.96e-03     00000 Davidson Iteration
computing hessian-vector products by finite difference
 Nonlocal correlation = 7.533922668455e-02
 Nonlocal correlation = 7.533918976521e-02
 Nonlocal correlation = 7.533910207720e-02
 Nonlocal correlation = 7.533931437955e-02
 Nonlocal correlation = 7.533920823228e-02
    8      3.98e-04     00000 Davidson Converged
converged_eigenvalues
   0.3392
   0.4356
Threshold for negative eigenvalues: -1.0e-05
solution was a local minimum (stable)
===================================================
End Test for Internal Stability
===================================================
Our SCF solution is stable!
Timing for Total SCF: 3168.00s (wall), 25223.50s (cpu)
 Total energy in the final basis set =     -155.7500551445
<S^2> =          0.000000000
    ==================================================
              The end of Object-Oriented SCFman       
    ==================================================
 
 --------------------------------------------------------------
 
                    Orbital Energies (a.u.)
 --------------------------------------------------------------
 
 Alpha MOs
 -- Occupied --
-24.716 -14.413  -1.207  -0.834  -0.508  -0.492  -0.412  -0.346
 -0.260
 -- Virtual --
 -0.026  -0.013   0.012   0.024   0.038   0.043   0.053   0.059
  0.064   0.071   0.073   0.078   0.093   0.113   0.121   0.126
  0.133   0.145   0.153   0.163   0.166   0.169   0.173   0.178
  0.188   0.200   0.203   0.212   0.233   0.236   0.238   0.244
  0.257   0.262   0.270   0.272   0.286   0.286   0.289   0.301
  0.311   0.312   0.336   0.347   0.355   0.369   0.375   0.387
  0.394   0.398   0.406   0.410   0.414   0.417   0.425   0.426
  0.435   0.440   0.442   0.456   0.462   0.470   0.478   0.479
  0.490   0.495   0.499   0.512   0.519   0.526   0.536   0.551
  0.572   0.579   0.595   0.616   0.633   0.642   0.655   0.657
  0.669   0.673   0.679   0.683   0.683   0.690   0.692   0.700
  0.705   0.706   0.723   0.727   0.738   0.742   0.745   0.753
  0.765   0.774   0.793   0.799   0.813   0.819   0.823   0.825
  0.829   0.833   0.848   0.866   0.879   0.883   0.888   0.903
  0.909   0.912   0.943   0.948   0.955   0.956   0.975   0.992
  0.996   1.009   1.012   1.024   1.026   1.031   1.056   1.058
  1.080   1.095   1.121   1.141   1.149   1.162   1.194   1.207
  1.231   1.264   1.265   1.287   1.301   1.331   1.334   1.344
  1.357   1.358   1.393   1.408   1.423   1.433   1.438   1.448
  1.466   1.495   1.501   1.507   1.522   1.542   1.552   1.562
  1.584   1.585   1.619   1.630   1.650   1.706   1.714   1.739
  1.750   1.785   1.810   1.823   1.860   1.877   1.878   1.908
  1.972   1.985   2.001   2.025   2.132   2.215   2.280   2.299
  2.358   2.384   2.459   2.480   2.515   2.522   2.546   2.577
  2.594   2.617   2.679   2.728   2.783   2.828   2.874   2.888
  2.915   2.960   2.974   3.015   3.149   3.218   3.275   3.303
  3.350   3.377   3.416   3.458   3.500   3.565   3.610   3.696
  3.718   3.727   3.823   3.831   3.865   3.968   3.998   4.033
  4.092   4.096   4.149   4.178   4.228   4.307   4.322   4.428
  4.460   4.510   4.568   4.600   4.794   4.898   4.977   4.999
  5.127   5.174   5.214   5.319   5.334   5.446   5.541   5.652
  5.710   5.736   5.753   5.969   5.972   6.023   6.064   6.099
  6.164   6.176   6.235   6.323   6.348   6.454   6.471   6.527
  6.534   6.573   6.627   6.635   6.657   6.730   6.740   6.963
  7.003   7.054   7.141   7.317   7.365   7.583   7.608   7.679
  7.693   7.745   7.748   7.865   7.951   7.966   8.166   8.262
  8.350   8.384   8.508   8.583   8.654   9.115   9.151   9.209
  9.242   9.302   9.640   9.700   9.780   9.785   9.833   9.891
 10.223  10.274  10.326  10.536  10.587  10.657  10.674  10.748
 10.956  11.214  11.935  12.022  12.084  12.118  12.164  12.191
 12.284  12.400  12.422  12.528  12.638  12.726  12.791  12.994
 13.090  13.154  13.221  13.360  13.364  13.459  13.501  13.524
 13.531  13.567  13.569  13.609  13.610  13.670  13.714  13.762
 13.781  13.815  13.838  13.922  14.159  14.308  14.360  14.409
 14.491  14.695  14.759  14.942  15.115  15.117  15.136  15.159
 15.401  15.524  15.723  15.825  15.855  15.860  15.947  16.135
 16.145  16.242  16.362  16.490  16.496  16.504  16.568  16.836
 16.915  17.014  17.158  17.346  17.521  17.688  17.785  17.957
 18.158  18.168  18.250  18.328  18.359  18.424  18.494  18.544
 18.685  18.923  19.001  19.091  19.282  19.317  20.284  20.505
 20.862  20.900  21.050  21.340  21.342  21.412  21.422  21.736
 21.855  21.976  22.080  22.182  22.203  22.365  23.060  23.093
 23.332  23.906  24.990  25.096  25.098  25.226  25.380  26.575
 26.930  28.172  29.021  29.554  31.554  31.626  31.835  31.921
 32.942  41.316  41.464  42.789  42.864  43.183  45.056  49.179
 49.250  49.469  50.067  50.464  90.833  90.948  90.955  91.076
 92.113  92.211  93.131  93.178  93.313  93.375  94.029 108.660
206.796
 
 Beta MOs
 -- Occupied --
-24.716 -14.413  -1.207  -0.834  -0.508  -0.492  -0.412  -0.346
 -0.260
 -- Virtual --
 -0.026  -0.013   0.012   0.024   0.038   0.043   0.053   0.059
  0.064   0.071   0.073   0.078   0.093   0.113   0.121   0.126
  0.133   0.145   0.153   0.163   0.166   0.169   0.173   0.178
  0.188   0.200   0.203   0.212   0.233   0.236   0.238   0.244
  0.257   0.262   0.270   0.272   0.286   0.286   0.289   0.301
  0.311   0.312   0.336   0.347   0.355   0.369   0.375   0.387
  0.394   0.398   0.406   0.410   0.414   0.417   0.425   0.426
  0.435   0.440   0.442   0.456   0.462   0.470   0.478   0.479
  0.490   0.495   0.499   0.512   0.519   0.526   0.536   0.551
  0.572   0.579   0.595   0.616   0.633   0.642   0.655   0.657
  0.669   0.673   0.679   0.683   0.683   0.690   0.692   0.700
  0.705   0.706   0.723   0.727   0.738   0.742   0.745   0.753
  0.765   0.774   0.793   0.799   0.813   0.819   0.823   0.825
  0.829   0.833   0.848   0.866   0.879   0.883   0.888   0.903
  0.909   0.912   0.943   0.948   0.955   0.956   0.975   0.992
  0.996   1.009   1.012   1.024   1.026   1.031   1.056   1.058
  1.080   1.095   1.121   1.141   1.149   1.162   1.194   1.207
  1.231   1.264   1.265   1.287   1.301   1.331   1.334   1.344
  1.357   1.358   1.393   1.408   1.423   1.433   1.438   1.448
  1.466   1.495   1.501   1.507   1.522   1.542   1.552   1.562
  1.584   1.585   1.619   1.630   1.650   1.706   1.714   1.739
  1.750   1.785   1.810   1.823   1.860   1.877   1.878   1.908
  1.972   1.985   2.001   2.025   2.132   2.215   2.280   2.299
  2.358   2.384   2.459   2.480   2.515   2.522   2.546   2.577
  2.594   2.617   2.679   2.728   2.783   2.828   2.874   2.888
  2.915   2.960   2.974   3.015   3.149   3.218   3.275   3.303
  3.350   3.377   3.416   3.458   3.500   3.565   3.610   3.696
  3.718   3.727   3.823   3.831   3.865   3.968   3.998   4.033
  4.092   4.096   4.149   4.178   4.228   4.307   4.322   4.428
  4.460   4.510   4.568   4.600   4.794   4.898   4.977   4.999
  5.127   5.174   5.214   5.319   5.334   5.446   5.541   5.652
  5.710   5.736   5.753   5.969   5.972   6.023   6.064   6.099
  6.164   6.176   6.235   6.323   6.348   6.454   6.471   6.527
  6.534   6.573   6.627   6.635   6.657   6.730   6.740   6.963
  7.003   7.054   7.141   7.317   7.365   7.583   7.608   7.679
  7.693   7.745   7.748   7.865   7.951   7.966   8.166   8.262
  8.350   8.384   8.508   8.583   8.654   9.115   9.151   9.209
  9.242   9.302   9.640   9.700   9.780   9.785   9.833   9.891
 10.223  10.274  10.326  10.536  10.587  10.657  10.674  10.748
 10.956  11.214  11.935  12.022  12.084  12.118  12.164  12.191
 12.284  12.400  12.422  12.528  12.638  12.726  12.791  12.994
 13.090  13.154  13.221  13.360  13.364  13.459  13.501  13.524
 13.531  13.567  13.569  13.609  13.610  13.670  13.714  13.762
 13.781  13.815  13.838  13.922  14.159  14.308  14.360  14.409
 14.491  14.695  14.759  14.942  15.115  15.117  15.136  15.159
 15.401  15.524  15.723  15.825  15.855  15.860  15.947  16.135
 16.145  16.242  16.362  16.490  16.496  16.504  16.568  16.836
 16.915  17.014  17.158  17.346  17.521  17.688  17.785  17.957
 18.158  18.168  18.250  18.328  18.359  18.424  18.494  18.544
 18.685  18.923  19.001  19.091  19.282  19.317  20.284  20.505
 20.862  20.900  21.050  21.340  21.342  21.412  21.422  21.736
 21.855  21.976  22.080  22.182  22.203  22.365  23.060  23.093
 23.332  23.906  24.990  25.096  25.098  25.226  25.380  26.575
 26.930  28.172  29.021  29.554  31.554  31.626  31.835  31.921
 32.942  41.316  41.464  42.789  42.864  43.183  45.056  49.179
 49.250  49.469  50.067  50.464  90.833  90.948  90.955  91.076
 92.113  92.211  93.131  93.178  93.313  93.375  94.029 108.660
206.796
 --------------------------------------------------------------
 
          Ground-State Mulliken Net Atomic Charges

     Atom                 Charge (a.u.)    Spin (a.u.)
  --------------------------------------------------------
      1 N                     0.939285       0.000000
      2 H                    -0.246332       0.000000
      3 H                    -0.246349      -0.000000
      4 F                    -0.446604      -0.000000
  --------------------------------------------------------
  Sum of atomic charges =     0.000000
  Sum of spin   charges =    -0.000000

 -----------------------------------------------------------------
                    Cartesian Multipole Moments
 -----------------------------------------------------------------
    Charge (ESU x 10^10)
                 0.0000
    Dipole Moment (Debye)
         X       1.6309      Y      -0.7378      Z       1.2580
       Tot       2.1879
    Quadrupole Moments (Debye-Ang)
        XX     -10.9548     XY      -0.0054     YY     -13.7730
        XZ      -0.7549     YZ      -0.0042     ZZ     -10.5585
    Octopole Moments (Debye-Ang^2)
       XXX       5.2394    XXY      -6.6761    XYY       1.9110
       YYY     -21.7406    XXZ       0.5220    XYZ      -0.1101
       YYZ       1.4741    XZZ       1.3265    YZZ      -6.6182
       ZZZ       4.5429
    Hexadecapole Moments (Debye-Ang^3)
      XXXX     -15.9812   XXXY       7.0640   XXYY     -13.6708
      XYYY       6.8826   YYYY     -65.0998   XXXZ      -2.0721
      XXYZ       1.7677   XYYZ      -0.4132   YYYZ       5.3091
      XXZZ      -5.4363   XYZZ       2.3299   YYZZ     -13.4538
      XZZZ      -1.7005   YZZZ       5.4786   ZZZZ     -14.0006
 -----------------------------------------------------------------
Archival summary:
1\1\n0081.mhg0\SP\ProcedureUnspecified\BasisUnspecified\112\yhljason\MonAug300:05:582020MonAug300:05:582020\0\\#,ProcedureUnspecified,BasisUnspecified,\\0,1\N\H,1,1.01718\H,1,1.01718,2,104.708\F,1,1.4183,2,101.541,3,105.35,0\\\@

 Total job time:  3271.11s(wall), 25991.75s(cpu) 
 Mon Aug  3 00:05:58 2020

        *************************************************************
        *                                                           *
        *  Thank you very much for using Q-Chem.  Have a nice day.  *
        *                                                           *
        *************************************************************


