Q-Chem Developer Version!
                  Welcome to Q-Chem
     A Quantum Leap Into The Future Of Chemistry


 Q-Chem 5.1, Q-Chem, Inc., Pleasanton, CA (2018)

 Yihan Shao,  Zhengting Gan,  E. Epifanovsky,  A. T. B. Gilbert,  M. Wormit,  
 J. Kussmann,  A. W. Lange,  A. Behn,  Jia Deng,  Xintian Feng,  D. Ghosh,  
 M. Goldey,  P. R. Horn,  L. D. Jacobson,  I. Kaliman,  T. Kus,  A. Landau,  
 Jie Liu,  E. I. Proynov,  R. M. Richard,  R. P. Steele,  E. J. Sundstrom,  
 H. L. Woodcock III,  P. M. Zimmerman,  D. Zuev,  B. Albrecht,  E. Alguire,  
 S. A. Baeppler,  D. Barton,  Z. Benda,  Y. A. Bernard,  E. J. Berquist,  
 K. B. Bravaya,  H. Burton,  D. Casanova,  Chun-Min Chang,  Yunqing Chen,  
 A. Chien,  K. D. Closser,  M. P. Coons,  S. Coriani,  S. Dasgupta,  
 A. L. Dempwolff,  M. Diedenhofen,  Hainam Do,  R. G. Edgar,  Po-Tung Fang,  
 S. Faraji,  S. Fatehi,  Qingguo Feng,  K. D. Fenk,  J. Fosso-Tande,  
 Qinghui Ge,  A. Ghysels,  G. Gidofalvi,  J. Gomes,  J. Gonthier,  A. Gunina,  
 D. Hait,  M. W. D. Hanson-Heine,  P. H. P. Harbach,  A. W. Hauser,  
 J. E. Herr,  E. G. Hohenstein,  Z. C. Holden,  Kerwin Hui,  B. C. Huynh,  
 T.-C. Jagau,  Hyunjun Ji,  B. Kaduk,  K. Khistyaev,  Jaehoon Kim,  
 P. Klunzinger,  K. Koh,  D. Kosenkov,  L. Koulias,  T. Kowalczyk,  
 C. M. Krauter,  A. Kunitsa,  Ka Un Lao,  A. Laurent,  K. V. Lawler,  
 Joonho Lee,  D. Lefrancois,  S. Lehtola,  D. S. Levine,  Yi-Pei Li,  
 You-Sheng Lin,  Fenglai Liu,  E. Livshits,  A. Luenser,  P. Manohar,  
 E. Mansoor,  S. F. Manzer,  Shan-Ping Mao,  Yuezhi Mao,  N. Mardirossian,  
 A. V. Marenich,  T. Markovich,  L. A. Martinez-Martinez,  S. A. Maurer,  
 N. J. Mayhall,  S. C. McKenzie,  J.-M. Mewes,  A. F. Morrison,  
 J. W. Mullinax,  K. Nanda,  T. S. Nguyen-Beck,  R. Olivares-Amaya,  
 J. A. Parkhill,  T. M. Perrine,  F. Plasser,  P. Pokhilko,  S. Prager,  
 A. Prociuk,  E. Ramos,  D. R. Rehn,  F. Rob,  M. Schneider,  N. Sergueev,  
 S. M. Sharada,  S. Sharma,  D. W. Small,  T. Stauch,  T. Stein,  
 Yu-Chuan Su,  A. J. W. Thom,  A. Tkatchenko,  T. Tsuchimochi,  N. M. Tubman,  
 L. Vogt,  M. L. Vidal,  O. Vydrov,  M. A. Watson,  J. Wenzel,  
 M. de Wergifosse,  T. A. Wesolowski,  A. White,  J. Witte,  A. Yamada,  
 Jun Yang,  K. Yao,  S. Yeganeh,  S. R. Yost,  Zhi-Qiang You,  A. Zech,  
 Igor Ying Zhang,  Xing Zhang,  Yan Zhao,  Ying Zhu,  B. R. Brooks,  
 G. K. L. Chan,  C. J. Cramer,  M. S. Gordon,  W. J. Hehre,  A. Klamt,  
 M. W. Schmidt,  C. D. Sherrill,  D. G. Truhlar,  A. Aspuru-Guzik,  R. Baer,  
 A. T. Bell,  N. A. Besley,  Jeng-Da Chai,  A. E. DePrince, III,  
 R. A. DiStasio Jr.,  A. Dreuw,  B. D. Dunietz,  T. R. Furlani,  
 Chao-Ping Hsu,  Yousung Jung,  Jing Kong,  D. S. Lambrecht,  WanZhen Liang,  
 C. Ochsenfeld,  V. A. Rassolov,  L. V. Slipchenko,  J. E. Subotnik,  
 T. Van Voorhis,  J. M. Herbert,  A. I. Krylov,  P. M. W. Gill,  M. Head-Gordon

 Contributors to earlier versions of Q-Chem not listed above: 
 R. D. Adamson,  B. Austin,  J. Baker,  G. J. O. Beran,  K. Brandhorst,  
 S. T. Brown,  E. F. C. Byrd,  A. K. Chakraborty,  C.-L. Cheng,  
 Siu Hung Chien,  D. M. Chipman,  D. L. Crittenden,  H. Dachsel,  
 R. J. Doerksen,  A. D. Dutoi,  L. Fusti-Molnar,  W. A. Goddard III,  
 A. Golubeva-Zadorozhnaya,  S. R. Gwaltney,  G. Hawkins,  A. Heyden,  
 S. Hirata,  G. Kedziora,  F. J. Keil,  C. Kelley,  Jihan Kim,  R. A. King,  
 R. Z. Khaliullin,  P. P. Korambath,  W. Kurlancheek,  A. M. Lee,  M. S. Lee,  
 S. V. Levchenko,  Ching Yeh Lin,  D. Liotard,  R. C. Lochan,  I. Lotan,  
 P. E. Maslen,  N. Nair,  D. P. O'Neill,  D. Neuhauser,  E. Neuscamman,  
 C. M. Oana,  R. Olson,  B. Peters,  R. Peverati,  P. A. Pieniazek,  
 Y. M. Rhee,  J. Ritchie,  M. A. Rohrdanz,  E. Rosta,  N. J. Russ,  
 H. F. Schaefer III,  N. E. Schultz,  N. Shenvi,  A. C. Simmonett,  A. Sodt,  
 D. Stuck,  K. S. Thanthiriwatte,  V. Vanovschi,  Tao Wang,  A. Warshel,  
 C. F. Williams,  Q. Wu,  X. Xu,  W. Zhang

 Please cite Q-Chem as follows:
 Y. Shao et al., Mol. Phys. 113, 184-215 (2015)
 DOI: 10.1080/00268976.2014.952696

 Q-Chem 5.1.1 for Intel X86 EM64T Linux

 Parts of Q-Chem use Armadillo 8.300.2 (Tropical Shenanigans).
 http://arma.sourceforge.net/

 Q-Chem begins on Fri Aug  7 02:30:39 2020  

Host: n0078.mhg0
0

     Scratch files written to /local/scratch/users/yhljason/P_SPW92_aug-pc-4.inp20200807023014//
Input Ideriv = 2
Curr. Ideriv = -1
Max.  Ideriv = 2

Checking the input file for inconsistencies... 	...done.

--------------------------------------------------------------
User input:
--------------------------------------------------------------
$molecule
0 4
P
$end

$rem
jobtype sp
method SPW92
xc_grid 000099000590
basis aug-pc-4
max_scf_cycles 200
thresh 14
scf_convergence 8
scf_algorithm gdm
symmetry false
sym_ignore true
unrestricted true
gen_scfman true
internal_stability_iter 15
internal_stability_davidson_iter 200
mem_total 64000
mem_static 1500
n_frozen_core 0
$end


--------------------------------------------------------------
 ----------------------------------------------------------------
             Standard Nuclear Orientation (Angstroms)
    I     Atom           X                Y                Z
 ----------------------------------------------------------------
    1      P       0.0000000000     0.0000000000     0.0000000000
 ----------------------------------------------------------------
 Nuclear Repulsion Energy =     0.0000000000 hartrees
 There are        9 alpha and        6 beta electrons
 Requested basis set is aug-pc-4
 There are 31 shells and 141 basis functions

 Total QAlloc Memory Limit  64000 MB
 Mega-Array Size      1467 MB
 MEM_STATIC part      1500 MB
 A cutoff of  1.0D-14 yielded    496 shell pairs
 There are     10404 function pairs (     20742 Cartesian)
 
 -------------------------------------------------------
 OpenMP Integral Computing Module                       
 Release: version 1.0, May 2013, Q-Chem Inc. Pittsburgh 
 -------------------------------------------------------
 Integral Job Info:
 Integral job number is                      11
 Integral operator is                         1
 short-range coefficients                     0
 long-range coefficients              100000000
 Omega coefficients                           0
 if combine SR and LR in K                    0
 Integral screening is                        0
 Integral computing path is                   2
 max size of driver memory is           6400000
 size of driver memory is               5498286
 size of scratch memory is             27847117
 max col of scratch BK array             194481
 max len of scratch array in speh3         5572
 max len of scratch index in speh4           72
 max int batch size is                      520
 min int batch size is                       52
 fixed nKL is                                 7
 max L of basis functions is                  5
 order of int derivative is                   0
 number of shells is                         31
 number of basis is                         198
 number of cartesian basis is               198
 number of contracted shell pairs           496
 number of primitive shell pairs           4175
 maxK2 (contraction) of shell pair          225
 max number of K2 of shell pair               1
 max number of CS2 of shell pair             35
 max number of PS2 of shell pair            528
 mem total for path MDJ                  814052
 -------------------------------------------------------
 Smallest overlap matrix eigenvalue = 7.57E-04

 Scale SEOQF with 1.000000e-01/1.000000e-01/1.000000e-01

 Standard Electronic Orientation quadrupole field applied
 Guess from superposition of atomic densities
 Warning:  Energy on first SCF cycle will be non-variational
 SAD guess density has 15.000000 electrons

 -----------------------------------------------------------------------
  General SCF calculation program by
  Eric Jon Sundstrom, Paul Horn, Yuezhi Mao, Dmitri Zuev, Alec White,
  David Stuck, Shaama M.S., Shane Yost, Joonho Lee, David Small,
  Daniel Levine, Susi Lehtola, Hugh Burton, Evgeny Epifanovsky
 -----------------------------------------------------------------------
 Exchange:  Slater      Correlation:  PW92
 Using Euler-Maclaurin-Lebedev (99,590) quadrature formula
Running Object-Oriented UKS (UHF)
performing a single roothaan step with Fock from read density so that orbitals are available to all algorithms
energy of the guess density (C=0) -339.927494218339
We will preform up to 15 macro iterations over saddle points until a stable solution is found
Energy prior to optimization (guess energy) = -339.996478524275
Begin Timing: Total SCF Calculation
Begin Timing: SCF Single Stationary Point Calculation
begin iterations for algorithm: GDM          
the SCF tolerance is set to 1.00e-08
    1    -339.9964785243      1.94e-02     00000  Normal BFGS step
    2    -339.9975583587      1.06e-02     00000  Normal BFGS step
    3    -339.9980109329      1.05e-03     00000  Normal BFGS step
    4    -339.9980134587      1.04e-04     00000  Normal BFGS step
    5    -339.9980135279      1.06e-05     00000  Normal BFGS step
    6    -339.9980135290      1.39e-06     00000  Normal BFGS step
    7    -339.9980135290      5.06e-08     00000  Normal BFGS step
    8    -339.9980135290      3.71e-09     00000 Convergence criterion met
Timing for Single Stationary Point: 12.00s (wall), 78.99s (cpu)
Begin Timing: Stability
===================================================
Beginning Test for Internal Stability
===================================================
generating davidson guess vectors based on koopmans excitations
    1      5.28e-01     00000 Davidson Iteration
    2      3.28e-02     00000 Davidson Iteration
    3      6.58e-02     00000 Davidson Iteration
    4      1.67e-02     00000 Davidson Iteration
    5      8.43e-03     00000 Davidson Iteration
    6      1.09e-03     00000 Davidson Iteration
    7      4.03e-04     00000 Davidson Iteration
    8      2.30e-05     00000 Davidson Converged
converged_eigenvalues
   0.4344
   0.4344
Threshold for negative eigenvalues: -1.0e-05
solution was a local minimum (stable)
===================================================
End Test for Internal Stability
===================================================
Our SCF solution is stable!
Timing for Total SCF: 119.00s (wall), 747.34s (cpu)
 Total energy in the final basis set =     -339.9980135290
<S^2> =          3.750616775
    ==================================================
              The end of Object-Oriented SCFman       
    ==================================================
 
 --------------------------------------------------------------
 
                    Orbital Energies (a.u.)
 --------------------------------------------------------------
 
 Alpha MOs
 -- Occupied --
-76.025  -6.318  -4.566  -4.566  -4.566  -0.540  -0.231  -0.231
 -0.231
 -- Virtual --
 -0.009   0.018   0.018   0.018   0.062   0.062   0.062   0.062
  0.062   0.096   0.096   0.096   0.161   0.201   0.201   0.201
  0.201   0.201   0.201   0.201   0.217   0.217   0.217   0.217
  0.217   0.337   0.337   0.337   0.354   0.354   0.354   0.354
  0.354   0.354   0.354   0.354   0.354   0.536   0.536   0.536
  0.536   0.536   0.536   0.536   0.536   0.536   0.536   0.536
  0.673   0.673   0.673   0.673   0.673   0.690   0.880   0.880
  0.880   0.880   0.880   0.880   0.880   1.012   1.012   1.012
  1.853   1.853   1.853   1.853   1.853   2.144   2.144   2.144
  2.144   2.144   2.144   2.144   2.144   2.144   2.312   2.639
  2.639   2.639   2.639   2.639   2.639   2.639   2.990   2.990
  2.990   4.668   4.668   4.668   4.668   4.668   4.668   4.668
  4.668   4.668   4.668   4.668   5.172   5.172   5.172   5.172
  5.172   7.198   7.198   7.198   7.198   7.198   7.198   7.198
  7.198   7.198  10.149  10.149  10.149  10.149  10.149  10.149
 10.149  15.951  15.951  15.951  15.951  15.951  19.560  58.706
 58.706  58.706  58.706  58.706
 
 Beta MOs
 -- Occupied --
-76.013  -6.303  -4.548  -4.548  -4.548  -0.450
 -- Virtual --
 -0.152  -0.152  -0.152   0.005   0.023   0.023   0.023   0.084
  0.084   0.084   0.084   0.084   0.109   0.109   0.109   0.184
  0.213   0.213   0.213   0.213   0.213   0.213   0.213   0.267
  0.267   0.267   0.267   0.267   0.365   0.365   0.365   0.365
  0.365   0.365   0.365   0.365   0.365   0.367   0.367   0.367
  0.547   0.547   0.547   0.547   0.547   0.547   0.547   0.547
  0.547   0.547   0.547   0.734   0.734   0.734   0.734   0.734
  0.739   0.953   0.953   0.953   0.953   0.953   0.953   0.953
  1.068   1.068   1.068   1.917   1.917   1.917   1.917   1.917
  2.235   2.235   2.235   2.235   2.235   2.235   2.235   2.235
  2.235   2.375   2.732   2.732   2.732   2.732   2.732   2.732
  2.732   3.049   3.049   3.049   4.771   4.771   4.771   4.771
  4.771   4.771   4.771   4.771   4.771   4.771   4.771   5.221
  5.221   5.221   5.221   5.221   7.283   7.283   7.283   7.283
  7.283   7.283   7.283   7.283   7.283  10.176  10.176  10.176
 10.176  10.176  10.176  10.176  15.980  15.980  15.980  15.980
 15.980  19.603  58.732  58.732  58.732  58.732  58.732
 --------------------------------------------------------------
 
          Ground-State Mulliken Net Atomic Charges

     Atom                 Charge (a.u.)    Spin (a.u.)
  --------------------------------------------------------
      1 P                     0.000000       3.000000
  --------------------------------------------------------
  Sum of atomic charges =     0.000000
  Sum of spin   charges =     3.000000

 -----------------------------------------------------------------
                    Cartesian Multipole Moments
 -----------------------------------------------------------------
    Charge (ESU x 10^10)
                 0.0000
    Dipole Moment (Debye)
         X       0.0000      Y       0.0000      Z      -0.0000
       Tot       0.0000
    Quadrupole Moments (Debye-Ang)
        XX     -13.6442     XY       0.0000     YY     -13.6442
        XZ      -0.0000     YZ       0.0000     ZZ     -13.6442
    Octopole Moments (Debye-Ang^2)
       XXX      -0.0000    XXY       0.0000    XYY      -0.0000
       YYY       0.0000    XXZ      -0.0000    XYZ       0.0000
       YYZ      -0.0000    XZZ      -0.0000    YZZ       0.0000
       ZZZ      -0.0000
    Hexadecapole Moments (Debye-Ang^3)
      XXXX     -22.9431   XXXY       0.0000   XXYY      -7.6477
      XYYY       0.0000   YYYY     -22.9431   XXXZ      -0.0000
      XXYZ       0.0000   XYYZ      -0.0000   YYYZ       0.0000
      XXZZ      -7.6477   XYZZ      -0.0000   YYZZ      -7.6477
      XZZZ      -0.0000   YZZZ       0.0000   ZZZZ     -22.9431
 -----------------------------------------------------------------

 STANDARD THERMODYNAMIC QUANTITIES AT   298.15 K  AND     1.00 ATM

   Translational Enthalpy:        0.889 kcal/mol
   Rotational Enthalpy:           0.000 kcal/mol
   Vibrational Enthalpy:          0.000 kcal/mol
   gas constant (RT):             0.592 kcal/mol
   Translational Entropy:        36.224  cal/mol.K
   Rotational Entropy:            0.000  cal/mol.K
   Vibrational Entropy:           0.000  cal/mol.K

   Total Enthalpy:                1.481 kcal/mol
   Total Entropy:                36.224  cal/mol.K

 -----------------------------------------------------------------

Archival summary:
1\1\n0078.mhg0\SP\ProcedureUnspecified\BasisUnspecified\1(4)\yhljason\FriAug702:32:442020FriAug702:32:442020\0\\#,ProcedureUnspecified,BasisUnspecified,\\0,4\P\\\@

 Total job time:  124.77s(wall), 771.99s(cpu) 
 Fri Aug  7 02:32:44 2020

        *************************************************************
        *                                                           *
        *  Thank you very much for using Q-Chem.  Have a nice day.  *
        *                                                           *
        *************************************************************


