                  Welcome to Q-Chem
     A Quantum Leap Into The Future Of Chemistry


 Q-Chem 5.3 (devel), Q-Chem, Inc., Pleasanton, CA (2020)

 Yihan Shao,  Zhengting Gan,  E. Epifanovsky,  A. T. B. Gilbert,  M. Wormit,  
 J. Kussmann,  A. W. Lange,  A. Behn,  Jia Deng,  Xintian Feng,  D. Ghosh,  
 M. Goldey,  P. R. Horn,  L. D. Jacobson,  I. Kaliman,  T. Kus,  A. Landau,  
 Jie Liu,  E. I. Proynov,  R. M. Richard,  R. P. Steele,  E. J. Sundstrom,  
 H. L. Woodcock III,  P. M. Zimmerman,  D. Zuev,  B. Alam,  B. Albrecht,  
 E. Alguire,  S. A. Baeppler,  D. Barton,  Z. Benda,  Y. A. Bernard,  
 E. J. Berquist,  K. B. Bravaya,  H. Burton,  K. Carter-Fenk,  D. Casanova,  
 Chun-Min Chang,  Yunqing Chen,  A. Chien,  K. D. Closser,  M. P. Coons,  
 S. Coriani,  S. Dasgupta,  A. L. Dempwolff,  M. Diedenhofen,  Hainam Do,  
 R. G. Edgar,  Po-Tung Fang,  S. Faraji,  S. Fatehi,  Qingguo Feng,  
 J. Fosso-Tande,  J. Gayvert,  Qinghui Ge,  A. Ghysels,  G. Gidofalvi,  
 J. Gomes,  J. Gonthier,  A. Gunina,  D. Hait,  M. W. D. Hanson-Heine,  
 P. H. P. Harbach,  A. W. Hauser,  M. F. Herbst,  J. E. Herr,  
 E. G. Hohenstein,  Z. C. Holden,  Kerwin Hui,  B. C. Huynh,  T.-C. Jagau,  
 Hyunjun Ji,  B. Kaduk,  K. Khistyaev,  Jaehoon Kim,  P. Klunzinger,  K. Koh,  
 D. Kosenkov,  L. Koulias,  T. Kowalczyk,  C. M. Krauter,  A. Kunitsa,  
 Ka Un Lao,  A. Laurent,  K. V. Lawler,  Joonho Lee,  D. Lefrancois,  
 S. Lehtola,  D. S. Levine,  Yi-Pei Li,  You-Sheng Lin,  Fenglai Liu,  
 Kuan-Yu Liu,  E. Livshits,  M. Loipersberger,  A. Luenser,  P. Manohar,  
 E. Mansoor,  S. F. Manzer,  Shan-Ping Mao,  Yuezhi Mao,  N. Mardirossian,  
 A. V. Marenich,  T. Markovich,  L. A. Martinez-Martinez,  S. A. Maurer,  
 N. J. Mayhall,  S. C. McKenzie,  J.-M. Mewes,  P. Morgante,  A. F. Morrison,  
 J. W. Mullinax,  K. Nanda,  T. S. Nguyen-Beck,  R. Olivares-Amaya,  
 K. J. Oosterbaan,  J. A. Parkhill,  S. K. Paul,  F. Pavosevic,  Zheng Pei,  
 T. M. Perrine,  F. Plasser,  P. Pokhilko,  S. Prager,  A. Prociuk,  
 E. Ramos,  B. Rana,  D. R. Rehn,  F. Rob,  M. Scheurer,  M. Schneider,  
 N. Sergueev,  S. M. Sharada,  S. Sharma,  D. W. Small,  T. Stauch,  
 C. J. Stein,  T. Stein,  Yu-Chuan Su,  S. P. Veccham,  Zhen Tao,  
 A. J. W. Thom,  A. Tkatchenko,  T. Tsuchimochi,  N. M. Tubman,  L. Vogt,  
 M. L. Vidal,  O. Vydrov,  M. A. Watson,  J. Wenzel,  M. de Wergifosse,  
 T. A. Wesolowski,  A. White,  J. Witte,  A. Yamada,  Jun Yang,  K. Yao,  
 S. Yeganeh,  S. R. Yost,  Zhi-Qiang You,  A. Zech,  Igor Ying Zhang,  
 Xing Zhang,  Yan Zhao,  Ying Zhu,  B. R. Brooks,  G. K. L. Chan,  
 C. J. Cramer,  M. S. Gordon,  W. J. Hehre,  A. Klamt,  M. W. Schmidt,  
 C. D. Sherrill,  D. G. Truhlar,  A. Aspuru-Guzik,  R. Baer,  A. T. Bell,  
 N. A. Besley,  Jeng-Da Chai,  A. E. DePrince, III,  R. A. DiStasio Jr.,  
 A. Dreuw,  B. D. Dunietz,  T. R. Furlani,  Chao-Ping Hsu,  Yousung Jung,  
 Jing Kong,  D. S. Lambrecht,  WanZhen Liang,  C. Ochsenfeld,  
 V. A. Rassolov,  L. V. Slipchenko,  J. E. Subotnik,  T. Van Voorhis,  
 J. M. Herbert,  A. I. Krylov,  P. M. W. Gill,  M. Head-Gordon

 Contributors to earlier versions of Q-Chem not listed above: 
 R. D. Adamson,  B. Austin,  J. Baker,  G. J. O. Beran,  K. Brandhorst,  
 S. T. Brown,  E. F. C. Byrd,  A. K. Chakraborty,  C.-L. Cheng,  
 Siu Hung Chien,  D. M. Chipman,  D. L. Crittenden,  H. Dachsel,  
 R. J. Doerksen,  A. D. Dutoi,  L. Fusti-Molnar,  W. A. Goddard III,  
 A. Golubeva-Zadorozhnaya,  S. R. Gwaltney,  G. Hawkins,  A. Heyden,  
 S. Hirata,  G. Kedziora,  F. J. Keil,  C. Kelley,  Jihan Kim,  R. A. King,  
 R. Z. Khaliullin,  P. P. Korambath,  W. Kurlancheek,  A. M. Lee,  M. S. Lee,  
 S. V. Levchenko,  Ching Yeh Lin,  D. Liotard,  R. C. Lochan,  I. Lotan,  
 P. E. Maslen,  N. Nair,  D. P. O'Neill,  D. Neuhauser,  E. Neuscamman,  
 C. M. Oana,  R. Olson,  B. Peters,  R. Peverati,  P. A. Pieniazek,  
 Y. M. Rhee,  J. Ritchie,  M. A. Rohrdanz,  E. Rosta,  N. J. Russ,  
 H. F. Schaefer III,  N. E. Schultz,  N. Shenvi,  A. C. Simmonett,  A. Sodt,  
 D. Stuck,  K. S. Thanthiriwatte,  V. Vanovschi,  Tao Wang,  A. Warshel,  
 C. F. Williams,  Q. Wu,  X. Xu,  W. Zhang

 Please cite Q-Chem as follows:
 Y. Shao et al., Mol. Phys. 113, 184-215 (2015)
 DOI: 10.1080/00268976.2014.952696

 Q-Chem 5.3.0 for Intel X86 EM64T Linux

 Parts of Q-Chem use Armadillo 9.800.1 (Horizon Scraper).
 http://arma.sourceforge.net/

 Q-Chem begins on Mon Aug 10 11:35:56 2020  

n0093.mhg0
Host: 0

     Scratch files written to /local/scratch/users/yhljason/AlF_M08-HX_aug-pc-4.inp20200810113535//
Processing $rem in /clusterfs/mhg/diptarka/qchem_transmom//config/preferences:
Processing $rem in /global/home/users/yhljason/.qchemrc:

Checking the input file for inconsistencies... 	...done.

--------------------------------------------------------------
User input:
--------------------------------------------------------------
$molecule
0 1
Al1	0.0000	0.0000	0.0000
F2	0.0000	0.0000	1.6544
$end

$rem
jobtype sp
method M08-HX
xc_grid 000099000590
basis aug-pc-4
max_scf_cycles 200
thresh 14
scf_convergence 8
scf_algorithm gdm
symmetry false
sym_ignore true
unrestricted true
gen_scfman true
internal_stability_iter 15
internal_stability_davidson_iter 200
mem_total 64000
mem_static 1500
n_frozen_core 0
$end


--------------------------------------------------------------
 ----------------------------------------------------------------
             Standard Nuclear Orientation (Angstroms)
    I     Atom           X                Y                Z
 ----------------------------------------------------------------
    1      Al      0.0000000000     0.0000000000     0.0000000000
    2      F       0.0000000000     0.0000000000     1.6544000000
 ----------------------------------------------------------------
 Nuclear Repulsion Energy =          37.42367847 hartrees
 There are       11 alpha and       11 beta electrons
 Requested basis set is aug-pc-4
 There are 64 shells and 286 basis functions

 Total QAlloc Memory Limit  64000 MB
 Mega-Array Size      1467 MB
 MEM_STATIC part      1500 MB

                       Distance Matrix (Angstroms)
             Al(  1)
   F (  2)  1.654400

 A cutoff of  1.0D-14 yielded   2070 shell pairs
 There are     41738 function pairs (     82163 Cartesian)
 Smallest overlap matrix eigenvalue = 1.08E-05

 Scale SEOQF with 1.000000e-01/1.000000e-01/1.000000e-01

 Standard Electronic Orientation quadrupole field applied
 Nucleus-field energy     =    -0.0000000026 hartrees
 Guess from superposition of atomic densities
 Warning:  Energy on first SCF cycle will be non-variational
 SAD guess density has 22.000000 electrons

 -----------------------------------------------------------------------
  General SCF calculation program by
  Eric Jon Sundstrom, Paul Horn, Yuezhi Mao, Dmitri Zuev, Alec White,
  David Stuck, Shaama M.S., Shane Yost, Joonho Lee, David Small,
  Daniel Levine, Susi Lehtola, Hugh Burton, Evgeny Epifanovsky,
  Bang C. Huynh
 -----------------------------------------------------------------------
 Exchange:     0.5223 Hartree-Fock + 1.0000 M08-HX
 Correlation:  1.0000 M08-HX
 Using Euler-Maclaurin-Lebedev (99,590) quadrature formula
Running Object-Oriented UKS (UHF)
performing a single roothaan step with Fock from read density so that orbitals are available to all algorithms
energy of the guess density (C=0) -342.197867066518
We will preform up to 15 macro iterations over saddle points until a stable solution is found
Energy prior to optimization (guess energy) = -342.290745495956
Begin Timing: Total SCF Calculation
Begin Timing: SCF Single Stationary Point Calculation
begin iterations for algorithm: GDM          
the SCF tolerance is set to 1.00e-08
    1    -342.2907454960      7.75e-02     00000  Descent step
    2    -342.3249188067      5.02e-02     00000  Normal BFGS step
    3    -342.3478904528      4.74e-03     00000  Normal BFGS step
    4    -342.3482026509      1.21e-03     00000  Normal BFGS step
    5    -342.3482163178      2.41e-04     00000  Normal BFGS step
    6    -342.3482172204      7.20e-05     00000  Normal BFGS step
    7    -342.3482172774      8.63e-06     00000  Normal BFGS step
    8    -342.3482172790      1.71e-06     00000  Normal BFGS step
    9    -342.3482172790      2.63e-07     00000  Normal BFGS step
   10    -342.3482172790      4.37e-08     00000  Normal BFGS step
   11    -342.3482172790      1.49e-08     00000  Normal BFGS step
   12    -342.3482172790      4.37e-09     00000 Convergence criterion met
Timing for Single Stationary Point: 570.00s (wall), 4463.11s (cpu)
Begin Timing: Stability
===================================================
Beginning Test for Internal Stability
===================================================
generating davidson guess vectors based on koopmans excitations
 Warning: Hessian-vector products not implemented
 Finite difference Hessian-vector products will be used.
computing hessian-vector products by finite difference
    1      6.74e-01     00000 Davidson Iteration
computing hessian-vector products by finite difference
    2      3.16e-01     00000 Davidson Iteration
computing hessian-vector products by finite difference
    3      1.76e-01     00000 Davidson Iteration
computing hessian-vector products by finite difference
    4      2.63e-02     00000 Davidson Iteration
computing hessian-vector products by finite difference
    5      1.42e-02     00000 Davidson Iteration
computing hessian-vector products by finite difference
    6      1.95e-03     00000 Davidson Iteration
computing hessian-vector products by finite difference
    7      4.89e-04     00000 Davidson Iteration
computing hessian-vector products by finite difference
    8      9.52e-05     00000 Davidson Iteration
computing hessian-vector products by finite difference
    9      7.95e-05     00000 Davidson Converged
converged_eigenvalues
   0.2071
   0.2071
Threshold for negative eigenvalues: -1.0e-05
solution was a local minimum (stable)
===================================================
End Test for Internal Stability
===================================================
Timing for Internal Stability: 2124.00s (wall), 16631.58s (cpu)
Our SCF solution is stable!
Timing for Total SCF: 2695.00s (wall), 21094.75s (cpu)
 Total energy in the final basis set =     -342.3482172790
<S^2> =          0.000000000
    ==================================================
              The end of Object-Oriented SCFman       
    ==================================================

 --------------------------------------------------------------

                    Orbital Energies (a.u.)
 --------------------------------------------------------------

 Alpha MOs
 -- Occupied --
-56.8329 -25.1782  -4.3649  -2.8872  -2.8872  -2.8856  -1.2630  -0.5473
 -0.4974  -0.4974  -0.2968
 -- Virtual --
 -0.0421  -0.0421  -0.0174  -0.0132   0.0108   0.0108   0.0230   0.0240
  0.0240   0.0286   0.0286   0.0309   0.0502   0.0502   0.0564   0.0830
  0.0844   0.0844   0.0853   0.0853   0.0857   0.0857   0.0937   0.1124
  0.1124   0.1266   0.1499   0.1529   0.1529   0.1595   0.1595   0.1603
  0.1603   0.1617   0.1617   0.1876   0.1876   0.1959   0.2054   0.2054
  0.2397   0.2456   0.2456   0.2501   0.2501   0.2525   0.2525   0.2533
  0.2533   0.2544   0.2544   0.2600   0.2948   0.2948   0.3021   0.3074
  0.3074   0.3157   0.3157   0.3617   0.4152   0.4152   0.4202   0.4606
  0.4917   0.4917   0.5121   0.5121   0.5824   0.5824   0.6605   0.6634
  0.6635   0.6923   0.6923   0.6968   0.6968   0.7060   0.7319   0.7319
  0.7811   0.7811   0.7938   0.7938   0.8024   0.8514   0.8514   0.8602
  0.8713   0.8713   0.8776   0.8776   0.8938   0.9182   0.9182   0.9646
  1.0471   1.0471   1.0826   1.0826   1.1070   1.1070   1.1184   1.1184
  1.1244   1.2160   1.2160   1.2395   1.2395   1.2622   1.2622   1.2827
  1.3749   1.4082   1.4082   1.5936   1.7288   1.7290   1.7941   1.7941
  1.8263   1.8263   1.8767   1.8768   1.9006   1.9006   2.0496   2.0751
  2.0751   2.0813   2.0813   2.1016   2.1824   2.1825   2.2184   2.2371
  2.2371   2.3163   2.3163   2.3349   2.3349   2.3389   2.4165   2.4165
  2.4682   2.4682   2.4948   2.7934   2.7934   2.8386   2.8386   3.0211
  3.5105   3.5105   3.5248   3.6345   3.6970   3.6970   3.7250   3.7251
  3.8124   3.8124   4.2526   4.2526   4.3517   4.6644   4.6644   4.9861
  4.9861   5.1807   5.1807   5.3882   5.4334   5.4335   5.5586   5.5796
  5.5796   5.5871   5.5871   5.6334   5.6334   5.6582   5.6764   5.6764
  5.6913   5.6913   5.8650   5.9958   5.9958   6.2866   6.2866   6.4867
  6.4867   6.7254   6.9196   6.9196   7.2631   7.3265   7.3266   7.4376
  7.4376   7.6546   7.6547   7.7245   7.7245   7.8576   7.8921   7.8921
  8.1131   8.1131   8.9008   9.1785   9.1785  12.1905  12.1907  12.4046
 12.4739  12.4739  12.8075  12.8078  12.8237  12.8237  12.8354  12.8354
 12.8359  12.8965  12.8965  13.0387  13.0387  14.0647  14.4131  14.4131
 14.6604  14.6604  14.7977  14.8343  14.8343  14.9280  14.9280  15.1050
 15.1051  15.2681  15.4023  15.4023  15.5977  16.3635  19.8797  19.8799
 19.9230  19.9230  20.1744  20.1746  20.6094  20.6094  20.8073  30.4357
 30.4357  30.7025  30.7025  31.0947  41.8609  41.8609  42.1529  42.9754
 51.7958  51.7958  51.9257  51.9257  52.1429  91.7925  91.7925  91.9830
 91.9830  92.2407 200.8970

 Beta MOs
 -- Occupied --
-56.8329 -25.1782  -4.3649  -2.8872  -2.8872  -2.8856  -1.2630  -0.5473
 -0.4974  -0.4974  -0.2968
 -- Virtual --
 -0.0421  -0.0421  -0.0174  -0.0132   0.0108   0.0108   0.0230   0.0240
  0.0240   0.0286   0.0286   0.0309   0.0502   0.0502   0.0564   0.0830
  0.0844   0.0844   0.0853   0.0853   0.0857   0.0857   0.0937   0.1124
  0.1124   0.1266   0.1499   0.1529   0.1529   0.1595   0.1595   0.1603
  0.1603   0.1617   0.1617   0.1876   0.1876   0.1959   0.2054   0.2054
  0.2397   0.2456   0.2456   0.2501   0.2501   0.2525   0.2525   0.2533
  0.2533   0.2544   0.2544   0.2600   0.2948   0.2948   0.3021   0.3074
  0.3074   0.3157   0.3157   0.3617   0.4152   0.4152   0.4202   0.4606
  0.4917   0.4917   0.5121   0.5121   0.5824   0.5824   0.6605   0.6634
  0.6635   0.6923   0.6923   0.6968   0.6968   0.7060   0.7319   0.7319
  0.7811   0.7811   0.7938   0.7938   0.8024   0.8514   0.8514   0.8602
  0.8713   0.8713   0.8776   0.8776   0.8938   0.9182   0.9182   0.9646
  1.0471   1.0471   1.0826   1.0826   1.1070   1.1070   1.1184   1.1184
  1.1244   1.2160   1.2160   1.2395   1.2395   1.2622   1.2622   1.2827
  1.3749   1.4082   1.4082   1.5936   1.7288   1.7290   1.7941   1.7941
  1.8263   1.8263   1.8767   1.8768   1.9006   1.9006   2.0496   2.0751
  2.0751   2.0813   2.0813   2.1016   2.1824   2.1825   2.2184   2.2371
  2.2371   2.3163   2.3163   2.3349   2.3349   2.3389   2.4165   2.4165
  2.4682   2.4682   2.4948   2.7934   2.7934   2.8386   2.8386   3.0211
  3.5105   3.5105   3.5248   3.6345   3.6970   3.6970   3.7250   3.7251
  3.8124   3.8124   4.2526   4.2526   4.3517   4.6644   4.6644   4.9861
  4.9861   5.1807   5.1807   5.3882   5.4334   5.4335   5.5586   5.5796
  5.5796   5.5871   5.5871   5.6334   5.6334   5.6582   5.6764   5.6764
  5.6913   5.6913   5.8650   5.9958   5.9958   6.2866   6.2866   6.4867
  6.4867   6.7254   6.9196   6.9196   7.2631   7.3265   7.3266   7.4376
  7.4376   7.6546   7.6547   7.7245   7.7245   7.8576   7.8921   7.8921
  8.1131   8.1131   8.9008   9.1785   9.1785  12.1905  12.1907  12.4046
 12.4739  12.4739  12.8075  12.8078  12.8237  12.8237  12.8354  12.8354
 12.8359  12.8965  12.8965  13.0387  13.0387  14.0647  14.4131  14.4131
 14.6604  14.6604  14.7977  14.8343  14.8343  14.9280  14.9280  15.1050
 15.1051  15.2681  15.4023  15.4023  15.5977  16.3635  19.8797  19.8799
 19.9230  19.9230  20.1744  20.1746  20.6094  20.6094  20.8073  30.4357
 30.4357  30.7025  30.7025  31.0947  41.8609  41.8609  42.1529  42.9754
 51.7958  51.7958  51.9257  51.9257  52.1429  91.7925  91.7925  91.9830
 91.9830  92.2407 200.8970
 --------------------------------------------------------------

          Ground-State Mulliken Net Atomic Charges

     Atom                 Charge (a.u.)    Spin (a.u.)
  --------------------------------------------------------
      1 Al                    0.386472       0.000000
      2 F                    -0.386472      -0.000000
  --------------------------------------------------------
  Sum of atomic charges =    -0.000000
  Sum of spin   charges =    -0.000000

 -----------------------------------------------------------------
                    Cartesian Multipole Moments
 -----------------------------------------------------------------
    Charge (ESU x 10^10)
                -0.0000
    Dipole Moment (Debye)
         X       0.0000      Y       0.0000      Z      -1.4382
       Tot       1.4382
    Quadrupole Moments (Debye-Ang)
        XX     -15.8054     XY      -0.0000     YY     -15.8054
        XZ      -0.0000     YZ      -0.0000     ZZ     -23.1220
    Octopole Moments (Debye-Ang^2)
       XXX       0.0000    XXY       0.0000    XYY       0.0000
       YYY       0.0000    XXZ      -6.9311    XYZ      -0.0000
       YYZ      -6.9311    XZZ      -0.0000    YZZ       0.0000
       ZZZ     -31.0538
    Hexadecapole Moments (Debye-Ang^3)
      XXXX     -25.3053   XXXY      -0.0000   XXYY      -8.4351
      XYYY      -0.0000   YYYY     -25.3053   XXXZ      -0.0000
      XXYZ       0.0000   XYYZ      -0.0000   YYYZ       0.0000
      XXZZ     -24.0190   XYZZ      -0.0000   YYZZ     -24.0190
      XZZZ       0.0000   YZZZ      -0.0000   ZZZZ    -132.2318
 -----------------------------------------------------------------
Archival summary:
1\1\n0093.mhg0\SP\ProcedureUnspecified\BasisUnspecified\l11\yhljason\MonAug1012:22:302020MonAug1012:22:302020\0\\#,ProcedureUnspecified,BasisUnspecified,\\0,1\Al\F,1,1.6544\\\@

 Total job time:  2793.23s(wall), 21854.58s(cpu) 
 Mon Aug 10 12:22:30 2020

        *************************************************************
        *                                                           *
        *  Thank you very much for using Q-Chem.  Have a nice day.  *
        *                                                           *
        *************************************************************


