                  Welcome to Q-Chem
     A Quantum Leap Into The Future Of Chemistry


 Q-Chem 5.3 (devel), Q-Chem, Inc., Pleasanton, CA (2020)

 Yihan Shao,  Zhengting Gan,  E. Epifanovsky,  A. T. B. Gilbert,  M. Wormit,  
 J. Kussmann,  A. W. Lange,  A. Behn,  Jia Deng,  Xintian Feng,  D. Ghosh,  
 M. Goldey,  P. R. Horn,  L. D. Jacobson,  I. Kaliman,  T. Kus,  A. Landau,  
 Jie Liu,  E. I. Proynov,  R. M. Richard,  R. P. Steele,  E. J. Sundstrom,  
 H. L. Woodcock III,  P. M. Zimmerman,  D. Zuev,  B. Alam,  B. Albrecht,  
 E. Alguire,  S. A. Baeppler,  D. Barton,  Z. Benda,  Y. A. Bernard,  
 E. J. Berquist,  K. B. Bravaya,  H. Burton,  K. Carter-Fenk,  D. Casanova,  
 Chun-Min Chang,  Yunqing Chen,  A. Chien,  K. D. Closser,  M. P. Coons,  
 S. Coriani,  S. Dasgupta,  A. L. Dempwolff,  M. Diedenhofen,  Hainam Do,  
 R. G. Edgar,  Po-Tung Fang,  S. Faraji,  S. Fatehi,  Qingguo Feng,  
 J. Fosso-Tande,  J. Gayvert,  Qinghui Ge,  A. Ghysels,  G. Gidofalvi,  
 J. Gomes,  J. Gonthier,  A. Gunina,  D. Hait,  M. W. D. Hanson-Heine,  
 P. H. P. Harbach,  A. W. Hauser,  M. F. Herbst,  J. E. Herr,  
 E. G. Hohenstein,  Z. C. Holden,  Kerwin Hui,  B. C. Huynh,  T.-C. Jagau,  
 Hyunjun Ji,  B. Kaduk,  K. Khistyaev,  Jaehoon Kim,  P. Klunzinger,  K. Koh,  
 D. Kosenkov,  L. Koulias,  T. Kowalczyk,  C. M. Krauter,  A. Kunitsa,  
 Ka Un Lao,  A. Laurent,  K. V. Lawler,  Joonho Lee,  D. Lefrancois,  
 S. Lehtola,  D. S. Levine,  Yi-Pei Li,  You-Sheng Lin,  Fenglai Liu,  
 Kuan-Yu Liu,  E. Livshits,  M. Loipersberger,  A. Luenser,  P. Manohar,  
 E. Mansoor,  S. F. Manzer,  Shan-Ping Mao,  Yuezhi Mao,  N. Mardirossian,  
 A. V. Marenich,  T. Markovich,  L. A. Martinez-Martinez,  S. A. Maurer,  
 N. J. Mayhall,  S. C. McKenzie,  J.-M. Mewes,  P. Morgante,  A. F. Morrison,  
 J. W. Mullinax,  K. Nanda,  T. S. Nguyen-Beck,  R. Olivares-Amaya,  
 K. J. Oosterbaan,  J. A. Parkhill,  S. K. Paul,  F. Pavosevic,  Zheng Pei,  
 T. M. Perrine,  F. Plasser,  P. Pokhilko,  S. Prager,  A. Prociuk,  
 E. Ramos,  B. Rana,  D. R. Rehn,  F. Rob,  M. Scheurer,  M. Schneider,  
 N. Sergueev,  S. M. Sharada,  S. Sharma,  D. W. Small,  T. Stauch,  
 C. J. Stein,  T. Stein,  Yu-Chuan Su,  S. P. Veccham,  Zhen Tao,  
 A. J. W. Thom,  A. Tkatchenko,  T. Tsuchimochi,  N. M. Tubman,  L. Vogt,  
 M. L. Vidal,  O. Vydrov,  M. A. Watson,  J. Wenzel,  M. de Wergifosse,  
 T. A. Wesolowski,  A. White,  J. Witte,  A. Yamada,  Jun Yang,  K. Yao,  
 S. Yeganeh,  S. R. Yost,  Zhi-Qiang You,  A. Zech,  Igor Ying Zhang,  
 Xing Zhang,  Yan Zhao,  Ying Zhu,  B. R. Brooks,  G. K. L. Chan,  
 C. J. Cramer,  M. S. Gordon,  W. J. Hehre,  A. Klamt,  M. W. Schmidt,  
 C. D. Sherrill,  D. G. Truhlar,  A. Aspuru-Guzik,  R. Baer,  A. T. Bell,  
 N. A. Besley,  Jeng-Da Chai,  A. E. DePrince, III,  R. A. DiStasio Jr.,  
 A. Dreuw,  B. D. Dunietz,  T. R. Furlani,  Chao-Ping Hsu,  Yousung Jung,  
 Jing Kong,  D. S. Lambrecht,  WanZhen Liang,  C. Ochsenfeld,  
 V. A. Rassolov,  L. V. Slipchenko,  J. E. Subotnik,  T. Van Voorhis,  
 J. M. Herbert,  A. I. Krylov,  P. M. W. Gill,  M. Head-Gordon

 Contributors to earlier versions of Q-Chem not listed above: 
 R. D. Adamson,  B. Austin,  J. Baker,  G. J. O. Beran,  K. Brandhorst,  
 S. T. Brown,  E. F. C. Byrd,  A. K. Chakraborty,  C.-L. Cheng,  
 Siu Hung Chien,  D. M. Chipman,  D. L. Crittenden,  H. Dachsel,  
 R. J. Doerksen,  A. D. Dutoi,  L. Fusti-Molnar,  W. A. Goddard III,  
 A. Golubeva-Zadorozhnaya,  S. R. Gwaltney,  G. Hawkins,  A. Heyden,  
 S. Hirata,  G. Kedziora,  F. J. Keil,  C. Kelley,  Jihan Kim,  R. A. King,  
 R. Z. Khaliullin,  P. P. Korambath,  W. Kurlancheek,  A. M. Lee,  M. S. Lee,  
 S. V. Levchenko,  Ching Yeh Lin,  D. Liotard,  R. C. Lochan,  I. Lotan,  
 P. E. Maslen,  N. Nair,  D. P. O'Neill,  D. Neuhauser,  E. Neuscamman,  
 C. M. Oana,  R. Olson,  B. Peters,  R. Peverati,  P. A. Pieniazek,  
 Y. M. Rhee,  J. Ritchie,  M. A. Rohrdanz,  E. Rosta,  N. J. Russ,  
 H. F. Schaefer III,  N. E. Schultz,  N. Shenvi,  A. C. Simmonett,  A. Sodt,  
 D. Stuck,  K. S. Thanthiriwatte,  V. Vanovschi,  Tao Wang,  A. Warshel,  
 C. F. Williams,  Q. Wu,  X. Xu,  W. Zhang

 Please cite Q-Chem as follows:
 Y. Shao et al., Mol. Phys. 113, 184-215 (2015)
 DOI: 10.1080/00268976.2014.952696

 Q-Chem 5.3.0 for Intel X86 EM64T Linux

 Parts of Q-Chem use Armadillo 9.800.1 (Horizon Scraper).
 http://arma.sourceforge.net/

 Q-Chem begins on Mon Aug 10 13:03:14 2020  

n0072.mhg0
Host: 0

     Scratch files written to /local/scratch/users/yhljason/BeH2_PBE_aug-pc-4.inp20200810113543//
Processing $rem in /clusterfs/mhg/diptarka/qchem_transmom//config/preferences:
Processing $rem in /global/home/users/yhljason/.qchemrc:

Checking the input file for inconsistencies... 	...done.

--------------------------------------------------------------
User input:
--------------------------------------------------------------
$molecule
0 1
Be1	0.0000	0.0000	0.0000
H2	0.0000	0.0000	1.3264
H3	0.0000	0.0000	-1.3264
$end

$rem
jobtype sp
method PBE
xc_grid 000099000590
basis aug-pc-4
max_scf_cycles 200
thresh 14
scf_convergence 8
scf_algorithm gdm
symmetry false
sym_ignore true
unrestricted true
gen_scfman true
internal_stability_iter 15
internal_stability_davidson_iter 200
mem_total 64000
mem_static 1500
n_frozen_core 0
$end


--------------------------------------------------------------
 ----------------------------------------------------------------
             Standard Nuclear Orientation (Angstroms)
    I     Atom           X                Y                Z
 ----------------------------------------------------------------
    1      Be      0.0000000000     0.0000000000     0.0000000000
    2      H       0.0000000000     0.0000000000     1.3264000000
    3      H       0.0000000000     0.0000000000    -1.3264000000
 ----------------------------------------------------------------
 Nuclear Repulsion Energy =           3.39113864 hartrees
 There are        3 alpha and        3 beta electrons
 Requested basis set is aug-pc-4
 There are 71 shells and 259 basis functions

 Total QAlloc Memory Limit  64000 MB
 Mega-Array Size      1467 MB
 MEM_STATIC part      1500 MB

                       Distance Matrix (Angstroms)
             Be(  1)   H (  2)
   H (  2)  1.326400
   H (  3)  1.326400  2.652800

 A cutoff of  1.0D-14 yielded   2511 shell pairs
 There are     33739 function pairs (     56402 Cartesian)
 Smallest overlap matrix eigenvalue = 2.66E-07
 Linear dependence detected in AO basis
 Tighter screening thresholds may be required for diffuse basis sets
 Use S2THRESH > 14 and THRESH = 14 in case of SCF convergence issues
 Number of orthogonalized atomic orbitals = 258
 Maximum deviation from orthogonality = 1.841E-11

 Scale SEOQF with 1.000000e-01/1.000000e-01/1.000000e-01

 Standard Electronic Orientation quadrupole field applied
 Nucleus-field energy     =    -0.0000000004 hartrees
 Guess from superposition of atomic densities
 Warning:  Energy on first SCF cycle will be non-variational
 SAD guess density has 6.000000 electrons

 -----------------------------------------------------------------------
  General SCF calculation program by
  Eric Jon Sundstrom, Paul Horn, Yuezhi Mao, Dmitri Zuev, Alec White,
  David Stuck, Shaama M.S., Shane Yost, Joonho Lee, David Small,
  Daniel Levine, Susi Lehtola, Hugh Burton, Evgeny Epifanovsky,
  Bang C. Huynh
 -----------------------------------------------------------------------
 Exchange:  PBE      Correlation:  PBE
 Using Euler-Maclaurin-Lebedev (99,590) quadrature formula
Running Object-Oriented UKS (UHF)
performing a single roothaan step with Fock from read density so that orbitals are available to all algorithms
 using 8 threads for integral computing
 -------------------------------------------------------
 OpenMP Integral computing Module                
 Release: version 1.0, May 2013, Q-Chem Inc. Pittsburgh 
 -------------------------------------------------------
energy of the guess density (C=0) -15.719235850174
 using 8 threads for integral computing
 -------------------------------------------------------
 OpenMP Integral computing Module                
 Release: version 1.0, May 2013, Q-Chem Inc. Pittsburgh 
 -------------------------------------------------------
We will preform up to 15 macro iterations over saddle points until a stable solution is found
Energy prior to optimization (guess energy) = -15.848851702420
Begin Timing: Total SCF Calculation
Begin Timing: SCF Single Stationary Point Calculation
begin iterations for algorithm: GDM          
the SCF tolerance is set to 1.00e-08
    1     -15.8488517024      5.17e-02     00000  Normal BFGS step
    2     -15.8617372129      2.58e-02     00000  Normal BFGS step
    3     -15.8656570108      8.55e-04     00000  Normal BFGS step
    4     -15.8656614681      3.81e-05     00000  Normal BFGS step
    5     -15.8656614766      1.66e-05     00000  Normal BFGS step
    6     -15.8656614781      1.77e-06     00000  Normal BFGS step
    7     -15.8656614781      1.39e-07     00000  Normal BFGS step
    8     -15.8656614781      4.96e-09     00000 Convergence criterion met
Timing for Single Stationary Point: 52.00s (wall), 387.17s (cpu)
Begin Timing: Stability
===================================================
Beginning Test for Internal Stability
===================================================
generating davidson guess vectors based on koopmans excitations
    1      3.45e-01     00000 Davidson Iteration
    2      7.48e-02     00000 Davidson Iteration
    3      3.51e-03     00000 Davidson Iteration
    4      1.60e-03     00000 Davidson Iteration
    5      2.73e-04     00000 Davidson Iteration
    6      8.84e-05     00000 Davidson Iteration
    7      3.84e-04     00000 Davidson Iteration
    8      8.50e-05     00000 Davidson Converged
converged_eigenvalues
   0.3461
   0.4451
Threshold for negative eigenvalues: -1.0e-05
solution was a local minimum (stable)
===================================================
End Test for Internal Stability
===================================================
Timing for Internal Stability: 301.00s (wall), 2361.90s (cpu)
Our SCF solution is stable!
Timing for Total SCF: 353.00s (wall), 2749.11s (cpu)
 Total energy in the final basis set =      -15.8656614781
<S^2> =          0.000000000
    ==================================================
              The end of Object-Oriented SCFman       
    ==================================================

 --------------------------------------------------------------

                    Orbital Energies (a.u.)
 --------------------------------------------------------------

 Alpha MOs
 -- Occupied --
 -3.8474  -0.3093  -0.2753
 -- Virtual --
 -0.0599  -0.0599  -0.0000   0.0131   0.0254   0.0254   0.0271   0.0372
  0.0494   0.0626   0.0626   0.0703   0.0742   0.0742   0.1042   0.1042
  0.1167   0.1281   0.1370   0.1554   0.1554   0.1603   0.1603   0.1679
  0.1679   0.1728   0.1737   0.1737   0.1750   0.1750   0.1815   0.2098
  0.2098   0.2567   0.2617   0.2617   0.2657   0.2657   0.2947   0.2947
  0.2977   0.2977   0.3083   0.3089   0.3320   0.3382   0.3382   0.3512
  0.3564   0.3564   0.3638   0.3638   0.3792   0.3792   0.3892   0.4292
  0.4292   0.4543   0.4543   0.4632   0.4632   0.4632   0.4653   0.4653
  0.4771   0.5056   0.5056   0.5355   0.5355   0.5489   0.5489   0.5516
  0.5516   0.5520   0.5520   0.5986   0.5986   0.6286   0.6361   0.6361
  0.6371   0.6710   0.6710   0.6884   0.7194   0.7194   0.7245   0.7360
  0.7360   0.7679   0.7737   0.7824   0.7824   0.7989   0.7989   0.8389
  0.8389   0.8533   0.8672   0.8672   0.9039   0.9944   0.9944   1.1058
  1.1058   1.1454   1.1454   1.1857   1.2484   1.2484   1.3765   1.3765
  1.4013   1.4013   1.4096   1.4831   1.4831   1.4891   1.5355   1.5489
  1.5572   1.6955   1.6955   1.7546   1.7546   1.7977   2.0106   2.0234
  2.0234   2.1367   2.1367   2.3203   2.3573   2.3573   2.8271   2.8271
  2.8443   2.8443   2.8462   2.8837   2.8837   2.9146   3.3175   3.3175
  3.4348   3.4348   3.4617   3.4617   3.4924   3.4924   3.5556   3.5556
  3.5604   3.5745   3.5745   3.5972   3.5972   3.6087   3.6245   3.6633
  3.6633   3.8019   3.8047   3.8047   3.9801   4.1952   4.1952   4.2267
  4.2457   4.2457   4.3437   4.3437   4.6414   4.8285   4.8285   5.0205
  5.3706   5.3706   5.5151   5.5677   5.5677   5.6309   5.6309   5.6863
  6.2143   8.4840   8.4840   8.4854   8.4854   8.7602   8.7602   8.7639
  8.7639   9.0549   9.0977   9.0977   9.3050   9.3050   9.3768   9.5595
  9.7294   9.8278   9.8278  10.8609  10.8609  11.2470  11.3192  12.2974
 12.2974  12.3212  12.3212  12.3537  12.4863  12.4863  12.6349  12.6349
 12.9319  12.9319  12.9805  12.9805  13.2747  14.2256  16.7768  16.7768
 16.7895  16.7895  16.7906  16.7906  16.8174  16.8174  16.8594  16.8594
 16.9458  17.1522  17.1522  17.2211  17.2211  17.5678  17.9628  17.9628
 20.6435  23.3966  23.3966  23.4073  23.4073  24.1469  24.6350  39.4857
 39.7601  91.0098  91.0098  91.0292  91.0292  91.5690  91.8140

 Beta MOs
 -- Occupied --
 -3.8474  -0.3093  -0.2753
 -- Virtual --
 -0.0599  -0.0599  -0.0000   0.0131   0.0254   0.0254   0.0271   0.0372
  0.0494   0.0626   0.0626   0.0703   0.0742   0.0742   0.1042   0.1042
  0.1167   0.1281   0.1370   0.1554   0.1554   0.1603   0.1603   0.1679
  0.1679   0.1728   0.1737   0.1737   0.1750   0.1750   0.1815   0.2098
  0.2098   0.2567   0.2617   0.2617   0.2657   0.2657   0.2947   0.2947
  0.2977   0.2977   0.3083   0.3089   0.3320   0.3382   0.3382   0.3512
  0.3564   0.3564   0.3638   0.3638   0.3792   0.3792   0.3892   0.4292
  0.4292   0.4543   0.4543   0.4632   0.4632   0.4632   0.4653   0.4653
  0.4771   0.5056   0.5056   0.5355   0.5355   0.5489   0.5489   0.5516
  0.5516   0.5520   0.5520   0.5986   0.5986   0.6286   0.6361   0.6361
  0.6371   0.6710   0.6710   0.6884   0.7194   0.7194   0.7245   0.7360
  0.7360   0.7679   0.7737   0.7824   0.7824   0.7989   0.7989   0.8389
  0.8389   0.8533   0.8672   0.8672   0.9039   0.9944   0.9944   1.1058
  1.1058   1.1454   1.1454   1.1857   1.2484   1.2484   1.3765   1.3765
  1.4013   1.4013   1.4096   1.4831   1.4831   1.4891   1.5355   1.5489
  1.5572   1.6955   1.6955   1.7546   1.7546   1.7977   2.0106   2.0234
  2.0234   2.1367   2.1367   2.3203   2.3573   2.3573   2.8271   2.8271
  2.8443   2.8443   2.8462   2.8837   2.8837   2.9146   3.3175   3.3175
  3.4348   3.4348   3.4617   3.4617   3.4924   3.4924   3.5556   3.5556
  3.5604   3.5745   3.5745   3.5972   3.5972   3.6087   3.6245   3.6633
  3.6633   3.8019   3.8047   3.8047   3.9801   4.1952   4.1952   4.2267
  4.2457   4.2457   4.3437   4.3437   4.6414   4.8285   4.8285   5.0205
  5.3706   5.3706   5.5151   5.5677   5.5677   5.6309   5.6309   5.6863
  6.2143   8.4840   8.4840   8.4854   8.4854   8.7602   8.7602   8.7639
  8.7639   9.0549   9.0977   9.0977   9.3050   9.3050   9.3768   9.5595
  9.7294   9.8278   9.8278  10.8609  10.8609  11.2470  11.3192  12.2974
 12.2974  12.3212  12.3212  12.3537  12.4863  12.4863  12.6349  12.6349
 12.9319  12.9319  12.9805  12.9805  13.2747  14.2256  16.7768  16.7768
 16.7895  16.7895  16.7906  16.7906  16.8174  16.8174  16.8594  16.8594
 16.9458  17.1522  17.1522  17.2211  17.2211  17.5678  17.9628  17.9628
 20.6435  23.3966  23.3966  23.4073  23.4073  24.1469  24.6350  39.4857
 39.7601  91.0098  91.0098  91.0292  91.0292  91.5690  91.8140
 --------------------------------------------------------------

          Ground-State Mulliken Net Atomic Charges

     Atom                 Charge (a.u.)    Spin (a.u.)
  --------------------------------------------------------
      1 Be                    0.503383       0.000000
      2 H                    -0.251692      -0.000000
      3 H                    -0.251692      -0.000000
  --------------------------------------------------------
  Sum of atomic charges =     0.000000
  Sum of spin   charges =     0.000000

 -----------------------------------------------------------------
                    Cartesian Multipole Moments
 -----------------------------------------------------------------
    Charge (ESU x 10^10)
                 0.0000
    Dipole Moment (Debye)
         X      -0.0000      Y       0.0000      Z       0.0000
       Tot       0.0000
    Quadrupole Moments (Debye-Ang)
        XX      -6.7713     XY      -0.0000     YY      -6.7713
        XZ      -0.0000     YZ      -0.0000     ZZ     -11.7640
    Octopole Moments (Debye-Ang^2)
       XXX       0.0000    XXY      -0.0000    XYY       0.0000
       YYY       0.0000    XXZ       0.0000    XYZ      -0.0000
       YYZ       0.0000    XZZ      -0.0000    YZZ       0.0000
       ZZZ      -0.0000
    Hexadecapole Moments (Debye-Ang^3)
      XXXX      -9.9839   XXXY       0.0000   XXYY      -3.3280
      XYYY      -0.0000   YYYY      -9.9839   XXXZ       0.0000
      XXYZ       0.0000   XYYZ       0.0000   YYYZ       0.0000
      XXZZ      -9.9678   XYZZ       0.0000   YYZZ      -9.9678
      XZZZ       0.0000   YZZZ       0.0000   ZZZZ     -49.0813
 -----------------------------------------------------------------
Archival summary:
1\1\n0072.mhg0\SP\ProcedureUnspecified\BasisUnspecified\e12\yhljason\MonAug1013:09:202020MonAug1013:09:202020\0\\#,ProcedureUnspecified,BasisUnspecified,\\0,1\Be\H,1,1.3264\H,1,1.3264,2,180\\\@

 Total job time:  366.50s(wall), 2827.81s(cpu) 
 Mon Aug 10 13:09:20 2020

        *************************************************************
        *                                                           *
        *  Thank you very much for using Q-Chem.  Have a nice day.  *
        *                                                           *
        *************************************************************


