                  Welcome to Q-Chem
     A Quantum Leap Into The Future Of Chemistry


 Q-Chem 5.3 (devel), Q-Chem, Inc., Pleasanton, CA (2020)

 Yihan Shao,  Zhengting Gan,  E. Epifanovsky,  A. T. B. Gilbert,  M. Wormit,  
 J. Kussmann,  A. W. Lange,  A. Behn,  Jia Deng,  Xintian Feng,  D. Ghosh,  
 M. Goldey,  P. R. Horn,  L. D. Jacobson,  I. Kaliman,  T. Kus,  A. Landau,  
 Jie Liu,  E. I. Proynov,  R. M. Richard,  R. P. Steele,  E. J. Sundstrom,  
 H. L. Woodcock III,  P. M. Zimmerman,  D. Zuev,  B. Alam,  B. Albrecht,  
 E. Alguire,  S. A. Baeppler,  D. Barton,  Z. Benda,  Y. A. Bernard,  
 E. J. Berquist,  K. B. Bravaya,  H. Burton,  K. Carter-Fenk,  D. Casanova,  
 Chun-Min Chang,  Yunqing Chen,  A. Chien,  K. D. Closser,  M. P. Coons,  
 S. Coriani,  S. Dasgupta,  A. L. Dempwolff,  M. Diedenhofen,  Hainam Do,  
 R. G. Edgar,  Po-Tung Fang,  S. Faraji,  S. Fatehi,  Qingguo Feng,  
 J. Fosso-Tande,  J. Gayvert,  Qinghui Ge,  A. Ghysels,  G. Gidofalvi,  
 J. Gomes,  J. Gonthier,  A. Gunina,  D. Hait,  M. W. D. Hanson-Heine,  
 P. H. P. Harbach,  A. W. Hauser,  M. F. Herbst,  J. E. Herr,  
 E. G. Hohenstein,  Z. C. Holden,  Kerwin Hui,  B. C. Huynh,  T.-C. Jagau,  
 Hyunjun Ji,  B. Kaduk,  K. Khistyaev,  Jaehoon Kim,  P. Klunzinger,  K. Koh,  
 D. Kosenkov,  L. Koulias,  T. Kowalczyk,  C. M. Krauter,  A. Kunitsa,  
 Ka Un Lao,  A. Laurent,  K. V. Lawler,  Joonho Lee,  D. Lefrancois,  
 S. Lehtola,  D. S. Levine,  Yi-Pei Li,  You-Sheng Lin,  Fenglai Liu,  
 Kuan-Yu Liu,  E. Livshits,  M. Loipersberger,  A. Luenser,  P. Manohar,  
 E. Mansoor,  S. F. Manzer,  Shan-Ping Mao,  Yuezhi Mao,  N. Mardirossian,  
 A. V. Marenich,  T. Markovich,  L. A. Martinez-Martinez,  S. A. Maurer,  
 N. J. Mayhall,  S. C. McKenzie,  J.-M. Mewes,  P. Morgante,  A. F. Morrison,  
 J. W. Mullinax,  K. Nanda,  T. S. Nguyen-Beck,  R. Olivares-Amaya,  
 K. J. Oosterbaan,  J. A. Parkhill,  S. K. Paul,  F. Pavosevic,  Zheng Pei,  
 T. M. Perrine,  F. Plasser,  P. Pokhilko,  S. Prager,  A. Prociuk,  
 E. Ramos,  B. Rana,  D. R. Rehn,  F. Rob,  M. Scheurer,  M. Schneider,  
 N. Sergueev,  S. M. Sharada,  S. Sharma,  D. W. Small,  T. Stauch,  
 C. J. Stein,  T. Stein,  Yu-Chuan Su,  S. P. Veccham,  Zhen Tao,  
 A. J. W. Thom,  A. Tkatchenko,  T. Tsuchimochi,  N. M. Tubman,  L. Vogt,  
 M. L. Vidal,  O. Vydrov,  M. A. Watson,  J. Wenzel,  M. de Wergifosse,  
 T. A. Wesolowski,  A. White,  J. Witte,  A. Yamada,  Jun Yang,  K. Yao,  
 S. Yeganeh,  S. R. Yost,  Zhi-Qiang You,  A. Zech,  Igor Ying Zhang,  
 Xing Zhang,  Yan Zhao,  Ying Zhu,  B. R. Brooks,  G. K. L. Chan,  
 C. J. Cramer,  M. S. Gordon,  W. J. Hehre,  A. Klamt,  M. W. Schmidt,  
 C. D. Sherrill,  D. G. Truhlar,  A. Aspuru-Guzik,  R. Baer,  A. T. Bell,  
 N. A. Besley,  Jeng-Da Chai,  A. E. DePrince, III,  R. A. DiStasio Jr.,  
 A. Dreuw,  B. D. Dunietz,  T. R. Furlani,  Chao-Ping Hsu,  Yousung Jung,  
 Jing Kong,  D. S. Lambrecht,  WanZhen Liang,  C. Ochsenfeld,  
 V. A. Rassolov,  L. V. Slipchenko,  J. E. Subotnik,  T. Van Voorhis,  
 J. M. Herbert,  A. I. Krylov,  P. M. W. Gill,  M. Head-Gordon

 Contributors to earlier versions of Q-Chem not listed above: 
 R. D. Adamson,  B. Austin,  J. Baker,  G. J. O. Beran,  K. Brandhorst,  
 S. T. Brown,  E. F. C. Byrd,  A. K. Chakraborty,  C.-L. Cheng,  
 Siu Hung Chien,  D. M. Chipman,  D. L. Crittenden,  H. Dachsel,  
 R. J. Doerksen,  A. D. Dutoi,  L. Fusti-Molnar,  W. A. Goddard III,  
 A. Golubeva-Zadorozhnaya,  S. R. Gwaltney,  G. Hawkins,  A. Heyden,  
 S. Hirata,  G. Kedziora,  F. J. Keil,  C. Kelley,  Jihan Kim,  R. A. King,  
 R. Z. Khaliullin,  P. P. Korambath,  W. Kurlancheek,  A. M. Lee,  M. S. Lee,  
 S. V. Levchenko,  Ching Yeh Lin,  D. Liotard,  R. C. Lochan,  I. Lotan,  
 P. E. Maslen,  N. Nair,  D. P. O'Neill,  D. Neuhauser,  E. Neuscamman,  
 C. M. Oana,  R. Olson,  B. Peters,  R. Peverati,  P. A. Pieniazek,  
 Y. M. Rhee,  J. Ritchie,  M. A. Rohrdanz,  E. Rosta,  N. J. Russ,  
 H. F. Schaefer III,  N. E. Schultz,  N. Shenvi,  A. C. Simmonett,  A. Sodt,  
 D. Stuck,  K. S. Thanthiriwatte,  V. Vanovschi,  Tao Wang,  A. Warshel,  
 C. F. Williams,  Q. Wu,  X. Xu,  W. Zhang

 Please cite Q-Chem as follows:
 Y. Shao et al., Mol. Phys. 113, 184-215 (2015)
 DOI: 10.1080/00268976.2014.952696

 Q-Chem 5.3.0 for Intel X86 EM64T Linux

 Parts of Q-Chem use Armadillo 9.800.1 (Horizon Scraper).
 http://arma.sourceforge.net/

 Q-Chem begins on Mon Aug 10 12:39:45 2020  

n0093.mhg0
Host: 0

     Scratch files written to /local/scratch/users/yhljason/BF_SPW92_aug-pc-4.inp20200810113541//
Processing $rem in /clusterfs/mhg/diptarka/qchem_transmom//config/preferences:
Processing $rem in /global/home/users/yhljason/.qchemrc:

Checking the input file for inconsistencies... 	...done.

--------------------------------------------------------------
User input:
--------------------------------------------------------------
$molecule
0 1
B1	0.0000	0.0000	0.0000
F2	0.0000	0.0000	1.2669
$end

$rem
jobtype sp
method SPW92
xc_grid 000099000590
basis aug-pc-4
max_scf_cycles 200
thresh 14
scf_convergence 8
scf_algorithm gdm
symmetry false
sym_ignore true
unrestricted true
gen_scfman true
internal_stability_iter 15
internal_stability_davidson_iter 200
mem_total 64000
mem_static 1500
n_frozen_core 0
$end


--------------------------------------------------------------
 ----------------------------------------------------------------
             Standard Nuclear Orientation (Angstroms)
    I     Atom           X                Y                Z
 ----------------------------------------------------------------
    1      B       0.0000000000     0.0000000000     0.0000000000
    2      F       0.0000000000     0.0000000000     1.2669000000
 ----------------------------------------------------------------
 Nuclear Repulsion Energy =          18.79625423 hartrees
 There are        7 alpha and        7 beta electrons
 Requested basis set is aug-pc-4
 There are 66 shells and 290 basis functions

 Total QAlloc Memory Limit  64000 MB
 Mega-Array Size      1467 MB
 MEM_STATIC part      1500 MB

                       Distance Matrix (Angstroms)
             B (  1)
   F (  2)  1.266900

 A cutoff of  1.0D-14 yielded   2208 shell pairs
 There are     42980 function pairs (     83890 Cartesian)
 Smallest overlap matrix eigenvalue = 2.88E-06

 Scale SEOQF with 1.000000e-01/1.000000e-01/1.000000e-01

 Standard Electronic Orientation quadrupole field applied
 Nucleus-field energy     =    -0.0000000015 hartrees
 Guess from superposition of atomic densities
 Warning:  Energy on first SCF cycle will be non-variational
 SAD guess density has 14.000000 electrons

 -----------------------------------------------------------------------
  General SCF calculation program by
  Eric Jon Sundstrom, Paul Horn, Yuezhi Mao, Dmitri Zuev, Alec White,
  David Stuck, Shaama M.S., Shane Yost, Joonho Lee, David Small,
  Daniel Levine, Susi Lehtola, Hugh Burton, Evgeny Epifanovsky,
  Bang C. Huynh
 -----------------------------------------------------------------------
 Exchange:  Slater      Correlation:  PW92
 Using Euler-Maclaurin-Lebedev (99,590) quadrature formula
Running Object-Oriented UKS (UHF)
performing a single roothaan step with Fock from read density so that orbitals are available to all algorithms
energy of the guess density (C=0) -123.888753878791
We will preform up to 15 macro iterations over saddle points until a stable solution is found
Energy prior to optimization (guess energy) = -123.795071443989
Begin Timing: Total SCF Calculation
Begin Timing: SCF Single Stationary Point Calculation
begin iterations for algorithm: GDM          
the SCF tolerance is set to 1.00e-08
    1    -123.7950714440      3.25e-02     00000  Normal BFGS step
    2    -123.7843148485      8.42e-02     00000 Line search: overstep
    3    -123.8015234027      1.76e-02     00000  Normal BFGS step
    4    -123.8014671846      1.77e-02     00000 Line search: overstep
    5    -123.8025256424      1.76e-03     00000  Normal BFGS step
    6    -123.8025499475      8.27e-04     00000  Normal BFGS step
    7    -123.8025536044      6.94e-05     00000  Normal BFGS step
    8    -123.8025536499      2.17e-05     00000  Normal BFGS step
    9    -123.8025536581      1.45e-06     00000  Normal BFGS step
   10    -123.8025536581      2.54e-07     00000  Normal BFGS step
   11    -123.8025536581      4.58e-09     00000 Convergence criterion met
Timing for Single Stationary Point: 409.00s (wall), 3197.99s (cpu)
Begin Timing: Stability
===================================================
Beginning Test for Internal Stability
===================================================
generating davidson guess vectors based on koopmans excitations
 Warning: Hessian-vector products not implemented
 Finite difference Hessian-vector products will be used.
computing hessian-vector products by finite difference
    1      5.29e-01     00000 Davidson Iteration
computing hessian-vector products by finite difference
    2      4.54e-02     00000 Davidson Iteration
computing hessian-vector products by finite difference
    3      4.85e-02     00000 Davidson Iteration
computing hessian-vector products by finite difference
    4      1.81e-03     00000 Davidson Iteration
computing hessian-vector products by finite difference
    5      6.14e-04     00000 Davidson Iteration
computing hessian-vector products by finite difference
    6      2.03e-04     00000 Davidson Iteration
computing hessian-vector products by finite difference
    7      2.22e-05     00000 Davidson Iteration
computing hessian-vector products by finite difference
    8      3.30e-03     00000 Davidson Iteration
computing hessian-vector products by finite difference
    9      1.03e-03     00000 Davidson Iteration
computing hessian-vector products by finite difference
   10      2.74e-03     00000 Davidson Iteration
computing hessian-vector products by finite difference
   11      1.35e-03     00000 Davidson Iteration
computing hessian-vector products by finite difference
   12      1.33e-03     00000 Davidson Iteration
computing hessian-vector products by finite difference
   13      1.52e-03     00000 Davidson Iteration
computing hessian-vector products by finite difference
   14      4.73e-04     00000 Davidson Iteration
computing hessian-vector products by finite difference
   15      4.57e-04     00000 Davidson Iteration
computing hessian-vector products by finite difference
   16      5.41e-04     00000 Davidson Iteration
computing hessian-vector products by finite difference
   17      4.85e-04     00000 Davidson Iteration
computing hessian-vector products by finite difference
   18      4.83e-04     00000 Davidson Iteration
computing hessian-vector products by finite difference
   19      2.50e-04     00000 Davidson Iteration
computing hessian-vector products by finite difference
   20      9.04e-05     00000 Davidson Converged
converged_eigenvalues
   0.1823
   0.1823
Threshold for negative eigenvalues: -1.0e-05
solution was a local minimum (stable)
===================================================
End Test for Internal Stability
===================================================
Timing for Internal Stability: 3709.00s (wall), 28902.70s (cpu)
Our SCF solution is stable!
Timing for Total SCF: 4118.00s (wall), 32100.77s (cpu)
 Total energy in the final basis set =     -123.8025536581
<S^2> =         -0.000000000
    ==================================================
              The end of Object-Oriented SCFman       
    ==================================================

 --------------------------------------------------------------

                    Orbital Energies (a.u.)
 --------------------------------------------------------------

 Alpha MOs
 -- Occupied --
-24.1870  -6.5454  -1.1939  -0.5670  -0.4842  -0.4842  -0.2513
 -- Virtual --
 -0.0873  -0.0873  -0.0024   0.0150   0.0155   0.0155   0.0438   0.0560
  0.0560   0.0598   0.0638   0.0638   0.0675   0.0675   0.0965   0.1044
  0.1044   0.1206   0.1432   0.1432   0.1459   0.1523   0.1523   0.1689
  0.1689   0.1788   0.1788   0.1789   0.1892   0.1892   0.2081   0.2272
  0.2272   0.2303   0.2423   0.2423   0.2502   0.2502   0.2539   0.2539
  0.2599   0.2599   0.3110   0.3498   0.3625   0.3625   0.3630   0.3630
  0.3688   0.3688   0.3701   0.3701   0.3711   0.3738   0.3738   0.3768
  0.3768   0.3937   0.3937   0.4071   0.4281   0.4281   0.4617   0.4795
  0.4795   0.5283   0.5283   0.5540   0.5617   0.5617   0.6257   0.6415
  0.6415   0.6559   0.6559   0.7287   0.7584   0.7584   0.8125   0.8182
  0.8182   0.8480   0.8480   0.8592   0.8592   0.8675   0.8675   0.8691
  0.9632   0.9633   0.9633   0.9691   0.9691   1.1157   1.1157   1.1162
  1.1476   1.1476   1.1911   1.1911   1.1915   1.1915   1.2068   1.2068
  1.2898   1.2999   1.2999   1.3085   1.3085   1.4082   1.4082   1.4562
  1.5309   1.5309   1.5557   1.6124   1.6124   1.6259   1.6259   1.8278
  1.8868   1.8868   1.9093   2.0200   2.1280   2.1280   2.2295   2.2295
  2.2789   2.2789   2.3708   2.5994   2.5994   2.7281   2.7281   2.8164
  2.8519   2.8519   2.9499   2.9589   2.9589   3.2345   3.2345   3.2661
  3.2661   3.2707   3.3232   3.3232   3.7115   3.7115   3.7269   3.7326
  3.7326   3.7395   3.7395   3.9372   3.9372   4.0093   4.0093   4.0460
  4.5789   4.8228   4.8805   4.8805   5.1183   5.1183   5.4292   5.4292
  5.5155   5.6766   5.7785   5.7785   6.0192   6.0192   6.2476   6.2476
  6.7505   6.7817   6.7817   7.0170   7.0170   7.0934   7.1804   7.1804
  7.1823   7.1823   7.4620   7.5271   7.5271   7.8756   7.8756   8.7187
  8.8642   8.8642   8.9348   9.1620   9.1620   9.2267   9.2267   9.2573
  9.2573   9.3921   9.3921   9.6027   9.6027   9.6456   9.6456  10.0011
 10.1576  10.1576  10.1841  10.1841  10.3049  10.3049  10.5000  10.5000
 10.5999  10.5999  10.9844  11.2746  11.2746  11.7831  12.1115  12.1115
 12.1944  12.1944  12.5905  12.5905  12.6317  12.6317  12.6795  13.1542
 13.1542  13.1778  13.1778  13.9919  13.9919  14.0441  14.0753  14.0753
 14.3303  14.6552  14.6552  14.8919  14.8919  15.0167  15.4898  15.4898
 15.9061  17.1851  17.1851  18.3569  20.0251  20.0251  20.0502  20.0502
 20.0863  20.2106  20.2106  20.4783  20.4783  20.9751  20.9751  21.3332
 22.1670  22.1670  23.2642  30.1804  30.1804  30.7130  30.7130  31.8339
 41.6201  41.6201  41.7966  44.2400  77.9909  91.1833  91.1834  91.5259
 91.5259  92.3894 202.6565

 Beta MOs
 -- Occupied --
-24.1870  -6.5454  -1.1939  -0.5670  -0.4842  -0.4842  -0.2513
 -- Virtual --
 -0.0873  -0.0873  -0.0024   0.0150   0.0155   0.0155   0.0438   0.0560
  0.0560   0.0598   0.0638   0.0638   0.0675   0.0675   0.0965   0.1044
  0.1044   0.1206   0.1432   0.1432   0.1459   0.1523   0.1523   0.1689
  0.1689   0.1788   0.1788   0.1789   0.1892   0.1892   0.2081   0.2272
  0.2272   0.2303   0.2423   0.2423   0.2502   0.2502   0.2539   0.2539
  0.2599   0.2599   0.3110   0.3498   0.3625   0.3625   0.3630   0.3630
  0.3688   0.3688   0.3701   0.3701   0.3711   0.3738   0.3738   0.3768
  0.3768   0.3937   0.3937   0.4071   0.4281   0.4281   0.4617   0.4795
  0.4795   0.5283   0.5283   0.5540   0.5617   0.5617   0.6257   0.6415
  0.6415   0.6559   0.6559   0.7287   0.7584   0.7584   0.8125   0.8182
  0.8182   0.8480   0.8480   0.8592   0.8592   0.8675   0.8675   0.8691
  0.9632   0.9633   0.9633   0.9691   0.9691   1.1157   1.1157   1.1162
  1.1476   1.1476   1.1911   1.1911   1.1915   1.1915   1.2068   1.2068
  1.2898   1.2999   1.2999   1.3085   1.3085   1.4082   1.4082   1.4562
  1.5309   1.5309   1.5557   1.6124   1.6124   1.6259   1.6259   1.8278
  1.8868   1.8868   1.9093   2.0200   2.1280   2.1280   2.2295   2.2295
  2.2789   2.2789   2.3708   2.5994   2.5994   2.7281   2.7281   2.8164
  2.8519   2.8519   2.9499   2.9589   2.9589   3.2345   3.2345   3.2661
  3.2661   3.2707   3.3232   3.3232   3.7115   3.7115   3.7269   3.7326
  3.7326   3.7395   3.7395   3.9372   3.9372   4.0093   4.0093   4.0460
  4.5789   4.8228   4.8805   4.8805   5.1183   5.1183   5.4292   5.4292
  5.5155   5.6766   5.7785   5.7785   6.0192   6.0192   6.2476   6.2476
  6.7505   6.7817   6.7817   7.0170   7.0170   7.0934   7.1804   7.1804
  7.1823   7.1823   7.4620   7.5271   7.5271   7.8756   7.8756   8.7187
  8.8642   8.8642   8.9348   9.1620   9.1620   9.2267   9.2267   9.2573
  9.2573   9.3921   9.3921   9.6027   9.6027   9.6456   9.6456  10.0011
 10.1576  10.1576  10.1841  10.1841  10.3049  10.3049  10.5000  10.5000
 10.5999  10.5999  10.9844  11.2746  11.2746  11.7831  12.1115  12.1115
 12.1944  12.1944  12.5905  12.5905  12.6317  12.6317  12.6795  13.1542
 13.1542  13.1778  13.1778  13.9919  13.9919  14.0441  14.0753  14.0753
 14.3303  14.6552  14.6552  14.8919  14.8919  15.0167  15.4898  15.4898
 15.9061  17.1851  17.1851  18.3569  20.0251  20.0251  20.0502  20.0502
 20.0863  20.2106  20.2106  20.4783  20.4783  20.9751  20.9751  21.3332
 22.1670  22.1670  23.2642  30.1804  30.1804  30.7130  30.7130  31.8339
 41.6201  41.6201  41.7966  44.2400  77.9909  91.1833  91.1834  91.5259
 91.5259  92.3894 202.6565
 --------------------------------------------------------------

          Ground-State Mulliken Net Atomic Charges

     Atom                 Charge (a.u.)    Spin (a.u.)
  --------------------------------------------------------
      1 B                     0.223006       0.000000
      2 F                    -0.223006      -0.000000
  --------------------------------------------------------
  Sum of atomic charges =    -0.000000
  Sum of spin   charges =    -0.000000

 -----------------------------------------------------------------
                    Cartesian Multipole Moments
 -----------------------------------------------------------------
    Charge (ESU x 10^10)
                -0.0000
    Dipole Moment (Debye)
         X       0.0000      Y      -0.0000      Z       1.0451
       Tot       1.0451
    Quadrupole Moments (Debye-Ang)
        XX     -10.8668     XY      -0.0000     YY     -10.8668
        XZ      -0.0000     YZ      -0.0000     ZZ     -12.4504
    Octopole Moments (Debye-Ang^2)
       XXX       0.0000    XXY       0.0000    XYY       0.0000
       YYY       0.0000    XXZ      -5.0100    XYZ      -0.0000
       YYZ      -5.0100    XZZ       0.0000    YZZ       0.0000
       ZZZ     -16.0126
    Hexadecapole Moments (Debye-Ang^3)
      XXXX     -13.4208   XXXY      -0.0000   XXYY      -4.4736
      XYYY      -0.0000   YYYY     -13.4208   XXXZ       0.0000
      XXYZ      -0.0000   XYYZ       0.0000   YYYZ      -0.0000
      XXZZ     -12.3699   XYZZ      -0.0000   YYZZ     -12.3699
      XZZZ      -0.0000   YZZZ       0.0000   ZZZZ     -60.8800
 -----------------------------------------------------------------
Archival summary:
1\1\n0093.mhg0\SP\ProcedureUnspecified\BasisUnspecified\11\yhljason\MonAug1013:49:402020MonAug1013:49:402020\0\\#,ProcedureUnspecified,BasisUnspecified,\\0,1\B\F,1,1.2669\\\@

 Total job time:  4195.31s(wall), 32692.24s(cpu) 
 Mon Aug 10 13:49:40 2020

        *************************************************************
        *                                                           *
        *  Thank you very much for using Q-Chem.  Have a nice day.  *
        *                                                           *
        *************************************************************


