                  Welcome to Q-Chem
     A Quantum Leap Into The Future Of Chemistry


 Q-Chem 5.3 (devel), Q-Chem, Inc., Pleasanton, CA (2020)

 Yihan Shao,  Zhengting Gan,  E. Epifanovsky,  A. T. B. Gilbert,  M. Wormit,  
 J. Kussmann,  A. W. Lange,  A. Behn,  Jia Deng,  Xintian Feng,  D. Ghosh,  
 M. Goldey,  P. R. Horn,  L. D. Jacobson,  I. Kaliman,  T. Kus,  A. Landau,  
 Jie Liu,  E. I. Proynov,  R. M. Richard,  R. P. Steele,  E. J. Sundstrom,  
 H. L. Woodcock III,  P. M. Zimmerman,  D. Zuev,  B. Alam,  B. Albrecht,  
 E. Alguire,  S. A. Baeppler,  D. Barton,  Z. Benda,  Y. A. Bernard,  
 E. J. Berquist,  K. B. Bravaya,  H. Burton,  K. Carter-Fenk,  D. Casanova,  
 Chun-Min Chang,  Yunqing Chen,  A. Chien,  K. D. Closser,  M. P. Coons,  
 S. Coriani,  S. Dasgupta,  A. L. Dempwolff,  M. Diedenhofen,  Hainam Do,  
 R. G. Edgar,  Po-Tung Fang,  S. Faraji,  S. Fatehi,  Qingguo Feng,  
 J. Fosso-Tande,  J. Gayvert,  Qinghui Ge,  A. Ghysels,  G. Gidofalvi,  
 J. Gomes,  J. Gonthier,  A. Gunina,  D. Hait,  M. W. D. Hanson-Heine,  
 P. H. P. Harbach,  A. W. Hauser,  M. F. Herbst,  J. E. Herr,  
 E. G. Hohenstein,  Z. C. Holden,  Kerwin Hui,  B. C. Huynh,  T.-C. Jagau,  
 Hyunjun Ji,  B. Kaduk,  K. Khistyaev,  Jaehoon Kim,  P. Klunzinger,  K. Koh,  
 D. Kosenkov,  L. Koulias,  T. Kowalczyk,  C. M. Krauter,  A. Kunitsa,  
 Ka Un Lao,  A. Laurent,  K. V. Lawler,  Joonho Lee,  D. Lefrancois,  
 S. Lehtola,  D. S. Levine,  Yi-Pei Li,  You-Sheng Lin,  Fenglai Liu,  
 Kuan-Yu Liu,  E. Livshits,  M. Loipersberger,  A. Luenser,  P. Manohar,  
 E. Mansoor,  S. F. Manzer,  Shan-Ping Mao,  Yuezhi Mao,  N. Mardirossian,  
 A. V. Marenich,  T. Markovich,  L. A. Martinez-Martinez,  S. A. Maurer,  
 N. J. Mayhall,  S. C. McKenzie,  J.-M. Mewes,  P. Morgante,  A. F. Morrison,  
 J. W. Mullinax,  K. Nanda,  T. S. Nguyen-Beck,  R. Olivares-Amaya,  
 K. J. Oosterbaan,  J. A. Parkhill,  S. K. Paul,  F. Pavosevic,  Zheng Pei,  
 T. M. Perrine,  F. Plasser,  P. Pokhilko,  S. Prager,  A. Prociuk,  
 E. Ramos,  B. Rana,  D. R. Rehn,  F. Rob,  M. Scheurer,  M. Schneider,  
 N. Sergueev,  S. M. Sharada,  S. Sharma,  D. W. Small,  T. Stauch,  
 C. J. Stein,  T. Stein,  Yu-Chuan Su,  S. P. Veccham,  Zhen Tao,  
 A. J. W. Thom,  A. Tkatchenko,  T. Tsuchimochi,  N. M. Tubman,  L. Vogt,  
 M. L. Vidal,  O. Vydrov,  M. A. Watson,  J. Wenzel,  M. de Wergifosse,  
 T. A. Wesolowski,  A. White,  J. Witte,  A. Yamada,  Jun Yang,  K. Yao,  
 S. Yeganeh,  S. R. Yost,  Zhi-Qiang You,  A. Zech,  Igor Ying Zhang,  
 Xing Zhang,  Yan Zhao,  Ying Zhu,  B. R. Brooks,  G. K. L. Chan,  
 C. J. Cramer,  M. S. Gordon,  W. J. Hehre,  A. Klamt,  M. W. Schmidt,  
 C. D. Sherrill,  D. G. Truhlar,  A. Aspuru-Guzik,  R. Baer,  A. T. Bell,  
 N. A. Besley,  Jeng-Da Chai,  A. E. DePrince, III,  R. A. DiStasio Jr.,  
 A. Dreuw,  B. D. Dunietz,  T. R. Furlani,  Chao-Ping Hsu,  Yousung Jung,  
 Jing Kong,  D. S. Lambrecht,  WanZhen Liang,  C. Ochsenfeld,  
 V. A. Rassolov,  L. V. Slipchenko,  J. E. Subotnik,  T. Van Voorhis,  
 J. M. Herbert,  A. I. Krylov,  P. M. W. Gill,  M. Head-Gordon

 Contributors to earlier versions of Q-Chem not listed above: 
 R. D. Adamson,  B. Austin,  J. Baker,  G. J. O. Beran,  K. Brandhorst,  
 S. T. Brown,  E. F. C. Byrd,  A. K. Chakraborty,  C.-L. Cheng,  
 Siu Hung Chien,  D. M. Chipman,  D. L. Crittenden,  H. Dachsel,  
 R. J. Doerksen,  A. D. Dutoi,  L. Fusti-Molnar,  W. A. Goddard III,  
 A. Golubeva-Zadorozhnaya,  S. R. Gwaltney,  G. Hawkins,  A. Heyden,  
 S. Hirata,  G. Kedziora,  F. J. Keil,  C. Kelley,  Jihan Kim,  R. A. King,  
 R. Z. Khaliullin,  P. P. Korambath,  W. Kurlancheek,  A. M. Lee,  M. S. Lee,  
 S. V. Levchenko,  Ching Yeh Lin,  D. Liotard,  R. C. Lochan,  I. Lotan,  
 P. E. Maslen,  N. Nair,  D. P. O'Neill,  D. Neuhauser,  E. Neuscamman,  
 C. M. Oana,  R. Olson,  B. Peters,  R. Peverati,  P. A. Pieniazek,  
 Y. M. Rhee,  J. Ritchie,  M. A. Rohrdanz,  E. Rosta,  N. J. Russ,  
 H. F. Schaefer III,  N. E. Schultz,  N. Shenvi,  A. C. Simmonett,  A. Sodt,  
 D. Stuck,  K. S. Thanthiriwatte,  V. Vanovschi,  Tao Wang,  A. Warshel,  
 C. F. Williams,  Q. Wu,  X. Xu,  W. Zhang

 Please cite Q-Chem as follows:
 Y. Shao et al., Mol. Phys. 113, 184-215 (2015)
 DOI: 10.1080/00268976.2014.952696

 Q-Chem 5.3.0 for Intel X86 EM64T Linux

 Parts of Q-Chem use Armadillo 9.800.1 (Horizon Scraper).
 http://arma.sourceforge.net/

 Q-Chem begins on Mon Aug 10 02:01:39 2020  

n0096.mhg0
Host: 0

     Scratch files written to /local/scratch/users/yhljason/BH2F_CAM-B3LYP_aug-pc-4.inp20200810020059//
Processing $rem in /clusterfs/mhg/diptarka/qchem_transmom//config/preferences:
Processing $rem in /global/home/users/yhljason/.qchemrc:

Checking the input file for inconsistencies... 	...done.

--------------------------------------------------------------
User input:
--------------------------------------------------------------
$molecule
0 1
B        0.0000000000      0.0000000000      0.0000000000
F        0.0000000000      0.0000000000      1.3157000000
H        0.0000000000      1.0599000000     -0.5569000000
H        0.0000000000     -1.0599000000     -0.5569000000
$end

$rem
jobtype sp
method CAM-B3LYP
xc_grid 000099000590
basis aug-pc-4
max_scf_cycles 200
thresh 14
scf_convergence 8
scf_algorithm gdm
symmetry false
sym_ignore true
unrestricted true
gen_scfman true
internal_stability_iter 15
internal_stability_davidson_iter 200
mem_total 64000
mem_static 1500
n_frozen_core 0
$end


--------------------------------------------------------------
 ----------------------------------------------------------------
             Standard Nuclear Orientation (Angstroms)
    I     Atom           X                Y                Z
 ----------------------------------------------------------------
    1      B       0.0000000000     0.0000000000     0.0000000000
    2      F       0.0000000000     0.0000000000     1.3157000000
    3      H       0.0000000000     1.0599000000    -0.5569000000
    4      H       0.0000000000    -1.0599000000    -0.5569000000
 ----------------------------------------------------------------
 Nuclear Repulsion Energy =          27.19520604 hartrees
 There are        8 alpha and        8 beta electrons
 Requested basis set is aug-pc-4
 There are 114 shells and 466 basis functions

 Total QAlloc Memory Limit  64000 MB
 Mega-Array Size      1467 MB
 MEM_STATIC part      1500 MB

                       Distance Matrix (Angstroms)
             B (  1)   F (  2)   H (  3)
   F (  2)  1.315700
   H (  3)  1.197299  2.151748
   H (  4)  1.197299  2.151748  2.119800

 A cutoff of  1.0D-14 yielded   6446 shell pairs
 There are    109152 function pairs (    200533 Cartesian)
 Smallest overlap matrix eigenvalue = 4.44E-07
 Linear dependence detected in AO basis
 Tighter screening thresholds may be required for diffuse basis sets
 Use S2THRESH > 14 and THRESH = 14 in case of SCF convergence issues
 Number of orthogonalized atomic orbitals = 464
 Maximum deviation from orthogonality = 2.370E-10

 Scale SEOQF with 1.000000e-01/1.000000e-01/1.000000e-01

 Standard Electronic Orientation quadrupole field applied
 Nucleus-field energy     =    -0.0000000016 hartrees
 Guess from superposition of atomic densities
 Warning:  Energy on first SCF cycle will be non-variational
 SAD guess density has 16.000000 electrons

 -----------------------------------------------------------------------
  General SCF calculation program by
  Eric Jon Sundstrom, Paul Horn, Yuezhi Mao, Dmitri Zuev, Alec White,
  David Stuck, Shaama M.S., Shane Yost, Joonho Lee, David Small,
  Daniel Levine, Susi Lehtola, Hugh Burton, Evgeny Epifanovsky,
  Bang C. Huynh
 -----------------------------------------------------------------------
 Exchange:     0.1900 Hartree-Fock + 0.3500 B88 + 0.4600 muB88 + LR-HF
 Correlation:  0.1900 VWN5 + 0.8100 LYP
 Using Euler-Maclaurin-Lebedev (99,590) quadrature formula
Running Object-Oriented UKS (UHF)
performing a single roothaan step with Fock from read density so that orbitals are available to all algorithms
energy of the guess density (C=0) -125.940185256589
We will preform up to 15 macro iterations over saddle points until a stable solution is found
Energy prior to optimization (guess energy) = -125.925855723172
Begin Timing: Total SCF Calculation
Begin Timing: SCF Single Stationary Point Calculation
begin iterations for algorithm: GDM          
the SCF tolerance is set to 1.00e-08
    1    -125.9258557232      7.74e-02     00000  Normal BFGS step
    2    -125.9119281025      1.13e-01     00000 Line search: overstep
    3    -125.9472299472      8.37e-03     00000  Normal BFGS step
    4    -125.9491123263      1.47e-03     00000  Normal BFGS step
    5    -125.9491554577      2.49e-04     00000  Normal BFGS step
    6    -125.9491568020      6.13e-05     00000  Normal BFGS step
    7    -125.9491568775      1.10e-05     00000  Normal BFGS step
    8    -125.9491568801      1.42e-06     00000  Normal BFGS step
    9    -125.9491568801      3.75e-07     00000  Normal BFGS step
   10    -125.9491568801      8.88e-08     00000  Normal BFGS step
   11    -125.9491568801      5.43e-09     00000 Convergence criterion met
Timing for Single Stationary Point: 5402.00s (wall), 42618.61s (cpu)
Begin Timing: Stability
===================================================
Beginning Test for Internal Stability
===================================================
generating davidson guess vectors based on koopmans excitations
 Warning: Hessian-vector products not implemented
 Finite difference Hessian-vector products will be used.
computing hessian-vector products by finite difference
    1      4.97e-01     00000 Davidson Iteration
computing hessian-vector products by finite difference
    2      2.42e-01     00000 Davidson Iteration
computing hessian-vector products by finite difference
    3      2.75e-02     00000 Davidson Iteration
computing hessian-vector products by finite difference
    4      6.77e-03     00000 Davidson Iteration
computing hessian-vector products by finite difference
    5      1.77e-03     00000 Davidson Iteration
computing hessian-vector products by finite difference
    6      5.12e-04     00000 Davidson Iteration
computing hessian-vector products by finite difference
    7      1.68e-04     00000 Davidson Iteration
computing hessian-vector products by finite difference
    8      4.37e-05     00000 Davidson Converged
converged_eigenvalues
   0.3615
   0.4631
Threshold for negative eigenvalues: -1.0e-05
solution was a local minimum (stable)
===================================================
End Test for Internal Stability
===================================================
Timing for Internal Stability: 17229.00s (wall), 136214.42s (cpu)
Our SCF solution is stable!
Timing for Total SCF: 22632.00s (wall), 178833.21s (cpu)
 Total energy in the final basis set =     -125.9491568801
<S^2> =          0.000000000
    ==================================================
              The end of Object-Oriented SCFman       
    ==================================================

 --------------------------------------------------------------

                    Orbital Energies (a.u.)
 --------------------------------------------------------------

 Alpha MOs
 -- Occupied --
-24.7741  -6.8863  -1.3090  -0.6483  -0.5631  -0.5452  -0.5262  -0.4000
 -- Virtual --
 -0.0107   0.0079   0.0148   0.0158   0.0207   0.0399   0.0491   0.0546
  0.0587   0.0600   0.0618   0.0684   0.0707   0.0741   0.0959   0.0965
  0.0982   0.1019   0.1218   0.1286   0.1296   0.1312   0.1328   0.1366
  0.1499   0.1529   0.1579   0.1669   0.1775   0.1802   0.1807   0.1889
  0.1911   0.1961   0.2076   0.2096   0.2097   0.2182   0.2221   0.2291
  0.2379   0.2418   0.2514   0.2563   0.2573   0.2818   0.2884   0.2954
  0.2978   0.3081   0.3154   0.3196   0.3207   0.3213   0.3284   0.3303
  0.3347   0.3350   0.3355   0.3378   0.3434   0.3463   0.3505   0.3525
  0.3610   0.3669   0.3945   0.3969   0.4011   0.4038   0.4139   0.4304
  0.4431   0.4573   0.4580   0.4736   0.4840   0.4898   0.5088   0.5150
  0.5190   0.5232   0.5340   0.5462   0.5511   0.5542   0.5805   0.5840
  0.5847   0.5942   0.6028   0.6092   0.6133   0.6181   0.6289   0.6435
  0.6438   0.6465   0.6520   0.6749   0.6764   0.6768   0.6776   0.6925
  0.6962   0.7069   0.7121   0.7186   0.7337   0.7375   0.7441   0.7471
  0.7488   0.7506   0.7652   0.7852   0.7910   0.7920   0.7970   0.8005
  0.8136   0.8448   0.8472   0.8569   0.8571   0.8640   0.8669   0.8987
  0.9196   0.9203   0.9304   0.9418   0.9493   0.9502   0.9855   1.0272
  1.0411   1.0488   1.0674   1.0761   1.0846   1.0978   1.1227   1.1270
  1.1344   1.1410   1.1482   1.1608   1.2050   1.2147   1.2415   1.2885
  1.3032   1.3294   1.3337   1.3548   1.3665   1.3706   1.3765   1.3907
  1.3978   1.4089   1.4355   1.4473   1.4577   1.4635   1.4772   1.4858
  1.4862   1.5680   1.5686   1.5717   1.5779   1.6204   1.6325   1.6567
  1.6598   1.6917   1.7134   1.7389   1.7788   1.7809   1.7922   1.8074
  1.8103   1.8161   1.8904   1.9728   2.0130   2.0371   2.0978   2.0986
  2.1488   2.1794   2.1883   2.2168   2.2310   2.4366   2.4406   2.4790
  2.4887   2.5499   2.5743   2.6035   2.6367   2.6793   2.7236   2.7441
  2.8097   2.8854   2.9339   3.0096   3.0770   3.1612   3.1659   3.2131
  3.2238   3.2275   3.3052   3.3188   3.3913   3.3986   3.4516   3.4716
  3.5370   3.5397   3.5769   3.6189   3.6857   3.7196   3.7232   3.7622
  3.7650   3.8081   3.9295   3.9353   3.9462   3.9586   4.0008   4.0303
  4.0529   4.0553   4.0723   4.1382   4.1519   4.2453   4.2698   4.3025
  4.3611   4.3663   4.4514   4.5391   4.6486   4.6599   4.6879   4.8514
  4.8676   4.8688   5.0416   5.0584   5.1141   5.1873   5.3561   5.4401
  5.5344   5.5511   5.6091   5.6732   5.6825   5.7075   5.9317   5.9334
  5.9580   6.0592   6.0637   6.1696   6.1710   6.3110   6.3460   6.4004
  6.4770   6.6598   6.7741   6.9348   6.9938   7.0119   7.2666   7.3208
  7.3272   7.3912   7.6093   7.6724   7.8194   7.8308   7.8643   8.0122
  8.2608   8.3078   8.4907   8.6750   8.6956   8.7579   8.8038   8.9517
  8.9576   8.9677   8.9924   9.0104   9.0658   9.0929   9.1136   9.1705
  9.1771   9.2898   9.3673   9.5213   9.7333   9.7889   9.7986   9.8506
  9.8689   9.8761   9.8857   9.9599  10.0143  10.0188  10.1136  10.1193
 10.2043  10.2292  10.5415  10.5741  10.6255  10.7666  10.9174  10.9980
 11.1731  11.2243  11.2688  11.4533  11.5315  11.6973  11.7100  11.8674
 11.9627  12.2003  12.2082  12.4280  12.4529  12.5521  12.5717  12.5899
 12.6147  12.6307  12.8646  12.8656  12.8760  12.8945  12.9111  12.9465
 12.9707  13.0053  13.0553  13.1410  13.1537  13.2303  13.3504  13.4887
 13.4976  13.6296  14.0018  14.0370  14.1600  14.3268  14.3597  14.3629
 14.5277  14.5995  14.7808  14.8605  14.9972  15.0332  15.2567  15.2658
 15.3193  15.5744  15.6991  15.9621  16.3036  16.4407  16.9226  16.9288
 16.9376  16.9382  17.0790  17.0868  17.1015  17.1679  17.1813  17.4116
 17.8576  17.9859  18.1428  18.1774  18.9005  19.2982  19.4104  19.4490
 19.5320  19.9276  20.0251  20.3583  20.3588  20.5441  20.6071  20.6288
 20.8614  20.9807  21.2479  21.3695  22.2249  22.2338  22.3789  22.4112
 22.7411  23.2594  23.6195  23.6300  23.9459  24.0134  24.9363  25.2069
 30.6312  30.7371  31.0147  31.3106  32.2569  40.8551  41.0377  42.0510
 42.2433  42.4059  44.7105  80.4245  91.2140  91.2161  91.4358  91.4643
 91.7132  91.7825  91.9611  92.0886  92.1591  92.3184  92.8697 203.1287

 Beta MOs
 -- Occupied --
-24.7741  -6.8863  -1.3090  -0.6483  -0.5631  -0.5452  -0.5262  -0.4000
 -- Virtual --
 -0.0107   0.0079   0.0148   0.0158   0.0207   0.0399   0.0491   0.0546
  0.0587   0.0600   0.0618   0.0684   0.0707   0.0741   0.0959   0.0965
  0.0982   0.1019   0.1218   0.1286   0.1296   0.1312   0.1328   0.1366
  0.1499   0.1529   0.1579   0.1669   0.1775   0.1802   0.1807   0.1889
  0.1911   0.1961   0.2076   0.2096   0.2097   0.2182   0.2221   0.2291
  0.2379   0.2418   0.2514   0.2563   0.2573   0.2818   0.2884   0.2954
  0.2978   0.3081   0.3154   0.3196   0.3207   0.3213   0.3284   0.3303
  0.3347   0.3350   0.3355   0.3378   0.3434   0.3463   0.3505   0.3525
  0.3610   0.3669   0.3945   0.3969   0.4011   0.4038   0.4139   0.4304
  0.4431   0.4573   0.4580   0.4736   0.4840   0.4898   0.5088   0.5150
  0.5190   0.5232   0.5340   0.5462   0.5511   0.5542   0.5805   0.5840
  0.5847   0.5942   0.6028   0.6092   0.6133   0.6181   0.6289   0.6435
  0.6438   0.6465   0.6520   0.6749   0.6764   0.6768   0.6776   0.6925
  0.6962   0.7069   0.7121   0.7186   0.7337   0.7375   0.7441   0.7471
  0.7488   0.7506   0.7652   0.7852   0.7910   0.7920   0.7970   0.8005
  0.8136   0.8448   0.8472   0.8569   0.8571   0.8640   0.8669   0.8987
  0.9196   0.9203   0.9304   0.9418   0.9493   0.9502   0.9855   1.0272
  1.0411   1.0488   1.0674   1.0761   1.0846   1.0978   1.1227   1.1270
  1.1344   1.1410   1.1482   1.1608   1.2050   1.2147   1.2415   1.2885
  1.3032   1.3294   1.3337   1.3548   1.3665   1.3706   1.3765   1.3907
  1.3978   1.4089   1.4355   1.4473   1.4577   1.4635   1.4772   1.4858
  1.4862   1.5680   1.5686   1.5717   1.5779   1.6204   1.6325   1.6567
  1.6598   1.6917   1.7134   1.7389   1.7788   1.7809   1.7922   1.8074
  1.8103   1.8161   1.8904   1.9728   2.0130   2.0371   2.0978   2.0986
  2.1488   2.1794   2.1883   2.2168   2.2310   2.4366   2.4406   2.4790
  2.4887   2.5499   2.5743   2.6035   2.6367   2.6793   2.7236   2.7441
  2.8097   2.8854   2.9339   3.0096   3.0770   3.1612   3.1659   3.2131
  3.2238   3.2275   3.3052   3.3188   3.3913   3.3986   3.4516   3.4716
  3.5370   3.5397   3.5769   3.6189   3.6857   3.7196   3.7232   3.7622
  3.7650   3.8081   3.9295   3.9353   3.9462   3.9586   4.0008   4.0303
  4.0529   4.0553   4.0723   4.1382   4.1519   4.2453   4.2698   4.3025
  4.3611   4.3663   4.4514   4.5391   4.6486   4.6599   4.6879   4.8514
  4.8676   4.8688   5.0416   5.0584   5.1141   5.1873   5.3561   5.4401
  5.5344   5.5511   5.6091   5.6732   5.6825   5.7075   5.9317   5.9334
  5.9580   6.0592   6.0637   6.1696   6.1710   6.3110   6.3460   6.4004
  6.4770   6.6598   6.7741   6.9348   6.9938   7.0119   7.2666   7.3208
  7.3272   7.3912   7.6093   7.6724   7.8194   7.8308   7.8643   8.0122
  8.2608   8.3078   8.4907   8.6750   8.6956   8.7579   8.8038   8.9517
  8.9576   8.9677   8.9924   9.0104   9.0658   9.0929   9.1136   9.1705
  9.1771   9.2898   9.3673   9.5213   9.7333   9.7889   9.7986   9.8506
  9.8689   9.8761   9.8857   9.9599  10.0143  10.0188  10.1136  10.1193
 10.2043  10.2292  10.5415  10.5741  10.6255  10.7666  10.9174  10.9980
 11.1731  11.2243  11.2688  11.4533  11.5315  11.6973  11.7100  11.8674
 11.9627  12.2003  12.2082  12.4280  12.4529  12.5521  12.5717  12.5899
 12.6147  12.6307  12.8646  12.8656  12.8760  12.8945  12.9111  12.9465
 12.9707  13.0053  13.0553  13.1410  13.1537  13.2303  13.3504  13.4887
 13.4976  13.6296  14.0018  14.0370  14.1600  14.3268  14.3597  14.3629
 14.5277  14.5995  14.7808  14.8605  14.9972  15.0332  15.2567  15.2658
 15.3193  15.5744  15.6991  15.9621  16.3036  16.4407  16.9226  16.9288
 16.9376  16.9382  17.0790  17.0868  17.1015  17.1679  17.1813  17.4116
 17.8576  17.9859  18.1428  18.1774  18.9005  19.2982  19.4104  19.4490
 19.5320  19.9276  20.0251  20.3583  20.3588  20.5441  20.6071  20.6288
 20.8614  20.9807  21.2479  21.3695  22.2249  22.2338  22.3789  22.4112
 22.7411  23.2594  23.6195  23.6300  23.9459  24.0134  24.9363  25.2069
 30.6312  30.7371  31.0147  31.3106  32.2569  40.8551  41.0377  42.0510
 42.2433  42.4059  44.7105  80.4245  91.2140  91.2161  91.4358  91.4643
 91.7132  91.7825  91.9611  92.0886  92.1591  92.3184  92.8697 203.1287
 --------------------------------------------------------------

          Ground-State Mulliken Net Atomic Charges

     Atom                 Charge (a.u.)    Spin (a.u.)
  --------------------------------------------------------
      1 B                     0.231721      -0.000000
      2 F                    -0.311128       0.000000
      3 H                     0.039704       0.000000
      4 H                     0.039704      -0.000000
  --------------------------------------------------------
  Sum of atomic charges =     0.000000
  Sum of spin   charges =    -0.000000

 -----------------------------------------------------------------
                    Cartesian Multipole Moments
 -----------------------------------------------------------------
    Charge (ESU x 10^10)
                 0.0000
    Dipole Moment (Debye)
         X      -0.0000      Y       0.0000      Z      -0.7980
       Tot       0.7980
    Quadrupole Moments (Debye-Ang)
        XX     -11.0259     XY      -0.0000     YY     -12.7774
        XZ      -0.0000     YZ       0.0000     ZZ     -14.3103
    Octopole Moments (Debye-Ang^2)
       XXX      -0.0000    XXY       0.0000    XYY      -0.0000
       YYY      -0.0000    XXZ      -5.1425    XYZ      -0.0000
       YYZ      -5.0350    XZZ      -0.0000    YZZ      -0.0000
       ZZZ     -18.2081
    Hexadecapole Moments (Debye-Ang^3)
      XXXX      -9.8940   XXXY      -0.0000   XXYY      -6.4396
      XYYY      -0.0000   YYYY     -26.7757   XXXZ      -0.0000
      XXYZ       0.0000   XYYZ       0.0000   YYYZ       0.0000
      XXZZ     -13.0631   XYZZ       0.0000   YYZZ     -15.8235
      XZZZ      -0.0000   YZZZ       0.0000   ZZZZ     -70.5054
 -----------------------------------------------------------------
Archival summary:
1\1\n0096.mhg0\SP\ProcedureUnspecified\BasisUnspecified\112\yhljason\MonAug1008:35:252020MonAug1008:35:252020\0\\#,ProcedureUnspecified,BasisUnspecified,\\0,1\F\B,1,1.3157\H,2,1.1973,1,117.719\H,2,1.1973,1,117.719,3,-180,0\\\@

 Total job time:  23625.29s(wall), 186657.12s(cpu) 
 Mon Aug 10 08:35:25 2020

        *************************************************************
        *                                                           *
        *  Thank you very much for using Q-Chem.  Have a nice day.  *
        *                                                           *
        *************************************************************


