                  Welcome to Q-Chem
     A Quantum Leap Into The Future Of Chemistry


 Q-Chem 5.3 (devel), Q-Chem, Inc., Pleasanton, CA (2020)

 Yihan Shao,  Zhengting Gan,  E. Epifanovsky,  A. T. B. Gilbert,  M. Wormit,  
 J. Kussmann,  A. W. Lange,  A. Behn,  Jia Deng,  Xintian Feng,  D. Ghosh,  
 M. Goldey,  P. R. Horn,  L. D. Jacobson,  I. Kaliman,  T. Kus,  A. Landau,  
 Jie Liu,  E. I. Proynov,  R. M. Richard,  R. P. Steele,  E. J. Sundstrom,  
 H. L. Woodcock III,  P. M. Zimmerman,  D. Zuev,  B. Alam,  B. Albrecht,  
 E. Alguire,  S. A. Baeppler,  D. Barton,  Z. Benda,  Y. A. Bernard,  
 E. J. Berquist,  K. B. Bravaya,  H. Burton,  K. Carter-Fenk,  D. Casanova,  
 Chun-Min Chang,  Yunqing Chen,  A. Chien,  K. D. Closser,  M. P. Coons,  
 S. Coriani,  S. Dasgupta,  A. L. Dempwolff,  M. Diedenhofen,  Hainam Do,  
 R. G. Edgar,  Po-Tung Fang,  S. Faraji,  S. Fatehi,  Qingguo Feng,  
 J. Fosso-Tande,  J. Gayvert,  Qinghui Ge,  A. Ghysels,  G. Gidofalvi,  
 J. Gomes,  J. Gonthier,  A. Gunina,  D. Hait,  M. W. D. Hanson-Heine,  
 P. H. P. Harbach,  A. W. Hauser,  M. F. Herbst,  J. E. Herr,  
 E. G. Hohenstein,  Z. C. Holden,  Kerwin Hui,  B. C. Huynh,  T.-C. Jagau,  
 Hyunjun Ji,  B. Kaduk,  K. Khistyaev,  Jaehoon Kim,  P. Klunzinger,  K. Koh,  
 D. Kosenkov,  L. Koulias,  T. Kowalczyk,  C. M. Krauter,  A. Kunitsa,  
 Ka Un Lao,  A. Laurent,  K. V. Lawler,  Joonho Lee,  D. Lefrancois,  
 S. Lehtola,  D. S. Levine,  Yi-Pei Li,  You-Sheng Lin,  Fenglai Liu,  
 Kuan-Yu Liu,  E. Livshits,  M. Loipersberger,  A. Luenser,  P. Manohar,  
 E. Mansoor,  S. F. Manzer,  Shan-Ping Mao,  Yuezhi Mao,  N. Mardirossian,  
 A. V. Marenich,  T. Markovich,  L. A. Martinez-Martinez,  S. A. Maurer,  
 N. J. Mayhall,  S. C. McKenzie,  J.-M. Mewes,  P. Morgante,  A. F. Morrison,  
 J. W. Mullinax,  K. Nanda,  T. S. Nguyen-Beck,  R. Olivares-Amaya,  
 K. J. Oosterbaan,  J. A. Parkhill,  S. K. Paul,  F. Pavosevic,  Zheng Pei,  
 T. M. Perrine,  F. Plasser,  P. Pokhilko,  S. Prager,  A. Prociuk,  
 E. Ramos,  B. Rana,  D. R. Rehn,  F. Rob,  M. Scheurer,  M. Schneider,  
 N. Sergueev,  S. M. Sharada,  S. Sharma,  D. W. Small,  T. Stauch,  
 C. J. Stein,  T. Stein,  Yu-Chuan Su,  S. P. Veccham,  Zhen Tao,  
 A. J. W. Thom,  A. Tkatchenko,  T. Tsuchimochi,  N. M. Tubman,  L. Vogt,  
 M. L. Vidal,  O. Vydrov,  M. A. Watson,  J. Wenzel,  M. de Wergifosse,  
 T. A. Wesolowski,  A. White,  J. Witte,  A. Yamada,  Jun Yang,  K. Yao,  
 S. Yeganeh,  S. R. Yost,  Zhi-Qiang You,  A. Zech,  Igor Ying Zhang,  
 Xing Zhang,  Yan Zhao,  Ying Zhu,  B. R. Brooks,  G. K. L. Chan,  
 C. J. Cramer,  M. S. Gordon,  W. J. Hehre,  A. Klamt,  M. W. Schmidt,  
 C. D. Sherrill,  D. G. Truhlar,  A. Aspuru-Guzik,  R. Baer,  A. T. Bell,  
 N. A. Besley,  Jeng-Da Chai,  A. E. DePrince, III,  R. A. DiStasio Jr.,  
 A. Dreuw,  B. D. Dunietz,  T. R. Furlani,  Chao-Ping Hsu,  Yousung Jung,  
 Jing Kong,  D. S. Lambrecht,  WanZhen Liang,  C. Ochsenfeld,  
 V. A. Rassolov,  L. V. Slipchenko,  J. E. Subotnik,  T. Van Voorhis,  
 J. M. Herbert,  A. I. Krylov,  P. M. W. Gill,  M. Head-Gordon

 Contributors to earlier versions of Q-Chem not listed above: 
 R. D. Adamson,  B. Austin,  J. Baker,  G. J. O. Beran,  K. Brandhorst,  
 S. T. Brown,  E. F. C. Byrd,  A. K. Chakraborty,  C.-L. Cheng,  
 Siu Hung Chien,  D. M. Chipman,  D. L. Crittenden,  H. Dachsel,  
 R. J. Doerksen,  A. D. Dutoi,  L. Fusti-Molnar,  W. A. Goddard III,  
 A. Golubeva-Zadorozhnaya,  S. R. Gwaltney,  G. Hawkins,  A. Heyden,  
 S. Hirata,  G. Kedziora,  F. J. Keil,  C. Kelley,  Jihan Kim,  R. A. King,  
 R. Z. Khaliullin,  P. P. Korambath,  W. Kurlancheek,  A. M. Lee,  M. S. Lee,  
 S. V. Levchenko,  Ching Yeh Lin,  D. Liotard,  R. C. Lochan,  I. Lotan,  
 P. E. Maslen,  N. Nair,  D. P. O'Neill,  D. Neuhauser,  E. Neuscamman,  
 C. M. Oana,  R. Olson,  B. Peters,  R. Peverati,  P. A. Pieniazek,  
 Y. M. Rhee,  J. Ritchie,  M. A. Rohrdanz,  E. Rosta,  N. J. Russ,  
 H. F. Schaefer III,  N. E. Schultz,  N. Shenvi,  A. C. Simmonett,  A. Sodt,  
 D. Stuck,  K. S. Thanthiriwatte,  V. Vanovschi,  Tao Wang,  A. Warshel,  
 C. F. Williams,  Q. Wu,  X. Xu,  W. Zhang

 Please cite Q-Chem as follows:
 Y. Shao et al., Mol. Phys. 113, 184-215 (2015)
 DOI: 10.1080/00268976.2014.952696

 Q-Chem 5.3.0 for Intel X86 EM64T Linux

 Parts of Q-Chem use Armadillo 9.800.1 (Horizon Scraper).
 http://arma.sourceforge.net/

 Q-Chem begins on Sun Aug  9 20:45:45 2020  

n0068.mhg0
Host: 0

     Scratch files written to /local/scratch/users/yhljason/BO_mPW91_aug-pc-4.inp20200809204525//
Processing $rem in /clusterfs/mhg/diptarka/qchem_transmom//config/preferences:
Processing $rem in /global/home/users/yhljason/.qchemrc:

Checking the input file for inconsistencies... 	...done.

--------------------------------------------------------------
User input:
--------------------------------------------------------------
$molecule
0 2
B1      0.0000  0.0000  0.0000
O2      0.0000  0.0000  1.2045
$end

$rem
jobtype sp
method mPW91
xc_grid 000099000590
basis aug-pc-4
max_scf_cycles 200
thresh 14
scf_convergence 8
scf_algorithm gdm
symmetry false
sym_ignore true
unrestricted true
gen_scfman true
internal_stability_iter 15
internal_stability_davidson_iter 200
mem_total 64000
mem_static 1500
n_frozen_core 0
$end


--------------------------------------------------------------
 ----------------------------------------------------------------
             Standard Nuclear Orientation (Angstroms)
    I     Atom           X                Y                Z
 ----------------------------------------------------------------
    1      B       0.0000000000     0.0000000000     0.0000000000
    2      O       0.0000000000     0.0000000000     1.2045000000
 ----------------------------------------------------------------
 Nuclear Repulsion Energy =          17.57334033 hartrees
 There are        7 alpha and        6 beta electrons
 Requested basis set is aug-pc-4
 There are 66 shells and 290 basis functions

 Total QAlloc Memory Limit  64000 MB
 Mega-Array Size      1467 MB
 MEM_STATIC part      1500 MB

                       Distance Matrix (Angstroms)
             B (  1)
   O (  2)  1.204500

 A cutoff of  1.0D-14 yielded   2209 shell pairs
 There are     42981 function pairs (     83891 Cartesian)
 Smallest overlap matrix eigenvalue = 1.75E-06

 Scale SEOQF with 1.000000e-01/1.000000e-01/1.000000e-01

 Standard Electronic Orientation quadrupole field applied
 Nucleus-field energy     =    -0.0000000012 hartrees
 Guess from superposition of atomic densities
 Warning:  Energy on first SCF cycle will be non-variational
 SAD guess density has 13.000000 electrons

 -----------------------------------------------------------------------
  General SCF calculation program by
  Eric Jon Sundstrom, Paul Horn, Yuezhi Mao, Dmitri Zuev, Alec White,
  David Stuck, Shaama M.S., Shane Yost, Joonho Lee, David Small,
  Daniel Levine, Susi Lehtola, Hugh Burton, Evgeny Epifanovsky,
  Bang C. Huynh
 -----------------------------------------------------------------------
 Exchange:  mPW91      Correlation:  PW91
 Using Euler-Maclaurin-Lebedev (99,590) quadrature formula
Running Object-Oriented UKS (UHF)
performing a single roothaan step with Fock from read density so that orbitals are available to all algorithms
energy of the guess density (C=0) -100.151414387528
We will preform up to 15 macro iterations over saddle points until a stable solution is found
Energy prior to optimization (guess energy) = -99.920596984005
Begin Timing: Total SCF Calculation
Begin Timing: SCF Single Stationary Point Calculation
begin iterations for algorithm: GDM          
the SCF tolerance is set to 1.00e-08
    1     -99.9205969840      5.12e-01     00000  Descent step
    2     -99.8121417989      1.09e+00     00000 Line search: overstep
    3    -100.0419384097      7.05e-02     00000  Normal BFGS step
    4    -100.0570444417      2.38e-02     00000  Normal BFGS step
    5    -100.0627179480      6.96e-03     00000  Normal BFGS step
    6    -100.0627972105      1.50e-03     00000  Normal BFGS step
    7    -100.0628013706      1.25e-04     00000  Normal BFGS step
    8    -100.0628014158      7.16e-05     00000  Normal BFGS step
    9    -100.0628014228      8.20e-06     00000  Normal BFGS step
   10    -100.0628014230      2.63e-06     00000  Normal BFGS step
   11    -100.0628014230      3.65e-06     00000  Normal BFGS step
   12    -100.0628014230      1.14e-06     00000  Normal BFGS step
   13    -100.0628014230      7.92e-08     00000  Normal BFGS step
   14    -100.0628014230      1.48e-08     00000  Normal BFGS step
   15    -100.0628014230      3.12e-09     00000 Convergence criterion met
Timing for Single Stationary Point: 611.00s (wall), 4796.78s (cpu)
Begin Timing: Stability
===================================================
Beginning Test for Internal Stability
===================================================
generating davidson guess vectors based on koopmans excitations
 Warning: Hessian-vector products not implemented
 Finite difference Hessian-vector products will be used.
computing hessian-vector products by finite difference
    1      4.43e-01     00000 Davidson Iteration
computing hessian-vector products by finite difference
    2      1.19e-01     00000 Davidson Iteration
computing hessian-vector products by finite difference
    3      5.23e-02     00000 Davidson Iteration
computing hessian-vector products by finite difference
    4      1.66e-02     00000 Davidson Iteration
computing hessian-vector products by finite difference
    5      2.68e-03     00000 Davidson Iteration
computing hessian-vector products by finite difference
    6      1.83e-04     00000 Davidson Iteration
computing hessian-vector products by finite difference
    7      2.34e-05     00000 Davidson Iteration
computing hessian-vector products by finite difference
    8      2.43e-05     00000 Davidson Converged
converged_eigenvalues
   0.2347
   0.2347
Threshold for negative eigenvalues: -1.0e-05
solution was a local minimum (stable)
===================================================
End Test for Internal Stability
===================================================
Timing for Internal Stability: 1621.00s (wall), 12719.80s (cpu)
Our SCF solution is stable!
Timing for Total SCF: 2232.00s (wall), 17516.63s (cpu)
 Total energy in the final basis set =     -100.0628014230
<S^2> =          0.760606458
    ==================================================
              The end of Object-Oriented SCFman       
    ==================================================

 --------------------------------------------------------------

                    Orbital Energies (a.u.)
 --------------------------------------------------------------

 Alpha MOs
 -- Occupied --
-18.7875  -6.6071  -0.9201  -0.3982  -0.3389  -0.3389  -0.3085
 -- Virtual --
 -0.0601  -0.0601  -0.0056   0.0088   0.0157   0.0157   0.0405   0.0522
  0.0524   0.0524   0.0596   0.0596   0.0597   0.0597   0.0860   0.0975
  0.0975   0.0980   0.1317   0.1317   0.1409   0.1427   0.1427   0.1488
  0.1488   0.1545   0.1735   0.1735   0.1874   0.1874   0.2017   0.2263
  0.2263   0.2277   0.2277   0.2287   0.2294   0.2294   0.2357   0.2357
  0.2418   0.2418   0.2526   0.3263   0.3263   0.3339   0.3435   0.3435
  0.3461   0.3472   0.3472   0.3515   0.3515   0.3534   0.3534   0.3584
  0.3584   0.3641   0.3641   0.3939   0.4145   0.4192   0.4192   0.4309
  0.4309   0.4548   0.4548   0.4942   0.4942   0.5210   0.5706   0.5965
  0.5965   0.6001   0.6001   0.6790   0.6872   0.6872   0.7123   0.7123
  0.7233   0.7233   0.7353   0.7353   0.7602   0.7747   0.7747   0.7802
  0.8103   0.8103   0.8283   0.8283   0.8749   0.8824   0.8824   0.9179
  0.9179   0.9667   0.9667   0.9973   0.9973   0.9990   1.0310   1.0310
  1.0495   1.0679   1.0679   1.2274   1.2413   1.2413   1.3367   1.3367
  1.3919   1.3919   1.4362   1.5076   1.5076   1.5680   1.6459   1.6459
  1.7427   1.7433   1.7433   1.8156   1.8156   1.8188   1.8188   1.9601
  1.9689   1.9689   2.0546   2.2357   2.2357   2.3587   2.3587   2.3974
  2.6888   2.6888   2.8275   2.9049   2.9049   3.1067   3.1197   3.1197
  3.1545   3.1545   3.2555   3.2555   3.4665   3.6193   3.6193   3.6219
  3.6219   3.7969   3.7969   3.7974   3.8484   3.8484   3.8720   3.8720
  3.8947   4.0432   4.0432   4.3035   4.3035   4.3364   4.3364   4.4211
  4.6566   4.9798   4.9798   5.1325   5.1325   5.1463   5.5215   5.5215
  5.5826   5.9548   5.9548   6.2446   6.2446   6.3057   6.3057   6.8112
  7.1071   7.1071   7.2915   7.3771   7.3771   7.4930   7.4930   7.7354
  8.0886   8.0886   8.8067   9.1228   9.1228   9.1686   9.1686   9.2228
  9.2228   9.3059   9.3059   9.3299   9.3299   9.4722   9.4722   9.6014
  9.6014   9.6685   9.6685   9.8238  10.0928  10.0928  10.1656  10.1656
 10.2715  10.2758  10.2758  10.6223  10.6223  10.7213  10.7213  10.9568
 11.0009  11.1428  11.1428  11.4471  11.4471  11.5302  12.0392  12.0392
 12.1686  12.1686  12.3324  12.5957  12.5957  12.7680  12.7680  12.9212
 12.9212  13.0815  13.0815  13.4622  13.5922  13.5922  14.9379  14.9379
 15.0449  16.5184  16.5184  16.9958  16.9958  17.0220  17.2591  17.2591
 18.0147  18.0147  18.6222  18.6601  18.6601  19.8616  20.1125  20.1126
 20.6728  20.6728  22.8129  22.9121  22.9121  23.8523  23.8523  25.8366
 30.1288  31.9169  31.9169  34.0328  66.5036  66.5036  67.0615  67.0615
 68.1841  78.4695 143.2402

 Beta MOs
 -- Occupied --
-18.7882  -6.5924  -0.9188  -0.3861  -0.3358  -0.3358
 -- Virtual --
 -0.1963  -0.0180  -0.0180   0.0111   0.0155   0.0211   0.0211   0.0546
  0.0546   0.0556   0.0576   0.0682   0.0682   0.0753   0.0753   0.0951
  0.1077   0.1080   0.1080   0.1401   0.1401   0.1509   0.1520   0.1520
  0.1527   0.1527   0.1707   0.1838   0.1838   0.1993   0.1993   0.2233
  0.2355   0.2355   0.2393   0.2414   0.2414   0.2478   0.2478   0.2500
  0.2500   0.2523   0.2523   0.2692   0.3333   0.3333   0.3473   0.3521
  0.3521   0.3629   0.3629   0.3634   0.3698   0.3698   0.3702   0.3702
  0.3728   0.3728   0.3760   0.3760   0.4284   0.4345   0.4345   0.4510
  0.4510   0.4541   0.4582   0.4582   0.5201   0.5201   0.5345   0.5845
  0.6108   0.6108   0.6316   0.6316   0.6862   0.6939   0.6939   0.7204
  0.7204   0.7247   0.7247   0.7391   0.7391   0.7817   0.7895   0.7895
  0.8084   0.8277   0.8277   0.8405   0.8405   0.8885   0.8885   0.9056
  0.9218   0.9218   0.9672   0.9672   1.0044   1.0044   1.0289   1.0420
  1.0420   1.0618   1.0839   1.0839   1.2361   1.2645   1.2645   1.3940
  1.3940   1.4197   1.4197   1.4556   1.5662   1.5662   1.6385   1.6760
  1.6760   1.7662   1.7662   1.8075   1.8217   1.8217   1.8539   1.8539
  1.9774   1.9774   1.9896   2.0837   2.2487   2.2487   2.3679   2.3679
  2.4025   2.7184   2.7184   2.8732   2.9476   2.9476   3.1692   3.1912
  3.1912   3.2010   3.2010   3.3072   3.3072   3.5080   3.6806   3.6806
  3.7030   3.7030   3.8291   3.8291   3.8535   3.9483   3.9483   3.9655
  3.9655   4.0222   4.0432   4.0432   4.3111   4.3111   4.3602   4.3602
  4.4409   4.6855   5.0073   5.0073   5.1273   5.1273   5.1728   5.5265
  5.5265   5.6104   5.9490   5.9490   6.2660   6.2660   6.3089   6.3089
  6.8608   7.1265   7.1265   7.3181   7.3992   7.3992   7.5504   7.5504
  7.7812   8.1014   8.1014   8.8614   9.1346   9.1346   9.2135   9.2135
  9.2735   9.2735   9.3341   9.3341   9.3865   9.3865   9.4948   9.4948
  9.6937   9.6937   9.7769   9.7769   9.8992  10.1680  10.1680  10.2209
 10.2209  10.3106  10.3645  10.3645  10.6585  10.6585  10.7755  10.7755
 10.9943  11.0459  11.1654  11.1654  11.5234  11.5234  11.5719  12.0302
 12.0302  12.1685  12.1685  12.3693  12.5869  12.5869  12.7692  12.7692
 12.9470  12.9470  13.0943  13.0943  13.4788  13.6278  13.6278  14.9584
 14.9584  15.0784  16.5426  16.5426  16.9836  16.9836  17.0453  17.2552
 17.2552  18.0167  18.0167  18.6385  18.6653  18.6653  19.8943  20.1340
 20.1340  20.7066  20.7066  22.8453  22.9008  22.9008  23.8556  23.8556
 25.8497  30.1277  31.9113  31.9113  34.0388  66.4964  66.4964  67.0629
 67.0629  68.1890  78.4929 143.2394
 --------------------------------------------------------------

          Ground-State Mulliken Net Atomic Charges

     Atom                 Charge (a.u.)    Spin (a.u.)
  --------------------------------------------------------
      1 B                     0.349532       1.162235
      2 O                    -0.349532      -0.162235
  --------------------------------------------------------
  Sum of atomic charges =     0.000000
  Sum of spin   charges =     1.000000

 -----------------------------------------------------------------
                    Cartesian Multipole Moments
 -----------------------------------------------------------------
    Charge (ESU x 10^10)
                 0.0000
    Dipole Moment (Debye)
         X       0.0000      Y       0.0000      Z      -2.2067
       Tot       2.2067
    Quadrupole Moments (Debye-Ang)
        XX     -10.4842     XY       0.0000     YY     -10.4842
        XZ      -0.0000     YZ      -0.0000     ZZ     -13.6567
    Octopole Moments (Debye-Ang^2)
       XXX       0.0000    XXY       0.0000    XYY       0.0000
       YYY       0.0000    XXZ      -6.7349    XYZ       0.0000
       YYZ      -6.7349    XZZ       0.0000    YZZ      -0.0000
       ZZZ     -22.6336
    Hexadecapole Moments (Debye-Ang^3)
      XXXX     -11.6020   XXXY      -0.0000   XXYY      -3.8673
      XYYY      -0.0000   YYYY     -11.6020   XXXZ       0.0000
      XXYZ      -0.0000   XYYZ       0.0000   YYYZ      -0.0000
      XXZZ     -12.2992   XYZZ       0.0000   YYZZ     -12.2992
      XZZZ       0.0000   YZZZ      -0.0000   ZZZZ     -65.6593
 -----------------------------------------------------------------
Archival summary:
1\1\n0068.mhg0\SP\ProcedureUnspecified\BasisUnspecified\11(2)\yhljason\SunAug921:24:212020SunAug921:24:212020\0\\#,ProcedureUnspecified,BasisUnspecified,\\0,2\B\O,1,1.2045\\\@

 Total job time:  2315.67s(wall), 18166.64s(cpu) 
 Sun Aug  9 21:24:21 2020

        *************************************************************
        *                                                           *
        *  Thank you very much for using Q-Chem.  Have a nice day.  *
        *                                                           *
        *************************************************************


