                  Welcome to Q-Chem
     A Quantum Leap Into The Future Of Chemistry


 Q-Chem 5.3 (devel), Q-Chem, Inc., Pleasanton, CA (2020)

 Yihan Shao,  Zhengting Gan,  E. Epifanovsky,  A. T. B. Gilbert,  M. Wormit,  
 J. Kussmann,  A. W. Lange,  A. Behn,  Jia Deng,  Xintian Feng,  D. Ghosh,  
 M. Goldey,  P. R. Horn,  L. D. Jacobson,  I. Kaliman,  T. Kus,  A. Landau,  
 Jie Liu,  E. I. Proynov,  R. M. Richard,  R. P. Steele,  E. J. Sundstrom,  
 H. L. Woodcock III,  P. M. Zimmerman,  D. Zuev,  B. Alam,  B. Albrecht,  
 E. Alguire,  S. A. Baeppler,  D. Barton,  Z. Benda,  Y. A. Bernard,  
 E. J. Berquist,  K. B. Bravaya,  H. Burton,  K. Carter-Fenk,  D. Casanova,  
 Chun-Min Chang,  Yunqing Chen,  A. Chien,  K. D. Closser,  M. P. Coons,  
 S. Coriani,  S. Dasgupta,  A. L. Dempwolff,  M. Diedenhofen,  Hainam Do,  
 R. G. Edgar,  Po-Tung Fang,  S. Faraji,  S. Fatehi,  Qingguo Feng,  
 J. Fosso-Tande,  J. Gayvert,  Qinghui Ge,  A. Ghysels,  G. Gidofalvi,  
 J. Gomes,  J. Gonthier,  A. Gunina,  D. Hait,  M. W. D. Hanson-Heine,  
 P. H. P. Harbach,  A. W. Hauser,  M. F. Herbst,  J. E. Herr,  
 E. G. Hohenstein,  Z. C. Holden,  Kerwin Hui,  B. C. Huynh,  T.-C. Jagau,  
 Hyunjun Ji,  B. Kaduk,  K. Khistyaev,  Jaehoon Kim,  P. Klunzinger,  K. Koh,  
 D. Kosenkov,  L. Koulias,  T. Kowalczyk,  C. M. Krauter,  A. Kunitsa,  
 Ka Un Lao,  A. Laurent,  K. V. Lawler,  Joonho Lee,  D. Lefrancois,  
 S. Lehtola,  D. S. Levine,  Yi-Pei Li,  You-Sheng Lin,  Fenglai Liu,  
 Kuan-Yu Liu,  E. Livshits,  M. Loipersberger,  A. Luenser,  P. Manohar,  
 E. Mansoor,  S. F. Manzer,  Shan-Ping Mao,  Yuezhi Mao,  N. Mardirossian,  
 A. V. Marenich,  T. Markovich,  L. A. Martinez-Martinez,  S. A. Maurer,  
 N. J. Mayhall,  S. C. McKenzie,  J.-M. Mewes,  P. Morgante,  A. F. Morrison,  
 J. W. Mullinax,  K. Nanda,  T. S. Nguyen-Beck,  R. Olivares-Amaya,  
 K. J. Oosterbaan,  J. A. Parkhill,  S. K. Paul,  F. Pavosevic,  Zheng Pei,  
 T. M. Perrine,  F. Plasser,  P. Pokhilko,  S. Prager,  A. Prociuk,  
 E. Ramos,  B. Rana,  D. R. Rehn,  F. Rob,  M. Scheurer,  M. Schneider,  
 N. Sergueev,  S. M. Sharada,  S. Sharma,  D. W. Small,  T. Stauch,  
 C. J. Stein,  T. Stein,  Yu-Chuan Su,  S. P. Veccham,  Zhen Tao,  
 A. J. W. Thom,  A. Tkatchenko,  T. Tsuchimochi,  N. M. Tubman,  L. Vogt,  
 M. L. Vidal,  O. Vydrov,  M. A. Watson,  J. Wenzel,  M. de Wergifosse,  
 T. A. Wesolowski,  A. White,  J. Witte,  A. Yamada,  Jun Yang,  K. Yao,  
 S. Yeganeh,  S. R. Yost,  Zhi-Qiang You,  A. Zech,  Igor Ying Zhang,  
 Xing Zhang,  Yan Zhao,  Ying Zhu,  B. R. Brooks,  G. K. L. Chan,  
 C. J. Cramer,  M. S. Gordon,  W. J. Hehre,  A. Klamt,  M. W. Schmidt,  
 C. D. Sherrill,  D. G. Truhlar,  A. Aspuru-Guzik,  R. Baer,  A. T. Bell,  
 N. A. Besley,  Jeng-Da Chai,  A. E. DePrince, III,  R. A. DiStasio Jr.,  
 A. Dreuw,  B. D. Dunietz,  T. R. Furlani,  Chao-Ping Hsu,  Yousung Jung,  
 Jing Kong,  D. S. Lambrecht,  WanZhen Liang,  C. Ochsenfeld,  
 V. A. Rassolov,  L. V. Slipchenko,  J. E. Subotnik,  T. Van Voorhis,  
 J. M. Herbert,  A. I. Krylov,  P. M. W. Gill,  M. Head-Gordon

 Contributors to earlier versions of Q-Chem not listed above: 
 R. D. Adamson,  B. Austin,  J. Baker,  G. J. O. Beran,  K. Brandhorst,  
 S. T. Brown,  E. F. C. Byrd,  A. K. Chakraborty,  C.-L. Cheng,  
 Siu Hung Chien,  D. M. Chipman,  D. L. Crittenden,  H. Dachsel,  
 R. J. Doerksen,  A. D. Dutoi,  L. Fusti-Molnar,  W. A. Goddard III,  
 A. Golubeva-Zadorozhnaya,  S. R. Gwaltney,  G. Hawkins,  A. Heyden,  
 S. Hirata,  G. Kedziora,  F. J. Keil,  C. Kelley,  Jihan Kim,  R. A. King,  
 R. Z. Khaliullin,  P. P. Korambath,  W. Kurlancheek,  A. M. Lee,  M. S. Lee,  
 S. V. Levchenko,  Ching Yeh Lin,  D. Liotard,  R. C. Lochan,  I. Lotan,  
 P. E. Maslen,  N. Nair,  D. P. O'Neill,  D. Neuhauser,  E. Neuscamman,  
 C. M. Oana,  R. Olson,  B. Peters,  R. Peverati,  P. A. Pieniazek,  
 Y. M. Rhee,  J. Ritchie,  M. A. Rohrdanz,  E. Rosta,  N. J. Russ,  
 H. F. Schaefer III,  N. E. Schultz,  N. Shenvi,  A. C. Simmonett,  A. Sodt,  
 D. Stuck,  K. S. Thanthiriwatte,  V. Vanovschi,  Tao Wang,  A. Warshel,  
 C. F. Williams,  Q. Wu,  X. Xu,  W. Zhang

 Please cite Q-Chem as follows:
 Y. Shao et al., Mol. Phys. 113, 184-215 (2015)
 DOI: 10.1080/00268976.2014.952696

 Q-Chem 5.3.0 for Intel X86 EM64T Linux

 Parts of Q-Chem use Armadillo 9.800.1 (Horizon Scraper).
 http://arma.sourceforge.net/

 Q-Chem begins on Sun Aug  9 21:17:48 2020  

n0052.mhg0
Host: 0

     Scratch files written to /local/scratch/users/yhljason/C2H_B3LYP_aug-pc-4.inp20200809204530//
Processing $rem in /clusterfs/mhg/diptarka/qchem_transmom//config/preferences:
Processing $rem in /global/home/users/yhljason/.qchemrc:

Checking the input file for inconsistencies... 	...done.

--------------------------------------------------------------
User input:
--------------------------------------------------------------
$molecule
0 2
C1	0.0000	0.0000	0.0000
C2	0.0000	0.0000	-1.2165
H3	0.0000	0.0000	1.0465
$end

$rem
jobtype sp
method B3LYP
xc_grid 000099000590
basis aug-pc-4
max_scf_cycles 200
thresh 14
scf_convergence 8
scf_algorithm gdm
symmetry false
sym_ignore true
unrestricted true
gen_scfman true
internal_stability_iter 15
internal_stability_davidson_iter 200
mem_total 64000
mem_static 1500
n_frozen_core 0
$end


--------------------------------------------------------------
 ----------------------------------------------------------------
             Standard Nuclear Orientation (Angstroms)
    I     Atom           X                Y                Z
 ----------------------------------------------------------------
    1      C       0.0000000000     0.0000000000     0.0000000000
    2      C       0.0000000000     0.0000000000    -1.2165000000
    3      H       0.0000000000     0.0000000000     1.0465000000
 ----------------------------------------------------------------
 Nuclear Repulsion Energy =          20.09700731 hartrees
 There are        7 alpha and        6 beta electrons
 Requested basis set is aug-pc-4
 There are 90 shells and 378 basis functions

 Total QAlloc Memory Limit  64000 MB
 Mega-Array Size      1467 MB
 MEM_STATIC part      1500 MB

                       Distance Matrix (Angstroms)
             C (  1)   C (  2)
   C (  2)  1.216500
   H (  3)  1.046500  2.263000

 A cutoff of  1.0D-14 yielded   4071 shell pairs
 There are     72439 function pairs (    136168 Cartesian)
 Smallest overlap matrix eigenvalue = 3.65E-07
 Linear dependence detected in AO basis
 Tighter screening thresholds may be required for diffuse basis sets
 Use S2THRESH > 14 and THRESH = 14 in case of SCF convergence issues
 Number of orthogonalized atomic orbitals = 376
 Maximum deviation from orthogonality = 7.782E-11

 Scale SEOQF with 1.000000e-01/1.000000e-01/1.000000e-01

 Standard Electronic Orientation quadrupole field applied
 Nucleus-field energy     =    -0.0000000011 hartrees
 Guess from superposition of atomic densities
 Warning:  Energy on first SCF cycle will be non-variational
 SAD guess density has 13.000000 electrons

 -----------------------------------------------------------------------
  General SCF calculation program by
  Eric Jon Sundstrom, Paul Horn, Yuezhi Mao, Dmitri Zuev, Alec White,
  David Stuck, Shaama M.S., Shane Yost, Joonho Lee, David Small,
  Daniel Levine, Susi Lehtola, Hugh Burton, Evgeny Epifanovsky,
  Bang C. Huynh
 -----------------------------------------------------------------------
 Exchange:     0.2000 Hartree-Fock + 0.0800 Slater + 0.7200 B88
 Correlation:  0.1900 VWN1RPA + 0.8100 LYP
 Using Euler-Maclaurin-Lebedev (99,590) quadrature formula
Running Object-Oriented UKS (UHF)
performing a single roothaan step with Fock from read density so that orbitals are available to all algorithms
energy of the guess density (C=0) -76.836072744516
We will preform up to 15 macro iterations over saddle points until a stable solution is found
Energy prior to optimization (guess energy) = -76.582694523782
Begin Timing: Total SCF Calculation
Begin Timing: SCF Single Stationary Point Calculation
begin iterations for algorithm: GDM          
the SCF tolerance is set to 1.00e-08
    1     -76.5826945238      1.16e-01     00000  Descent step
    2     -76.6093218000      1.89e-01     00000  Normal BFGS step
    3     -76.6318907784      8.06e-02     00000  Normal BFGS step
    4     -76.6415994685      2.53e-02     00000  Normal BFGS step
    5     -76.6444891700      7.13e-03     00000  Normal BFGS step
    6     -76.6445822312      2.45e-03     00000  Normal BFGS step
    7     -76.6446144689      1.50e-03     00000  Normal BFGS step
    8     -76.6446216370      2.14e-04     00000  Normal BFGS step
    9     -76.6446217283      2.82e-05     00000  Normal BFGS step
   10     -76.6446217306      4.38e-06     00000  Normal BFGS step
   11     -76.6446217307      1.01e-06     00000  Normal BFGS step
   12     -76.6446217307      5.92e-08     00000  Normal BFGS step
   13     -76.6446217307      2.25e-08     00000  Normal BFGS step
   14     -76.6446217307      1.14e-08     00000  Normal BFGS step
   15     -76.6446217307      1.75e-09     00000 Convergence criterion met
Timing for Single Stationary Point: 1325.00s (wall), 10408.24s (cpu)
Begin Timing: Stability
===================================================
Beginning Test for Internal Stability
===================================================
generating davidson guess vectors based on koopmans excitations
 Warning: Hessian-vector products not implemented
 Finite difference Hessian-vector products will be used.
computing hessian-vector products by finite difference
    1      4.42e-01     00000 Davidson Iteration
computing hessian-vector products by finite difference
    2      7.86e-02     00000 Davidson Iteration
computing hessian-vector products by finite difference
    3      2.60e-02     00000 Davidson Iteration
computing hessian-vector products by finite difference
    4      6.24e-03     00000 Davidson Iteration
computing hessian-vector products by finite difference
    5      1.15e-03     00000 Davidson Iteration
computing hessian-vector products by finite difference
    6      1.55e-04     00000 Davidson Iteration
computing hessian-vector products by finite difference
    7      5.05e-05     00000 Davidson Converged
converged_eigenvalues
   0.0261
   0.0261
Threshold for negative eigenvalues: -1.0e-05
solution was a local minimum (stable)
===================================================
End Test for Internal Stability
===================================================
Timing for Internal Stability: 3080.00s (wall), 24181.08s (cpu)
Our SCF solution is stable!
Timing for Total SCF: 4405.00s (wall), 34589.43s (cpu)
 Total energy in the final basis set =      -76.6446217307
<S^2> =          0.774055778
    ==================================================
              The end of Object-Oriented SCFman       
    ==================================================

 --------------------------------------------------------------

                    Orbital Energies (a.u.)
 --------------------------------------------------------------

 Alpha MOs
 -- Occupied --
-10.2497 -10.2046  -0.7785  -0.5679  -0.4097  -0.3199  -0.3199
 -- Virtual --
 -0.0043  -0.0030  -0.0030   0.0083   0.0177   0.0177   0.0318   0.0389
  0.0389   0.0495   0.0511   0.0820   0.0828   0.0828   0.0835   0.0835
  0.1141   0.1156   0.1156   0.1231   0.1231   0.1267   0.1267   0.1403
  0.1583   0.1691   0.1828   0.1891   0.1891   0.1960   0.1960   0.2260
  0.2260   0.2301   0.2301   0.2415   0.2415   0.2501   0.2501   0.2516
  0.2606   0.2606   0.2771   0.2771   0.2898   0.2988   0.2988   0.3039
  0.3039   0.3100   0.3380   0.3380   0.3426   0.3484   0.3679   0.3679
  0.3846   0.3846   0.3938   0.4013   0.4013   0.4227   0.4227   0.4434
  0.4685   0.4685   0.4817   0.4817   0.4886   0.4886   0.4891   0.4891
  0.4928   0.4928   0.5064   0.5248   0.5248   0.5257   0.5257   0.5399
  0.5447   0.5447   0.5732   0.5732   0.5767   0.5767   0.5789   0.5872
  0.5872   0.5994   0.5994   0.6302   0.6302   0.6329   0.6537   0.6537
  0.6587   0.6737   0.6737   0.7068   0.7162   0.7162   0.7389   0.7389
  0.7420   0.7420   0.7592   0.7592   0.7728   0.7728   0.7840   0.7933
  0.7933   0.7958   0.7958   0.8048   0.8124   0.8124   0.8558   0.8558
  0.8776   0.8776   0.8907   0.8907   0.8923   0.9038   0.9038   0.9267
  0.9906   0.9906   1.0075   1.0483   1.0592   1.0592   1.1462   1.1462
  1.1974   1.2428   1.2513   1.2513   1.2733   1.2733   1.2943   1.2943
  1.3839   1.3839   1.4121   1.4220   1.5381   1.5381   1.6199   1.6306
  1.6306   1.7136   1.7136   1.7794   1.7794   1.8698   1.9042   1.9042
  2.0028   2.0028   2.0685   2.1186   2.1186   2.1440   2.2035   2.2035
  2.2504   2.2504   2.3079   2.3079   2.3193   2.3699   2.5667   2.6488
  2.6488   2.7002   2.7002   2.7203   2.7911   2.7911   3.0804   3.1224
  3.1224   3.4529   3.4529   3.4946   3.5369   3.5369   3.6341   3.6341
  3.7390   3.9530   3.9530   3.9531   3.9531   3.9626   3.9626   4.0037
  4.0570   4.0570   4.1976   4.1976   4.2246   4.2246   4.3010   4.3241
  4.3241   4.3769   4.3769   4.3850   4.3850   4.4835   4.6359   4.6359
  4.6391   4.6391   4.7870   4.7870   4.8036   4.8833   4.8833   5.0253
  5.0253   5.0998   5.1795   5.1795   5.2705   5.2705   5.3878   5.4466
  5.5457   5.5457   6.1602   6.2570   6.2570   6.2894   6.2894   6.3804
  6.6210   6.6210   6.7255   6.7926   6.7926   7.3005   7.3234   7.3234
  7.6924   7.8250   7.8250   8.1752   8.8492   8.8492   8.9187   8.9187
  9.3700   9.6042  10.0247  10.0247  10.0722  10.0722  10.1955  10.1955
 10.2348  10.2348  10.3018  10.3018  10.3697  10.3697  10.4374  10.4374
 10.7201  10.7201  10.7655  10.8039  10.8039  10.9405  10.9405  11.0636
 11.1802  11.1802  11.3409  11.3409  11.4073  11.5210  11.5210  11.6436
 11.6436  11.6559  11.6559  11.7346  11.7346  11.7643  11.7643  11.7730
 11.7730  11.8159  11.8159  11.9299  11.9299  11.9820  11.9820  12.0904
 12.1391  12.1391  12.3086  12.3086  12.3592  12.7048  12.7048  12.7897
 12.7897  12.8211  12.8211  12.9719  13.1888  13.1888  13.2134  13.6188
 13.6188  14.0209  14.1168  14.1168  15.1508  15.1508  15.1669  16.1830
 16.1830  16.2350  16.5831  16.7658  16.7658  16.7884  16.7884  17.3101
 17.3101  17.7069  18.2141  18.2814  18.2814  19.1934  19.1934  19.5339
 19.5339  20.5936  21.3123  21.4232  21.4232  23.9195  23.9195  23.9436
 26.2318  32.0467  32.0467  32.1352  32.1352  32.2971  32.2971  33.4354
 33.4354  33.5585  35.6032  41.3184  74.7250  77.1582  91.3063  91.3063
 92.6709

 Beta MOs
 -- Occupied --
-10.2279 -10.2042  -0.7586  -0.5575  -0.3063  -0.3063
 -- Virtual --
 -0.2021  -0.0028   0.0108   0.0135   0.0135   0.0179   0.0179   0.0331
  0.0424   0.0424   0.0497   0.0558   0.0831   0.0831   0.0834   0.0834
  0.0850   0.1161   0.1191   0.1191   0.1239   0.1239   0.1267   0.1267
  0.1441   0.1585   0.1701   0.1889   0.1889   0.1906   0.1962   0.1962
  0.2262   0.2262   0.2326   0.2326   0.2414   0.2414   0.2500   0.2500
  0.2584   0.2633   0.2633   0.2781   0.2781   0.2919   0.2993   0.2993
  0.3053   0.3053   0.3133   0.3378   0.3378   0.3478   0.3548   0.3679
  0.3679   0.3845   0.3845   0.3985   0.4012   0.4012   0.4233   0.4233
  0.4511   0.4706   0.4706   0.4844   0.4844   0.4880   0.4880   0.4899
  0.4899   0.4932   0.4932   0.5113   0.5259   0.5259   0.5312   0.5312
  0.5451   0.5451   0.5456   0.5729   0.5729   0.5758   0.5758   0.5903
  0.5903   0.5912   0.6046   0.6046   0.6296   0.6296   0.6380   0.6537
  0.6537   0.6731   0.6735   0.6735   0.7104   0.7185   0.7185   0.7397
  0.7397   0.7414   0.7414   0.7595   0.7595   0.7738   0.7738   0.7901
  0.7944   0.7944   0.7960   0.7960   0.8143   0.8143   0.8158   0.8593
  0.8593   0.8807   0.8807   0.8925   0.8925   0.8985   0.9099   0.9099
  0.9305   0.9911   0.9911   1.0201   1.0575   1.0714   1.0714   1.1516
  1.1516   1.2145   1.2552   1.2552   1.2654   1.2750   1.2750   1.3072
  1.3072   1.3921   1.3921   1.4170   1.4406   1.5385   1.5385   1.6218
  1.6332   1.6332   1.7194   1.7194   1.7953   1.7953   1.8787   1.9126
  1.9126   2.0185   2.0185   2.0867   2.1259   2.1259   2.1615   2.2078
  2.2078   2.2776   2.2776   2.3179   2.3179   2.3362   2.4058   2.6050
  2.6688   2.6688   2.7044   2.7044   2.7406   2.8051   2.8051   3.0937
  3.1243   3.1243   3.4658   3.4658   3.5033   3.5389   3.5389   3.6396
  3.6396   3.7690   3.9560   3.9560   3.9581   3.9581   3.9858   3.9858
  4.0057   4.0678   4.0678   4.2183   4.2183   4.2404   4.2404   4.3048
  4.3320   4.3320   4.3806   4.3806   4.3949   4.3949   4.5232   4.6508
  4.6508   4.6796   4.6796   4.8019   4.8019   4.8075   4.8937   4.8937
  5.1004   5.1004   5.1894   5.1894   5.1981   5.3065   5.3065   5.4059
  5.4835   5.5644   5.5644   6.1931   6.2728   6.2728   6.3097   6.3097
  6.4053   6.6202   6.6202   6.7669   6.8016   6.8016   7.3176   7.3401
  7.3401   7.7084   7.8461   7.8461   8.1808   8.8537   8.8537   8.9231
  8.9231   9.3828   9.6182  10.0396  10.0396  10.1067  10.1067  10.2172
 10.2172  10.2488  10.2488  10.3262  10.3262  10.3755  10.3755  10.4585
 10.4585  10.7374  10.7374  10.7927  10.8157  10.8157  10.9482  10.9482
 11.0912  11.2100  11.2100  11.3575  11.3575  11.4450  11.5407  11.5407
 11.6373  11.6373  11.6798  11.6798  11.7557  11.7557  11.7757  11.7757
 11.8096  11.8096  11.8879  11.8879  11.9435  11.9435  12.0006  12.0006
 12.1533  12.1809  12.1809  12.3168  12.3168  12.4136  12.7640  12.7640
 12.8108  12.8108  12.9038  12.9038  12.9932  13.2063  13.2063  13.2675
 13.6286  13.6286  14.0799  14.1691  14.1691  15.1696  15.1696  15.1799
 16.2007  16.2007  16.2745  16.6129  16.7773  16.7773  16.7925  16.7925
 17.3139  17.3139  17.7132  18.2355  18.2973  18.2973  19.1974  19.1974
 19.5454  19.5454  20.5999  21.3369  21.4271  21.4271  23.9266  23.9266
 23.9566  26.2380  32.0556  32.0556  32.1371  32.1371  32.3145  32.3145
 33.4548  33.4548  33.5941  35.6161  41.3281  74.7460  77.1590  91.3165
 91.3165  92.6807
 --------------------------------------------------------------

          Ground-State Mulliken Net Atomic Charges

     Atom                 Charge (a.u.)    Spin (a.u.)
  --------------------------------------------------------
      1 C                    -0.287688      -0.096332
      2 C                     0.173865       1.074177
      3 H                     0.113823       0.022154
  --------------------------------------------------------
  Sum of atomic charges =    -0.000000
  Sum of spin   charges =     1.000000

 -----------------------------------------------------------------
                    Cartesian Multipole Moments
 -----------------------------------------------------------------
    Charge (ESU x 10^10)
                 0.0000
    Dipole Moment (Debye)
         X      -0.0000      Y       0.0000      Z       0.7587
       Tot       0.7587
    Quadrupole Moments (Debye-Ang)
        XX     -12.9395     XY       0.0000     YY     -12.9395
        XZ       0.0000     YZ      -0.0000     ZZ      -9.0882
    Octopole Moments (Debye-Ang^2)
       XXX      -0.0000    XXY       0.0000    XYY       0.0000
       YYY       0.0000    XXZ       6.7229    XYZ      -0.0000
       YYZ       6.7229    XZZ      -0.0000    YZZ       0.0000
       ZZZ      17.1824
    Hexadecapole Moments (Debye-Ang^3)
      XXXX     -16.4432   XXXY       0.0000   XXYY      -5.4811
      XYYY       0.0000   YYYY     -16.4432   XXXZ       0.0000
      XXYZ      -0.0000   XYYZ       0.0000   YYYZ      -0.0000
      XXZZ     -14.0327   XYZZ       0.0000   YYZZ     -14.0327
      XZZZ       0.0000   YZZZ      -0.0000   ZZZZ     -58.7845
 -----------------------------------------------------------------
Archival summary:
1\1\n0052.mhg0\SP\ProcedureUnspecified\BasisUnspecified\21(2)\yhljason\SunAug922:34:182020SunAug922:34:182020\0\\#,ProcedureUnspecified,BasisUnspecified,\\0,2\C\H,1,1.0465\C,1,1.2165,2,180\\\@

 Total job time:  4590.31s(wall), 36034.89s(cpu) 
 Sun Aug  9 22:34:18 2020

        *************************************************************
        *                                                           *
        *  Thank you very much for using Q-Chem.  Have a nice day.  *
        *                                                           *
        *************************************************************


