                  Welcome to Q-Chem
     A Quantum Leap Into The Future Of Chemistry


 Q-Chem 5.3 (devel), Q-Chem, Inc., Pleasanton, CA (2020)

 Yihan Shao,  Zhengting Gan,  E. Epifanovsky,  A. T. B. Gilbert,  M. Wormit,  
 J. Kussmann,  A. W. Lange,  A. Behn,  Jia Deng,  Xintian Feng,  D. Ghosh,  
 M. Goldey,  P. R. Horn,  L. D. Jacobson,  I. Kaliman,  T. Kus,  A. Landau,  
 Jie Liu,  E. I. Proynov,  R. M. Richard,  R. P. Steele,  E. J. Sundstrom,  
 H. L. Woodcock III,  P. M. Zimmerman,  D. Zuev,  B. Alam,  B. Albrecht,  
 E. Alguire,  S. A. Baeppler,  D. Barton,  Z. Benda,  Y. A. Bernard,  
 E. J. Berquist,  K. B. Bravaya,  H. Burton,  K. Carter-Fenk,  D. Casanova,  
 Chun-Min Chang,  Yunqing Chen,  A. Chien,  K. D. Closser,  M. P. Coons,  
 S. Coriani,  S. Dasgupta,  A. L. Dempwolff,  M. Diedenhofen,  Hainam Do,  
 R. G. Edgar,  Po-Tung Fang,  S. Faraji,  S. Fatehi,  Qingguo Feng,  
 J. Fosso-Tande,  J. Gayvert,  Qinghui Ge,  A. Ghysels,  G. Gidofalvi,  
 J. Gomes,  J. Gonthier,  A. Gunina,  D. Hait,  M. W. D. Hanson-Heine,  
 P. H. P. Harbach,  A. W. Hauser,  M. F. Herbst,  J. E. Herr,  
 E. G. Hohenstein,  Z. C. Holden,  Kerwin Hui,  B. C. Huynh,  T.-C. Jagau,  
 Hyunjun Ji,  B. Kaduk,  K. Khistyaev,  Jaehoon Kim,  P. Klunzinger,  K. Koh,  
 D. Kosenkov,  L. Koulias,  T. Kowalczyk,  C. M. Krauter,  A. Kunitsa,  
 Ka Un Lao,  A. Laurent,  K. V. Lawler,  Joonho Lee,  D. Lefrancois,  
 S. Lehtola,  D. S. Levine,  Yi-Pei Li,  You-Sheng Lin,  Fenglai Liu,  
 Kuan-Yu Liu,  E. Livshits,  M. Loipersberger,  A. Luenser,  P. Manohar,  
 E. Mansoor,  S. F. Manzer,  Shan-Ping Mao,  Yuezhi Mao,  N. Mardirossian,  
 A. V. Marenich,  T. Markovich,  L. A. Martinez-Martinez,  S. A. Maurer,  
 N. J. Mayhall,  S. C. McKenzie,  J.-M. Mewes,  P. Morgante,  A. F. Morrison,  
 J. W. Mullinax,  K. Nanda,  T. S. Nguyen-Beck,  R. Olivares-Amaya,  
 K. J. Oosterbaan,  J. A. Parkhill,  S. K. Paul,  F. Pavosevic,  Zheng Pei,  
 T. M. Perrine,  F. Plasser,  P. Pokhilko,  S. Prager,  A. Prociuk,  
 E. Ramos,  B. Rana,  D. R. Rehn,  F. Rob,  M. Scheurer,  M. Schneider,  
 N. Sergueev,  S. M. Sharada,  S. Sharma,  D. W. Small,  T. Stauch,  
 C. J. Stein,  T. Stein,  Yu-Chuan Su,  S. P. Veccham,  Zhen Tao,  
 A. J. W. Thom,  A. Tkatchenko,  T. Tsuchimochi,  N. M. Tubman,  L. Vogt,  
 M. L. Vidal,  O. Vydrov,  M. A. Watson,  J. Wenzel,  M. de Wergifosse,  
 T. A. Wesolowski,  A. White,  J. Witte,  A. Yamada,  Jun Yang,  K. Yao,  
 S. Yeganeh,  S. R. Yost,  Zhi-Qiang You,  A. Zech,  Igor Ying Zhang,  
 Xing Zhang,  Yan Zhao,  Ying Zhu,  B. R. Brooks,  G. K. L. Chan,  
 C. J. Cramer,  M. S. Gordon,  W. J. Hehre,  A. Klamt,  M. W. Schmidt,  
 C. D. Sherrill,  D. G. Truhlar,  A. Aspuru-Guzik,  R. Baer,  A. T. Bell,  
 N. A. Besley,  Jeng-Da Chai,  A. E. DePrince, III,  R. A. DiStasio Jr.,  
 A. Dreuw,  B. D. Dunietz,  T. R. Furlani,  Chao-Ping Hsu,  Yousung Jung,  
 Jing Kong,  D. S. Lambrecht,  WanZhen Liang,  C. Ochsenfeld,  
 V. A. Rassolov,  L. V. Slipchenko,  J. E. Subotnik,  T. Van Voorhis,  
 J. M. Herbert,  A. I. Krylov,  P. M. W. Gill,  M. Head-Gordon

 Contributors to earlier versions of Q-Chem not listed above: 
 R. D. Adamson,  B. Austin,  J. Baker,  G. J. O. Beran,  K. Brandhorst,  
 S. T. Brown,  E. F. C. Byrd,  A. K. Chakraborty,  C.-L. Cheng,  
 Siu Hung Chien,  D. M. Chipman,  D. L. Crittenden,  H. Dachsel,  
 R. J. Doerksen,  A. D. Dutoi,  L. Fusti-Molnar,  W. A. Goddard III,  
 A. Golubeva-Zadorozhnaya,  S. R. Gwaltney,  G. Hawkins,  A. Heyden,  
 S. Hirata,  G. Kedziora,  F. J. Keil,  C. Kelley,  Jihan Kim,  R. A. King,  
 R. Z. Khaliullin,  P. P. Korambath,  W. Kurlancheek,  A. M. Lee,  M. S. Lee,  
 S. V. Levchenko,  Ching Yeh Lin,  D. Liotard,  R. C. Lochan,  I. Lotan,  
 P. E. Maslen,  N. Nair,  D. P. O'Neill,  D. Neuhauser,  E. Neuscamman,  
 C. M. Oana,  R. Olson,  B. Peters,  R. Peverati,  P. A. Pieniazek,  
 Y. M. Rhee,  J. Ritchie,  M. A. Rohrdanz,  E. Rosta,  N. J. Russ,  
 H. F. Schaefer III,  N. E. Schultz,  N. Shenvi,  A. C. Simmonett,  A. Sodt,  
 D. Stuck,  K. S. Thanthiriwatte,  V. Vanovschi,  Tao Wang,  A. Warshel,  
 C. F. Williams,  Q. Wu,  X. Xu,  W. Zhang

 Please cite Q-Chem as follows:
 Y. Shao et al., Mol. Phys. 113, 184-215 (2015)
 DOI: 10.1080/00268976.2014.952696

 Q-Chem 5.3.0 for Intel X86 EM64T Linux

 Parts of Q-Chem use Armadillo 9.800.1 (Horizon Scraper).
 http://arma.sourceforge.net/

 Q-Chem begins on Sun Aug  9 04:44:05 2020  

n0090.mhg0
Host: 0

     Scratch files written to /local/scratch/users/yhljason/CH3_MN15_aug-pc-4.inp20200808232240//
Processing $rem in /clusterfs/mhg/diptarka/qchem_transmom//config/preferences:
Processing $rem in /global/home/users/yhljason/.qchemrc:

Checking the input file for inconsistencies... 	...done.

--------------------------------------------------------------
User input:
--------------------------------------------------------------
$molecule
0 2
C1 0.0000   0.0000   0.0000
H2 1.0790   0.0000   0.0000
H3 -0.5395  -0.9344  0.0000
H4 -0.5395  0.9344   0.0000
$end

$rem
jobtype sp
method MN15
xc_grid 000099000590
basis aug-pc-4
max_scf_cycles 200
thresh 14
scf_convergence 8
scf_algorithm gdm
symmetry false
sym_ignore true
unrestricted true
gen_scfman true
internal_stability_iter 15
internal_stability_davidson_iter 200
mem_total 64000
mem_static 1500
n_frozen_core 0
$end


--------------------------------------------------------------
 ----------------------------------------------------------------
             Standard Nuclear Orientation (Angstroms)
    I     Atom           X                Y                Z
 ----------------------------------------------------------------
    1      C       0.0000000000     0.0000000000     0.0000000000
    2      H       1.0790000000     0.0000000000     0.0000000000
    3      H      -0.5395000000    -0.9344000000     0.0000000000
    4      H      -0.5395000000     0.9344000000     0.0000000000
 ----------------------------------------------------------------
 Nuclear Repulsion Energy =           9.67746338 hartrees
 There are        5 alpha and        4 beta electrons
 Requested basis set is aug-pc-4
 There are 105 shells and 409 basis functions

 Total QAlloc Memory Limit  64000 MB
 Mega-Array Size      1467 MB
 MEM_STATIC part      1500 MB

                       Distance Matrix (Angstroms)
             C (  1)   H (  2)   H (  3)
   H (  2)  1.079000
   H (  3)  1.078964  1.868862
   H (  4)  1.078964  1.868862  1.868800

 A cutoff of  1.0D-14 yielded   5532 shell pairs
 There are     84664 function pairs (    148768 Cartesian)
 Smallest overlap matrix eigenvalue = 1.41E-07
 Linear dependence detected in AO basis
 Tighter screening thresholds may be required for diffuse basis sets
 Use S2THRESH > 14 and THRESH = 14 in case of SCF convergence issues
 Number of orthogonalized atomic orbitals = 405
 Maximum deviation from orthogonality = 3.818E-10

 Scale SEOQF with 1.000000e-01/1.000000e-01/1.000000e-01

 Standard Electronic Orientation quadrupole field applied
 Nucleus-field energy     =     0.0000000002 hartrees
 Guess from superposition of atomic densities
 Warning:  Energy on first SCF cycle will be non-variational
 SAD guess density has 9.000000 electrons

 -----------------------------------------------------------------------
  General SCF calculation program by
  Eric Jon Sundstrom, Paul Horn, Yuezhi Mao, Dmitri Zuev, Alec White,
  David Stuck, Shaama M.S., Shane Yost, Joonho Lee, David Small,
  Daniel Levine, Susi Lehtola, Hugh Burton, Evgeny Epifanovsky,
  Bang C. Huynh
 -----------------------------------------------------------------------
 Exchange:     0.4400 Hartree-Fock + 1.0000 MN15
 Correlation:  1.0000 MN15
 Using Euler-Maclaurin-Lebedev (99,590) quadrature formula
Running Object-Oriented UKS (UHF)
performing a single roothaan step with Fock from read density so that orbitals are available to all algorithms
energy of the guess density (C=0) -39.705101109075
We will preform up to 15 macro iterations over saddle points until a stable solution is found
Energy prior to optimization (guess energy) = -39.789985855685
Begin Timing: Total SCF Calculation
Begin Timing: SCF Single Stationary Point Calculation
begin iterations for algorithm: GDM          
the SCF tolerance is set to 1.00e-08
    1     -39.7899858557      4.67e-02     00000  Normal BFGS step
    2     -39.7982452326      5.08e-02     00000  Normal BFGS step
    3     -39.8107360468      3.44e-03     00000  Normal BFGS step
    4     -39.8108229153      8.46e-04     00000  Normal BFGS step
    5     -39.8108356844      2.31e-04     00000  Normal BFGS step
    6     -39.8108368525      9.41e-05     00000  Normal BFGS step
    7     -39.8108369511      1.84e-05     00000  Normal BFGS step
    8     -39.8108369551      4.53e-06     00000  Normal BFGS step
    9     -39.8108369552      1.55e-06     00000  Normal BFGS step
   10     -39.8108369552      4.79e-07     00000  Normal BFGS step
   11     -39.8108369552      6.29e-08     00000  Normal BFGS step
   12     -39.8108369552      1.68e-08     00000  Normal BFGS step
   13     -39.8108369552      6.20e-09     00000 Convergence criterion met
Timing for Single Stationary Point: 1636.00s (wall), 12955.63s (cpu)
Begin Timing: Stability
===================================================
Beginning Test for Internal Stability
===================================================
generating davidson guess vectors based on koopmans excitations
 Warning: Hessian-vector products not implemented
 Finite difference Hessian-vector products will be used.
computing hessian-vector products by finite difference
    1      3.93e-01     00000 Davidson Iteration
computing hessian-vector products by finite difference
    2      4.57e-01     00000 Davidson Iteration
computing hessian-vector products by finite difference
    3      1.09e-01     00000 Davidson Iteration
computing hessian-vector products by finite difference
    4      3.57e-02     00000 Davidson Iteration
computing hessian-vector products by finite difference
    5      1.43e-02     00000 Davidson Iteration
computing hessian-vector products by finite difference
    6      8.25e-03     00000 Davidson Iteration
computing hessian-vector products by finite difference
    7      3.12e-03     00000 Davidson Iteration
computing hessian-vector products by finite difference
    8      1.45e-03     00000 Davidson Iteration
computing hessian-vector products by finite difference
    9      3.33e-04     00000 Davidson Iteration
computing hessian-vector products by finite difference
   10      6.70e-05     00000 Davidson Iteration
computing hessian-vector products by finite difference
   11      3.26e-03     00000 Davidson Iteration
computing hessian-vector products by finite difference
   12      1.06e-03     00000 Davidson Iteration
computing hessian-vector products by finite difference
   13      6.61e-04     00000 Davidson Iteration
computing hessian-vector products by finite difference
   14      1.67e-03     00000 Davidson Iteration
computing hessian-vector products by finite difference
   15      4.26e-04     00000 Davidson Iteration
computing hessian-vector products by finite difference
   16      1.06e-04     00000 Davidson Iteration
computing hessian-vector products by finite difference
   17      6.85e-05     00000 Davidson Converged
converged_eigenvalues
   0.4021
   0.4892
Threshold for negative eigenvalues: -1.0e-05
solution was a local minimum (stable)
===================================================
End Test for Internal Stability
===================================================
Timing for Internal Stability: 10772.00s (wall), 85038.65s (cpu)
Our SCF solution is stable!
Timing for Total SCF: 12408.00s (wall), 97994.46s (cpu)
 Total energy in the final basis set =      -39.8108369552
<S^2> =          0.754753371
    ==================================================
              The end of Object-Oriented SCFman       
    ==================================================

 --------------------------------------------------------------

                    Orbital Energies (a.u.)
 --------------------------------------------------------------

 Alpha MOs
 -- Occupied --
-10.0856  -0.7325  -0.4665  -0.4665  -0.2676
 -- Virtual --
  0.0177   0.0344   0.0344   0.0372   0.0503   0.0503   0.0606   0.1028
  0.1096   0.1096   0.1119   0.1119   0.1159   0.1333   0.1333   0.1396
  0.1444   0.1553   0.1553   0.1566   0.1566   0.1606   0.1964   0.2059
  0.2310   0.2310   0.2360   0.2360   0.2436   0.2436   0.2686   0.2686
  0.2709   0.2810   0.2865   0.2865   0.2945   0.2984   0.3044   0.3059
  0.3059   0.3186   0.3216   0.3216   0.3369   0.3369   0.3565   0.3919
  0.3919   0.4036   0.4136   0.4136   0.4164   0.4324   0.4335   0.4335
  0.4473   0.4473   0.4486   0.4602   0.4602   0.4639   0.4743   0.4845
  0.4845   0.4868   0.4994   0.4994   0.5129   0.5247   0.5247   0.5390
  0.5648   0.5757   0.5757   0.5825   0.5826   0.6033   0.6117   0.6117
  0.6117   0.6166   0.6166   0.6204   0.6207   0.6207   0.6381   0.6810
  0.6971   0.6971   0.7120   0.7120   0.7422   0.7440   0.7490   0.7490
  0.7674   0.7674   0.7791   0.7823   0.7823   0.8174   0.8196   0.8249
  0.8250   0.8250   0.8250   0.8335   0.8533   0.8533   0.8674   0.8742
  0.8742   0.8774   0.8774   0.8846   0.8892   0.8907   0.8907   0.9217
  0.9343   0.9343   0.9351   0.9459   0.9538   0.9538   0.9668   0.9669
  0.9669   0.9701   0.9826   0.9826   0.9911   0.9911   1.0384   1.0508
  1.0508   1.1654   1.1654   1.1939   1.2547   1.2547   1.2735   1.3144
  1.3865   1.3966   1.3966   1.4367   1.4367   1.4799   1.4799   1.5142
  1.5822   1.5890   1.6098   1.6098   1.6335   1.6509   1.6963   1.6963
  1.7432   1.7432   1.8091   1.8091   1.8518   1.8637   1.9425   1.9425
  2.1194   2.1205   2.1205   2.1868   2.1868   2.2150   2.2179   2.2179
  2.4111   2.4416   2.4417   2.4428   2.4429   2.6384   2.6917   2.6918
  2.7618   2.7881   2.9764   2.9764   3.0161   3.0500   3.1716   3.1716
  3.2462   3.2462   3.3076   3.4193   3.5423   3.5870   3.6467   3.6467
  3.6524   3.6524   3.6707   3.7309   3.7309   3.7668   3.8140   3.8141
  3.8714   3.8714   3.9950   3.9950   4.0695   4.0695   4.1206   4.1329
  4.1389   4.3140   4.3141   4.4354   4.4858   4.4858   4.5253   4.5253
  4.5454   4.6013   4.6014   4.6171   4.7458   4.7458   4.8622   5.0678
  5.1547   5.1548   5.1602   5.1848   5.1848   5.2532   5.2532   5.2859
  5.3834   5.3835   5.4177   5.5736   5.5736   5.8790   6.0695   6.1333
  6.2435   6.2436   6.3612   6.3612   6.3740   6.3741   6.5086   6.7124
  6.7723   6.7723   6.8609   7.3426   7.5729   7.5729   8.3377   8.4161
  8.4245   8.4246   8.6983   8.7114   8.7115   8.8228   8.8229   8.8263
  8.8263   8.9017   8.9018   9.0109   9.0931   9.1300   9.2887   9.2888
  9.5433   9.8888   9.8889  10.2858  10.3106  10.3106  10.3376  10.3377
 10.3983  10.5252  10.6439  10.6439  10.6530  10.7469  10.7470  11.0867
 11.1470  11.1470  11.1896  11.1896  11.3271  11.3990  11.3991  11.5743
 11.5744  11.7345  11.8600  11.9313  11.9313  12.1071  12.1706  12.1933
 12.1933  12.2751  12.2751  12.3329  12.4612  12.4614  12.5701  12.6676
 12.6676  12.6932  12.7231  12.7338  12.7339  12.7965  13.1238  13.1239
 13.2609  13.2611  13.7697  13.7699  13.8908  14.1175  14.5032  14.8842
 14.8844  15.2501  15.2502  15.6200  16.1016  16.1017  16.2747  16.3003
 16.3003  16.3152  16.3251  16.3251  16.5087  16.5087  16.6908  16.8038
 16.8039  16.8235  17.0293  17.6931  17.7339  17.7568  18.1929  18.1930
 18.2743  18.2746  19.1332  19.6934  19.6935  19.7167  19.7169  19.7790
 20.1212  20.6985  20.6985  21.0940  21.0941  22.6636  22.6983  22.7975
 22.7975  23.2149  23.2150  24.5034  25.0944  25.0946  31.5948  31.5949
 32.6564  33.2806  33.2808  38.7379  38.8772  38.8772  71.4713  86.5936
 86.6467  86.6856  86.6857  86.7878  86.8308  86.8308  87.2390  87.2391

 Beta MOs
 -- Occupied --
-10.0775  -0.6868  -0.4533  -0.4533
 -- Virtual --
 -0.0312   0.0185   0.0334   0.0334   0.0368   0.0495   0.0495   0.0678
  0.1009   0.1112   0.1112   0.1116   0.1116   0.1309   0.1322   0.1322
  0.1377   0.1453   0.1521   0.1521   0.1527   0.1527   0.1697   0.1956
  0.2258   0.2277   0.2277   0.2353   0.2353   0.2549   0.2549   0.2670
  0.2670   0.2772   0.2858   0.2858   0.2877   0.2964   0.3041   0.3053
  0.3053   0.3130   0.3260   0.3260   0.3281   0.3415   0.3415   0.3723
  0.3903   0.3903   0.4011   0.4119   0.4119   0.4185   0.4307   0.4307
  0.4414   0.4422   0.4422   0.4458   0.4562   0.4562   0.4639   0.4722
  0.4839   0.4839   0.4861   0.4969   0.4969   0.5069   0.5215   0.5215
  0.5332   0.5713   0.5786   0.5786   0.5894   0.5894   0.6042   0.6102
  0.6102   0.6180   0.6180   0.6207   0.6207   0.6214   0.6356   0.6463
  0.6829   0.6958   0.6958   0.7142   0.7142   0.7365   0.7464   0.7464
  0.7504   0.7625   0.7625   0.7762   0.7775   0.7775   0.8178   0.8187
  0.8187   0.8191   0.8235   0.8235   0.8294   0.8507   0.8507   0.8676
  0.8681   0.8681   0.8707   0.8707   0.8766   0.8855   0.8888   0.8888
  0.9195   0.9296   0.9297   0.9297   0.9465   0.9507   0.9507   0.9632
  0.9632   0.9632   0.9738   0.9814   0.9814   0.9830   0.9830   1.0320
  1.0447   1.0447   1.1785   1.1785   1.2110   1.2528   1.2528   1.2695
  1.3652   1.3753   1.4018   1.4018   1.4370   1.4371   1.4629   1.4629
  1.5268   1.5718   1.5922   1.6114   1.6114   1.6381   1.6772   1.6860
  1.6860   1.7289   1.7289   1.8000   1.8000   1.8520   1.8550   1.9566
  1.9566   2.1746   2.1746   2.1827   2.1827   2.1890   2.2523   2.2523
  2.2815   2.4278   2.4570   2.4571   2.5053   2.5053   2.6614   2.6614
  2.6619   2.8024   2.9161   3.0030   3.0030   3.0468   3.0678   3.1735
  3.1735   3.2316   3.2316   3.3448   3.4163   3.5321   3.6017   3.6446
  3.6446   3.6482   3.6482   3.7154   3.7318   3.7399   3.7400   3.7864
  3.7864   3.8484   3.8485   4.0184   4.0184   4.0738   4.0738   4.1219
  4.1449   4.1555   4.3197   4.3197   4.5160   4.5469   4.5469   4.5892
  4.6463   4.6527   4.6527   4.6584   4.6584   4.6825   4.6826   4.8705
  5.0161   5.0915   5.0915   5.2034   5.2595   5.2595   5.3951   5.3952
  5.4088   5.4732   5.5216   5.5216   5.6360   5.6361   6.1392   6.1547
  6.1547   6.1958   6.2430   6.3742   6.3743   6.4483   6.4560   6.4560
  6.6966   6.6966   6.7506   6.7839   7.4365   7.4906   7.4906   8.2171
  8.2318   8.2474   8.2475   8.4739   8.4739   8.6460   8.7133   8.7133
  8.7335   8.7335   8.7959   8.9067   8.9068   9.0350   9.1087   9.1088
  9.1547   9.4319   9.7670   9.7671  10.1705  10.1705  10.2096  10.2873
 10.3262  10.3262  10.4791  10.5658  10.6309  10.6310  10.7060  10.7060
 11.0082  11.1569  11.1570  11.2243  11.2243  11.2525  11.4416  11.4416
 11.4786  11.4787  11.7279  11.8184  11.8184  11.9049  11.9880  12.1052
 12.1175  12.1175  12.1935  12.1936  12.2757  12.2758  12.3660  12.5102
 12.5888  12.5888  12.5974  12.6988  12.8932  12.8933  12.9870  13.0314
 13.0315  13.1975  13.1977  13.5453  13.5454  13.7293  13.8017  14.3707
 14.6678  14.6678  14.7704  14.7706  14.9125  15.5057  15.5057  16.1752
 16.1927  16.1927  16.2046  16.2047  16.2171  16.3478  16.3479  16.5325
 16.5556  16.5557  16.6681  16.7357  17.3036  17.4493  17.7703  17.8336
 17.8339  17.8378  17.8380  18.1558  18.5270  18.5271  18.9736  18.9737
 19.2501  19.3197  19.7193  19.7193  20.6828  20.6828  22.5360  22.6098
 22.7473  22.7473  23.0316  23.0317  23.8769  24.3561  24.3563  31.7618
 31.7619  32.7746  33.0661  33.0662  38.3668  38.4971  38.4971  71.5286
 85.9302  86.0989  86.0989  86.1662  86.2375  86.3296  86.3297  86.6245
 86.6246
 --------------------------------------------------------------

          Ground-State Mulliken Net Atomic Charges

     Atom                 Charge (a.u.)    Spin (a.u.)
  --------------------------------------------------------
      1 C                     0.277320       0.735417
      2 H                    -0.092425       0.088196
      3 H                    -0.092447       0.088193
      4 H                    -0.092447       0.088193
  --------------------------------------------------------
  Sum of atomic charges =    -0.000000
  Sum of spin   charges =     1.000000

 -----------------------------------------------------------------
                    Cartesian Multipole Moments
 -----------------------------------------------------------------
    Charge (ESU x 10^10)
                -0.0000
    Dipole Moment (Debye)
         X      -0.0000      Y       0.0000      Z       0.0000
       Tot       0.0000
    Quadrupole Moments (Debye-Ang)
        XX      -7.3283     XY       0.0000     YY      -7.3285
        XZ       0.0000     YZ       0.0000     ZZ      -9.2092
    Octopole Moments (Debye-Ang^2)
       XXX       0.8796    XXY      -0.0000    XYY      -0.8797
       YYY       0.0000    XXZ       0.0000    XYZ       0.0000
       YYZ      -0.0000    XZZ      -0.0000    YZZ      -0.0000
       ZZZ       0.0000
    Hexadecapole Moments (Debye-Ang^3)
      XXXX     -15.2898   XXXY       0.0000   XXYY      -5.0965
      XYYY      -0.0000   YYYY     -15.2895   XXXZ       0.0000
      XXYZ       0.0000   XYYZ       0.0000   YYYZ       0.0000
      XXZZ      -5.0424   XYZZ      -0.0000   YYZZ      -5.0423
      XZZZ       0.0000   YZZZ       0.0000   ZZZZ     -12.5081
 -----------------------------------------------------------------
Archival summary:
1\1\n0090.mhg0\SP\ProcedureUnspecified\BasisUnspecified\13(2)\yhljason\SunAug908:15:132020SunAug908:15:132020\0\\#,ProcedureUnspecified,BasisUnspecified,\\0,2\C\H,1,1.07896\H,1,1.07896,2,119.998\H,1,1.079,2,120.001,3,-180,0\\\@

 Total job time:  12667.92s(wall), 100040.94s(cpu) 
 Sun Aug  9 08:15:13 2020

        *************************************************************
        *                                                           *
        *  Thank you very much for using Q-Chem.  Have a nice day.  *
        *                                                           *
        *************************************************************


