Q-Chem Developer Version!
                  Welcome to Q-Chem
     A Quantum Leap Into The Future Of Chemistry


 Q-Chem 5.1, Q-Chem, Inc., Pleasanton, CA (2018)

 Yihan Shao,  Zhengting Gan,  E. Epifanovsky,  A. T. B. Gilbert,  M. Wormit,  
 J. Kussmann,  A. W. Lange,  A. Behn,  Jia Deng,  Xintian Feng,  D. Ghosh,  
 M. Goldey,  P. R. Horn,  L. D. Jacobson,  I. Kaliman,  T. Kus,  A. Landau,  
 Jie Liu,  E. I. Proynov,  R. M. Richard,  R. P. Steele,  E. J. Sundstrom,  
 H. L. Woodcock III,  P. M. Zimmerman,  D. Zuev,  B. Albrecht,  E. Alguire,  
 S. A. Baeppler,  D. Barton,  Z. Benda,  Y. A. Bernard,  E. J. Berquist,  
 K. B. Bravaya,  H. Burton,  D. Casanova,  Chun-Min Chang,  Yunqing Chen,  
 A. Chien,  K. D. Closser,  M. P. Coons,  S. Coriani,  S. Dasgupta,  
 A. L. Dempwolff,  M. Diedenhofen,  Hainam Do,  R. G. Edgar,  Po-Tung Fang,  
 S. Faraji,  S. Fatehi,  Qingguo Feng,  K. D. Fenk,  J. Fosso-Tande,  
 Qinghui Ge,  A. Ghysels,  G. Gidofalvi,  J. Gomes,  J. Gonthier,  A. Gunina,  
 D. Hait,  M. W. D. Hanson-Heine,  P. H. P. Harbach,  A. W. Hauser,  
 J. E. Herr,  E. G. Hohenstein,  Z. C. Holden,  Kerwin Hui,  B. C. Huynh,  
 T.-C. Jagau,  Hyunjun Ji,  B. Kaduk,  K. Khistyaev,  Jaehoon Kim,  
 P. Klunzinger,  K. Koh,  D. Kosenkov,  L. Koulias,  T. Kowalczyk,  
 C. M. Krauter,  A. Kunitsa,  Ka Un Lao,  A. Laurent,  K. V. Lawler,  
 Joonho Lee,  D. Lefrancois,  S. Lehtola,  D. S. Levine,  Yi-Pei Li,  
 You-Sheng Lin,  Fenglai Liu,  E. Livshits,  A. Luenser,  P. Manohar,  
 E. Mansoor,  S. F. Manzer,  Shan-Ping Mao,  Yuezhi Mao,  N. Mardirossian,  
 A. V. Marenich,  T. Markovich,  L. A. Martinez-Martinez,  S. A. Maurer,  
 N. J. Mayhall,  S. C. McKenzie,  J.-M. Mewes,  A. F. Morrison,  
 J. W. Mullinax,  K. Nanda,  T. S. Nguyen-Beck,  R. Olivares-Amaya,  
 J. A. Parkhill,  T. M. Perrine,  F. Plasser,  P. Pokhilko,  S. Prager,  
 A. Prociuk,  E. Ramos,  D. R. Rehn,  F. Rob,  M. Schneider,  N. Sergueev,  
 S. M. Sharada,  S. Sharma,  D. W. Small,  T. Stauch,  T. Stein,  
 Yu-Chuan Su,  A. J. W. Thom,  A. Tkatchenko,  T. Tsuchimochi,  N. M. Tubman,  
 L. Vogt,  M. L. Vidal,  O. Vydrov,  M. A. Watson,  J. Wenzel,  
 M. de Wergifosse,  T. A. Wesolowski,  A. White,  J. Witte,  A. Yamada,  
 Jun Yang,  K. Yao,  S. Yeganeh,  S. R. Yost,  Zhi-Qiang You,  A. Zech,  
 Igor Ying Zhang,  Xing Zhang,  Yan Zhao,  Ying Zhu,  B. R. Brooks,  
 G. K. L. Chan,  C. J. Cramer,  M. S. Gordon,  W. J. Hehre,  A. Klamt,  
 M. W. Schmidt,  C. D. Sherrill,  D. G. Truhlar,  A. Aspuru-Guzik,  R. Baer,  
 A. T. Bell,  N. A. Besley,  Jeng-Da Chai,  A. E. DePrince, III,  
 R. A. DiStasio Jr.,  A. Dreuw,  B. D. Dunietz,  T. R. Furlani,  
 Chao-Ping Hsu,  Yousung Jung,  Jing Kong,  D. S. Lambrecht,  WanZhen Liang,  
 C. Ochsenfeld,  V. A. Rassolov,  L. V. Slipchenko,  J. E. Subotnik,  
 T. Van Voorhis,  J. M. Herbert,  A. I. Krylov,  P. M. W. Gill,  M. Head-Gordon

 Contributors to earlier versions of Q-Chem not listed above: 
 R. D. Adamson,  B. Austin,  J. Baker,  G. J. O. Beran,  K. Brandhorst,  
 S. T. Brown,  E. F. C. Byrd,  A. K. Chakraborty,  C.-L. Cheng,  
 Siu Hung Chien,  D. M. Chipman,  D. L. Crittenden,  H. Dachsel,  
 R. J. Doerksen,  A. D. Dutoi,  L. Fusti-Molnar,  W. A. Goddard III,  
 A. Golubeva-Zadorozhnaya,  S. R. Gwaltney,  G. Hawkins,  A. Heyden,  
 S. Hirata,  G. Kedziora,  F. J. Keil,  C. Kelley,  Jihan Kim,  R. A. King,  
 R. Z. Khaliullin,  P. P. Korambath,  W. Kurlancheek,  A. M. Lee,  M. S. Lee,  
 S. V. Levchenko,  Ching Yeh Lin,  D. Liotard,  R. C. Lochan,  I. Lotan,  
 P. E. Maslen,  N. Nair,  D. P. O'Neill,  D. Neuhauser,  E. Neuscamman,  
 C. M. Oana,  R. Olson,  B. Peters,  R. Peverati,  P. A. Pieniazek,  
 Y. M. Rhee,  J. Ritchie,  M. A. Rohrdanz,  E. Rosta,  N. J. Russ,  
 H. F. Schaefer III,  N. E. Schultz,  N. Shenvi,  A. C. Simmonett,  A. Sodt,  
 D. Stuck,  K. S. Thanthiriwatte,  V. Vanovschi,  Tao Wang,  A. Warshel,  
 C. F. Williams,  Q. Wu,  X. Xu,  W. Zhang

 Please cite Q-Chem as follows:
 Y. Shao et al., Mol. Phys. 113, 184-215 (2015)
 DOI: 10.1080/00268976.2014.952696

 Q-Chem 5.1.1 for Intel X86 EM64T Linux

 Parts of Q-Chem use Armadillo 8.300.2 (Tropical Shenanigans).
 http://arma.sourceforge.net/

 Q-Chem begins on Sat Aug  8 13:27:20 2020  

Host: n0091.mhg0
0

     Scratch files written to /local/scratch/users/yhljason/ClF_B97-D3_aug-pc-4.inp20200808132700//
Input Ideriv = 2
Curr. Ideriv = -1
Max.  Ideriv = 2

Checking the input file for inconsistencies... 	...done.

--------------------------------------------------------------
User input:
--------------------------------------------------------------
$molecule
0 1
F1      0.0000  0.0000  0.0000
Cl2     0.0000  0.0000  1.6283
$end

$rem
jobtype sp
method B97-D3
xc_grid 000099000590
basis aug-pc-4
max_scf_cycles 200
thresh 14
scf_convergence 8
scf_algorithm gdm
symmetry false
sym_ignore true
unrestricted true
gen_scfman true
internal_stability_iter 15
internal_stability_davidson_iter 200
mem_total 64000
mem_static 1500
n_frozen_core 0
$end


--------------------------------------------------------------
 Adding empirical dispersion correction 
 ----------------------------------------------------------------
 Doing -D3(0) with
 s6  =   1.00000
 s8  =   0.90900
 rs6 =   0.89200
 rs8 =   1.00000
 -D3 energy without 3body term =     -0.0000246526 hartrees
 ----------------------------------------------------------------
             Standard Nuclear Orientation (Angstroms)
    I     Atom           X                Y                Z
 ----------------------------------------------------------------
    1      F       0.0000000000     0.0000000000     0.0000000000
    2      Cl      0.0000000000     0.0000000000     1.6283000000
 ----------------------------------------------------------------
 Nuclear Repulsion Energy =    49.7230689128 hartrees
 There are       13 alpha and       13 beta electrons
 Requested basis set is aug-pc-4
 There are 64 shells and 286 basis functions

 Total QAlloc Memory Limit  64000 MB
 Mega-Array Size      1467 MB
 MEM_STATIC part      1500 MB

                       Distance Matrix (Angstroms)
             F (  1)
   Cl(  2)  1.628300
 
 A cutoff of  1.0D-14 yielded   2063 shell pairs
 There are     41683 function pairs (     82092 Cartesian)
 
 -------------------------------------------------------
 OpenMP Integral Computing Module                       
 Release: version 1.0, May 2013, Q-Chem Inc. Pittsburgh 
 -------------------------------------------------------
 Integral Job Info:
 Integral job number is                      11
 Integral operator is                         1
 short-range coefficients                     0
 long-range coefficients              100000000
 Omega coefficients                           0
 if combine SR and LR in K                    0
 Integral screening is                        0
 Integral computing path is                   2
 max size of driver memory is           6400000
 size of driver memory is               5498286
 size of scratch memory is             27847117
 max col of scratch BK array             194481
 max len of scratch array in speh3         5572
 max len of scratch index in speh4           72
 max int batch size is                      520
 min int batch size is                       52
 fixed nKL is                                 7
 max L of basis functions is                  5
 order of int derivative is                   0
 number of shells is                         64
 number of basis is                         400
 number of cartesian basis is               400
 number of contracted shell pairs          2063
 number of primitive shell pairs           8853
 maxK2 (contraction) of shell pair          225
 max number of K2 of shell pair               1
 max number of CS2 of shell pair            169
 max number of PS2 of shell pair            528
 mem total for path MDJ                  956866
 -------------------------------------------------------
 Smallest overlap matrix eigenvalue = 2.20E-05

 Scale SEOQF with 1.000000e-01/1.000000e-01/1.000000e-01

 Standard Electronic Orientation quadrupole field applied
 Nucleus-field energy     =    -0.0000000048 hartrees
 Guess from superposition of atomic densities
 Warning:  Energy on first SCF cycle will be non-variational
 SAD guess density has 26.000000 electrons

 -----------------------------------------------------------------------
  General SCF calculation program by
  Eric Jon Sundstrom, Paul Horn, Yuezhi Mao, Dmitri Zuev, Alec White,
  David Stuck, Shaama M.S., Shane Yost, Joonho Lee, David Small,
  Daniel Levine, Susi Lehtola, Hugh Burton, Evgeny Epifanovsky
 -----------------------------------------------------------------------
 Exchange:  B97-D      Correlation:  B97-D
 Using Euler-Maclaurin-Lebedev (99,590) quadrature formula
 Dispersion:   Grimme D3
Running Object-Oriented UKS (UHF)
performing a single roothaan step with Fock from read density so that orbitals are available to all algorithms
energy of the guess density (C=0) -560.162028595248
We will preform up to 15 macro iterations over saddle points until a stable solution is found
Energy prior to optimization (guess energy) = -560.008885701485
Begin Timing: Total SCF Calculation
Begin Timing: SCF Single Stationary Point Calculation
begin iterations for algorithm: GDM          
the SCF tolerance is set to 1.00e-08
    1    -560.0088857015      1.25e-01     00000  Normal BFGS step
    2    -559.9415235692      3.68e-01     00000 Line search: overstep
    3    -560.0216854190      1.60e-02     00000  Normal BFGS step
    4    -560.0224989336      1.76e-02     00000  Normal BFGS step
    5    -560.0234785443      5.82e-03     00000  Normal BFGS step
    6    -560.0235198537      2.05e-03     00000  Normal BFGS step
    7    -560.0235423519      1.38e-04     00000  Normal BFGS step
    8    -560.0235425807      9.41e-05     00000  Normal BFGS step
    9    -560.0235427208      2.56e-05     00000  Normal BFGS step
   10    -560.0235427227      7.93e-06     00000  Normal BFGS step
   11    -560.0235427230      8.59e-08     00000  Normal BFGS step
   12    -560.0235427230      1.34e-07     00000  Normal BFGS step
   13    -560.0235427230      1.65e-07     00000  Normal BFGS step
   14    -560.0235427230      2.14e-08     00000  Normal BFGS step
   15    -560.0235427230      1.85e-08     00000  Normal BFGS step
   16    -560.0235427230      1.81e-09     00000 Convergence criterion met
Timing for Single Stationary Point: 225.00s (wall), 1785.75s (cpu)
Begin Timing: Stability
===================================================
Beginning Test for Internal Stability
===================================================
generating davidson guess vectors based on koopmans excitations
    1      8.23e-01     00000 Davidson Iteration
    2      1.54e-01     00000 Davidson Iteration
    3      1.15e-02     00000 Davidson Iteration
    4      6.28e-03     00000 Davidson Iteration
    5      1.04e-03     00000 Davidson Iteration
    6      3.07e-04     00000 Davidson Iteration
    7      6.26e-05     00000 Davidson Iteration
    8      7.67e-05     00000 Davidson Converged
converged_eigenvalues
   0.3220
   0.1606
Threshold for negative eigenvalues: -1.0e-05
solution was a local minimum (stable)
===================================================
End Test for Internal Stability
===================================================
Our SCF solution is stable!
Timing for Total SCF: 1664.00s (wall), 13225.80s (cpu)
 Total energy in the final basis set =     -560.0235427230
<S^2> =          0.000000000
    ==================================================
              The end of Object-Oriented SCFman       
    ==================================================
 
 --------------------------------------------------------------
 
                    Orbital Energies (a.u.)
 --------------------------------------------------------------
 
 Alpha MOs
 -- Occupied --
******* -24.307  -9.296  -7.139  -7.118  -7.118  -1.153  -0.767
 -0.501  -0.433  -0.433  -0.290  -0.290
 -- Virtual --
 -0.162  -0.003   0.027   0.027   0.030   0.064   0.072   0.072
  0.107   0.107   0.134   0.134   0.135   0.149   0.158   0.158
  0.168   0.227   0.251   0.251   0.265   0.265   0.282   0.282
  0.283   0.283   0.303   0.303   0.338   0.340   0.340   0.340
  0.362   0.362   0.408   0.408   0.447   0.474   0.499   0.499
  0.513   0.513   0.550   0.590   0.590   0.595   0.595   0.607
  0.635   0.635   0.642   0.642   0.657   0.664   0.664   0.675
  0.675   0.761   0.761   0.771   0.786   0.786   0.790   0.790
  0.792   0.792   0.824   0.824   0.836   0.852   0.852   0.864
  0.864   0.917   0.917   0.937   0.937   0.953   0.965   0.965
  0.987   0.987   1.099   1.126   1.126   1.202   1.202   1.219
  1.241   1.241   1.254   1.254   1.260   1.286   1.286   1.326
  1.326   1.381   1.381   1.401   1.401   1.402   1.434   1.617
  1.617   1.681   1.681   1.748   1.748   1.768   1.922   1.922
  1.999   2.028   2.028   2.113   2.168   2.168   2.226   2.226
  2.263   2.263   2.299   2.299   2.407   2.407   2.430   2.522
  2.522   2.550   2.837   2.895   2.895   2.931   2.931   2.934
  2.934   3.109   3.219   3.219   3.691   3.691   3.778   3.778
  3.900   3.900   3.914   4.067   4.082   4.082   4.587   4.746
  4.746   5.067   5.110   5.110   5.373   5.373   5.401   5.416
  5.416   5.457   5.544   5.544   5.596   5.596   5.647   5.647
  5.649   5.649   5.798   5.798   5.842   5.847   5.847   6.024
  6.024   6.060   6.060   6.073   6.251   6.251   7.001   7.001
  7.008   7.084   7.084   7.168   7.168   7.632   7.776   7.776
  8.570   8.570   8.899   9.070   9.070   9.101   9.101   9.277
  9.277   9.883   9.883  10.103  12.077  12.077  12.340  12.340
 12.606  12.606  12.628  12.628  12.648  12.648  12.657  12.657
 12.744  12.788  12.788  12.881  12.881  12.936  13.019  13.019
 13.396  13.396  13.911  14.184  14.184  14.503  14.903  14.903
 14.978  14.978  15.324  15.324  15.369  15.845  17.586  17.586
 17.634  17.634  18.156  20.069  20.069  20.077  20.077  20.351
 20.351  20.963  20.963  21.414  30.241  30.241  30.491  30.491
 31.074  39.946  41.371  41.371  41.683  42.640  65.693  65.693
 65.709  65.709  66.012  91.195  91.195  91.357  91.357  91.764
201.547
 
 Beta MOs
 -- Occupied --
******* -24.307  -9.296  -7.139  -7.118  -7.118  -1.153  -0.767
 -0.501  -0.433  -0.433  -0.290  -0.290
 -- Virtual --
 -0.162  -0.003   0.027   0.027   0.030   0.064   0.072   0.072
  0.107   0.107   0.134   0.134   0.135   0.149   0.158   0.158
  0.168   0.227   0.251   0.251   0.265   0.265   0.282   0.282
  0.283   0.283   0.303   0.303   0.338   0.340   0.340   0.340
  0.362   0.362   0.408   0.408   0.447   0.474   0.499   0.499
  0.513   0.513   0.550   0.590   0.590   0.595   0.595   0.607
  0.635   0.635   0.642   0.642   0.657   0.664   0.664   0.675
  0.675   0.761   0.761   0.771   0.786   0.786   0.790   0.790
  0.792   0.792   0.824   0.824   0.836   0.852   0.852   0.864
  0.864   0.917   0.917   0.937   0.937   0.953   0.965   0.965
  0.987   0.987   1.099   1.126   1.126   1.202   1.202   1.219
  1.241   1.241   1.254   1.254   1.260   1.286   1.286   1.326
  1.326   1.381   1.381   1.401   1.401   1.402   1.434   1.617
  1.617   1.681   1.681   1.748   1.748   1.768   1.922   1.922
  1.999   2.028   2.028   2.113   2.168   2.168   2.226   2.226
  2.263   2.263   2.299   2.299   2.407   2.407   2.430   2.522
  2.522   2.550   2.837   2.895   2.895   2.931   2.931   2.934
  2.934   3.109   3.219   3.219   3.691   3.691   3.778   3.778
  3.900   3.900   3.914   4.067   4.082   4.082   4.587   4.746
  4.746   5.067   5.110   5.110   5.373   5.373   5.401   5.416
  5.416   5.457   5.544   5.544   5.596   5.596   5.647   5.647
  5.649   5.649   5.798   5.798   5.842   5.847   5.847   6.024
  6.024   6.060   6.060   6.073   6.251   6.251   7.001   7.001
  7.008   7.084   7.084   7.168   7.168   7.632   7.776   7.776
  8.570   8.570   8.899   9.070   9.070   9.101   9.101   9.277
  9.277   9.883   9.883  10.103  12.077  12.077  12.340  12.340
 12.606  12.606  12.628  12.628  12.648  12.648  12.657  12.657
 12.744  12.788  12.788  12.881  12.881  12.936  13.019  13.019
 13.396  13.396  13.911  14.184  14.184  14.503  14.903  14.903
 14.978  14.978  15.324  15.324  15.369  15.845  17.586  17.586
 17.634  17.634  18.156  20.069  20.069  20.077  20.077  20.351
 20.351  20.963  20.963  21.414  30.241  30.241  30.491  30.491
 31.074  39.946  41.371  41.371  41.683  42.640  65.693  65.693
 65.709  65.709  66.012  91.195  91.195  91.357  91.357  91.764
201.547
 --------------------------------------------------------------
 
          Ground-State Mulliken Net Atomic Charges

     Atom                 Charge (a.u.)    Spin (a.u.)
  --------------------------------------------------------
      1 F                    -0.078144      -0.000000
      2 Cl                    0.078144       0.000000
  --------------------------------------------------------
  Sum of atomic charges =     0.000000
  Sum of spin   charges =    -0.000000

 -----------------------------------------------------------------
                    Cartesian Multipole Moments
 -----------------------------------------------------------------
    Charge (ESU x 10^10)
                -0.0000
    Dipole Moment (Debye)
         X      -0.0000      Y      -0.0000      Z       0.7514
       Tot       0.7514
    Quadrupole Moments (Debye-Ang)
        XX     -17.3992     XY      -0.0000     YY     -17.3992
        XZ      -0.0000     YZ       0.0000     ZZ     -14.4589
    Octopole Moments (Debye-Ang^2)
       XXX      -0.0000    XXY       0.0000    XYY      -0.0000
       YYY       0.0000    XXZ     -20.7944    XYZ      -0.0000
       YYZ     -20.7944    XZZ      -0.0000    YZZ       0.0000
       ZZZ     -51.0150
    Hexadecapole Moments (Debye-Ang^3)
      XXXX     -17.5912   XXXY      -0.0000   XXYY      -5.8637
      XYYY      -0.0000   YYYY     -17.5912   XXXZ      -0.0000
      XXYZ       0.0000   XYYZ      -0.0000   YYYZ       0.0000
      XXZZ     -39.7472   XYZZ      -0.0000   YYZZ     -39.7472
      XZZZ      -0.0000   YZZZ       0.0000   ZZZZ    -179.5928
 -----------------------------------------------------------------
Archival summary:
1\1\n0091.mhg0\SP\ProcedureUnspecified\BasisUnspecified\l11\yhljason\SatAug813:55:312020SatAug813:55:312020\0\\#,ProcedureUnspecified,BasisUnspecified,\\0,1\F\Cl,1,1.6283\\\@

 Total job time:  1690.61s(wall), 13397.63s(cpu) 
 Sat Aug  8 13:55:31 2020

        *************************************************************
        *                                                           *
        *  Thank you very much for using Q-Chem.  Have a nice day.  *
        *                                                           *
        *************************************************************


