Q-Chem Developer Version!
                  Welcome to Q-Chem
     A Quantum Leap Into The Future Of Chemistry


 Q-Chem 5.1, Q-Chem, Inc., Pleasanton, CA (2018)

 Yihan Shao,  Zhengting Gan,  E. Epifanovsky,  A. T. B. Gilbert,  M. Wormit,  
 J. Kussmann,  A. W. Lange,  A. Behn,  Jia Deng,  Xintian Feng,  D. Ghosh,  
 M. Goldey,  P. R. Horn,  L. D. Jacobson,  I. Kaliman,  T. Kus,  A. Landau,  
 Jie Liu,  E. I. Proynov,  R. M. Richard,  R. P. Steele,  E. J. Sundstrom,  
 H. L. Woodcock III,  P. M. Zimmerman,  D. Zuev,  B. Albrecht,  E. Alguire,  
 S. A. Baeppler,  D. Barton,  Z. Benda,  Y. A. Bernard,  E. J. Berquist,  
 K. B. Bravaya,  H. Burton,  D. Casanova,  Chun-Min Chang,  Yunqing Chen,  
 A. Chien,  K. D. Closser,  M. P. Coons,  S. Coriani,  S. Dasgupta,  
 A. L. Dempwolff,  M. Diedenhofen,  Hainam Do,  R. G. Edgar,  Po-Tung Fang,  
 S. Faraji,  S. Fatehi,  Qingguo Feng,  K. D. Fenk,  J. Fosso-Tande,  
 Qinghui Ge,  A. Ghysels,  G. Gidofalvi,  J. Gomes,  J. Gonthier,  A. Gunina,  
 D. Hait,  M. W. D. Hanson-Heine,  P. H. P. Harbach,  A. W. Hauser,  
 J. E. Herr,  E. G. Hohenstein,  Z. C. Holden,  Kerwin Hui,  B. C. Huynh,  
 T.-C. Jagau,  Hyunjun Ji,  B. Kaduk,  K. Khistyaev,  Jaehoon Kim,  
 P. Klunzinger,  K. Koh,  D. Kosenkov,  L. Koulias,  T. Kowalczyk,  
 C. M. Krauter,  A. Kunitsa,  Ka Un Lao,  A. Laurent,  K. V. Lawler,  
 Joonho Lee,  D. Lefrancois,  S. Lehtola,  D. S. Levine,  Yi-Pei Li,  
 You-Sheng Lin,  Fenglai Liu,  E. Livshits,  A. Luenser,  P. Manohar,  
 E. Mansoor,  S. F. Manzer,  Shan-Ping Mao,  Yuezhi Mao,  N. Mardirossian,  
 A. V. Marenich,  T. Markovich,  L. A. Martinez-Martinez,  S. A. Maurer,  
 N. J. Mayhall,  S. C. McKenzie,  J.-M. Mewes,  A. F. Morrison,  
 J. W. Mullinax,  K. Nanda,  T. S. Nguyen-Beck,  R. Olivares-Amaya,  
 J. A. Parkhill,  T. M. Perrine,  F. Plasser,  P. Pokhilko,  S. Prager,  
 A. Prociuk,  E. Ramos,  D. R. Rehn,  F. Rob,  M. Schneider,  N. Sergueev,  
 S. M. Sharada,  S. Sharma,  D. W. Small,  T. Stauch,  T. Stein,  
 Yu-Chuan Su,  A. J. W. Thom,  A. Tkatchenko,  T. Tsuchimochi,  N. M. Tubman,  
 L. Vogt,  M. L. Vidal,  O. Vydrov,  M. A. Watson,  J. Wenzel,  
 M. de Wergifosse,  T. A. Wesolowski,  A. White,  J. Witte,  A. Yamada,  
 Jun Yang,  K. Yao,  S. Yeganeh,  S. R. Yost,  Zhi-Qiang You,  A. Zech,  
 Igor Ying Zhang,  Xing Zhang,  Yan Zhao,  Ying Zhu,  B. R. Brooks,  
 G. K. L. Chan,  C. J. Cramer,  M. S. Gordon,  W. J. Hehre,  A. Klamt,  
 M. W. Schmidt,  C. D. Sherrill,  D. G. Truhlar,  A. Aspuru-Guzik,  R. Baer,  
 A. T. Bell,  N. A. Besley,  Jeng-Da Chai,  A. E. DePrince, III,  
 R. A. DiStasio Jr.,  A. Dreuw,  B. D. Dunietz,  T. R. Furlani,  
 Chao-Ping Hsu,  Yousung Jung,  Jing Kong,  D. S. Lambrecht,  WanZhen Liang,  
 C. Ochsenfeld,  V. A. Rassolov,  L. V. Slipchenko,  J. E. Subotnik,  
 T. Van Voorhis,  J. M. Herbert,  A. I. Krylov,  P. M. W. Gill,  M. Head-Gordon

 Contributors to earlier versions of Q-Chem not listed above: 
 R. D. Adamson,  B. Austin,  J. Baker,  G. J. O. Beran,  K. Brandhorst,  
 S. T. Brown,  E. F. C. Byrd,  A. K. Chakraborty,  C.-L. Cheng,  
 Siu Hung Chien,  D. M. Chipman,  D. L. Crittenden,  H. Dachsel,  
 R. J. Doerksen,  A. D. Dutoi,  L. Fusti-Molnar,  W. A. Goddard III,  
 A. Golubeva-Zadorozhnaya,  S. R. Gwaltney,  G. Hawkins,  A. Heyden,  
 S. Hirata,  G. Kedziora,  F. J. Keil,  C. Kelley,  Jihan Kim,  R. A. King,  
 R. Z. Khaliullin,  P. P. Korambath,  W. Kurlancheek,  A. M. Lee,  M. S. Lee,  
 S. V. Levchenko,  Ching Yeh Lin,  D. Liotard,  R. C. Lochan,  I. Lotan,  
 P. E. Maslen,  N. Nair,  D. P. O'Neill,  D. Neuhauser,  E. Neuscamman,  
 C. M. Oana,  R. Olson,  B. Peters,  R. Peverati,  P. A. Pieniazek,  
 Y. M. Rhee,  J. Ritchie,  M. A. Rohrdanz,  E. Rosta,  N. J. Russ,  
 H. F. Schaefer III,  N. E. Schultz,  N. Shenvi,  A. C. Simmonett,  A. Sodt,  
 D. Stuck,  K. S. Thanthiriwatte,  V. Vanovschi,  Tao Wang,  A. Warshel,  
 C. F. Williams,  Q. Wu,  X. Xu,  W. Zhang

 Please cite Q-Chem as follows:
 Y. Shao et al., Mol. Phys. 113, 184-215 (2015)
 DOI: 10.1080/00268976.2014.952696

 Q-Chem 5.1.1 for Intel X86 EM64T Linux

 Parts of Q-Chem use Armadillo 8.300.2 (Tropical Shenanigans).
 http://arma.sourceforge.net/

 Q-Chem begins on Sat Aug  8 13:27:19 2020  

Host: n0065.mhg0
0

     Scratch files written to /local/scratch/users/yhljason/CO2_M08-HX_aug-pc-4.inp20200808132659//
Input Ideriv = 2
Curr. Ideriv = -1
Max.  Ideriv = 2
Input Ideriv = 1
Curr. Ideriv = 2
Max.  Ideriv = 1

Checking the input file for inconsistencies... 	...done.

--------------------------------------------------------------
User input:
--------------------------------------------------------------
$molecule
0 1
C1	0.0000	0.0000	0.0000
O2	0.0000	0.0000	1.1621
O3	0.0000	0.0000	-1.1621
$end

$rem
jobtype sp
method M08-HX
xc_grid 000099000590
basis aug-pc-4
max_scf_cycles 200
thresh 14
scf_convergence 8
scf_algorithm gdm
symmetry false
sym_ignore true
unrestricted true
gen_scfman true
internal_stability_iter 15
internal_stability_davidson_iter 200
mem_total 64000
mem_static 1500
n_frozen_core 0
$end


--------------------------------------------------------------
 ----------------------------------------------------------------
             Standard Nuclear Orientation (Angstroms)
    I     Atom           X                Y                Z
 ----------------------------------------------------------------
    1      C       0.0000000000     0.0000000000     0.0000000000
    2      O       0.0000000000     0.0000000000     1.1621000000
    3      O       0.0000000000     0.0000000000    -1.1621000000
 ----------------------------------------------------------------
 Nuclear Repulsion Energy =    58.2864495159 hartrees
 There are       11 alpha and       11 beta electrons
 Requested basis set is aug-pc-4
 There are 99 shells and 435 basis functions

 Total QAlloc Memory Limit  64000 MB
 Mega-Array Size      1467 MB
 MEM_STATIC part      1500 MB

                       Distance Matrix (Angstroms)
             C (  1)   O (  2)
   O (  2)  1.162100
   O (  3)  1.162100  2.324200
 
 A cutoff of  1.0D-14 yielded   4864 shell pairs
 There are     95204 function pairs (    185867 Cartesian)
 
 -------------------------------------------------------
 OpenMP Integral Computing Module                       
 Release: version 1.0, May 2013, Q-Chem Inc. Pittsburgh 
 -------------------------------------------------------
 Integral Job Info:
 Integral job number is                      11
 Integral operator is                         1
 short-range coefficients                     0
 long-range coefficients              100000000
 Omega coefficients                           0
 if combine SR and LR in K                    0
 Integral screening is                        0
 Integral computing path is                   2
 max size of driver memory is           6400000
 size of driver memory is               5498286
 size of scratch memory is             29792225
 max col of scratch BK array             194481
 max len of scratch array in speh3         5572
 max len of scratch index in speh4           72
 max int batch size is                      520
 min int batch size is                       52
 fixed nKL is                                25
 max L of basis functions is                  5
 order of int derivative is                   0
 number of shells is                         99
 number of basis is                         606
 number of cartesian basis is               606
 number of contracted shell pairs          4864
 number of primitive shell pairs          11819
 maxK2 (contraction) of shell pair          121
 max number of K2 of shell pair               1
 max number of CS2 of shell pair            439
 max number of PS2 of shell pair            671
 mem total for path MDJ                 1213232
 -------------------------------------------------------
 Smallest overlap matrix eigenvalue = 2.62E-07
 Linear dependence detected in AO basis
 Number of orthogonalized atomic orbitals = 433
 Maximum deviation from orthogonality = 1.425E-10

 Scale SEOQF with 1.000000e-01/1.000000e-01/1.000000e-01

 Standard Electronic Orientation quadrupole field applied
 Nucleus-field energy     =    -0.0000000023 hartrees
 Guess from superposition of atomic densities
 Warning:  Energy on first SCF cycle will be non-variational
 SAD guess density has 22.000000 electrons

 -----------------------------------------------------------------------
  General SCF calculation program by
  Eric Jon Sundstrom, Paul Horn, Yuezhi Mao, Dmitri Zuev, Alec White,
  David Stuck, Shaama M.S., Shane Yost, Joonho Lee, David Small,
  Daniel Levine, Susi Lehtola, Hugh Burton, Evgeny Epifanovsky
 -----------------------------------------------------------------------
 Exchange:     0.5223 Hartree-Fock + 1.0000 M08-HX
 Correlation:  1.0000 M08-HX
 Using Euler-Maclaurin-Lebedev (99,590) quadrature formula
Running Object-Oriented UKS (UHF)
performing a single roothaan step with Fock from read density so that orbitals are available to all algorithms
 LTot/LBra/LKet=          18           9           9
 LTot/LBra/LKet=          18           9           9
 LTot/LBra/LKet=          18           9           9

 Q-Chem warning:

 in GenH1, ket side, handled with new code

 LTot/LBra/LKet=          18           9           9
 LTot/LBra/LKet=          18           9           9

 Q-Chem warning:

 in GenH1, ket side, handled with new code


 Q-Chem warning:

 in GenH1, ket side, handled with new code


 Q-Chem warning:

 in GenH1, ket side, handled with new code

 LTot/LBra/LBra=          18           9           9

 Q-Chem warning:

 in GenH1, bra side, handled with new code


 Q-Chem warning:

 in GenH1, ket side, handled with new code

energy of the guess density (C=0) -189.105466825624
We will preform up to 15 macro iterations over saddle points until a stable solution is found
Energy prior to optimization (guess energy) = -188.530684844096
Begin Timing: Total SCF Calculation
Begin Timing: SCF Single Stationary Point Calculation
begin iterations for algorithm: GDM          
the SCF tolerance is set to 1.00e-08
    1    -188.5306848441      1.96e-01     00000  Descent step
    2    -188.5983704612      4.95e-02     00000  Normal BFGS step
    3    -188.6079636937      2.70e-03     00000  Normal BFGS step
    4    -188.6080683276      1.25e-03     00000  Normal BFGS step
    5    -188.6080835325      1.53e-04     00000  Normal BFGS step
    6    -188.6080839796      2.86e-05     00000  Normal BFGS step
    7    -188.6080839890      4.45e-06     00000  Normal BFGS step
    8    -188.6080839891      4.95e-07     00000  Normal BFGS step
    9    -188.6080839891      6.85e-08     00000  Normal BFGS step
   10    -188.6080839891      3.11e-08     00000  Normal BFGS step
   11    -188.6080839891      2.27e-08     00000  Normal BFGS step
   12    -188.6080839891      3.34e-10     00000 Convergence criterion met
Timing for Single Stationary Point: 7463.00s (wall), 54105.14s (cpu)
Begin Timing: Stability
===================================================
Beginning Test for Internal Stability
===================================================
generating davidson guess vectors based on koopmans excitations
    1      4.55e-01     00000 Davidson Iteration
    2      2.16e-01     00000 Davidson Iteration
    3      4.77e-02     00000 Davidson Iteration
    4      2.20e-02     00000 Davidson Iteration
    5      1.98e-02     00000 Davidson Iteration
    6      3.33e-03     00000 Davidson Iteration
    7      1.90e-03     00000 Davidson Iteration
    8      4.74e-03     00000 Davidson Iteration
    9      2.47e-03     00000 Davidson Iteration
   10      5.38e-04     00000 Davidson Iteration
   11      2.46e-04     00000 Davidson Iteration
   12      5.97e-04     00000 Davidson Iteration
   13      2.36e-04     00000 Davidson Iteration
   14      2.45e-04     00000 Davidson Iteration
   15      2.38e-04     00000 Davidson Iteration
   16      2.38e-04     00000 Davidson Iteration
   17      2.33e-04     00000 Davidson Iteration
   18      1.36e-04     00000 Davidson Iteration
   19      6.65e-05     00000 Davidson Iteration
   20      2.34e-04     00000 Davidson Iteration
   21      2.37e-04     00000 Davidson Iteration
   22      2.89e-04     00000 Davidson Iteration
   23      3.83e-04     00000 Davidson Iteration
   24      1.51e-04     00000 Davidson Iteration
   25      6.17e-05     00000 Davidson Converged
converged_eigenvalues
   0.4365
   0.5105
Threshold for negative eigenvalues: -1.0e-05
solution was a local minimum (stable)
===================================================
End Test for Internal Stability
===================================================
Our SCF solution is stable!
Timing for Total SCF: 27580.00s (wall), 214159.22s (cpu)
 Total energy in the final basis set =     -188.6080839891
<S^2> =         -0.000000000
    ==================================================
              The end of Object-Oriented SCFman       
    ==================================================
 
 --------------------------------------------------------------
 
                    Orbital Energies (a.u.)
 --------------------------------------------------------------
 
 Alpha MOs
 -- Occupied --
-19.702 -19.702 -10.735  -1.295  -1.244  -0.666  -0.618  -0.612
 -0.612  -0.453  -0.453
 -- Virtual --
 -0.031   0.006   0.006   0.007   0.038   0.042   0.042   0.055
  0.055   0.058   0.061   0.061   0.066   0.069   0.069   0.094
  0.107   0.107   0.117   0.127   0.127   0.154   0.154   0.169
  0.169   0.175   0.191   0.196   0.196   0.210   0.210   0.215
  0.220   0.220   0.233   0.248   0.248   0.278   0.278   0.298
  0.298   0.300   0.300   0.303   0.307   0.312   0.312   0.315
  0.315   0.329   0.329   0.352   0.391   0.392   0.392   0.429
  0.429   0.460   0.464   0.464   0.475   0.475   0.485   0.485
  0.496   0.496   0.499   0.502   0.507   0.507   0.516   0.516
  0.521   0.521   0.524   0.524   0.556   0.556   0.587   0.618
  0.618   0.621   0.621   0.627   0.627   0.630   0.656   0.656
  0.674   0.679   0.720   0.720   0.725   0.725   0.750   0.750
  0.754   0.754   0.789   0.806   0.806   0.839   0.839   0.883
  0.883   0.895   0.895   0.911   0.911   0.911   0.911   0.917
  0.918   0.918   0.923   0.923   0.940   0.954   0.976   0.976
  0.989   0.989   1.013   1.013   1.019   1.049   1.049   1.055
  1.055   1.079   1.079   1.114   1.114   1.124   1.141   1.141
  1.167   1.194   1.194   1.205   1.233   1.233   1.234   1.234
  1.254   1.258   1.258   1.268   1.268   1.391   1.436   1.436
  1.471   1.471   1.482   1.669   1.669   1.767   1.767   1.767
  1.861   1.861   1.874   1.880   1.931   1.934   1.934   1.975
  1.975   2.072   2.072   2.144   2.144   2.173   2.205   2.205
  2.213   2.213   2.218   2.218   2.308   2.308   2.367   2.438
  2.438   2.514   2.514   2.554   2.554   2.649   2.822   2.822
  2.852   2.926   2.926   3.203   3.304   3.434   3.499   3.499
  3.552   3.552   3.897   3.954   3.954   4.099   4.099   4.211
  4.211   4.224   4.256   4.256   4.262   4.262   4.278   4.278
  4.297   4.412   4.412   4.476   4.527   4.527   4.630   4.833
  4.833   4.833   4.833   4.888   4.888   4.960   4.960   5.051
  5.051   5.153   5.236   5.236   5.259   5.259   5.303   5.303
  5.440   5.594   5.915   5.915   6.013   6.013   6.038   6.038
  6.099   6.103   6.103   6.223   6.223   6.229   6.229   6.478
  6.734   6.734   6.759   6.908   6.908   7.026   7.026   7.507
  7.507   7.565   8.153   8.153   8.210   8.295   8.295   8.389
  8.389   8.421   8.421   8.536   8.883   9.387   9.387   9.556
  9.556   9.558  10.149  10.149  10.299  10.299  10.481  10.481
 10.495  10.495  10.527  10.527  10.541  10.589  10.589  10.628
 10.633  10.633  10.912  10.912  11.019  11.080  11.115  11.115
 11.418  11.418  11.476  11.476  11.702  11.702  11.759  11.759
 11.828  11.828  11.886  11.886  11.968  11.968  11.983  11.983
 11.987  12.007  12.007  12.062  12.062  12.283  12.354  12.354
 12.447  12.447  12.473  12.473  12.632  12.632  12.690  12.869
 12.869  12.947  13.019  13.019  13.155  13.155  13.253  13.253
 13.569  14.063  14.063  14.223  14.223  14.279  14.857  14.857
 14.912  14.912  15.574  16.261  16.261  16.654  16.654  16.659
 16.659  16.745  16.860  16.860  16.996  16.997  17.023  17.023
 17.075  17.589  17.589  18.050  18.050  18.128  18.128  18.418
 18.624  18.624  18.748  18.876  18.901  18.901  20.252  20.252
 21.238  23.094  23.094  23.100  23.100  24.244  24.244  24.592
 24.837  24.837  26.785  26.999  30.559  30.991  32.230  32.230
 32.408  32.408  32.445  32.445  33.689  33.689  34.255  35.077
 36.802  66.969  66.969  66.980  66.980  67.635  67.635  68.083
 68.083  69.334  69.419  77.275 142.866 143.811
 
 Beta MOs
 -- Occupied --
-19.702 -19.702 -10.735  -1.295  -1.244  -0.666  -0.618  -0.612
 -0.612  -0.453  -0.453
 -- Virtual --
 -0.031   0.006   0.006   0.007   0.038   0.042   0.042   0.055
  0.055   0.058   0.061   0.061   0.066   0.069   0.069   0.094
  0.107   0.107   0.117   0.127   0.127   0.154   0.154   0.169
  0.169   0.175   0.191   0.196   0.196   0.210   0.210   0.215
  0.220   0.220   0.233   0.248   0.248   0.278   0.278   0.298
  0.298   0.300   0.300   0.303   0.307   0.312   0.312   0.315
  0.315   0.329   0.329   0.352   0.391   0.392   0.392   0.429
  0.429   0.460   0.464   0.464   0.475   0.475   0.485   0.485
  0.496   0.496   0.499   0.502   0.507   0.507   0.516   0.516
  0.521   0.521   0.524   0.524   0.556   0.556   0.587   0.618
  0.618   0.621   0.621   0.627   0.627   0.630   0.656   0.656
  0.674   0.679   0.720   0.720   0.725   0.725   0.750   0.750
  0.754   0.754   0.789   0.806   0.806   0.839   0.839   0.883
  0.883   0.895   0.895   0.911   0.911   0.911   0.911   0.917
  0.918   0.918   0.923   0.923   0.940   0.954   0.976   0.976
  0.989   0.989   1.013   1.013   1.019   1.049   1.049   1.055
  1.055   1.079   1.079   1.114   1.114   1.124   1.141   1.141
  1.167   1.194   1.194   1.205   1.233   1.233   1.234   1.234
  1.254   1.258   1.258   1.268   1.268   1.391   1.436   1.436
  1.471   1.471   1.482   1.669   1.669   1.767   1.767   1.767
  1.861   1.861   1.874   1.880   1.931   1.934   1.934   1.975
  1.975   2.072   2.072   2.144   2.144   2.173   2.205   2.205
  2.213   2.213   2.218   2.218   2.308   2.308   2.367   2.438
  2.438   2.514   2.514   2.554   2.554   2.649   2.822   2.822
  2.852   2.926   2.926   3.203   3.304   3.434   3.499   3.499
  3.552   3.552   3.897   3.954   3.954   4.099   4.099   4.211
  4.211   4.224   4.256   4.256   4.262   4.262   4.278   4.278
  4.297   4.412   4.412   4.476   4.527   4.527   4.630   4.833
  4.833   4.833   4.833   4.888   4.888   4.960   4.960   5.051
  5.051   5.153   5.236   5.236   5.259   5.259   5.303   5.303
  5.440   5.594   5.915   5.915   6.013   6.013   6.038   6.038
  6.099   6.103   6.103   6.223   6.223   6.229   6.229   6.478
  6.734   6.734   6.759   6.908   6.908   7.026   7.026   7.507
  7.507   7.565   8.153   8.153   8.210   8.295   8.295   8.389
  8.389   8.421   8.421   8.536   8.883   9.387   9.387   9.556
  9.556   9.558  10.149  10.149  10.299  10.299  10.481  10.481
 10.495  10.495  10.527  10.527  10.541  10.589  10.589  10.628
 10.633  10.633  10.912  10.912  11.019  11.080  11.115  11.115
 11.418  11.418  11.476  11.476  11.702  11.702  11.759  11.759
 11.828  11.828  11.886  11.886  11.968  11.968  11.983  11.983
 11.987  12.007  12.007  12.062  12.062  12.283  12.354  12.354
 12.447  12.447  12.473  12.473  12.632  12.632  12.690  12.869
 12.869  12.947  13.019  13.019  13.155  13.155  13.253  13.253
 13.569  14.063  14.063  14.223  14.223  14.279  14.857  14.857
 14.912  14.912  15.574  16.261  16.261  16.654  16.654  16.659
 16.659  16.745  16.860  16.860  16.996  16.997  17.023  17.023
 17.075  17.589  17.589  18.050  18.050  18.128  18.128  18.418
 18.624  18.624  18.748  18.876  18.901  18.901  20.252  20.252
 21.238  23.094  23.094  23.100  23.100  24.244  24.244  24.592
 24.837  24.837  26.785  26.999  30.559  30.991  32.230  32.230
 32.408  32.408  32.445  32.445  33.689  33.689  34.255  35.077
 36.802  66.969  66.969  66.980  66.980  67.635  67.635  68.083
 68.083  69.334  69.419  77.275 142.866 143.811
 --------------------------------------------------------------
 
          Ground-State Mulliken Net Atomic Charges

     Atom                 Charge (a.u.)    Spin (a.u.)
  --------------------------------------------------------
      1 C                    -0.102937       0.000000
      2 O                     0.051468      -0.000000
      3 O                     0.051468      -0.000000
  --------------------------------------------------------
  Sum of atomic charges =    -0.000000
  Sum of spin   charges =     0.000000

 -----------------------------------------------------------------
                    Cartesian Multipole Moments
 -----------------------------------------------------------------
    Charge (ESU x 10^10)
                -0.0000
    Dipole Moment (Debye)
         X       0.0000      Y      -0.0000      Z       0.0000
       Tot       0.0000
    Quadrupole Moments (Debye-Ang)
        XX     -14.9291     XY      -0.0000     YY     -14.9291
        XZ      -0.0000     YZ       0.0000     ZZ     -19.4475
    Octopole Moments (Debye-Ang^2)
       XXX       0.0000    XXY      -0.0000    XYY       0.0000
       YYY      -0.0000    XXZ      -0.0000    XYZ       0.0000
       YYZ      -0.0000    XZZ      -0.0000    YZZ      -0.0000
       ZZZ       0.0000
    Hexadecapole Moments (Debye-Ang^3)
      XXXX     -12.1689   XXXY      -0.0000   XXYY      -4.0563
      XYYY      -0.0000   YYYY     -12.1689   XXXZ      -0.0000
      XXYZ      -0.0000   XYYZ      -0.0000   YYYZ      -0.0000
      XXZZ     -19.2022   XYZZ       0.0000   YYZZ     -19.2022
      XZZZ       0.0000   YZZZ      -0.0000   ZZZZ    -104.0250
 -----------------------------------------------------------------
Archival summary:
1\1\n0065.mhg0\SP\ProcedureUnspecified\BasisUnspecified\21\yhljason\SatAug821:19:372020SatAug821:19:372020\0\\#,ProcedureUnspecified,BasisUnspecified,\\0,1\C\O,1,1.1621\O,1,1.1621,2,180\\\@

 Total job time:  28337.46s(wall), 219227.00s(cpu) 
 Sat Aug  8 21:19:37 2020

        *************************************************************
        *                                                           *
        *  Thank you very much for using Q-Chem.  Have a nice day.  *
        *                                                           *
        *************************************************************


