Q-Chem Developer Version!
                  Welcome to Q-Chem
     A Quantum Leap Into The Future Of Chemistry


 Q-Chem 5.1, Q-Chem, Inc., Pleasanton, CA (2018)

 Yihan Shao,  Zhengting Gan,  E. Epifanovsky,  A. T. B. Gilbert,  M. Wormit,  
 J. Kussmann,  A. W. Lange,  A. Behn,  Jia Deng,  Xintian Feng,  D. Ghosh,  
 M. Goldey,  P. R. Horn,  L. D. Jacobson,  I. Kaliman,  T. Kus,  A. Landau,  
 Jie Liu,  E. I. Proynov,  R. M. Richard,  R. P. Steele,  E. J. Sundstrom,  
 H. L. Woodcock III,  P. M. Zimmerman,  D. Zuev,  B. Albrecht,  E. Alguire,  
 S. A. Baeppler,  D. Barton,  Z. Benda,  Y. A. Bernard,  E. J. Berquist,  
 K. B. Bravaya,  H. Burton,  D. Casanova,  Chun-Min Chang,  Yunqing Chen,  
 A. Chien,  K. D. Closser,  M. P. Coons,  S. Coriani,  S. Dasgupta,  
 A. L. Dempwolff,  M. Diedenhofen,  Hainam Do,  R. G. Edgar,  Po-Tung Fang,  
 S. Faraji,  S. Fatehi,  Qingguo Feng,  K. D. Fenk,  J. Fosso-Tande,  
 Qinghui Ge,  A. Ghysels,  G. Gidofalvi,  J. Gomes,  J. Gonthier,  A. Gunina,  
 D. Hait,  M. W. D. Hanson-Heine,  P. H. P. Harbach,  A. W. Hauser,  
 J. E. Herr,  E. G. Hohenstein,  Z. C. Holden,  Kerwin Hui,  B. C. Huynh,  
 T.-C. Jagau,  Hyunjun Ji,  B. Kaduk,  K. Khistyaev,  Jaehoon Kim,  
 P. Klunzinger,  K. Koh,  D. Kosenkov,  L. Koulias,  T. Kowalczyk,  
 C. M. Krauter,  A. Kunitsa,  Ka Un Lao,  A. Laurent,  K. V. Lawler,  
 Joonho Lee,  D. Lefrancois,  S. Lehtola,  D. S. Levine,  Yi-Pei Li,  
 You-Sheng Lin,  Fenglai Liu,  E. Livshits,  A. Luenser,  P. Manohar,  
 E. Mansoor,  S. F. Manzer,  Shan-Ping Mao,  Yuezhi Mao,  N. Mardirossian,  
 A. V. Marenich,  T. Markovich,  L. A. Martinez-Martinez,  S. A. Maurer,  
 N. J. Mayhall,  S. C. McKenzie,  J.-M. Mewes,  A. F. Morrison,  
 J. W. Mullinax,  K. Nanda,  T. S. Nguyen-Beck,  R. Olivares-Amaya,  
 J. A. Parkhill,  T. M. Perrine,  F. Plasser,  P. Pokhilko,  S. Prager,  
 A. Prociuk,  E. Ramos,  D. R. Rehn,  F. Rob,  M. Schneider,  N. Sergueev,  
 S. M. Sharada,  S. Sharma,  D. W. Small,  T. Stauch,  T. Stein,  
 Yu-Chuan Su,  A. J. W. Thom,  A. Tkatchenko,  T. Tsuchimochi,  N. M. Tubman,  
 L. Vogt,  M. L. Vidal,  O. Vydrov,  M. A. Watson,  J. Wenzel,  
 M. de Wergifosse,  T. A. Wesolowski,  A. White,  J. Witte,  A. Yamada,  
 Jun Yang,  K. Yao,  S. Yeganeh,  S. R. Yost,  Zhi-Qiang You,  A. Zech,  
 Igor Ying Zhang,  Xing Zhang,  Yan Zhao,  Ying Zhu,  B. R. Brooks,  
 G. K. L. Chan,  C. J. Cramer,  M. S. Gordon,  W. J. Hehre,  A. Klamt,  
 M. W. Schmidt,  C. D. Sherrill,  D. G. Truhlar,  A. Aspuru-Guzik,  R. Baer,  
 A. T. Bell,  N. A. Besley,  Jeng-Da Chai,  A. E. DePrince, III,  
 R. A. DiStasio Jr.,  A. Dreuw,  B. D. Dunietz,  T. R. Furlani,  
 Chao-Ping Hsu,  Yousung Jung,  Jing Kong,  D. S. Lambrecht,  WanZhen Liang,  
 C. Ochsenfeld,  V. A. Rassolov,  L. V. Slipchenko,  J. E. Subotnik,  
 T. Van Voorhis,  J. M. Herbert,  A. I. Krylov,  P. M. W. Gill,  M. Head-Gordon

 Contributors to earlier versions of Q-Chem not listed above: 
 R. D. Adamson,  B. Austin,  J. Baker,  G. J. O. Beran,  K. Brandhorst,  
 S. T. Brown,  E. F. C. Byrd,  A. K. Chakraborty,  C.-L. Cheng,  
 Siu Hung Chien,  D. M. Chipman,  D. L. Crittenden,  H. Dachsel,  
 R. J. Doerksen,  A. D. Dutoi,  L. Fusti-Molnar,  W. A. Goddard III,  
 A. Golubeva-Zadorozhnaya,  S. R. Gwaltney,  G. Hawkins,  A. Heyden,  
 S. Hirata,  G. Kedziora,  F. J. Keil,  C. Kelley,  Jihan Kim,  R. A. King,  
 R. Z. Khaliullin,  P. P. Korambath,  W. Kurlancheek,  A. M. Lee,  M. S. Lee,  
 S. V. Levchenko,  Ching Yeh Lin,  D. Liotard,  R. C. Lochan,  I. Lotan,  
 P. E. Maslen,  N. Nair,  D. P. O'Neill,  D. Neuhauser,  E. Neuscamman,  
 C. M. Oana,  R. Olson,  B. Peters,  R. Peverati,  P. A. Pieniazek,  
 Y. M. Rhee,  J. Ritchie,  M. A. Rohrdanz,  E. Rosta,  N. J. Russ,  
 H. F. Schaefer III,  N. E. Schultz,  N. Shenvi,  A. C. Simmonett,  A. Sodt,  
 D. Stuck,  K. S. Thanthiriwatte,  V. Vanovschi,  Tao Wang,  A. Warshel,  
 C. F. Williams,  Q. Wu,  X. Xu,  W. Zhang

 Please cite Q-Chem as follows:
 Y. Shao et al., Mol. Phys. 113, 184-215 (2015)
 DOI: 10.1080/00268976.2014.952696

 Q-Chem 5.1.1 for Intel X86 EM64T Linux

 Parts of Q-Chem use Armadillo 8.300.2 (Tropical Shenanigans).
 http://arma.sourceforge.net/

 Q-Chem begins on Sat Aug  8 13:27:20 2020  

Host: n0091.mhg0
0

     Scratch files written to /local/scratch/users/yhljason/CO_mBEEF_aug-pc-4.inp20200808132700//
Input Ideriv = 2
Curr. Ideriv = -1
Max.  Ideriv = 2
Input Ideriv = 1
Curr. Ideriv = 2
Max.  Ideriv = 1

Checking the input file for inconsistencies... 	...done.

--------------------------------------------------------------
User input:
--------------------------------------------------------------
$molecule
0 1
C1	0.0000	0.0000	0.0000
O2	0.0000	0.0000	1.1282
$end

$rem
jobtype sp
method mBEEF
xc_grid 000099000590
basis aug-pc-4
max_scf_cycles 200
thresh 14
scf_convergence 8
scf_algorithm gdm
symmetry false
sym_ignore true
unrestricted true
gen_scfman true
internal_stability_iter 15
internal_stability_davidson_iter 200
mem_total 64000
mem_static 1500
n_frozen_core 0
$end


--------------------------------------------------------------
 ----------------------------------------------------------------
             Standard Nuclear Orientation (Angstroms)
    I     Atom           X                Y                Z
 ----------------------------------------------------------------
    1      C       0.0000000000     0.0000000000     0.0000000000
    2      O       0.0000000000     0.0000000000     1.1282000000
 ----------------------------------------------------------------
 Nuclear Repulsion Energy =    22.5141873058 hartrees
 There are        7 alpha and        7 beta electrons
 Requested basis set is aug-pc-4
 There are 66 shells and 290 basis functions

 Total QAlloc Memory Limit  64000 MB
 Mega-Array Size      1467 MB
 MEM_STATIC part      1500 MB

                       Distance Matrix (Angstroms)
             C (  1)
   O (  2)  1.128200
 
 A cutoff of  1.0D-14 yielded   2211 shell pairs
 There are     42987 function pairs (     83898 Cartesian)
 
 -------------------------------------------------------
 OpenMP Integral Computing Module                       
 Release: version 1.0, May 2013, Q-Chem Inc. Pittsburgh 
 -------------------------------------------------------
 Integral Job Info:
 Integral job number is                      11
 Integral operator is                         1
 short-range coefficients                     0
 long-range coefficients              100000000
 Omega coefficients                           0
 if combine SR and LR in K                    0
 Integral screening is                        0
 Integral computing path is                   2
 max size of driver memory is           6400000
 size of driver memory is               5498286
 size of scratch memory is             29792225
 max col of scratch BK array             194481
 max len of scratch array in speh3         5572
 max len of scratch index in speh4           72
 max int batch size is                      520
 min int batch size is                       52
 fixed nKL is                                25
 max L of basis functions is                  5
 order of int derivative is                   0
 number of shells is                         66
 number of basis is                         404
 number of cartesian basis is               404
 number of contracted shell pairs          2211
 number of primitive shell pairs           5817
 maxK2 (contraction) of shell pair          121
 max number of K2 of shell pair               1
 max number of CS2 of shell pair            197
 max number of PS2 of shell pair            319
 mem total for path MDJ                  956866
 -------------------------------------------------------
 Smallest overlap matrix eigenvalue = 1.03E-06

 Scale SEOQF with 1.000000e-01/1.000000e-01/1.000000e-01

 Standard Electronic Orientation quadrupole field applied
 Nucleus-field energy     =    -0.0000000011 hartrees
 Guess from superposition of atomic densities
 Warning:  Energy on first SCF cycle will be non-variational
 SAD guess density has 14.000000 electrons

 -----------------------------------------------------------------------
  General SCF calculation program by
  Eric Jon Sundstrom, Paul Horn, Yuezhi Mao, Dmitri Zuev, Alec White,
  David Stuck, Shaama M.S., Shane Yost, Joonho Lee, David Small,
  Daniel Levine, Susi Lehtola, Hugh Burton, Evgeny Epifanovsky
 -----------------------------------------------------------------------
 Exchange:  mBEEF      Correlation:  PBEsol
 Using Euler-Maclaurin-Lebedev (99,590) quadrature formula
Running Object-Oriented UKS (UHF)
performing a single roothaan step with Fock from read density so that orbitals are available to all algorithms
energy of the guess density (C=0) -113.945646271065
We will preform up to 15 macro iterations over saddle points until a stable solution is found
Energy prior to optimization (guess energy) = -113.780533991492
Begin Timing: Total SCF Calculation
Begin Timing: SCF Single Stationary Point Calculation
begin iterations for algorithm: GDM          
the SCF tolerance is set to 1.00e-08
    1    -113.7805339915      1.31e-01     00000  Descent step
    2    -113.7033056066      3.40e-01     00000 Line search: overstep
    3    -113.8011824092      1.90e-02     00000  Normal BFGS step
    4    -113.8027914317      1.50e-02     00000  Normal BFGS step
    5    -113.8044508404      6.88e-04     00000  Normal BFGS step
    6    -113.8044558773      1.40e-04     00000  Normal BFGS step
    7    -113.8044562373      2.50e-05     00000  Normal BFGS step
    8    -113.8044562429      6.26e-06     00000  Normal BFGS step
    9    -113.8044562432      4.45e-07     00000  Normal BFGS step
   10    -113.8044562432      6.28e-08     00000  Normal BFGS step
   11    -113.8044562432      4.57e-08     00000  Normal BFGS step
   12    -113.8044562432      9.91e-08     00000  Normal BFGS step
   13    -113.8044562432      1.07e-09     00000 Convergence criterion met
Timing for Single Stationary Point: 170.00s (wall), 1349.34s (cpu)
Begin Timing: Stability
===================================================
Beginning Test for Internal Stability
===================================================
generating davidson guess vectors based on koopmans excitations
    1      5.75e-01     00000 Davidson Iteration
    2      1.11e-01     00000 Davidson Iteration
    3      1.57e-02     00000 Davidson Iteration
    4      6.53e-03     00000 Davidson Iteration
    5      2.96e-03     00000 Davidson Iteration
    6      6.25e-04     00000 Davidson Iteration
    7      2.05e-04     00000 Davidson Iteration
    8      5.04e-05     00000 Davidson Iteration
    9      7.06e-03     00000 Davidson Iteration
   10      9.54e-03     00000 Davidson Iteration
   11      3.69e-03     00000 Davidson Iteration
   12      3.57e-03     00000 Davidson Iteration
   13      3.51e-03     00000 Davidson Iteration
   14      9.04e-04     00000 Davidson Iteration
   15      1.86e-04     00000 Davidson Iteration
   16      5.60e-05     00000 Davidson Converged
converged_eigenvalues
   0.3316
   0.4335
Threshold for negative eigenvalues: -1.0e-05
solution was a local minimum (stable)
===================================================
End Test for Internal Stability
===================================================
Our SCF solution is stable!
Timing for Total SCF: 2915.00s (wall), 23182.33s (cpu)
 Total energy in the final basis set =     -113.8044562432
<S^2> =          0.000000000
    ==================================================
              The end of Object-Oriented SCFman       
    ==================================================
 
 --------------------------------------------------------------
 
                    Orbital Energies (a.u.)
 --------------------------------------------------------------
 
 Alpha MOs
 -- Occupied --
-19.037 -10.150  -1.145  -0.552  -0.453  -0.453  -0.361
 -- Virtual --
 -0.074  -0.074  -0.007   0.012   0.022   0.022   0.054   0.060
  0.060   0.065   0.084   0.084   0.089   0.091   0.091   0.126
  0.129   0.129   0.181   0.189   0.189   0.204   0.204   0.206
  0.206   0.236   0.236   0.237   0.244   0.248   0.248   0.259
  0.259   0.270   0.304   0.304   0.316   0.338   0.338   0.344
  0.344   0.355   0.355   0.416   0.432   0.432   0.453   0.453
  0.460   0.505   0.505   0.522   0.522   0.523   0.525   0.525
  0.534   0.534   0.536   0.536   0.549   0.549   0.554   0.554
  0.555   0.555   0.555   0.590   0.590   0.596   0.637   0.637
  0.642   0.642   0.648   0.701   0.741   0.741   0.788   0.792
  0.792   0.795   0.795   0.795   0.795   0.904   0.946   0.946
  0.948   0.948   0.964   0.964   1.001   1.001   1.011   1.011
  1.078   1.082   1.082   1.094   1.094   1.145   1.145   1.153
  1.277   1.315   1.315   1.369   1.598   1.657   1.657   1.668
  1.668   1.742   1.742   1.784   1.903   1.903   1.976   1.976
  2.143   2.143   2.167   2.167   2.173   2.286   2.330   2.330
  2.460   2.460   2.527   2.592   2.592   2.758   2.776   2.776
  3.233   3.233   3.252   3.484   4.010   4.010   4.085   4.085
  4.201   4.201   4.267   4.280   4.280   4.386   4.386   4.476
  4.486   4.486   4.538   4.538   4.835   4.835   4.936   4.936
  4.983   5.066   5.066   5.089   5.089   5.105   5.383   5.383
  5.586   5.871   5.871   6.048   6.048   6.211   6.310   6.310
  6.380   6.380   6.508   6.815   6.846   6.846   7.206   7.206
  8.017   8.017   8.375   8.632   8.632   9.433   9.650   9.650
 10.313  10.313  10.403  10.403  10.548  10.548  10.648  10.648
 10.762  10.976  10.976  11.079  11.079  11.107  11.107  11.196
 11.410  11.410  11.532  11.729  11.729  11.892  11.892  11.961
 11.961  12.055  12.055  12.093  12.194  12.194  12.713  12.713
 12.801  12.801  12.840  12.978  12.978  13.032  13.032  13.079
 13.079  13.338  13.338  13.399  13.782  13.782  14.278  14.278
 14.925  14.925  14.925  15.906  16.632  16.632  16.675  17.638
 17.639  17.800  17.800  17.926  17.926  18.477  18.712  18.712
 19.203  19.203  19.601  19.601  20.079  22.482  23.417  23.417
 24.647  24.647  27.253  31.130  32.247  32.247  32.334  32.334
 33.314  33.314  34.111  35.456  67.299  67.299  67.995  67.995
 69.852  73.928 143.592
 
 Beta MOs
 -- Occupied --
-19.037 -10.150  -1.145  -0.552  -0.453  -0.453  -0.361
 -- Virtual --
 -0.074  -0.074  -0.007   0.012   0.022   0.022   0.054   0.060
  0.060   0.065   0.084   0.084   0.089   0.091   0.091   0.126
  0.129   0.129   0.181   0.189   0.189   0.204   0.204   0.206
  0.206   0.236   0.236   0.237   0.244   0.248   0.248   0.259
  0.259   0.270   0.304   0.304   0.316   0.338   0.338   0.344
  0.344   0.355   0.355   0.416   0.432   0.432   0.453   0.453
  0.460   0.505   0.505   0.522   0.522   0.523   0.525   0.525
  0.534   0.534   0.536   0.536   0.549   0.549   0.554   0.554
  0.555   0.555   0.555   0.590   0.590   0.596   0.637   0.637
  0.642   0.642   0.648   0.701   0.741   0.741   0.788   0.792
  0.792   0.795   0.795   0.795   0.795   0.904   0.946   0.946
  0.948   0.948   0.964   0.964   1.001   1.001   1.011   1.011
  1.078   1.082   1.082   1.094   1.094   1.145   1.145   1.153
  1.277   1.315   1.315   1.369   1.598   1.657   1.657   1.668
  1.668   1.742   1.742   1.784   1.903   1.903   1.976   1.976
  2.143   2.143   2.167   2.167   2.173   2.286   2.330   2.330
  2.460   2.460   2.527   2.592   2.592   2.758   2.776   2.776
  3.233   3.233   3.252   3.484   4.010   4.010   4.085   4.085
  4.201   4.201   4.267   4.280   4.280   4.386   4.386   4.476
  4.486   4.486   4.538   4.538   4.835   4.835   4.936   4.936
  4.983   5.066   5.066   5.089   5.089   5.105   5.383   5.383
  5.586   5.871   5.871   6.048   6.048   6.211   6.310   6.310
  6.380   6.380   6.508   6.815   6.846   6.846   7.206   7.206
  8.017   8.017   8.375   8.632   8.632   9.433   9.650   9.650
 10.313  10.313  10.403  10.403  10.548  10.548  10.648  10.648
 10.762  10.976  10.976  11.079  11.079  11.107  11.107  11.196
 11.410  11.410  11.532  11.729  11.729  11.892  11.892  11.961
 11.961  12.055  12.055  12.093  12.194  12.194  12.713  12.713
 12.801  12.801  12.840  12.978  12.978  13.032  13.032  13.079
 13.079  13.338  13.338  13.399  13.782  13.782  14.278  14.278
 14.925  14.925  14.925  15.906  16.632  16.632  16.675  17.638
 17.639  17.800  17.800  17.926  17.926  18.477  18.712  18.712
 19.203  19.203  19.601  19.601  20.079  22.482  23.417  23.417
 24.647  24.647  27.253  31.130  32.247  32.247  32.334  32.334
 33.314  33.314  34.111  35.456  67.299  67.299  67.995  67.995
 69.852  73.928 143.592
 --------------------------------------------------------------
 
          Ground-State Mulliken Net Atomic Charges

     Atom                 Charge (a.u.)    Spin (a.u.)
  --------------------------------------------------------
      1 C                     0.053063       0.000000
      2 O                    -0.053063      -0.000000
  --------------------------------------------------------
  Sum of atomic charges =     0.000000
  Sum of spin   charges =    -0.000000

 -----------------------------------------------------------------
                    Cartesian Multipole Moments
 -----------------------------------------------------------------
    Charge (ESU x 10^10)
                -0.0000
    Dipole Moment (Debye)
         X       0.0000      Y       0.0000      Z       0.1103
       Tot       0.1103
    Quadrupole Moments (Debye-Ang)
        XX     -10.1579     XY      -0.0000     YY     -10.1579
        XZ      -0.0000     YZ       0.0000     ZZ     -12.0650
    Octopole Moments (Debye-Ang^2)
       XXX       0.0000    XXY       0.0000    XYY       0.0000
       YYY       0.0000    XXZ      -5.2807    XYZ      -0.0000
       YYZ      -5.2807    XZZ      -0.0000    YZZ       0.0000
       ZZZ     -17.1625
    Hexadecapole Moments (Debye-Ang^3)
      XXXX      -9.2566   XXXY      -0.0000   XXYY      -3.0855
      XYYY      -0.0000   YYYY      -9.2566   XXXZ      -0.0000
      XXYZ       0.0000   XYYZ      -0.0000   YYYZ       0.0000
      XXZZ      -9.7198   XYZZ      -0.0000   YYZZ      -9.7198
      XZZZ      -0.0000   YZZZ      -0.0000   ZZZZ     -50.8121
 -----------------------------------------------------------------
Archival summary:
1\1\n0091.mhg0\SP\ProcedureUnspecified\BasisUnspecified\11\yhljason\SatAug814:16:222020SatAug814:16:222020\0\\#,ProcedureUnspecified,BasisUnspecified,\\0,1\C\O,1,1.1282\\\@

 Total job time:  2941.59s(wall), 23359.37s(cpu) 
 Sat Aug  8 14:16:22 2020

        *************************************************************
        *                                                           *
        *  Thank you very much for using Q-Chem.  Have a nice day.  *
        *                                                           *
        *************************************************************


