Q-Chem Developer Version!
                  Welcome to Q-Chem
     A Quantum Leap Into The Future Of Chemistry


 Q-Chem 5.1, Q-Chem, Inc., Pleasanton, CA (2018)

 Yihan Shao,  Zhengting Gan,  E. Epifanovsky,  A. T. B. Gilbert,  M. Wormit,  
 J. Kussmann,  A. W. Lange,  A. Behn,  Jia Deng,  Xintian Feng,  D. Ghosh,  
 M. Goldey,  P. R. Horn,  L. D. Jacobson,  I. Kaliman,  T. Kus,  A. Landau,  
 Jie Liu,  E. I. Proynov,  R. M. Richard,  R. P. Steele,  E. J. Sundstrom,  
 H. L. Woodcock III,  P. M. Zimmerman,  D. Zuev,  B. Albrecht,  E. Alguire,  
 S. A. Baeppler,  D. Barton,  Z. Benda,  Y. A. Bernard,  E. J. Berquist,  
 K. B. Bravaya,  H. Burton,  D. Casanova,  Chun-Min Chang,  Yunqing Chen,  
 A. Chien,  K. D. Closser,  M. P. Coons,  S. Coriani,  S. Dasgupta,  
 A. L. Dempwolff,  M. Diedenhofen,  Hainam Do,  R. G. Edgar,  Po-Tung Fang,  
 S. Faraji,  S. Fatehi,  Qingguo Feng,  K. D. Fenk,  J. Fosso-Tande,  
 Qinghui Ge,  A. Ghysels,  G. Gidofalvi,  J. Gomes,  J. Gonthier,  A. Gunina,  
 D. Hait,  M. W. D. Hanson-Heine,  P. H. P. Harbach,  A. W. Hauser,  
 J. E. Herr,  E. G. Hohenstein,  Z. C. Holden,  Kerwin Hui,  B. C. Huynh,  
 T.-C. Jagau,  Hyunjun Ji,  B. Kaduk,  K. Khistyaev,  Jaehoon Kim,  
 P. Klunzinger,  K. Koh,  D. Kosenkov,  L. Koulias,  T. Kowalczyk,  
 C. M. Krauter,  A. Kunitsa,  Ka Un Lao,  A. Laurent,  K. V. Lawler,  
 Joonho Lee,  D. Lefrancois,  S. Lehtola,  D. S. Levine,  Yi-Pei Li,  
 You-Sheng Lin,  Fenglai Liu,  E. Livshits,  A. Luenser,  P. Manohar,  
 E. Mansoor,  S. F. Manzer,  Shan-Ping Mao,  Yuezhi Mao,  N. Mardirossian,  
 A. V. Marenich,  T. Markovich,  L. A. Martinez-Martinez,  S. A. Maurer,  
 N. J. Mayhall,  S. C. McKenzie,  J.-M. Mewes,  A. F. Morrison,  
 J. W. Mullinax,  K. Nanda,  T. S. Nguyen-Beck,  R. Olivares-Amaya,  
 J. A. Parkhill,  T. M. Perrine,  F. Plasser,  P. Pokhilko,  S. Prager,  
 A. Prociuk,  E. Ramos,  D. R. Rehn,  F. Rob,  M. Schneider,  N. Sergueev,  
 S. M. Sharada,  S. Sharma,  D. W. Small,  T. Stauch,  T. Stein,  
 Yu-Chuan Su,  A. J. W. Thom,  A. Tkatchenko,  T. Tsuchimochi,  N. M. Tubman,  
 L. Vogt,  M. L. Vidal,  O. Vydrov,  M. A. Watson,  J. Wenzel,  
 M. de Wergifosse,  T. A. Wesolowski,  A. White,  J. Witte,  A. Yamada,  
 Jun Yang,  K. Yao,  S. Yeganeh,  S. R. Yost,  Zhi-Qiang You,  A. Zech,  
 Igor Ying Zhang,  Xing Zhang,  Yan Zhao,  Ying Zhu,  B. R. Brooks,  
 G. K. L. Chan,  C. J. Cramer,  M. S. Gordon,  W. J. Hehre,  A. Klamt,  
 M. W. Schmidt,  C. D. Sherrill,  D. G. Truhlar,  A. Aspuru-Guzik,  R. Baer,  
 A. T. Bell,  N. A. Besley,  Jeng-Da Chai,  A. E. DePrince, III,  
 R. A. DiStasio Jr.,  A. Dreuw,  B. D. Dunietz,  T. R. Furlani,  
 Chao-Ping Hsu,  Yousung Jung,  Jing Kong,  D. S. Lambrecht,  WanZhen Liang,  
 C. Ochsenfeld,  V. A. Rassolov,  L. V. Slipchenko,  J. E. Subotnik,  
 T. Van Voorhis,  J. M. Herbert,  A. I. Krylov,  P. M. W. Gill,  M. Head-Gordon

 Contributors to earlier versions of Q-Chem not listed above: 
 R. D. Adamson,  B. Austin,  J. Baker,  G. J. O. Beran,  K. Brandhorst,  
 S. T. Brown,  E. F. C. Byrd,  A. K. Chakraborty,  C.-L. Cheng,  
 Siu Hung Chien,  D. M. Chipman,  D. L. Crittenden,  H. Dachsel,  
 R. J. Doerksen,  A. D. Dutoi,  L. Fusti-Molnar,  W. A. Goddard III,  
 A. Golubeva-Zadorozhnaya,  S. R. Gwaltney,  G. Hawkins,  A. Heyden,  
 S. Hirata,  G. Kedziora,  F. J. Keil,  C. Kelley,  Jihan Kim,  R. A. King,  
 R. Z. Khaliullin,  P. P. Korambath,  W. Kurlancheek,  A. M. Lee,  M. S. Lee,  
 S. V. Levchenko,  Ching Yeh Lin,  D. Liotard,  R. C. Lochan,  I. Lotan,  
 P. E. Maslen,  N. Nair,  D. P. O'Neill,  D. Neuhauser,  E. Neuscamman,  
 C. M. Oana,  R. Olson,  B. Peters,  R. Peverati,  P. A. Pieniazek,  
 Y. M. Rhee,  J. Ritchie,  M. A. Rohrdanz,  E. Rosta,  N. J. Russ,  
 H. F. Schaefer III,  N. E. Schultz,  N. Shenvi,  A. C. Simmonett,  A. Sodt,  
 D. Stuck,  K. S. Thanthiriwatte,  V. Vanovschi,  Tao Wang,  A. Warshel,  
 C. F. Williams,  Q. Wu,  X. Xu,  W. Zhang

 Please cite Q-Chem as follows:
 Y. Shao et al., Mol. Phys. 113, 184-215 (2015)
 DOI: 10.1080/00268976.2014.952696

 Q-Chem 5.1.1 for Intel X86 EM64T Linux

 Parts of Q-Chem use Armadillo 8.300.2 (Tropical Shenanigans).
 http://arma.sourceforge.net/

 Q-Chem begins on Fri Aug  7 19:38:33 2020  

Host: n0090.mhg0
0

     Scratch files written to /local/scratch/users/yhljason/H2CN_mPW91_aug-pc-4.inp20200807193827//
Input Ideriv = 2
Curr. Ideriv = -1
Max.  Ideriv = 2

Checking the input file for inconsistencies... 	...done.

--------------------------------------------------------------
User input:
--------------------------------------------------------------
$molecule
0 2
        C         0.0000000000    0.0000000000   -0.4906000000
        N         0.0000000000    0.0000000000    0.7226000000
        H         0.0000000000    0.9342000000   -1.0572000000
        H         0.0000000000   -0.9342000000   -1.0572000000
$end

$rem
jobtype sp
method mPW91
xc_grid 000099000590
basis aug-pc-4
max_scf_cycles 200
thresh 14
scf_convergence 8
scf_algorithm gdm
symmetry false
sym_ignore true
unrestricted true
gen_scfman true
internal_stability_iter 15
internal_stability_davidson_iter 200
mem_total 64000
mem_static 1500
n_frozen_core 0
$end


--------------------------------------------------------------
 ----------------------------------------------------------------
             Standard Nuclear Orientation (Angstroms)
    I     Atom           X                Y                Z
 ----------------------------------------------------------------
    1      C       0.0000000000     0.0000000000    -0.4906000000
    2      N       0.0000000000     0.0000000000     0.7226000000
    3      H       0.0000000000     0.9342000000    -1.0572000000
    4      H       0.0000000000    -0.9342000000    -1.0572000000
 ----------------------------------------------------------------
 Nuclear Repulsion Energy =    28.1005412294 hartrees
 There are        8 alpha and        7 beta electrons
 Requested basis set is aug-pc-4
 There are 114 shells and 466 basis functions

 Total QAlloc Memory Limit  64000 MB
 Mega-Array Size      1467 MB
 MEM_STATIC part      1500 MB

                       Distance Matrix (Angstroms)
             C (  1)   N (  2)   H (  3)
   N (  2)  1.213200
   H (  3)  1.092596  2.010079
   H (  4)  1.092596  2.010079  1.868400
 
 A cutoff of  1.0D-14 yielded   6498 shell pairs
 There are    109666 function pairs (    201334 Cartesian)
 
 -------------------------------------------------------
 OpenMP Integral Computing Module                       
 Release: version 1.0, May 2013, Q-Chem Inc. Pittsburgh 
 -------------------------------------------------------
 Integral Job Info:
 Integral job number is                      11
 Integral operator is                         1
 short-range coefficients                     0
 long-range coefficients              100000000
 Omega coefficients                           0
 if combine SR and LR in K                    0
 Integral screening is                        0
 Integral computing path is                   2
 max size of driver memory is           6400000
 size of driver memory is               5498286
 size of scratch memory is             29792225
 max col of scratch BK array             194481
 max len of scratch array in speh3         5572
 max len of scratch index in speh4           72
 max int batch size is                      520
 min int batch size is                       52
 fixed nKL is                                25
 max L of basis functions is                  5
 order of int derivative is                   0
 number of shells is                        114
 number of basis is                         630
 number of cartesian basis is               630
 number of contracted shell pairs          6498
 number of primitive shell pairs          12774
 maxK2 (contraction) of shell pair          121
 max number of K2 of shell pair               1
 max number of CS2 of shell pair            784
 max number of PS2 of shell pair            784
 mem total for path MDJ                 1105572
 -------------------------------------------------------
 Smallest overlap matrix eigenvalue = 1.53E-07
 Linear dependence detected in AO basis
 Number of orthogonalized atomic orbitals = 463
 Maximum deviation from orthogonality = 2.371E-10

 Scale SEOQF with 1.000000e-01/1.000000e-01/1.000000e-01

 Standard Electronic Orientation quadrupole field applied
 Nucleus-field energy     =    -0.0000000007 hartrees
 Guess from superposition of atomic densities
 Warning:  Energy on first SCF cycle will be non-variational
 SAD guess density has 15.000000 electrons

 -----------------------------------------------------------------------
  General SCF calculation program by
  Eric Jon Sundstrom, Paul Horn, Yuezhi Mao, Dmitri Zuev, Alec White,
  David Stuck, Shaama M.S., Shane Yost, Joonho Lee, David Small,
  Daniel Levine, Susi Lehtola, Hugh Burton, Evgeny Epifanovsky
 -----------------------------------------------------------------------
 Exchange:  mPW91      Correlation:  PW91
 Using Euler-Maclaurin-Lebedev (99,590) quadrature formula
Running Object-Oriented UKS (UHF)
performing a single roothaan step with Fock from read density so that orbitals are available to all algorithms
energy of the guess density (C=0) -94.168166323326
We will preform up to 15 macro iterations over saddle points until a stable solution is found
Energy prior to optimization (guess energy) = -93.963116617297
Begin Timing: Total SCF Calculation
Begin Timing: SCF Single Stationary Point Calculation
begin iterations for algorithm: GDM          
the SCF tolerance is set to 1.00e-08
    1     -93.9631166173      1.42e-01     00000  Descent step
    2     -93.9836985505      1.43e-01     00000  Normal BFGS step
    3     -94.0025444427      1.38e-01     00000  Normal BFGS step
    4     -93.9973460533      9.79e-02     00000 Line search: overstep
    5     -94.0108346341      3.59e-02     00000  Normal BFGS step
    6     -94.0123223142      4.81e-03     00000  Normal BFGS step
    7     -94.0123546156      8.59e-04     00000  Normal BFGS step
    8     -94.0123560990      4.23e-04     00000  Normal BFGS step
    9     -94.0123564231      5.72e-05     00000  Normal BFGS step
   10     -94.0123564298      1.20e-05     00000  Normal BFGS step
   11     -94.0123564302      8.12e-07     00000  Normal BFGS step
   12     -94.0123564302      1.57e-07     00000  Normal BFGS step
   13     -94.0123564302      3.64e-08     00000  Normal BFGS step
   14     -94.0123564302      5.18e-08     00000  Normal BFGS step
   15     -94.0123564302      8.13e-08     00000  Normal BFGS step
   16     -94.0123564302      3.06e-09     00000 Convergence criterion met
Timing for Single Stationary Point: 646.00s (wall), 5156.42s (cpu)
Begin Timing: Stability
===================================================
Beginning Test for Internal Stability
===================================================
generating davidson guess vectors based on koopmans excitations
    1      4.08e-01     00000 Davidson Iteration
    2      1.77e-01     00000 Davidson Iteration
    3      3.91e-02     00000 Davidson Iteration
    4      2.02e-02     00000 Davidson Iteration
    5      3.35e-03     00000 Davidson Iteration
    6      1.09e-03     00000 Davidson Iteration
    7      2.16e-04     00000 Davidson Iteration
    8      5.16e-05     00000 Davidson Converged
converged_eigenvalues
   0.2683
   0.3164
Threshold for negative eigenvalues: -1.0e-05
solution was a local minimum (stable)
===================================================
End Test for Internal Stability
===================================================
Our SCF solution is stable!
Timing for Total SCF: 6283.00s (wall), 50141.85s (cpu)
 Total energy in the final basis set =      -94.0123564302
<S^2> =          0.756384381
    ==================================================
              The end of Object-Oriented SCFman       
    ==================================================
 
 --------------------------------------------------------------
 
                    Orbital Energies (a.u.)
 --------------------------------------------------------------
 
 Alpha MOs
 -- Occupied --
-14.032  -9.945  -0.852  -0.554  -0.457  -0.337  -0.329  -0.225
 -- Virtual --
 -0.061  -0.021   0.005   0.011   0.017   0.037   0.037   0.044
  0.054   0.055   0.055   0.062   0.067   0.078   0.091   0.105
  0.107   0.118   0.123   0.125   0.126   0.129   0.130   0.134
  0.140   0.162   0.167   0.180   0.192   0.195   0.197   0.217
  0.223   0.223   0.225   0.230   0.237   0.238   0.240   0.248
  0.251   0.255   0.263   0.271   0.278   0.279   0.283   0.288
  0.289   0.294   0.314   0.317   0.333   0.343   0.361   0.366
  0.367   0.372   0.379   0.386   0.390   0.394   0.397   0.400
  0.405   0.410   0.426   0.433   0.439   0.451   0.460   0.465
  0.466   0.471   0.477   0.482   0.486   0.487   0.496   0.503
  0.504   0.509   0.523   0.529   0.530   0.533   0.537   0.548
  0.561   0.563   0.568   0.598   0.600   0.605   0.619   0.627
  0.636   0.638   0.639   0.644   0.650   0.652   0.695   0.695
  0.702   0.708   0.715   0.728   0.744   0.752   0.757   0.764
  0.765   0.767   0.768   0.769   0.800   0.802   0.803   0.804
  0.806   0.808   0.813   0.834   0.843   0.844   0.845   0.849
  0.854   0.856   0.858   0.865   0.867   0.893   0.901   0.903
  0.908   0.915   0.916   0.926   0.947   0.954   0.970   0.974
  0.978   0.987   1.012   1.021   1.028   1.042   1.044   1.059
  1.079   1.092   1.107   1.133   1.149   1.188   1.197   1.208
  1.210   1.224   1.262   1.263   1.295   1.348   1.384   1.437
  1.461   1.465   1.499   1.501   1.541   1.557   1.563   1.591
  1.611   1.626   1.652   1.663   1.686   1.730   1.735   1.756
  1.760   1.768   1.823   1.834   1.855   1.875   1.923   2.067
  2.087   2.110   2.123   2.128   2.154   2.182   2.209   2.267
  2.275   2.303   2.338   2.386   2.446   2.450   2.463   2.624
  2.633   2.706   2.733   2.890   2.971   3.006   3.036   3.092
  3.127   3.130   3.161   3.227   3.295   3.317   3.351   3.373
  3.438   3.474   3.488   3.586   3.593   3.616   3.637   3.700
  3.704   3.787   3.827   3.857   3.895   3.943   3.985   4.042
  4.074   4.138   4.165   4.255   4.368   4.384   4.403   4.411
  4.413   4.460   4.522   4.568   4.582   4.582   4.635   4.656
  4.714   4.781   4.785   4.818   4.925   4.960   4.974   5.033
  5.075   5.176   5.238   5.288   5.298   5.348   5.440   5.508
  5.585   5.623   5.771   5.796   5.944   5.949   6.029   6.082
  6.175   6.254   6.296   6.354   6.419   6.432   6.629   6.730
  6.770   6.798   6.847   6.896   6.898   6.997   7.204   7.254
  7.339   7.529   7.666   7.720   8.168   8.227   8.308   8.521
  8.531   8.852   8.955   8.958   8.984   8.984   9.012   9.085
  9.221   9.233   9.324   9.385   9.604   9.628   9.912   9.948
 10.172  10.442  10.479  10.533  10.571  10.619  10.699  10.788
 10.833  10.934  10.960  10.969  11.163  11.183  11.333  11.349
 11.379  11.403  11.435  11.441  11.498  11.504  11.504  11.576
 11.589  11.670  11.750  11.839  11.864  11.976  12.131  12.151
 12.299  12.307  12.346  12.358  12.372  12.471  12.473  12.485
 12.651  12.699  12.700  12.768  12.938  13.163  13.218  13.230
 13.258  13.287  13.342  13.452  13.502  13.663  13.740  14.119
 14.248  14.248  14.249  14.373  14.628  14.645  14.670  14.700
 14.933  15.010  15.253  15.341  15.417  15.654  15.720  15.746
 15.778  16.156  16.397  16.641  16.701  16.709  16.716  16.727
 16.933  16.973  17.029  17.066  17.093  17.160  17.444  17.572
 17.634  17.971  18.012  18.465  18.471  18.656  18.943  18.955
 19.098  19.858  20.104  20.273  20.327  20.625  21.213  21.484
 21.571  23.449  23.497  23.669  23.883  24.329  25.379  25.737
 26.169  26.358  27.988  32.292  32.874  33.434  34.410  34.708
 40.974  41.062  47.696  47.732  47.978  48.129  48.901  76.443
 90.981  91.012  91.120  91.303  92.282  92.476 104.141
 
 Beta MOs
 -- Occupied --
-14.014  -9.947  -0.826  -0.539  -0.435  -0.320  -0.316
 -- Virtual --
 -0.142  -0.053  -0.016   0.011   0.014   0.018   0.039   0.041
  0.045   0.055   0.057   0.058   0.064   0.071   0.079   0.097
  0.108   0.114   0.123   0.127   0.127   0.130   0.132   0.132
  0.141   0.142   0.168   0.169   0.186   0.195   0.200   0.206
  0.224   0.227   0.227   0.231   0.236   0.241   0.241   0.243
  0.253   0.255   0.259   0.269   0.274   0.282   0.285   0.285
  0.295   0.297   0.297   0.318   0.323   0.341   0.350   0.368
  0.372   0.374   0.383   0.386   0.388   0.395   0.398   0.402
  0.409   0.410   0.414   0.431   0.442   0.447   0.457   0.468
  0.471   0.474   0.477   0.481   0.489   0.492   0.496   0.501
  0.506   0.509   0.511   0.527   0.533   0.536   0.538   0.541
  0.553   0.564   0.568   0.574   0.602   0.608   0.615   0.623
  0.635   0.638   0.641   0.644   0.649   0.655   0.661   0.703
  0.704   0.716   0.716   0.720   0.731   0.749   0.759   0.763
  0.769   0.770   0.773   0.773   0.777   0.807   0.807   0.808
  0.810   0.813   0.815   0.817   0.842   0.847   0.848   0.851
  0.857   0.859   0.863   0.868   0.873   0.877   0.900   0.908
  0.910   0.915   0.923   0.927   0.929   0.953   0.958   0.974
  0.980   0.989   0.993   1.016   1.024   1.035   1.046   1.047
  1.063   1.081   1.093   1.110   1.141   1.152   1.190   1.203
  1.215   1.215   1.240   1.262   1.271   1.302   1.358   1.391
  1.444   1.471   1.484   1.505   1.519   1.551   1.574   1.575
  1.609   1.618   1.642   1.661   1.687   1.704   1.740   1.747
  1.768   1.772   1.777   1.847   1.864   1.881   1.886   1.933
  2.070   2.099   2.113   2.127   2.130   2.152   2.196   2.227
  2.284   2.285   2.306   2.342   2.394   2.458   2.458   2.471
  2.633   2.636   2.727   2.750   2.901   2.973   3.014   3.056
  3.133   3.134   3.158   3.180   3.260   3.306   3.333   3.372
  3.400   3.454   3.491   3.498   3.604   3.609   3.635   3.657
  3.719   3.721   3.803   3.845   3.896   3.912   3.957   4.001
  4.063   4.086   4.175   4.180   4.273   4.379   4.411   4.415
  4.423   4.435   4.464   4.545   4.589   4.594   4.605   4.636
  4.661   4.749   4.803   4.805   4.841   4.969   4.982   5.001
  5.056   5.092   5.199   5.260   5.300   5.305   5.354   5.456
  5.513   5.609   5.647   5.781   5.810   5.965   5.979   6.039
  6.097   6.183   6.262   6.294   6.363   6.428   6.449   6.635
  6.755   6.817   6.825   6.862   6.905   6.914   7.062   7.251
  7.305   7.384   7.540   7.682   7.737   8.173   8.266   8.342
  8.543   8.552   8.877   8.981   8.986   9.008   9.009   9.032
  9.109   9.245   9.256   9.346   9.447   9.648   9.664   9.934
  9.973  10.168  10.455  10.494  10.543  10.576  10.633  10.695
 10.800  10.847  10.953  10.968  10.984  11.259  11.278  11.381
 11.432  11.438  11.441  11.448  11.490  11.501  11.507  11.545
 11.606  11.620  11.676  11.752  11.858  11.878  11.973  12.150
 12.180  12.310  12.329  12.381  12.383  12.389  12.491  12.498
 12.507  12.670  12.703  12.714  12.770  12.960  13.162  13.235
 13.239  13.254  13.301  13.351  13.472  13.498  13.683  13.766
 14.137  14.268  14.336  14.348  14.393  14.675  14.693  14.699
 14.761  14.959  15.025  15.291  15.366  15.442  15.702  15.740
 15.754  15.827  16.193  16.419  16.648  16.731  16.736  16.747
 16.750  17.018  17.048  17.065  17.099  17.121  17.186  17.464
 17.584  17.664  18.025  18.037  18.491  18.496  18.679  18.956
 18.969  19.129  19.880  20.125  20.291  20.345  20.647  21.231
 21.496  21.575  23.485  23.533  23.704  23.917  24.354  25.410
 25.768  26.191  26.446  28.009  32.287  32.869  33.429  34.409
 34.706  41.008  41.096  47.755  47.794  47.987  48.184  48.925
 76.440  91.022  91.053  91.161  91.344  92.320  92.514 104.160
 --------------------------------------------------------------
 
          Ground-State Mulliken Net Atomic Charges

     Atom                 Charge (a.u.)    Spin (a.u.)
  --------------------------------------------------------
      1 C                    -0.258252      -0.116326
      2 N                    -0.231675       0.877411
      3 H                     0.244964       0.119458
      4 H                     0.244964       0.119458
  --------------------------------------------------------
  Sum of atomic charges =     0.000000
  Sum of spin   charges =     1.000000

 -----------------------------------------------------------------
                    Cartesian Multipole Moments
 -----------------------------------------------------------------
    Charge (ESU x 10^10)
                 0.0000
    Dipole Moment (Debye)
         X       0.0000      Y       0.0000      Z      -2.4639
       Tot       2.4639
    Quadrupole Moments (Debye-Ang)
        XX     -12.7775     XY      -0.0000     YY     -11.1298
        XZ      -0.0000     YZ       0.0000     ZZ     -13.0918
    Octopole Moments (Debye-Ang^2)
       XXX       0.0000    XXY      -0.0000    XYY      -0.0000
       YYY       0.0000    XXZ      -0.1691    XYZ       0.0000
       YYZ      -1.6793    XZZ      -0.0000    YZZ      -0.0000
       ZZZ      -3.8139
    Hexadecapole Moments (Debye-Ang^3)
      XXXX     -13.5888   XXXY       0.0000   XXYY      -5.7596
      XYYY      -0.0000   YYYY     -18.5357   XXXZ      -0.0000
      XXYZ       0.0000   XYYZ       0.0000   YYYZ      -0.0000
      XXZZ     -10.7892   XYZZ      -0.0000   YYZZ     -10.5402
      XZZZ      -0.0000   YZZZ       0.0000   ZZZZ     -52.1998
 -----------------------------------------------------------------
Archival summary:
1\1\n0090.mhg0\SP\ProcedureUnspecified\BasisUnspecified\112(2)\yhljason\FriAug721:24:192020FriAug721:24:192020\0\\#,ProcedureUnspecified,BasisUnspecified,\\0,2\C\H,1,1.0926\H,1,1.0926,2,117.526\N,1,1.2132,2,121.237,3,-180,0\\\@

 Total job time:  6345.17s(wall), 50582.42s(cpu) 
 Fri Aug  7 21:24:19 2020

        *************************************************************
        *                                                           *
        *  Thank you very much for using Q-Chem.  Have a nice day.  *
        *                                                           *
        *************************************************************


