Q-Chem Developer Version!
                  Welcome to Q-Chem
     A Quantum Leap Into The Future Of Chemistry


 Q-Chem 5.1, Q-Chem, Inc., Pleasanton, CA (2018)

 Yihan Shao,  Zhengting Gan,  E. Epifanovsky,  A. T. B. Gilbert,  M. Wormit,  
 J. Kussmann,  A. W. Lange,  A. Behn,  Jia Deng,  Xintian Feng,  D. Ghosh,  
 M. Goldey,  P. R. Horn,  L. D. Jacobson,  I. Kaliman,  T. Kus,  A. Landau,  
 Jie Liu,  E. I. Proynov,  R. M. Richard,  R. P. Steele,  E. J. Sundstrom,  
 H. L. Woodcock III,  P. M. Zimmerman,  D. Zuev,  B. Albrecht,  E. Alguire,  
 S. A. Baeppler,  D. Barton,  Z. Benda,  Y. A. Bernard,  E. J. Berquist,  
 K. B. Bravaya,  H. Burton,  D. Casanova,  Chun-Min Chang,  Yunqing Chen,  
 A. Chien,  K. D. Closser,  M. P. Coons,  S. Coriani,  S. Dasgupta,  
 A. L. Dempwolff,  M. Diedenhofen,  Hainam Do,  R. G. Edgar,  Po-Tung Fang,  
 S. Faraji,  S. Fatehi,  Qingguo Feng,  K. D. Fenk,  J. Fosso-Tande,  
 Qinghui Ge,  A. Ghysels,  G. Gidofalvi,  J. Gomes,  J. Gonthier,  A. Gunina,  
 D. Hait,  M. W. D. Hanson-Heine,  P. H. P. Harbach,  A. W. Hauser,  
 J. E. Herr,  E. G. Hohenstein,  Z. C. Holden,  Kerwin Hui,  B. C. Huynh,  
 T.-C. Jagau,  Hyunjun Ji,  B. Kaduk,  K. Khistyaev,  Jaehoon Kim,  
 P. Klunzinger,  K. Koh,  D. Kosenkov,  L. Koulias,  T. Kowalczyk,  
 C. M. Krauter,  A. Kunitsa,  Ka Un Lao,  A. Laurent,  K. V. Lawler,  
 Joonho Lee,  D. Lefrancois,  S. Lehtola,  D. S. Levine,  Yi-Pei Li,  
 You-Sheng Lin,  Fenglai Liu,  E. Livshits,  A. Luenser,  P. Manohar,  
 E. Mansoor,  S. F. Manzer,  Shan-Ping Mao,  Yuezhi Mao,  N. Mardirossian,  
 A. V. Marenich,  T. Markovich,  L. A. Martinez-Martinez,  S. A. Maurer,  
 N. J. Mayhall,  S. C. McKenzie,  J.-M. Mewes,  A. F. Morrison,  
 J. W. Mullinax,  K. Nanda,  T. S. Nguyen-Beck,  R. Olivares-Amaya,  
 J. A. Parkhill,  T. M. Perrine,  F. Plasser,  P. Pokhilko,  S. Prager,  
 A. Prociuk,  E. Ramos,  D. R. Rehn,  F. Rob,  M. Schneider,  N. Sergueev,  
 S. M. Sharada,  S. Sharma,  D. W. Small,  T. Stauch,  T. Stein,  
 Yu-Chuan Su,  A. J. W. Thom,  A. Tkatchenko,  T. Tsuchimochi,  N. M. Tubman,  
 L. Vogt,  M. L. Vidal,  O. Vydrov,  M. A. Watson,  J. Wenzel,  
 M. de Wergifosse,  T. A. Wesolowski,  A. White,  J. Witte,  A. Yamada,  
 Jun Yang,  K. Yao,  S. Yeganeh,  S. R. Yost,  Zhi-Qiang You,  A. Zech,  
 Igor Ying Zhang,  Xing Zhang,  Yan Zhao,  Ying Zhu,  B. R. Brooks,  
 G. K. L. Chan,  C. J. Cramer,  M. S. Gordon,  W. J. Hehre,  A. Klamt,  
 M. W. Schmidt,  C. D. Sherrill,  D. G. Truhlar,  A. Aspuru-Guzik,  R. Baer,  
 A. T. Bell,  N. A. Besley,  Jeng-Da Chai,  A. E. DePrince, III,  
 R. A. DiStasio Jr.,  A. Dreuw,  B. D. Dunietz,  T. R. Furlani,  
 Chao-Ping Hsu,  Yousung Jung,  Jing Kong,  D. S. Lambrecht,  WanZhen Liang,  
 C. Ochsenfeld,  V. A. Rassolov,  L. V. Slipchenko,  J. E. Subotnik,  
 T. Van Voorhis,  J. M. Herbert,  A. I. Krylov,  P. M. W. Gill,  M. Head-Gordon

 Contributors to earlier versions of Q-Chem not listed above: 
 R. D. Adamson,  B. Austin,  J. Baker,  G. J. O. Beran,  K. Brandhorst,  
 S. T. Brown,  E. F. C. Byrd,  A. K. Chakraborty,  C.-L. Cheng,  
 Siu Hung Chien,  D. M. Chipman,  D. L. Crittenden,  H. Dachsel,  
 R. J. Doerksen,  A. D. Dutoi,  L. Fusti-Molnar,  W. A. Goddard III,  
 A. Golubeva-Zadorozhnaya,  S. R. Gwaltney,  G. Hawkins,  A. Heyden,  
 S. Hirata,  G. Kedziora,  F. J. Keil,  C. Kelley,  Jihan Kim,  R. A. King,  
 R. Z. Khaliullin,  P. P. Korambath,  W. Kurlancheek,  A. M. Lee,  M. S. Lee,  
 S. V. Levchenko,  Ching Yeh Lin,  D. Liotard,  R. C. Lochan,  I. Lotan,  
 P. E. Maslen,  N. Nair,  D. P. O'Neill,  D. Neuhauser,  E. Neuscamman,  
 C. M. Oana,  R. Olson,  B. Peters,  R. Peverati,  P. A. Pieniazek,  
 Y. M. Rhee,  J. Ritchie,  M. A. Rohrdanz,  E. Rosta,  N. J. Russ,  
 H. F. Schaefer III,  N. E. Schultz,  N. Shenvi,  A. C. Simmonett,  A. Sodt,  
 D. Stuck,  K. S. Thanthiriwatte,  V. Vanovschi,  Tao Wang,  A. Warshel,  
 C. F. Williams,  Q. Wu,  X. Xu,  W. Zhang

 Please cite Q-Chem as follows:
 Y. Shao et al., Mol. Phys. 113, 184-215 (2015)
 DOI: 10.1080/00268976.2014.952696

 Q-Chem 5.1.1 for Intel X86 EM64T Linux

 Parts of Q-Chem use Armadillo 8.300.2 (Tropical Shenanigans).
 http://arma.sourceforge.net/

 Q-Chem begins on Fri Aug  7 19:38:34 2020  

Host: n0098.mhg0
0

     Scratch files written to /local/scratch/users/yhljason/HCN_M06-L_aug-pc-4.inp20200807193827//
Input Ideriv = 2
Curr. Ideriv = -1
Max.  Ideriv = 2
Input Ideriv = 1
Curr. Ideriv = 2
Max.  Ideriv = 1

Checking the input file for inconsistencies... 	...done.

--------------------------------------------------------------
User input:
--------------------------------------------------------------
$molecule
0 1
C1      0.0000  0.0000  0.0000
H2      0.0000  0.0000  1.0640
N3      0.0000  0.0000  -1.1560
$end

$rem
jobtype sp
method M06-L
xc_grid 000099000590
basis aug-pc-4
max_scf_cycles 200
thresh 14
scf_convergence 8
scf_algorithm gdm
symmetry false
sym_ignore true
unrestricted true
gen_scfman true
internal_stability_iter 15
internal_stability_davidson_iter 200
mem_total 64000
mem_static 1500
n_frozen_core 0
$end


--------------------------------------------------------------
 ----------------------------------------------------------------
             Standard Nuclear Orientation (Angstroms)
    I     Atom           X                Y                Z
 ----------------------------------------------------------------
    1      C       0.0000000000     0.0000000000     0.0000000000
    2      H       0.0000000000     0.0000000000     1.0640000000
    3      N       0.0000000000     0.0000000000    -1.1560000000
 ----------------------------------------------------------------
 Nuclear Repulsion Energy =    23.8788204447 hartrees
 There are        7 alpha and        7 beta electrons
 Requested basis set is aug-pc-4
 There are 90 shells and 378 basis functions

 Total QAlloc Memory Limit  64000 MB
 Mega-Array Size      1467 MB
 MEM_STATIC part      1500 MB

                       Distance Matrix (Angstroms)
             C (  1)   H (  2)
   H (  2)  1.064000
   N (  3)  1.156000  2.220000
 
 A cutoff of  1.0D-14 yielded   4065 shell pairs
 There are     72361 function pairs (    136048 Cartesian)
 
 -------------------------------------------------------
 OpenMP Integral Computing Module                       
 Release: version 1.0, May 2013, Q-Chem Inc. Pittsburgh 
 -------------------------------------------------------
 Integral Job Info:
 Integral job number is                      11
 Integral operator is                         1
 short-range coefficients                     0
 long-range coefficients              100000000
 Omega coefficients                           0
 if combine SR and LR in K                    0
 Integral screening is                        0
 Integral computing path is                   2
 max size of driver memory is           6400000
 size of driver memory is               5498286
 size of scratch memory is             29792225
 max col of scratch BK array             194481
 max len of scratch array in speh3         5572
 max len of scratch index in speh4           72
 max int batch size is                      520
 min int batch size is                       52
 fixed nKL is                                25
 max L of basis functions is                  5
 order of int derivative is                   0
 number of shells is                         90
 number of basis is                         517
 number of cartesian basis is               517
 number of contracted shell pairs          4065
 number of primitive shell pairs           8894
 maxK2 (contraction) of shell pair          121
 max number of K2 of shell pair               1
 max number of CS2 of shell pair            440
 max number of PS2 of shell pair            451
 mem total for path MDJ                  998666
 -------------------------------------------------------
 Smallest overlap matrix eigenvalue = 2.72E-07
 Linear dependence detected in AO basis
 Number of orthogonalized atomic orbitals = 376
 Maximum deviation from orthogonality = 5.202E-10

 Scale SEOQF with 1.000000e-01/1.000000e-01/1.000000e-01

 Standard Electronic Orientation quadrupole field applied
 Nucleus-field energy     =    -0.0000000011 hartrees
 Guess from superposition of atomic densities
 Warning:  Energy on first SCF cycle will be non-variational
 SAD guess density has 14.000000 electrons

 -----------------------------------------------------------------------
  General SCF calculation program by
  Eric Jon Sundstrom, Paul Horn, Yuezhi Mao, Dmitri Zuev, Alec White,
  David Stuck, Shaama M.S., Shane Yost, Joonho Lee, David Small,
  Daniel Levine, Susi Lehtola, Hugh Burton, Evgeny Epifanovsky
 -----------------------------------------------------------------------
 Exchange:  M06-L      Correlation:  M06-L
 Using Euler-Maclaurin-Lebedev (99,590) quadrature formula
Running Object-Oriented UKS (UHF)
performing a single roothaan step with Fock from read density so that orbitals are available to all algorithms
energy of the guess density (C=0) -93.588641860537
We will preform up to 15 macro iterations over saddle points until a stable solution is found
Energy prior to optimization (guess energy) = -93.406976417275
Begin Timing: Total SCF Calculation
Begin Timing: SCF Single Stationary Point Calculation
begin iterations for algorithm: GDM          
the SCF tolerance is set to 1.00e-08
    1     -93.4069764173      1.41e-01     00000  Descent step
    2     -93.3900795720      2.00e-01     00000 Line search: overstep
    3     -93.4500677455      4.25e-02     00000  Normal BFGS step
    4     -93.4422566893      5.07e-02     00000 Line search: overstep
    5     -93.4585125951      4.64e-03     00000  Normal BFGS step
    6     -93.4590455147      1.92e-03     00000  Normal BFGS step
    7     -93.4590760019      1.41e-03     00000  Normal BFGS step
    8     -93.4590902475      2.70e-04     00000  Normal BFGS step
    9     -93.4590912358      7.94e-05     00000  Normal BFGS step
   10     -93.4590912783      4.01e-05     00000  Normal BFGS step
   11     -93.4590912808      1.39e-05     00000  Normal BFGS step
   12     -93.4590912818      1.89e-06     00000  Normal BFGS step
   13     -93.4590912818      3.34e-07     00000  Normal BFGS step
   14     -93.4590912818      2.98e-07     00000  Normal BFGS step
   15     -93.4590912818      1.18e-07     00000  Normal BFGS step
   16     -93.4590912818      1.88e-07     00000  Normal BFGS step
   17     -93.4590912818      2.13e-07     00000  Normal BFGS step
   18     -93.4590912818      6.16e-09     00000 Convergence criterion met
Timing for Single Stationary Point: 504.00s (wall), 3999.45s (cpu)
Begin Timing: Stability
===================================================
Beginning Test for Internal Stability
===================================================
generating davidson guess vectors based on koopmans excitations
    1      4.33e-01     00000 Davidson Iteration
    2      2.10e-01     00000 Davidson Iteration
    3      4.56e-02     00000 Davidson Iteration
    4      2.00e-02     00000 Davidson Iteration
    5      7.11e-03     00000 Davidson Iteration
    6      6.13e-03     00000 Davidson Iteration
    7      9.06e-04     00000 Davidson Iteration
    8      2.96e-04     00000 Davidson Iteration
    9      6.39e-05     00000 Davidson Iteration
   10      1.71e-02     00000 Davidson Iteration
   11      1.90e-02     00000 Davidson Iteration
   12      8.75e-03     00000 Davidson Iteration
   13      4.99e-03     00000 Davidson Iteration
   14      1.14e-03     00000 Davidson Iteration
   15      3.42e-04     00000 Davidson Iteration
   16      1.45e-04     00000 Davidson Iteration
   17      9.22e-05     00000 Davidson Converged
converged_eigenvalues
   0.3825
   0.3099
Threshold for negative eigenvalues: -1.0e-05
solution was a local minimum (stable)
===================================================
End Test for Internal Stability
===================================================
Our SCF solution is stable!
Timing for Total SCF: 6942.00s (wall), 55093.65s (cpu)
 Total energy in the final basis set =      -93.4590912818
<S^2> =          0.000000000
    ==================================================
              The end of Object-Oriented SCFman       
    ==================================================
 
 --------------------------------------------------------------
 
                    Orbital Energies (a.u.)
 --------------------------------------------------------------
 
 Alpha MOs
 -- Occupied --
-14.195 -10.100  -0.879  -0.576  -0.345  -0.337  -0.337
 -- Virtual --
 -0.026  -0.026  -0.009   0.013   0.021   0.021   0.044   0.047
  0.058   0.058   0.058   0.085   0.085   0.089   0.089   0.113
  0.118   0.118   0.118   0.155   0.159   0.168   0.168   0.170
  0.170   0.188   0.188   0.211   0.211   0.219   0.236   0.236
  0.240   0.240   0.259   0.272   0.272   0.272   0.307   0.307
  0.308   0.332   0.347   0.347   0.349   0.349   0.349   0.349
  0.349   0.349   0.366   0.405   0.405   0.421   0.421   0.433
  0.433   0.459   0.471   0.471   0.476   0.476   0.481   0.481
  0.493   0.505   0.505   0.507   0.507   0.515   0.542   0.542
  0.547   0.549   0.549   0.562   0.562   0.569   0.569   0.575
  0.575   0.588   0.603   0.656   0.656   0.658   0.658   0.691
  0.691   0.722   0.742   0.742   0.761   0.761   0.787   0.798
  0.799   0.803   0.803   0.823   0.842   0.842   0.855   0.855
  0.858   0.858   0.862   0.862   0.894   0.894   0.901   0.907
  0.907   0.909   0.909   0.915   0.931   0.931   0.950   0.950
  0.962   0.962   0.967   0.967   0.968   1.077   1.077   1.079
  1.116   1.116   1.129   1.173   1.173   1.194   1.222   1.269
  1.269   1.381   1.381   1.499   1.549   1.549   1.582   1.588
  1.588   1.657   1.657   1.745   1.774   1.774   1.830   1.830
  1.912   1.944   1.944   1.977   1.977   2.048   2.048   2.085
  2.155   2.155   2.214   2.277   2.277   2.397   2.481   2.481
  2.519   2.519   2.526   2.867   2.867   2.931   3.022   3.174
  3.174   3.219   3.219   3.269   3.269   3.422   3.653   3.653
  3.662   3.662   3.662   3.733   3.733   3.859   4.018   4.018
  4.081   4.257   4.257   4.302   4.302   4.328   4.328   4.367
  4.404   4.404   4.589   4.589   4.596   4.596   4.674   4.747
  4.747   4.890   4.890   4.910   4.910   4.973   4.973   5.004
  5.165   5.333   5.333   5.351   5.351   5.890   5.890   5.939
  6.079   6.079   6.201   6.287   6.287   6.525   6.525   6.718
  6.833   6.833   7.145   7.145   7.196   7.196   7.261   7.564
  7.653   7.653   7.831   7.900   7.900   8.418   8.761   8.766
  8.766   9.119   9.119   9.315   9.315   9.762   9.774   9.774
 10.275  10.400  10.400  10.536  10.536  10.700  10.700  10.733
 10.733  10.964  10.964  11.018  11.018  11.225  11.244  11.244
 11.302  11.614  11.614  11.652  11.652  11.896  11.896  11.961
 12.041  12.041  12.106  12.106  12.136  12.136  12.197  12.273
 12.273  12.280  12.280  12.435  12.435  12.446  12.446  12.574
 12.574  12.905  13.017  13.017  13.596  13.596  13.683  13.790
 13.790  14.223  14.223  14.315  14.315  14.531  14.912  14.912
 15.232  15.232  15.879  15.879  15.889  15.897  15.897  16.355
 16.459  16.459  16.782  16.782  16.900  17.511  17.511  17.532
 17.532  17.676  17.676  17.842  18.236  18.236  18.648  18.772
 18.772  19.878  19.878  20.039  20.039  20.053  20.586  21.217
 21.217  23.298  24.885  24.885  25.212  25.549  26.777  26.777
 28.774  32.356  32.356  33.690  33.690  35.787  41.761  48.357
 48.357  48.770  48.770  49.656  77.970  91.140  93.657  93.657
106.963
 
 Beta MOs
 -- Occupied --
-14.195 -10.100  -0.879  -0.576  -0.345  -0.337  -0.337
 -- Virtual --
 -0.026  -0.026  -0.009   0.013   0.021   0.021   0.044   0.047
  0.058   0.058   0.058   0.085   0.085   0.089   0.089   0.113
  0.118   0.118   0.118   0.155   0.159   0.168   0.168   0.170
  0.170   0.188   0.188   0.211   0.211   0.219   0.236   0.236
  0.240   0.240   0.259   0.272   0.272   0.272   0.307   0.307
  0.308   0.332   0.347   0.347   0.349   0.349   0.349   0.349
  0.349   0.349   0.366   0.405   0.405   0.421   0.421   0.433
  0.433   0.459   0.471   0.471   0.476   0.476   0.481   0.481
  0.493   0.505   0.505   0.507   0.507   0.515   0.542   0.542
  0.547   0.549   0.549   0.562   0.562   0.569   0.569   0.575
  0.575   0.588   0.603   0.656   0.656   0.658   0.658   0.691
  0.691   0.722   0.742   0.742   0.761   0.761   0.787   0.798
  0.799   0.803   0.803   0.823   0.842   0.842   0.855   0.855
  0.858   0.858   0.862   0.862   0.894   0.894   0.901   0.907
  0.907   0.909   0.909   0.915   0.931   0.931   0.950   0.950
  0.962   0.962   0.967   0.967   0.968   1.077   1.077   1.079
  1.116   1.116   1.129   1.173   1.173   1.194   1.222   1.269
  1.269   1.381   1.381   1.499   1.549   1.549   1.582   1.588
  1.588   1.657   1.657   1.745   1.774   1.774   1.830   1.830
  1.912   1.944   1.944   1.977   1.977   2.048   2.048   2.085
  2.155   2.155   2.214   2.277   2.277   2.397   2.481   2.481
  2.519   2.519   2.526   2.867   2.867   2.931   3.022   3.174
  3.174   3.219   3.219   3.269   3.269   3.422   3.653   3.653
  3.662   3.662   3.662   3.733   3.733   3.859   4.018   4.018
  4.081   4.257   4.257   4.302   4.302   4.328   4.328   4.367
  4.404   4.404   4.589   4.589   4.596   4.596   4.674   4.747
  4.747   4.890   4.890   4.910   4.910   4.973   4.973   5.004
  5.165   5.333   5.333   5.351   5.351   5.890   5.890   5.939
  6.079   6.079   6.201   6.287   6.287   6.525   6.525   6.718
  6.833   6.833   7.145   7.145   7.196   7.196   7.261   7.564
  7.653   7.653   7.831   7.900   7.900   8.418   8.761   8.766
  8.766   9.119   9.119   9.315   9.315   9.762   9.774   9.774
 10.275  10.400  10.400  10.536  10.536  10.700  10.700  10.733
 10.733  10.964  10.964  11.018  11.018  11.225  11.244  11.244
 11.302  11.614  11.614  11.652  11.652  11.896  11.896  11.961
 12.041  12.041  12.106  12.106  12.136  12.136  12.197  12.273
 12.273  12.280  12.280  12.435  12.435  12.446  12.446  12.574
 12.574  12.905  13.017  13.017  13.596  13.596  13.683  13.790
 13.790  14.223  14.223  14.315  14.315  14.531  14.912  14.912
 15.232  15.232  15.879  15.879  15.889  15.897  15.897  16.355
 16.459  16.459  16.782  16.782  16.900  17.511  17.511  17.532
 17.532  17.676  17.676  17.842  18.236  18.236  18.648  18.772
 18.772  19.878  19.878  20.039  20.039  20.053  20.586  21.217
 21.217  23.298  24.885  24.885  25.212  25.549  26.777  26.777
 28.774  32.356  32.356  33.690  33.690  35.787  41.761  48.357
 48.357  48.770  48.770  49.656  77.970  91.140  93.657  93.657
106.963
 --------------------------------------------------------------
 
          Ground-State Mulliken Net Atomic Charges

     Atom                 Charge (a.u.)    Spin (a.u.)
  --------------------------------------------------------
      1 C                    -1.677877      -0.000000
      2 H                     3.673138       0.000000
      3 N                    -1.995261      -0.000000
  --------------------------------------------------------
  Sum of atomic charges =    -0.000000
  Sum of spin   charges =    -0.000000

 -----------------------------------------------------------------
                    Cartesian Multipole Moments
 -----------------------------------------------------------------
    Charge (ESU x 10^10)
                -0.0000
    Dipole Moment (Debye)
         X      -0.0000      Y       0.0000      Z       2.9298
       Tot       2.9298
    Quadrupole Moments (Debye-Ang)
        XX     -11.5029     XY      -0.0000     YY     -11.5029
        XZ       0.0000     YZ      -0.0000     ZZ     -12.6502
    Octopole Moments (Debye-Ang^2)
       XXX       0.0000    XXY       0.0000    XYY       0.0000
       YYY       0.0000    XXZ       6.0688    XYZ      -0.0000
       YYZ       6.0688    XZZ      -0.0000    YZZ      -0.0000
       ZZZ      24.0356
    Hexadecapole Moments (Debye-Ang^3)
      XXXX     -11.2532   XXXY       0.0000   XXYY      -3.7511
      XYYY       0.0000   YYYY     -11.2532   XXXZ       0.0000
      XXYZ       0.0000   XYYZ      -0.0000   YYYZ       0.0000
      XXZZ     -12.1458   XYZZ       0.0000   YYZZ     -12.1458
      XZZZ       0.0000   YZZZ       0.0000   ZZZZ     -66.3560
 -----------------------------------------------------------------
Archival summary:
1\1\n0098.mhg0\SP\ProcedureUnspecified\BasisUnspecified\111\yhljason\FriAug721:35:062020FriAug721:35:062020\0\\#,ProcedureUnspecified,BasisUnspecified,\\0,1\C\H,1,1.064\N,1,1.156,2,180\\\@

 Total job time:  6992.65s(wall), 55448.39s(cpu) 
 Fri Aug  7 21:35:06 2020

        *************************************************************
        *                                                           *
        *  Thank you very much for using Q-Chem.  Have a nice day.  *
        *                                                           *
        *************************************************************


