Q-Chem Developer Version!
                  Welcome to Q-Chem
     A Quantum Leap Into The Future Of Chemistry


 Q-Chem 5.1, Q-Chem, Inc., Pleasanton, CA (2018)

 Yihan Shao,  Zhengting Gan,  E. Epifanovsky,  A. T. B. Gilbert,  M. Wormit,  
 J. Kussmann,  A. W. Lange,  A. Behn,  Jia Deng,  Xintian Feng,  D. Ghosh,  
 M. Goldey,  P. R. Horn,  L. D. Jacobson,  I. Kaliman,  T. Kus,  A. Landau,  
 Jie Liu,  E. I. Proynov,  R. M. Richard,  R. P. Steele,  E. J. Sundstrom,  
 H. L. Woodcock III,  P. M. Zimmerman,  D. Zuev,  B. Albrecht,  E. Alguire,  
 S. A. Baeppler,  D. Barton,  Z. Benda,  Y. A. Bernard,  E. J. Berquist,  
 K. B. Bravaya,  H. Burton,  D. Casanova,  Chun-Min Chang,  Yunqing Chen,  
 A. Chien,  K. D. Closser,  M. P. Coons,  S. Coriani,  S. Dasgupta,  
 A. L. Dempwolff,  M. Diedenhofen,  Hainam Do,  R. G. Edgar,  Po-Tung Fang,  
 S. Faraji,  S. Fatehi,  Qingguo Feng,  K. D. Fenk,  J. Fosso-Tande,  
 Qinghui Ge,  A. Ghysels,  G. Gidofalvi,  J. Gomes,  J. Gonthier,  A. Gunina,  
 D. Hait,  M. W. D. Hanson-Heine,  P. H. P. Harbach,  A. W. Hauser,  
 J. E. Herr,  E. G. Hohenstein,  Z. C. Holden,  Kerwin Hui,  B. C. Huynh,  
 T.-C. Jagau,  Hyunjun Ji,  B. Kaduk,  K. Khistyaev,  Jaehoon Kim,  
 P. Klunzinger,  K. Koh,  D. Kosenkov,  L. Koulias,  T. Kowalczyk,  
 C. M. Krauter,  A. Kunitsa,  Ka Un Lao,  A. Laurent,  K. V. Lawler,  
 Joonho Lee,  D. Lefrancois,  S. Lehtola,  D. S. Levine,  Yi-Pei Li,  
 You-Sheng Lin,  Fenglai Liu,  E. Livshits,  A. Luenser,  P. Manohar,  
 E. Mansoor,  S. F. Manzer,  Shan-Ping Mao,  Yuezhi Mao,  N. Mardirossian,  
 A. V. Marenich,  T. Markovich,  L. A. Martinez-Martinez,  S. A. Maurer,  
 N. J. Mayhall,  S. C. McKenzie,  J.-M. Mewes,  A. F. Morrison,  
 J. W. Mullinax,  K. Nanda,  T. S. Nguyen-Beck,  R. Olivares-Amaya,  
 J. A. Parkhill,  T. M. Perrine,  F. Plasser,  P. Pokhilko,  S. Prager,  
 A. Prociuk,  E. Ramos,  D. R. Rehn,  F. Rob,  M. Schneider,  N. Sergueev,  
 S. M. Sharada,  S. Sharma,  D. W. Small,  T. Stauch,  T. Stein,  
 Yu-Chuan Su,  A. J. W. Thom,  A. Tkatchenko,  T. Tsuchimochi,  N. M. Tubman,  
 L. Vogt,  M. L. Vidal,  O. Vydrov,  M. A. Watson,  J. Wenzel,  
 M. de Wergifosse,  T. A. Wesolowski,  A. White,  J. Witte,  A. Yamada,  
 Jun Yang,  K. Yao,  S. Yeganeh,  S. R. Yost,  Zhi-Qiang You,  A. Zech,  
 Igor Ying Zhang,  Xing Zhang,  Yan Zhao,  Ying Zhu,  B. R. Brooks,  
 G. K. L. Chan,  C. J. Cramer,  M. S. Gordon,  W. J. Hehre,  A. Klamt,  
 M. W. Schmidt,  C. D. Sherrill,  D. G. Truhlar,  A. Aspuru-Guzik,  R. Baer,  
 A. T. Bell,  N. A. Besley,  Jeng-Da Chai,  A. E. DePrince, III,  
 R. A. DiStasio Jr.,  A. Dreuw,  B. D. Dunietz,  T. R. Furlani,  
 Chao-Ping Hsu,  Yousung Jung,  Jing Kong,  D. S. Lambrecht,  WanZhen Liang,  
 C. Ochsenfeld,  V. A. Rassolov,  L. V. Slipchenko,  J. E. Subotnik,  
 T. Van Voorhis,  J. M. Herbert,  A. I. Krylov,  P. M. W. Gill,  M. Head-Gordon

 Contributors to earlier versions of Q-Chem not listed above: 
 R. D. Adamson,  B. Austin,  J. Baker,  G. J. O. Beran,  K. Brandhorst,  
 S. T. Brown,  E. F. C. Byrd,  A. K. Chakraborty,  C.-L. Cheng,  
 Siu Hung Chien,  D. M. Chipman,  D. L. Crittenden,  H. Dachsel,  
 R. J. Doerksen,  A. D. Dutoi,  L. Fusti-Molnar,  W. A. Goddard III,  
 A. Golubeva-Zadorozhnaya,  S. R. Gwaltney,  G. Hawkins,  A. Heyden,  
 S. Hirata,  G. Kedziora,  F. J. Keil,  C. Kelley,  Jihan Kim,  R. A. King,  
 R. Z. Khaliullin,  P. P. Korambath,  W. Kurlancheek,  A. M. Lee,  M. S. Lee,  
 S. V. Levchenko,  Ching Yeh Lin,  D. Liotard,  R. C. Lochan,  I. Lotan,  
 P. E. Maslen,  N. Nair,  D. P. O'Neill,  D. Neuhauser,  E. Neuscamman,  
 C. M. Oana,  R. Olson,  B. Peters,  R. Peverati,  P. A. Pieniazek,  
 Y. M. Rhee,  J. Ritchie,  M. A. Rohrdanz,  E. Rosta,  N. J. Russ,  
 H. F. Schaefer III,  N. E. Schultz,  N. Shenvi,  A. C. Simmonett,  A. Sodt,  
 D. Stuck,  K. S. Thanthiriwatte,  V. Vanovschi,  Tao Wang,  A. Warshel,  
 C. F. Williams,  Q. Wu,  X. Xu,  W. Zhang

 Please cite Q-Chem as follows:
 Y. Shao et al., Mol. Phys. 113, 184-215 (2015)
 DOI: 10.1080/00268976.2014.952696

 Q-Chem 5.1.1 for Intel X86 EM64T Linux

 Parts of Q-Chem use Armadillo 8.300.2 (Tropical Shenanigans).
 http://arma.sourceforge.net/

 Q-Chem begins on Fri Aug  7 19:38:34 2020  

Host: n0099.mhg0
0

     Scratch files written to /local/scratch/users/yhljason/HF_B97M-V_aug-pc-4.inp20200807193827//
Input Ideriv = 2
Curr. Ideriv = -1
Max.  Ideriv = 2
Input Ideriv = 1
Curr. Ideriv = 2
Max.  Ideriv = 1

Checking the input file for inconsistencies... 	...done.

--------------------------------------------------------------
User input:
--------------------------------------------------------------
$molecule
0 1
F       0.0000  0.0000  0.0000
H       0.0000  0.0000  0.9168
$end

$rem
jobtype sp
method B97M-V
xc_grid 000099000590
basis aug-pc-4
max_scf_cycles 200
thresh 14
scf_convergence 8
scf_algorithm gdm
symmetry false
sym_ignore true
unrestricted true
gen_scfman true
internal_stability_iter 15
internal_stability_davidson_iter 200
mem_total 64000
mem_static 1500
n_frozen_core 0
$end


--------------------------------------------------------------
 ----------------------------------------------------------------
             Standard Nuclear Orientation (Angstroms)
    I     Atom           X                Y                Z
 ----------------------------------------------------------------
    1      F       0.0000000000     0.0000000000     0.0000000000
    2      H       0.0000000000     0.0000000000     0.9168000000
 ----------------------------------------------------------------
 Nuclear Repulsion Energy =     5.1948024620 hartrees
 There are        5 alpha and        5 beta electrons
 Requested basis set is aug-pc-4
 There are 57 shells and 233 basis functions

 Total QAlloc Memory Limit  64000 MB
 Mega-Array Size      1467 MB
 MEM_STATIC part      1500 MB

                       Distance Matrix (Angstroms)
             F (  1)
   H (  2)  0.916800
 
 A cutoff of  1.0D-14 yielded   1652 shell pairs
 There are     27850 function pairs (     51237 Cartesian)
 
 -------------------------------------------------------
 OpenMP Integral Computing Module                       
 Release: version 1.0, May 2013, Q-Chem Inc. Pittsburgh 
 -------------------------------------------------------
 Integral Job Info:
 Integral job number is                      11
 Integral operator is                         1
 short-range coefficients                     0
 long-range coefficients              100000000
 Omega coefficients                           0
 if combine SR and LR in K                    0
 Integral screening is                        0
 Integral computing path is                   2
 max size of driver memory is           6400000
 size of driver memory is               5498286
 size of scratch memory is             29792225
 max col of scratch BK array             194481
 max len of scratch array in speh3         5572
 max len of scratch index in speh4           72
 max int batch size is                      520
 min int batch size is                       52
 fixed nKL is                                25
 max L of basis functions is                  5
 order of int derivative is                   0
 number of shells is                         57
 number of basis is                         315
 number of cartesian basis is               315
 number of contracted shell pairs          1652
 number of primitive shell pairs           3472
 maxK2 (contraction) of shell pair          121
 max number of K2 of shell pair               1
 max number of CS2 of shell pair            197
 max number of PS2 of shell pair            197
 mem total for path MDJ                  836120
 -------------------------------------------------------
 Smallest overlap matrix eigenvalue = 1.12E-05

 Scale SEOQF with 1.000000e-01/1.000000e-01/1.000000e-01

 Standard Electronic Orientation quadrupole field applied
 Guess from superposition of atomic densities
 Warning:  Energy on first SCF cycle will be non-variational
 SAD guess density has 10.000000 electrons

 -----------------------------------------------------------------------
  General SCF calculation program by
  Eric Jon Sundstrom, Paul Horn, Yuezhi Mao, Dmitri Zuev, Alec White,
  David Stuck, Shaama M.S., Shane Yost, Joonho Lee, David Small,
  Daniel Levine, Susi Lehtola, Hugh Burton, Evgeny Epifanovsky
 -----------------------------------------------------------------------
 Exchange:  B97M-V      Correlation:  B97M-V
 Using Euler-Maclaurin-Lebedev (99,590) quadrature formula
 Nonlocal Correlation:  VV10 with C = 0.0100 and b = 6.00 and scale = 1.00000
 Grid used for NLC:  SG-1 standard quadrature
Running Object-Oriented UKS (UHF)
performing a single roothaan step with Fock from read density so that orbitals are available to all algorithms
 Nonlocal correlation = 0.043314913412
energy of the guess density (C=0) -100.417559932669
 Nonlocal correlation = 0.043576073183
We will preform up to 15 macro iterations over saddle points until a stable solution is found
Energy prior to optimization (guess energy) = -100.428858694076
Begin Timing: Total SCF Calculation
Begin Timing: SCF Single Stationary Point Calculation
begin iterations for algorithm: GDM          
the SCF tolerance is set to 1.00e-08
 Nonlocal correlation = 4.317179457653e-02
    1    -100.4288586941      6.02e-02     00000  Descent step
 Nonlocal correlation = 4.340949395556e-02
    2    -100.4086685510      7.56e-02     00000 Line search: overstep
 Nonlocal correlation = 4.341817502169e-02
    3    -100.4574741625      6.66e-03     00000  Normal BFGS step
 Nonlocal correlation = 4.341533830263e-02
    4    -100.4579139597      1.62e-03     00000  Normal BFGS step
 Nonlocal correlation = 4.341548716311e-02
    5    -100.4579426835      3.23e-04     00000  Normal BFGS step
 Nonlocal correlation = 4.341551973223e-02
    6    -100.4579438605      2.74e-05     00000  Normal BFGS step
 Nonlocal correlation = 4.341551626327e-02
    7    -100.4579438750      3.07e-06     00000  Normal BFGS step
 Nonlocal correlation = 4.341551611398e-02
    8    -100.4579438751      1.39e-07     00000  Normal BFGS step
 Nonlocal correlation = 4.341551633929e-02
    9    -100.4579438751      3.73e-08     00000  Normal BFGS step
 Nonlocal correlation = 4.341551621931e-02
   10    -100.4579438751      4.17e-08     00000  Normal BFGS step
 Nonlocal correlation = 4.341551621844e-02
   11    -100.4579438751      4.74e-10     00000 Convergence criterion met
Timing for Single Stationary Point: 70.00s (wall), 558.00s (cpu)
Begin Timing: Stability
===================================================
Beginning Test for Internal Stability
===================================================
generating davidson guess vectors based on koopmans excitations
computing hessian-vector products by finite difference
 Nonlocal correlation = 0.043415516183
 Nonlocal correlation = 0.043415516242
 Nonlocal correlation = 0.043415516221
 Nonlocal correlation = 0.043415516204
 Nonlocal correlation = 0.043415516218
    1      6.17e-01     00000 Davidson Iteration
computing hessian-vector products by finite difference
 Nonlocal correlation = 4.341551517860e-02
 Nonlocal correlation = 4.341551723346e-02
 Nonlocal correlation = 4.341551640766e-02
 Nonlocal correlation = 4.341551602045e-02
 Nonlocal correlation = 4.341551621844e-02
    2      1.41e-01     00000 Davidson Iteration
computing hessian-vector products by finite difference
 Nonlocal correlation = 4.341552032619e-02
 Nonlocal correlation = 4.341551210001e-02
 Nonlocal correlation = 4.341555787887e-02
 Nonlocal correlation = 4.341547454220e-02
 Nonlocal correlation = 4.341551621844e-02
    3      1.96e-02     00000 Davidson Iteration
computing hessian-vector products by finite difference
 Nonlocal correlation = 4.341552297231e-02
 Nonlocal correlation = 4.341550945446e-02
 Nonlocal correlation = 4.341563524738e-02
 Nonlocal correlation = 4.341539717636e-02
 Nonlocal correlation = 4.341551621844e-02
    4      1.06e-02     00000 Davidson Iteration
computing hessian-vector products by finite difference
 Nonlocal correlation = 4.341551239539e-02
 Nonlocal correlation = 4.341552001952e-02
 Nonlocal correlation = 4.341550666715e-02
 Nonlocal correlation = 4.341552575508e-02
 Nonlocal correlation = 4.341551621844e-02
    5      1.41e-03     00000 Davidson Iteration
computing hessian-vector products by finite difference
 Nonlocal correlation = 4.341551411950e-02
 Nonlocal correlation = 4.341551830233e-02
 Nonlocal correlation = 4.341551286986e-02
 Nonlocal correlation = 4.341551955840e-02
 Nonlocal correlation = 4.341551621844e-02
    6      5.29e-04     00000 Davidson Iteration
computing hessian-vector products by finite difference
 Nonlocal correlation = 4.341551650471e-02
 Nonlocal correlation = 4.341551592400e-02
 Nonlocal correlation = 4.341551700961e-02
 Nonlocal correlation = 4.341551907055e-02
 Nonlocal correlation = 4.341551621844e-02
    7      1.91e-03     00000 Davidson Iteration
computing hessian-vector products by finite difference
 Nonlocal correlation = 4.341551771004e-02
 Nonlocal correlation = 4.341551471646e-02
 Nonlocal correlation = 4.341551478972e-02
 Nonlocal correlation = 4.341551944633e-02
 Nonlocal correlation = 4.341551621844e-02
    8      3.90e-04     00000 Davidson Converged
converged_eigenvalues
   0.6517
   0.6517
Threshold for negative eigenvalues: -1.0e-05
solution was a local minimum (stable)
===================================================
End Test for Internal Stability
===================================================
Our SCF solution is stable!
Timing for Total SCF: 328.00s (wall), 2601.93s (cpu)
 Total energy in the final basis set =     -100.4579438751
<S^2> =          0.000000000
    ==================================================
              The end of Object-Oriented SCFman       
    ==================================================
 
 --------------------------------------------------------------
 
                    Orbital Energies (a.u.)
 --------------------------------------------------------------
 
 Alpha MOs
 -- Occupied --
-24.707  -1.203  -0.522  -0.379  -0.379
 -- Virtual --
 -0.026   0.040   0.045   0.045   0.046   0.098   0.106   0.106
  0.145   0.145   0.159   0.190   0.190   0.193   0.248   0.274
  0.279   0.279   0.292   0.292   0.292   0.292   0.298   0.298
  0.373   0.386   0.386   0.393   0.396   0.396   0.481   0.481
  0.490   0.490   0.499   0.499   0.521   0.549   0.549   0.560
  0.605   0.605   0.639   0.659   0.659   0.665   0.665   0.732
  0.732   0.749   0.838   0.853   0.853   0.869   0.869   0.918
  0.918   0.932   0.932   0.934   0.967   0.967   0.971   0.971
  1.079   1.190   1.190   1.202   1.202   1.222   1.268   1.269
  1.280   1.280   1.289   1.296   1.296   1.297   1.297   1.484
  1.484   1.490   1.490   1.619   1.812   1.867   1.867   2.018
  2.234   2.278   2.278   2.297   2.297   2.431   2.431   2.537
  2.713   2.713   2.839   2.839   3.123   3.259   3.259   3.367
  3.367   3.496   3.503   3.503   3.831   4.010   4.010   4.085
  4.085   4.287   4.652   4.652   4.942   5.421   5.421   5.437
  5.437   5.677   5.677   5.860   5.865   6.338   6.442   6.442
  6.491   6.491   6.797   6.797   7.246   7.359   7.359   7.588
  7.588   7.860   7.860   8.064   8.703   8.703   8.791   8.791
  9.127   9.130   9.130   9.633   9.633  11.063  11.346  11.346
 12.126  12.265  12.710  12.710  12.814  12.814  12.992  12.992
 13.037  13.037  13.489  13.489  13.562  13.562  13.939  13.939
 14.289  14.510  14.510  14.978  15.093  15.093  15.474  15.571
 15.571  15.794  15.794  16.350  16.350  16.425  16.425  16.949
 17.921  17.921  17.983  19.104  19.104  19.432  19.432  19.741
 20.619  20.619  21.317  21.317  21.497  21.497  21.709  21.709
 22.124  22.124  22.664  24.196  24.196  24.221  26.056  26.056
 30.660  31.411  31.411  32.008  32.008  35.907  42.712  42.712
 42.862  43.567  46.696  93.035  93.036  93.372  93.372  95.416
 96.560  96.560  99.822 207.213
 
 Beta MOs
 -- Occupied --
-24.707  -1.203  -0.522  -0.379  -0.379
 -- Virtual --
 -0.026   0.040   0.045   0.045   0.046   0.098   0.106   0.106
  0.145   0.145   0.159   0.190   0.190   0.193   0.248   0.274
  0.279   0.279   0.292   0.292   0.292   0.292   0.298   0.298
  0.373   0.386   0.386   0.393   0.396   0.396   0.481   0.481
  0.490   0.490   0.499   0.499   0.521   0.549   0.549   0.560
  0.605   0.605   0.639   0.659   0.659   0.665   0.665   0.732
  0.732   0.749   0.838   0.853   0.853   0.869   0.869   0.918
  0.918   0.932   0.932   0.934   0.967   0.967   0.971   0.971
  1.079   1.190   1.190   1.202   1.202   1.222   1.268   1.269
  1.280   1.280   1.289   1.296   1.296   1.297   1.297   1.484
  1.484   1.490   1.490   1.619   1.812   1.867   1.867   2.018
  2.234   2.278   2.278   2.297   2.297   2.431   2.431   2.537
  2.713   2.713   2.839   2.839   3.123   3.259   3.259   3.367
  3.367   3.496   3.503   3.503   3.831   4.010   4.010   4.085
  4.085   4.287   4.652   4.652   4.942   5.421   5.421   5.437
  5.437   5.677   5.677   5.860   5.865   6.338   6.442   6.442
  6.491   6.491   6.797   6.797   7.246   7.359   7.359   7.588
  7.588   7.860   7.860   8.064   8.703   8.703   8.791   8.791
  9.127   9.130   9.130   9.633   9.633  11.063  11.346  11.346
 12.126  12.265  12.710  12.710  12.814  12.814  12.992  12.992
 13.037  13.037  13.489  13.489  13.562  13.562  13.939  13.939
 14.289  14.510  14.510  14.978  15.093  15.093  15.474  15.571
 15.571  15.794  15.794  16.350  16.350  16.425  16.425  16.949
 17.921  17.921  17.983  19.104  19.104  19.432  19.432  19.741
 20.619  20.619  21.317  21.317  21.497  21.497  21.709  21.709
 22.124  22.124  22.664  24.196  24.196  24.221  26.056  26.056
 30.660  31.411  31.411  32.008  32.008  35.907  42.712  42.712
 42.862  43.567  46.696  93.035  93.036  93.372  93.372  95.416
 96.560  96.560  99.822 207.213
 --------------------------------------------------------------
 
          Ground-State Mulliken Net Atomic Charges

     Atom                 Charge (a.u.)    Spin (a.u.)
  --------------------------------------------------------
      1 F                    -0.503641      -0.000000
      2 H                     0.503641       0.000000
  --------------------------------------------------------
  Sum of atomic charges =     0.000000
  Sum of spin   charges =    -0.000000

 -----------------------------------------------------------------
                    Cartesian Multipole Moments
 -----------------------------------------------------------------
    Charge (ESU x 10^10)
                 0.0000
    Dipole Moment (Debye)
         X       0.0000      Y      -0.0000      Z       1.7690
       Tot       1.7690
    Quadrupole Moments (Debye-Ang)
        XX      -5.8299     XY       0.0000     YY      -5.8299
        XZ      -0.0000     YZ       0.0000     ZZ      -3.3953
    Octopole Moments (Debye-Ang^2)
       XXX       0.0000    XXY      -0.0000    XYY       0.0000
       YYY       0.0000    XXZ      -0.4374    XYZ       0.0000
       YYZ      -0.4374    XZZ      -0.0000    YZZ       0.0000
       ZZZ       0.7212
    Hexadecapole Moments (Debye-Ang^3)
      XXXX      -4.2656   XXXY       0.0000   XXYY      -1.4219
      XYYY       0.0000   YYYY      -4.2656   XXXZ      -0.0000
      XXYZ       0.0000   XYYZ      -0.0000   YYYZ       0.0000
      XXZZ      -1.6031   XYZZ       0.0000   YYZZ      -1.6031
      XZZZ      -0.0000   YZZZ       0.0000   ZZZZ      -3.2638
 -----------------------------------------------------------------
Archival summary:
1\1\n0099.mhg0\SP\ProcedureUnspecified\BasisUnspecified\11\yhljason\FriAug719:44:162020FriAug719:44:162020\0\\#,ProcedureUnspecified,BasisUnspecified,\\0,1\F\H,1,0.9168\\\@

 Total job time:  342.81s(wall), 2699.26s(cpu) 
 Fri Aug  7 19:44:16 2020

        *************************************************************
        *                                                           *
        *  Thank you very much for using Q-Chem.  Have a nice day.  *
        *                                                           *
        *************************************************************


