Q-Chem Developer Version!
                  Welcome to Q-Chem
     A Quantum Leap Into The Future Of Chemistry


 Q-Chem 5.1, Q-Chem, Inc., Pleasanton, CA (2018)

 Yihan Shao,  Zhengting Gan,  E. Epifanovsky,  A. T. B. Gilbert,  M. Wormit,  
 J. Kussmann,  A. W. Lange,  A. Behn,  Jia Deng,  Xintian Feng,  D. Ghosh,  
 M. Goldey,  P. R. Horn,  L. D. Jacobson,  I. Kaliman,  T. Kus,  A. Landau,  
 Jie Liu,  E. I. Proynov,  R. M. Richard,  R. P. Steele,  E. J. Sundstrom,  
 H. L. Woodcock III,  P. M. Zimmerman,  D. Zuev,  B. Albrecht,  E. Alguire,  
 S. A. Baeppler,  D. Barton,  Z. Benda,  Y. A. Bernard,  E. J. Berquist,  
 K. B. Bravaya,  H. Burton,  D. Casanova,  Chun-Min Chang,  Yunqing Chen,  
 A. Chien,  K. D. Closser,  M. P. Coons,  S. Coriani,  S. Dasgupta,  
 A. L. Dempwolff,  M. Diedenhofen,  Hainam Do,  R. G. Edgar,  Po-Tung Fang,  
 S. Faraji,  S. Fatehi,  Qingguo Feng,  K. D. Fenk,  J. Fosso-Tande,  
 Qinghui Ge,  A. Ghysels,  G. Gidofalvi,  J. Gomes,  J. Gonthier,  A. Gunina,  
 D. Hait,  M. W. D. Hanson-Heine,  P. H. P. Harbach,  A. W. Hauser,  
 J. E. Herr,  E. G. Hohenstein,  Z. C. Holden,  Kerwin Hui,  B. C. Huynh,  
 T.-C. Jagau,  Hyunjun Ji,  B. Kaduk,  K. Khistyaev,  Jaehoon Kim,  
 P. Klunzinger,  K. Koh,  D. Kosenkov,  L. Koulias,  T. Kowalczyk,  
 C. M. Krauter,  A. Kunitsa,  Ka Un Lao,  A. Laurent,  K. V. Lawler,  
 Joonho Lee,  D. Lefrancois,  S. Lehtola,  D. S. Levine,  Yi-Pei Li,  
 You-Sheng Lin,  Fenglai Liu,  E. Livshits,  A. Luenser,  P. Manohar,  
 E. Mansoor,  S. F. Manzer,  Shan-Ping Mao,  Yuezhi Mao,  N. Mardirossian,  
 A. V. Marenich,  T. Markovich,  L. A. Martinez-Martinez,  S. A. Maurer,  
 N. J. Mayhall,  S. C. McKenzie,  J.-M. Mewes,  A. F. Morrison,  
 J. W. Mullinax,  K. Nanda,  T. S. Nguyen-Beck,  R. Olivares-Amaya,  
 J. A. Parkhill,  T. M. Perrine,  F. Plasser,  P. Pokhilko,  S. Prager,  
 A. Prociuk,  E. Ramos,  D. R. Rehn,  F. Rob,  M. Schneider,  N. Sergueev,  
 S. M. Sharada,  S. Sharma,  D. W. Small,  T. Stauch,  T. Stein,  
 Yu-Chuan Su,  A. J. W. Thom,  A. Tkatchenko,  T. Tsuchimochi,  N. M. Tubman,  
 L. Vogt,  M. L. Vidal,  O. Vydrov,  M. A. Watson,  J. Wenzel,  
 M. de Wergifosse,  T. A. Wesolowski,  A. White,  J. Witte,  A. Yamada,  
 Jun Yang,  K. Yao,  S. Yeganeh,  S. R. Yost,  Zhi-Qiang You,  A. Zech,  
 Igor Ying Zhang,  Xing Zhang,  Yan Zhao,  Ying Zhu,  B. R. Brooks,  
 G. K. L. Chan,  C. J. Cramer,  M. S. Gordon,  W. J. Hehre,  A. Klamt,  
 M. W. Schmidt,  C. D. Sherrill,  D. G. Truhlar,  A. Aspuru-Guzik,  R. Baer,  
 A. T. Bell,  N. A. Besley,  Jeng-Da Chai,  A. E. DePrince, III,  
 R. A. DiStasio Jr.,  A. Dreuw,  B. D. Dunietz,  T. R. Furlani,  
 Chao-Ping Hsu,  Yousung Jung,  Jing Kong,  D. S. Lambrecht,  WanZhen Liang,  
 C. Ochsenfeld,  V. A. Rassolov,  L. V. Slipchenko,  J. E. Subotnik,  
 T. Van Voorhis,  J. M. Herbert,  A. I. Krylov,  P. M. W. Gill,  M. Head-Gordon

 Contributors to earlier versions of Q-Chem not listed above: 
 R. D. Adamson,  B. Austin,  J. Baker,  G. J. O. Beran,  K. Brandhorst,  
 S. T. Brown,  E. F. C. Byrd,  A. K. Chakraborty,  C.-L. Cheng,  
 Siu Hung Chien,  D. M. Chipman,  D. L. Crittenden,  H. Dachsel,  
 R. J. Doerksen,  A. D. Dutoi,  L. Fusti-Molnar,  W. A. Goddard III,  
 A. Golubeva-Zadorozhnaya,  S. R. Gwaltney,  G. Hawkins,  A. Heyden,  
 S. Hirata,  G. Kedziora,  F. J. Keil,  C. Kelley,  Jihan Kim,  R. A. King,  
 R. Z. Khaliullin,  P. P. Korambath,  W. Kurlancheek,  A. M. Lee,  M. S. Lee,  
 S. V. Levchenko,  Ching Yeh Lin,  D. Liotard,  R. C. Lochan,  I. Lotan,  
 P. E. Maslen,  N. Nair,  D. P. O'Neill,  D. Neuhauser,  E. Neuscamman,  
 C. M. Oana,  R. Olson,  B. Peters,  R. Peverati,  P. A. Pieniazek,  
 Y. M. Rhee,  J. Ritchie,  M. A. Rohrdanz,  E. Rosta,  N. J. Russ,  
 H. F. Schaefer III,  N. E. Schultz,  N. Shenvi,  A. C. Simmonett,  A. Sodt,  
 D. Stuck,  K. S. Thanthiriwatte,  V. Vanovschi,  Tao Wang,  A. Warshel,  
 C. F. Williams,  Q. Wu,  X. Xu,  W. Zhang

 Please cite Q-Chem as follows:
 Y. Shao et al., Mol. Phys. 113, 184-215 (2015)
 DOI: 10.1080/00268976.2014.952696

 Q-Chem 5.1.1 for Intel X86 EM64T Linux

 Parts of Q-Chem use Armadillo 8.300.2 (Tropical Shenanigans).
 http://arma.sourceforge.net/

 Q-Chem begins on Fri Aug  7 21:50:06 2020  

Host: n0083.mhg0
0

     Scratch files written to /local/scratch/users/yhljason/LiBH4_mBEEF_aug-pc-4.inp20200807193833//
Input Ideriv = 2
Curr. Ideriv = -1
Max.  Ideriv = 2
Input Ideriv = 1
Curr. Ideriv = 2
Max.  Ideriv = 1

Checking the input file for inconsistencies... 	...done.

--------------------------------------------------------------
User input:
--------------------------------------------------------------
$molecule
0 1
     Li        0.0000000000    0.0000000000   -1.4298000000
        B         0.0000000000    0.0000000000    0.5063000000
        H         0.0000000000    0.0000000000    1.6973000000
        H         0.0000000000    1.1405000000    0.0202000000
        H         0.9877000000   -0.5702000000    0.0202000000
       H        -0.9877000000   -0.5702000000    0.0202000000
$end

$rem
jobtype sp
method mBEEF
xc_grid 000099000590
basis aug-pc-4
max_scf_cycles 200
thresh 14
scf_convergence 8
scf_algorithm gdm
symmetry false
sym_ignore true
unrestricted true
gen_scfman true
internal_stability_iter 15
internal_stability_davidson_iter 200
mem_total 64000
mem_static 1500
n_frozen_core 0
$end


--------------------------------------------------------------
 ----------------------------------------------------------------
             Standard Nuclear Orientation (Angstroms)
    I     Atom           X                Y                Z
 ----------------------------------------------------------------
    1      Li      0.0000000000     0.0000000000    -1.4298000000
    2      B       0.0000000000     0.0000000000     0.5063000000
    3      H       0.0000000000     0.0000000000     1.6973000000
    4      H       0.0000000000     1.1405000000     0.0202000000
    5      H       0.9877000000    -0.5702000000     0.0202000000
    6      H      -0.9877000000    -0.5702000000     0.0202000000
 ----------------------------------------------------------------
 Nuclear Repulsion Energy =    17.3997337348 hartrees
 There are        6 alpha and        6 beta electrons
 Requested basis set is aug-pc-4
 There are 152 shells and 580 basis functions

 Total QAlloc Memory Limit  64000 MB
 Mega-Array Size      1467 MB
 MEM_STATIC part      1500 MB

                       Distance Matrix (Angstroms)
             Li(  1)   B (  2)   H (  3)   H (  4)   H (  5)
   B (  2)  1.936100
   H (  3)  3.127100  1.191000
   H (  4)  1.844787  1.239772  2.028153
   H (  5)  1.844771  1.239747  2.028138  1.975360
   H (  6)  1.844771  1.239747  2.028138  1.975360  1.975400
 
 A cutoff of  1.0D-14 yielded  11529 shell pairs
 There are    169097 function pairs (    292839 Cartesian)
 
 -------------------------------------------------------
 OpenMP Integral Computing Module                       
 Release: version 1.0, May 2013, Q-Chem Inc. Pittsburgh 
 -------------------------------------------------------
 Integral Job Info:
 Integral job number is                      11
 Integral operator is                         1
 short-range coefficients                     0
 long-range coefficients              100000000
 Omega coefficients                           0
 if combine SR and LR in K                    0
 Integral screening is                        0
 Integral computing path is                   2
 max size of driver memory is           6400000
 size of driver memory is               5498286
 size of scratch memory is             28689500
 max col of scratch BK array             194481
 max len of scratch array in speh3         5572
 max len of scratch index in speh4           72
 max int batch size is                      520
 min int batch size is                       52
 fixed nKL is                                20
 max L of basis functions is                  5
 order of int derivative is                   0
 number of shells is                        152
 number of basis is                         762
 number of cartesian basis is               762
 number of contracted shell pairs         11529
 number of primitive shell pairs          21253
 maxK2 (contraction) of shell pair          144
 max number of K2 of shell pair               1
 max number of CS2 of shell pair           1633
 max number of PS2 of shell pair           1633
 mem total for path MDJ                 1453816
 -------------------------------------------------------
 Smallest overlap matrix eigenvalue = 3.52E-08
 Linear dependence detected in AO basis
 Number of orthogonalized atomic orbitals = 572
 Maximum deviation from orthogonality = 5.196E-10

 Scale SEOQF with 1.000000e-01/1.000000e-01/1.000000e-01

 Standard Electronic Orientation quadrupole field applied
 Nucleus-field energy     =    -0.0000000009 hartrees
 Guess from superposition of atomic densities
 Warning:  Energy on first SCF cycle will be non-variational
 SAD guess density has 12.000000 electrons

 -----------------------------------------------------------------------
  General SCF calculation program by
  Eric Jon Sundstrom, Paul Horn, Yuezhi Mao, Dmitri Zuev, Alec White,
  David Stuck, Shaama M.S., Shane Yost, Joonho Lee, David Small,
  Daniel Levine, Susi Lehtola, Hugh Burton, Evgeny Epifanovsky
 -----------------------------------------------------------------------
 Exchange:  mBEEF      Correlation:  PBEsol
 Using Euler-Maclaurin-Lebedev (99,590) quadrature formula
Running Object-Oriented UKS (UHF)
performing a single roothaan step with Fock from read density so that orbitals are available to all algorithms
energy of the guess density (C=0) -34.910918769813
We will preform up to 15 macro iterations over saddle points until a stable solution is found
Energy prior to optimization (guess energy) = -34.968722659375
Begin Timing: Total SCF Calculation
Begin Timing: SCF Single Stationary Point Calculation
begin iterations for algorithm: GDM          
the SCF tolerance is set to 1.00e-08
    1     -34.9687226594      1.18e-01     00000  Descent step
    2     -35.0779128428      4.32e-02     00000  Normal BFGS step
    3     -35.0836662931      7.10e-03     00000  Normal BFGS step
    4     -35.0839925806      2.60e-03     00000  Normal BFGS step
    5     -35.0840356364      5.58e-04     00000  Normal BFGS step
    6     -35.0840379829      7.58e-05     00000  Normal BFGS step
    7     -35.0840380975      8.43e-06     00000  Normal BFGS step
    8     -35.0840380993      1.50e-06     00000  Normal BFGS step
    9     -35.0840380993      1.83e-07     00000  Normal BFGS step
   10     -35.0840380993      3.83e-08     00000  Normal BFGS step
   11     -35.0840380993      1.33e-08     00000  Normal BFGS step
   12     -35.0840380993      6.64e-09     00000 Convergence criterion met
Timing for Single Stationary Point: 1436.00s (wall), 11379.77s (cpu)
Begin Timing: Stability
===================================================
Beginning Test for Internal Stability
===================================================
generating davidson guess vectors based on koopmans excitations
    1      3.73e-01     00000 Davidson Iteration
    2      1.21e-01     00000 Davidson Iteration
    3      1.12e-02     00000 Davidson Iteration
    4      8.40e-03     00000 Davidson Iteration
    5      2.39e-03     00000 Davidson Iteration
    6      9.26e-04     00000 Davidson Iteration
    7      3.47e-04     00000 Davidson Iteration
    8      7.05e-05     00000 Davidson Iteration
    9      3.74e-04     00000 Davidson Iteration
   10      1.63e-03     00000 Davidson Iteration
   11      1.84e-04     00000 Davidson Iteration
   12      1.91e-04     00000 Davidson Iteration
   13      1.58e-04     00000 Davidson Iteration
   14      6.13e-05     00000 Davidson Converged
converged_eigenvalues
   0.4030
   0.4030
Threshold for negative eigenvalues: -1.0e-05
solution was a local minimum (stable)
===================================================
End Test for Internal Stability
===================================================
Our SCF solution is stable!
Timing for Total SCF: 17133.00s (wall), 136009.43s (cpu)
 Total energy in the final basis set =      -35.0840380993
<S^2> =          0.000000000
    ==================================================
              The end of Object-Oriented SCFman       
    ==================================================
 
 --------------------------------------------------------------
 
                    Orbital Energies (a.u.)
 --------------------------------------------------------------
 
 Alpha MOs
 -- Occupied --
 -6.544  -1.958  -0.473  -0.277  -0.277  -0.277
 -- Virtual --
 -0.061  -0.004  -0.004   0.004   0.007   0.019   0.019   0.021
  0.026   0.027   0.027   0.034   0.034   0.035   0.044   0.053
  0.053   0.058   0.059   0.059   0.076   0.076   0.078   0.078
  0.078   0.085   0.085   0.089   0.089   0.096   0.097   0.108
  0.108   0.117   0.118   0.118   0.121   0.126   0.126   0.132
  0.132   0.134   0.142   0.147   0.147   0.160   0.160   0.165
  0.174   0.174   0.175   0.181   0.184   0.187   0.188   0.188
  0.198   0.198   0.199   0.199   0.199   0.200   0.205   0.205
  0.215   0.223   0.224   0.224   0.232   0.232   0.238   0.238
  0.247   0.259   0.259   0.272   0.272   0.280   0.280   0.282
  0.289   0.289   0.296   0.298   0.298   0.309   0.309   0.316
  0.319   0.319   0.319   0.321   0.341   0.341   0.353   0.361
  0.361   0.374   0.381   0.381   0.381   0.387   0.390   0.390
  0.396   0.396   0.398   0.398   0.406   0.406   0.414   0.428
  0.429   0.429   0.444   0.447   0.447   0.456   0.457   0.464
  0.468   0.468   0.484   0.488   0.489   0.499   0.499   0.513
  0.513   0.528   0.529   0.529   0.546   0.546   0.555   0.565
  0.566   0.581   0.581   0.583   0.589   0.589   0.593   0.602
  0.603   0.603   0.609   0.620   0.620   0.649   0.649   0.655
  0.664   0.664   0.677   0.677   0.677   0.680   0.683   0.687
  0.688   0.688   0.698   0.698   0.713   0.713   0.730   0.732
  0.732   0.745   0.752   0.752   0.758   0.766   0.773   0.789
  0.789   0.794   0.806   0.806   0.817   0.817   0.826   0.826
  0.828   0.840   0.840   0.855   0.855   0.859   0.859   0.870
  0.870   0.870   0.872   0.883   0.899   0.899   0.909   0.920
  0.920   0.921   0.946   0.946   0.946   0.968   0.968   0.987
  0.987   0.992   1.039   1.039   1.050   1.123   1.123   1.164
  1.167   1.193   1.213   1.213   1.219   1.249   1.249   1.278
  1.278   1.294   1.327   1.327   1.351   1.424   1.424   1.445
  1.473   1.500   1.500   1.545   1.545   1.546   1.561   1.577
  1.577   1.599   1.641   1.641   1.660   1.660   1.681   1.695
  1.695   1.729   1.729   1.765   1.780   1.780   1.819   1.830
  1.831   1.861   1.870   1.870   1.918   2.009   2.025   2.025
  2.096   2.137   2.167   2.169   2.169   2.201   2.231   2.231
  2.301   2.301   2.362   2.419   2.419   2.451   2.451   2.498
  2.542   2.634   2.669   2.731   2.731   2.786   2.786   2.806
  2.889   2.889   2.936   2.936   2.944   3.011   3.052   3.052
  3.096   3.190   3.215   3.258   3.258   3.305   3.305   3.386
  3.400   3.400   3.474   3.484   3.484   3.564   3.649   3.649
  3.666   3.666   3.746   3.746   3.765   3.864   3.917   3.917
  3.931   3.965   3.965   3.986   4.038   4.038   4.084   4.172
  4.172   4.199   4.199   4.212   4.212   4.217   4.228   4.297
  4.312   4.334   4.391   4.391   4.456   4.456   4.466   4.547
  4.547   4.577   4.582   4.582   4.607   4.753   4.773   4.773
  4.867   4.867   5.023   5.023   5.054   5.099   5.099   5.191
  5.261   5.261   5.262   5.331   5.422   5.499   5.499   5.648
  5.666   5.666   5.717   5.762   5.762   5.939   5.939   5.972
  6.124   6.175   6.175   6.212   6.434   6.434   6.466   6.523
  6.523   6.633   6.633   6.745   6.759   6.893   6.893   7.065
  7.065   7.281   8.363   8.363   8.570   8.693   8.806   8.806
  8.870   8.870   8.968   9.066   9.066   9.084   9.119   9.119
  9.196   9.212   9.212   9.312   9.312   9.324   9.324   9.328
  9.359   9.498   9.498   9.524   9.676   9.676   9.738   9.844
  9.844   9.994  10.103  10.103  10.190  10.302  10.321  10.321
 10.338  10.411  10.453  10.453  10.503  10.503  10.667  10.667
 10.940  10.958  10.958  10.993  11.150  11.180  11.180  11.418
 11.418  11.428  11.534  11.722  11.723  11.732  11.822  11.822
 12.099  12.222  12.236  12.236  12.749  12.754  12.754  12.805
 12.954  12.963  12.963  12.970  13.046  13.110  13.110  13.214
 13.214  13.297  13.320  13.356  13.356  13.401  13.401  13.592
 13.592  13.712  13.838  13.845  13.850  13.850  14.445  14.469
 14.469  14.840  14.986  14.986  16.036  16.036  16.436  16.970
 17.094  17.094  17.110  17.129  17.129  17.144  17.144  17.148
 17.222  17.222  17.277  17.277  17.281  17.291  17.387  17.781
 17.840  17.840  17.969  18.014  18.014  18.239  18.239  19.024
 19.024  19.043  19.325  19.480  19.480  19.580  19.736  19.736
 19.767  19.926  19.926  21.447  21.625  21.625  23.007  23.113
 23.113  23.596  23.700  23.700  23.783  23.783  23.946  23.946
 23.946  24.595  24.926  24.926  25.236  40.777  40.790  40.790
 41.026  80.616  90.989  91.062  91.062  91.135  91.135  91.230
 91.236  91.236  91.684  91.922  91.922  92.150
 
 Beta MOs
 -- Occupied --
 -6.544  -1.958  -0.473  -0.277  -0.277  -0.277
 -- Virtual --
 -0.061  -0.004  -0.004   0.004   0.007   0.019   0.019   0.021
  0.026   0.027   0.027   0.034   0.034   0.035   0.044   0.053
  0.053   0.058   0.059   0.059   0.076   0.076   0.078   0.078
  0.078   0.085   0.085   0.089   0.089   0.096   0.097   0.108
  0.108   0.117   0.118   0.118   0.121   0.126   0.126   0.132
  0.132   0.134   0.142   0.147   0.147   0.160   0.160   0.165
  0.174   0.174   0.175   0.181   0.184   0.187   0.188   0.188
  0.198   0.198   0.199   0.199   0.199   0.200   0.205   0.205
  0.215   0.223   0.224   0.224   0.232   0.232   0.238   0.238
  0.247   0.259   0.259   0.272   0.272   0.280   0.280   0.282
  0.289   0.289   0.296   0.298   0.298   0.309   0.309   0.316
  0.319   0.319   0.319   0.321   0.341   0.341   0.353   0.361
  0.361   0.374   0.381   0.381   0.381   0.387   0.390   0.390
  0.396   0.396   0.398   0.398   0.406   0.406   0.414   0.428
  0.429   0.429   0.444   0.447   0.447   0.456   0.457   0.464
  0.468   0.468   0.484   0.488   0.489   0.499   0.499   0.513
  0.513   0.528   0.529   0.529   0.546   0.546   0.555   0.565
  0.566   0.581   0.581   0.583   0.589   0.589   0.593   0.602
  0.603   0.603   0.609   0.620   0.620   0.649   0.649   0.655
  0.664   0.664   0.677   0.677   0.677   0.680   0.683   0.687
  0.688   0.688   0.698   0.698   0.713   0.713   0.730   0.732
  0.732   0.745   0.752   0.752   0.758   0.766   0.773   0.789
  0.789   0.794   0.806   0.806   0.817   0.817   0.826   0.826
  0.828   0.840   0.840   0.855   0.855   0.859   0.859   0.870
  0.870   0.870   0.872   0.883   0.899   0.899   0.909   0.920
  0.920   0.921   0.946   0.946   0.946   0.968   0.968   0.987
  0.987   0.992   1.039   1.039   1.050   1.123   1.123   1.164
  1.167   1.193   1.213   1.213   1.219   1.249   1.249   1.278
  1.278   1.294   1.327   1.327   1.351   1.424   1.424   1.445
  1.473   1.500   1.500   1.545   1.545   1.546   1.561   1.577
  1.577   1.599   1.641   1.641   1.660   1.660   1.681   1.695
  1.695   1.729   1.729   1.765   1.780   1.780   1.819   1.830
  1.831   1.861   1.870   1.870   1.918   2.009   2.025   2.025
  2.096   2.137   2.167   2.169   2.169   2.201   2.231   2.231
  2.301   2.301   2.362   2.419   2.419   2.451   2.451   2.498
  2.542   2.634   2.669   2.731   2.731   2.786   2.786   2.806
  2.889   2.889   2.936   2.936   2.944   3.011   3.052   3.052
  3.096   3.190   3.215   3.258   3.258   3.305   3.305   3.386
  3.400   3.400   3.474   3.484   3.484   3.564   3.649   3.649
  3.666   3.666   3.746   3.746   3.765   3.864   3.917   3.917
  3.931   3.965   3.965   3.986   4.038   4.038   4.084   4.172
  4.172   4.199   4.199   4.212   4.212   4.217   4.228   4.297
  4.312   4.334   4.391   4.391   4.456   4.456   4.466   4.547
  4.547   4.577   4.582   4.582   4.607   4.753   4.773   4.773
  4.867   4.867   5.023   5.023   5.054   5.099   5.099   5.191
  5.261   5.261   5.262   5.331   5.422   5.499   5.499   5.648
  5.666   5.666   5.717   5.762   5.762   5.939   5.939   5.972
  6.124   6.175   6.175   6.212   6.434   6.434   6.466   6.523
  6.523   6.633   6.633   6.745   6.759   6.893   6.893   7.065
  7.065   7.281   8.363   8.363   8.570   8.693   8.806   8.806
  8.870   8.870   8.968   9.066   9.066   9.084   9.119   9.119
  9.196   9.212   9.212   9.312   9.312   9.324   9.324   9.328
  9.359   9.498   9.498   9.524   9.676   9.676   9.738   9.844
  9.844   9.994  10.103  10.103  10.190  10.302  10.321  10.321
 10.338  10.411  10.453  10.453  10.503  10.503  10.667  10.667
 10.940  10.958  10.958  10.993  11.150  11.180  11.180  11.418
 11.418  11.428  11.534  11.722  11.723  11.732  11.822  11.822
 12.099  12.222  12.236  12.236  12.749  12.754  12.754  12.805
 12.954  12.963  12.963  12.970  13.046  13.110  13.110  13.214
 13.214  13.297  13.320  13.356  13.356  13.401  13.401  13.592
 13.592  13.712  13.838  13.845  13.850  13.850  14.445  14.469
 14.469  14.840  14.986  14.986  16.036  16.036  16.436  16.970
 17.094  17.094  17.110  17.129  17.129  17.144  17.144  17.148
 17.222  17.222  17.277  17.277  17.281  17.291  17.387  17.781
 17.840  17.840  17.969  18.014  18.014  18.239  18.239  19.024
 19.024  19.043  19.325  19.480  19.480  19.580  19.736  19.736
 19.767  19.926  19.926  21.447  21.625  21.625  23.007  23.113
 23.113  23.596  23.700  23.700  23.783  23.783  23.946  23.946
 23.946  24.595  24.926  24.926  25.236  40.777  40.790  40.790
 41.026  80.616  90.989  91.062  91.062  91.135  91.135  91.230
 91.236  91.236  91.684  91.922  91.922  92.150
 --------------------------------------------------------------
 
          Ground-State Mulliken Net Atomic Charges

     Atom                 Charge (a.u.)    Spin (a.u.)
  --------------------------------------------------------
      1 Li                    0.821501      -0.000000
      2 B                     1.251395       0.000000
      3 H                    -0.512958       0.000000
      4 H                    -0.520340      -0.000000
      5 H                    -0.519799      -0.000000
      6 H                    -0.519799      -0.000000
  --------------------------------------------------------
  Sum of atomic charges =     0.000000
  Sum of spin   charges =    -0.000000

 -----------------------------------------------------------------
                    Cartesian Multipole Moments
 -----------------------------------------------------------------
    Charge (ESU x 10^10)
                -0.0000
    Dipole Moment (Debye)
         X      -0.0000      Y      -0.0001      Z      -6.0424
       Tot       6.0424
    Quadrupole Moments (Debye-Ang)
        XX     -14.0457     XY       0.0000     YY     -14.0459
        XZ       0.0000     YZ       0.0000     ZZ      -4.5589
    Octopole Moments (Debye-Ang^2)
       XXX      -0.0000    XXY       0.8678    XYY      -0.0000
       YYY      -0.8686    XXZ      -2.9915    XYZ      -0.0000
       YYZ      -2.9914    XZZ       0.0000    YZZ      -0.0002
       ZZZ     -26.8738
    Hexadecapole Moments (Debye-Ang^3)
      XXXX     -34.3869   XXXY       0.0000   XXYY     -11.4624
      XYYY       0.0000   YYYY     -34.3873   XXXZ       0.0000
      XXYZ      -0.0980   XYYZ       0.0000   YYYZ       0.0980
      XXZZ     -14.7761   XYZZ      -0.0000   YYZZ     -14.7762
      XZZZ       0.0000   YZZZ       0.0000   ZZZZ     -35.6528
 -----------------------------------------------------------------
Archival summary:
1\1\n0083.mhg0\SP\ProcedureUnspecified\BasisUnspecified\1i14\yhljason\SatAug802:38:482020SatAug802:38:482020\0\\#,ProcedureUnspecified,BasisUnspecified,\\0,1\B\H,1,1.191\H,1,1.23975,2,113.085\H,1,1.23975,2,113.085,3,-120.004,0\H,1,1.23977,2,113.085,3,119.998,0\Li,3,1.84477,1,74.8988,2,-180,0\\\@

 Total job time:  17321.39s(wall), 137456.81s(cpu) 
 Sat Aug  8 02:38:48 2020

        *************************************************************
        *                                                           *
        *  Thank you very much for using Q-Chem.  Have a nice day.  *
        *                                                           *
        *************************************************************


