Q-Chem Developer Version!
                  Welcome to Q-Chem
     A Quantum Leap Into The Future Of Chemistry


 Q-Chem 5.1, Q-Chem, Inc., Pleasanton, CA (2018)

 Yihan Shao,  Zhengting Gan,  E. Epifanovsky,  A. T. B. Gilbert,  M. Wormit,  
 J. Kussmann,  A. W. Lange,  A. Behn,  Jia Deng,  Xintian Feng,  D. Ghosh,  
 M. Goldey,  P. R. Horn,  L. D. Jacobson,  I. Kaliman,  T. Kus,  A. Landau,  
 Jie Liu,  E. I. Proynov,  R. M. Richard,  R. P. Steele,  E. J. Sundstrom,  
 H. L. Woodcock III,  P. M. Zimmerman,  D. Zuev,  B. Albrecht,  E. Alguire,  
 S. A. Baeppler,  D. Barton,  Z. Benda,  Y. A. Bernard,  E. J. Berquist,  
 K. B. Bravaya,  H. Burton,  D. Casanova,  Chun-Min Chang,  Yunqing Chen,  
 A. Chien,  K. D. Closser,  M. P. Coons,  S. Coriani,  S. Dasgupta,  
 A. L. Dempwolff,  M. Diedenhofen,  Hainam Do,  R. G. Edgar,  Po-Tung Fang,  
 S. Faraji,  S. Fatehi,  Qingguo Feng,  K. D. Fenk,  J. Fosso-Tande,  
 Qinghui Ge,  A. Ghysels,  G. Gidofalvi,  J. Gomes,  J. Gonthier,  A. Gunina,  
 D. Hait,  M. W. D. Hanson-Heine,  P. H. P. Harbach,  A. W. Hauser,  
 J. E. Herr,  E. G. Hohenstein,  Z. C. Holden,  Kerwin Hui,  B. C. Huynh,  
 T.-C. Jagau,  Hyunjun Ji,  B. Kaduk,  K. Khistyaev,  Jaehoon Kim,  
 P. Klunzinger,  K. Koh,  D. Kosenkov,  L. Koulias,  T. Kowalczyk,  
 C. M. Krauter,  A. Kunitsa,  Ka Un Lao,  A. Laurent,  K. V. Lawler,  
 Joonho Lee,  D. Lefrancois,  S. Lehtola,  D. S. Levine,  Yi-Pei Li,  
 You-Sheng Lin,  Fenglai Liu,  E. Livshits,  A. Luenser,  P. Manohar,  
 E. Mansoor,  S. F. Manzer,  Shan-Ping Mao,  Yuezhi Mao,  N. Mardirossian,  
 A. V. Marenich,  T. Markovich,  L. A. Martinez-Martinez,  S. A. Maurer,  
 N. J. Mayhall,  S. C. McKenzie,  J.-M. Mewes,  A. F. Morrison,  
 J. W. Mullinax,  K. Nanda,  T. S. Nguyen-Beck,  R. Olivares-Amaya,  
 J. A. Parkhill,  T. M. Perrine,  F. Plasser,  P. Pokhilko,  S. Prager,  
 A. Prociuk,  E. Ramos,  D. R. Rehn,  F. Rob,  M. Schneider,  N. Sergueev,  
 S. M. Sharada,  S. Sharma,  D. W. Small,  T. Stauch,  T. Stein,  
 Yu-Chuan Su,  A. J. W. Thom,  A. Tkatchenko,  T. Tsuchimochi,  N. M. Tubman,  
 L. Vogt,  M. L. Vidal,  O. Vydrov,  M. A. Watson,  J. Wenzel,  
 M. de Wergifosse,  T. A. Wesolowski,  A. White,  J. Witte,  A. Yamada,  
 Jun Yang,  K. Yao,  S. Yeganeh,  S. R. Yost,  Zhi-Qiang You,  A. Zech,  
 Igor Ying Zhang,  Xing Zhang,  Yan Zhao,  Ying Zhu,  B. R. Brooks,  
 G. K. L. Chan,  C. J. Cramer,  M. S. Gordon,  W. J. Hehre,  A. Klamt,  
 M. W. Schmidt,  C. D. Sherrill,  D. G. Truhlar,  A. Aspuru-Guzik,  R. Baer,  
 A. T. Bell,  N. A. Besley,  Jeng-Da Chai,  A. E. DePrince, III,  
 R. A. DiStasio Jr.,  A. Dreuw,  B. D. Dunietz,  T. R. Furlani,  
 Chao-Ping Hsu,  Yousung Jung,  Jing Kong,  D. S. Lambrecht,  WanZhen Liang,  
 C. Ochsenfeld,  V. A. Rassolov,  L. V. Slipchenko,  J. E. Subotnik,  
 T. Van Voorhis,  J. M. Herbert,  A. I. Krylov,  P. M. W. Gill,  M. Head-Gordon

 Contributors to earlier versions of Q-Chem not listed above: 
 R. D. Adamson,  B. Austin,  J. Baker,  G. J. O. Beran,  K. Brandhorst,  
 S. T. Brown,  E. F. C. Byrd,  A. K. Chakraborty,  C.-L. Cheng,  
 Siu Hung Chien,  D. M. Chipman,  D. L. Crittenden,  H. Dachsel,  
 R. J. Doerksen,  A. D. Dutoi,  L. Fusti-Molnar,  W. A. Goddard III,  
 A. Golubeva-Zadorozhnaya,  S. R. Gwaltney,  G. Hawkins,  A. Heyden,  
 S. Hirata,  G. Kedziora,  F. J. Keil,  C. Kelley,  Jihan Kim,  R. A. King,  
 R. Z. Khaliullin,  P. P. Korambath,  W. Kurlancheek,  A. M. Lee,  M. S. Lee,  
 S. V. Levchenko,  Ching Yeh Lin,  D. Liotard,  R. C. Lochan,  I. Lotan,  
 P. E. Maslen,  N. Nair,  D. P. O'Neill,  D. Neuhauser,  E. Neuscamman,  
 C. M. Oana,  R. Olson,  B. Peters,  R. Peverati,  P. A. Pieniazek,  
 Y. M. Rhee,  J. Ritchie,  M. A. Rohrdanz,  E. Rosta,  N. J. Russ,  
 H. F. Schaefer III,  N. E. Schultz,  N. Shenvi,  A. C. Simmonett,  A. Sodt,  
 D. Stuck,  K. S. Thanthiriwatte,  V. Vanovschi,  Tao Wang,  A. Warshel,  
 C. F. Williams,  Q. Wu,  X. Xu,  W. Zhang

 Please cite Q-Chem as follows:
 Y. Shao et al., Mol. Phys. 113, 184-215 (2015)
 DOI: 10.1080/00268976.2014.952696

 Q-Chem 5.1.1 for Intel X86 EM64T Linux

 Parts of Q-Chem use Armadillo 8.300.2 (Tropical Shenanigans).
 http://arma.sourceforge.net/

 Q-Chem begins on Fri Aug  7 17:27:17 2020  

Host: n0101.mhg0
0

     Scratch files written to /local/scratch/users/yhljason/LiH_wB97M-V_aug-pc-4.inp20200807172700//
Input Ideriv = 2
Curr. Ideriv = -1
Max.  Ideriv = 2
Input Ideriv = 1
Curr. Ideriv = 2
Max.  Ideriv = 1

Checking the input file for inconsistencies... 	...done.

--------------------------------------------------------------
User input:
--------------------------------------------------------------
$molecule
0 1
Li       0.0000  0.0000  0.0000
H       0.0000  0.0000  1.5949
$end

$rem
jobtype sp
method wB97M-V
xc_grid 000099000590
basis aug-pc-4
max_scf_cycles 200
thresh 14
scf_convergence 8
scf_algorithm gdm
symmetry false
sym_ignore true
unrestricted true
gen_scfman true
internal_stability_iter 15
internal_stability_davidson_iter 200
mem_total 64000
mem_static 1500
n_frozen_core 0
$end


--------------------------------------------------------------
 ----------------------------------------------------------------
             Standard Nuclear Orientation (Angstroms)
    I     Atom           X                Y                Z
 ----------------------------------------------------------------
    1      Li      0.0000000000     0.0000000000     0.0000000000
    2      H       0.0000000000     0.0000000000     1.5949000000
 ----------------------------------------------------------------
 Nuclear Repulsion Energy =     0.9953800441 hartrees
 There are        2 alpha and        2 beta electrons
 Requested basis set is aug-pc-4
 There are 47 shells and 171 basis functions

 Total QAlloc Memory Limit  64000 MB
 Mega-Array Size      1467 MB
 MEM_STATIC part      1500 MB

                       Distance Matrix (Angstroms)
             Li(  1)
   H (  2)  1.594900
 
 A cutoff of  1.0D-14 yielded   1128 shell pairs
 There are     15092 function pairs (     25377 Cartesian)
 
 -------------------------------------------------------
 OpenMP Integral Computing Module                       
 Release: version 1.0, May 2013, Q-Chem Inc. Pittsburgh 
 -------------------------------------------------------
 Integral Job Info:
 Integral job number is                      11
 Integral operator is                         1
 short-range coefficients              15000000
 long-range coefficients              100000000
 Omega coefficients                         300
 if combine SR and LR in K                    1
 Integral screening is                        0
 Integral computing path is                   2
 max size of driver memory is           3200000
 size of driver memory is               1704330
 size of scratch memory is             29582543
 max col of scratch BK array              50625
 max len of scratch array in speh3         2114
 max len of scratch index in speh4           50
 max int batch size is                      520
 min int batch size is                       52
 fixed nKL is                                39
 max L of basis functions is                  4
 order of int derivative is                   0
 number of shells is                         47
 number of basis is                         221
 number of cartesian basis is               221
 number of contracted shell pairs          1128
 number of primitive shell pairs           3008
 maxK2 (contraction) of shell pair          144
 max number of K2 of shell pair               1
 max number of CS2 of shell pair            154
 max number of PS2 of shell pair            432
 mem total for path MDJ                  660646
 -------------------------------------------------------
 Smallest overlap matrix eigenvalue = 1.23E-05

 Scale SEOQF with 1.000000e-01/1.000000e-01/1.000000e-01

 Standard Electronic Orientation quadrupole field applied
 Nucleus-field energy     =    -0.0000000003 hartrees
 Guess from superposition of atomic densities
 Warning:  Energy on first SCF cycle will be non-variational
 SAD guess density has 4.000000 electrons

 -----------------------------------------------------------------------
  General SCF calculation program by
  Eric Jon Sundstrom, Paul Horn, Yuezhi Mao, Dmitri Zuev, Alec White,
  David Stuck, Shaama M.S., Shane Yost, Joonho Lee, David Small,
  Daniel Levine, Susi Lehtola, Hugh Burton, Evgeny Epifanovsky
 -----------------------------------------------------------------------
 Exchange:     0.1500 Hartree-Fock + 1.0000 wB97M-V + LR-HF
 Correlation:  1.0000 wB97M-V
 Using Euler-Maclaurin-Lebedev (99,590) quadrature formula
 Nonlocal Correlation:  VV10 with C = 0.0100 and b = 6.00 and scale = 1.00000
 Grid used for NLC:  SG-1 standard quadrature
Running Object-Oriented UKS (UHF)
performing a single roothaan step with Fock from read density so that orbitals are available to all algorithms
 Nonlocal correlation = 0.017472943415
energy of the guess density (C=0) -7.879259180463
 Nonlocal correlation = 0.017844370807
We will preform up to 15 macro iterations over saddle points until a stable solution is found
Energy prior to optimization (guess energy) = -8.051989898265
Begin Timing: Total SCF Calculation
Begin Timing: SCF Single Stationary Point Calculation
begin iterations for algorithm: GDM          
the SCF tolerance is set to 1.00e-08
 Nonlocal correlation = 1.769915926133e-02
    1      -8.0519898983      6.14e-02     00000  Normal BFGS step
 Nonlocal correlation = 1.771637055177e-02
    2      -8.0629538762      1.12e-02     00000  Normal BFGS step
 Nonlocal correlation = 1.771785942293e-02
    3      -8.0634167992      3.64e-03     00000  Normal BFGS step
 Nonlocal correlation = 1.771813456791e-02
    4      -8.0634539027      1.10e-03     00000  Normal BFGS step
 Nonlocal correlation = 1.771820557736e-02
    5      -8.0634592058      1.98e-04     00000  Normal BFGS step
 Nonlocal correlation = 1.771822945162e-02
    6      -8.0634594024      4.32e-05     00000  Normal BFGS step
 Nonlocal correlation = 1.771823253140e-02
    7      -8.0634594121      7.17e-06     00000  Normal BFGS step
 Nonlocal correlation = 1.771823238038e-02
    8      -8.0634594124      1.32e-06     00000  Normal BFGS step
 Nonlocal correlation = 1.771823218201e-02
    9      -8.0634594124      2.22e-07     00000  Normal BFGS step
 Nonlocal correlation = 1.771823212886e-02
   10      -8.0634594124      4.45e-08     00000  Normal BFGS step
 Nonlocal correlation = 1.771823212840e-02
   11      -8.0634594124      6.06e-09     00000 Convergence criterion met
Timing for Single Stationary Point: 79.00s (wall), 631.20s (cpu)
Begin Timing: Stability
===================================================
Beginning Test for Internal Stability
===================================================
generating davidson guess vectors based on koopmans excitations
computing hessian-vector products by finite difference
 Nonlocal correlation = 0.017718252229
 Nonlocal correlation = 0.017718212013
 Nonlocal correlation = 0.017718211953
 Nonlocal correlation = 0.017718252289
 Nonlocal correlation = 0.017718232128
    1      3.28e-01     00000 Davidson Iteration
computing hessian-vector products by finite difference
 Nonlocal correlation = 1.771823241448e-02
 Nonlocal correlation = 1.771823181696e-02
 Nonlocal correlation = 1.771817363755e-02
 Nonlocal correlation = 1.771829060150e-02
 Nonlocal correlation = 1.771823212840e-02
    2      8.67e-02     00000 Davidson Iteration
computing hessian-vector products by finite difference
 Nonlocal correlation = 1.771830882201e-02
 Nonlocal correlation = 1.771815542418e-02
 Nonlocal correlation = 1.771823247800e-02
 Nonlocal correlation = 1.771823175565e-02
 Nonlocal correlation = 1.771823212840e-02
    3      6.39e-02     00000 Davidson Iteration
computing hessian-vector products by finite difference
 Nonlocal correlation = 1.771822195566e-02
 Nonlocal correlation = 1.771824227070e-02
 Nonlocal correlation = 1.771823280574e-02
 Nonlocal correlation = 1.771823144253e-02
 Nonlocal correlation = 1.771823212840e-02
    4      1.56e-02     00000 Davidson Iteration
computing hessian-vector products by finite difference
 Nonlocal correlation = 1.771822995726e-02
 Nonlocal correlation = 1.771823426892e-02
 Nonlocal correlation = 1.771824116383e-02
 Nonlocal correlation = 1.771822307435e-02
 Nonlocal correlation = 1.771823212840e-02
    5      3.04e-03     00000 Davidson Iteration
computing hessian-vector products by finite difference
 Nonlocal correlation = 1.771823851160e-02
 Nonlocal correlation = 1.771822571897e-02
 Nonlocal correlation = 1.771822604023e-02
 Nonlocal correlation = 1.771823820994e-02
 Nonlocal correlation = 1.771823212840e-02
    6      5.78e-04     00000 Davidson Iteration
computing hessian-vector products by finite difference
 Nonlocal correlation = 1.771823212005e-02
 Nonlocal correlation = 1.771823210752e-02
 Nonlocal correlation = 1.771822716116e-02
 Nonlocal correlation = 1.771823710166e-02
 Nonlocal correlation = 1.771823212840e-02
    7      1.31e-04     00000 Davidson Converged
converged_eigenvalues
   0.2270
   0.2879
Threshold for negative eigenvalues: -1.0e-05
solution was a local minimum (stable)
===================================================
End Test for Internal Stability
===================================================
Our SCF solution is stable!
Timing for Total SCF: 333.00s (wall), 2640.79s (cpu)
 Total energy in the final basis set =       -8.0634594124
<S^2> =          0.000000000
    ==================================================
              The end of Object-Oriented SCFman       
    ==================================================
 
 --------------------------------------------------------------
 
                    Orbital Energies (a.u.)
 --------------------------------------------------------------
 
 Alpha MOs
 -- Occupied --
 -2.124  -0.282
 -- Virtual --
 -0.023   0.008   0.008   0.008   0.015   0.040   0.040   0.045
  0.053   0.056   0.058   0.058   0.059   0.059   0.094   0.107
  0.107   0.109   0.109   0.110   0.110   0.133   0.137   0.137
  0.142   0.162   0.165   0.166   0.166   0.169   0.169   0.172
  0.172   0.173   0.173   0.179   0.179   0.241   0.256   0.256
  0.302   0.316   0.316   0.326   0.352   0.387   0.387   0.395
  0.395   0.417   0.417   0.426   0.426   0.449   0.468   0.468
  0.474   0.474   0.490   0.545   0.545   0.573   0.573   0.588
  0.611   0.611   0.618   0.618   0.624   0.669   0.681   0.681
  0.796   0.824   0.824   0.873   0.882   0.882   1.017   1.017
  1.040   1.094   1.094   1.120   1.120   1.217   1.256   1.256
  1.338   1.338   1.476   1.514   1.514   1.555   1.610   1.610
  1.742   1.971   2.290   2.376   2.376   2.420   2.420   2.476
  2.476   2.695   2.695   2.699   2.699   2.701   2.785   2.785
  3.042   3.042   3.098   3.126   3.126   3.385   3.461   3.461
  3.652   3.652   3.717   3.717   3.800   4.015   4.192   4.192
  4.528   4.865   4.865   5.414   5.414   5.600   5.600   6.051
  8.224   8.224   8.579   8.714   8.714   8.957   8.957   9.124
 10.195  10.990  12.089  12.089  12.265  12.265  12.539  12.607
 12.607  16.400  16.400  16.413  16.413  16.433  16.433  16.456
 16.517  16.517  22.785  22.785  23.168  38.229  89.828  89.828
 90.118
 
 Beta MOs
 -- Occupied --
 -2.124  -0.282
 -- Virtual --
 -0.023   0.008   0.008   0.008   0.015   0.040   0.040   0.045
  0.053   0.056   0.058   0.058   0.059   0.059   0.094   0.107
  0.107   0.109   0.109   0.110   0.110   0.133   0.137   0.137
  0.142   0.162   0.165   0.166   0.166   0.169   0.169   0.172
  0.172   0.173   0.173   0.179   0.179   0.241   0.256   0.256
  0.302   0.316   0.316   0.326   0.352   0.387   0.387   0.395
  0.395   0.417   0.417   0.426   0.426   0.449   0.468   0.468
  0.474   0.474   0.490   0.545   0.545   0.573   0.573   0.588
  0.611   0.611   0.618   0.618   0.624   0.669   0.681   0.681
  0.796   0.824   0.824   0.873   0.882   0.882   1.017   1.017
  1.040   1.094   1.094   1.120   1.120   1.217   1.256   1.256
  1.338   1.338   1.476   1.514   1.514   1.555   1.610   1.610
  1.742   1.971   2.290   2.376   2.376   2.420   2.420   2.476
  2.476   2.695   2.695   2.699   2.699   2.701   2.785   2.785
  3.042   3.042   3.098   3.126   3.126   3.385   3.461   3.461
  3.652   3.652   3.717   3.717   3.800   4.015   4.192   4.192
  4.528   4.865   4.865   5.414   5.414   5.600   5.600   6.051
  8.224   8.224   8.579   8.714   8.714   8.957   8.957   9.124
 10.195  10.990  12.089  12.089  12.265  12.265  12.539  12.607
 12.607  16.400  16.400  16.413  16.413  16.433  16.433  16.456
 16.517  16.517  22.785  22.785  23.168  38.229  89.828  89.828
 90.118
 --------------------------------------------------------------
 
          Ground-State Mulliken Net Atomic Charges

     Atom                 Charge (a.u.)    Spin (a.u.)
  --------------------------------------------------------
      1 Li                    0.196032      -0.000000
      2 H                    -0.196032       0.000000
  --------------------------------------------------------
  Sum of atomic charges =     0.000000
  Sum of spin   charges =     0.000000

 -----------------------------------------------------------------
                    Cartesian Multipole Moments
 -----------------------------------------------------------------
    Charge (ESU x 10^10)
                -0.0000
    Dipole Moment (Debye)
         X       0.0000      Y      -0.0000      Z      -5.7572
       Tot       5.7572
    Quadrupole Moments (Debye-Ang)
        XX      -5.5526     XY       0.0000     YY      -5.5526
        XZ      -0.0000     YZ       0.0000     ZZ     -11.9670
    Octopole Moments (Debye-Ang^2)
       XXX       0.0000    XXY       0.0000    XYY       0.0000
       YYY      -0.0000    XXZ      -6.4378    XYZ       0.0000
       YYZ      -6.4378    XZZ      -0.0000    YZZ      -0.0000
       ZZZ     -26.5942
    Hexadecapole Moments (Debye-Ang^3)
      XXXX     -13.5899   XXXY       0.0000   XXYY      -4.5300
      XYYY       0.0000   YYYY     -13.5899   XXXZ      -0.0000
      XXYZ       0.0000   XYYZ      -0.0000   YYYZ      -0.0000
      XXZZ     -12.6490   XYZZ       0.0000   YYZZ     -12.6490
      XZZZ      -0.0000   YZZZ      -0.0000   ZZZZ     -70.8933
 -----------------------------------------------------------------
Archival summary:
1\1\n0101.mhg0\SP\ProcedureUnspecified\BasisUnspecified\i11\yhljason\FriAug717:33:022020FriAug717:33:022020\0\\#,ProcedureUnspecified,BasisUnspecified,\\0,1\Li\H,1,1.5949\\\@

 Total job time:  345.01s(wall), 2730.32s(cpu) 
 Fri Aug  7 17:33:02 2020

        *************************************************************
        *                                                           *
        *  Thank you very much for using Q-Chem.  Have a nice day.  *
        *                                                           *
        *************************************************************


