Q-Chem Developer Version!
                  Welcome to Q-Chem
     A Quantum Leap Into The Future Of Chemistry


 Q-Chem 5.1, Q-Chem, Inc., Pleasanton, CA (2018)

 Yihan Shao,  Zhengting Gan,  E. Epifanovsky,  A. T. B. Gilbert,  M. Wormit,  
 J. Kussmann,  A. W. Lange,  A. Behn,  Jia Deng,  Xintian Feng,  D. Ghosh,  
 M. Goldey,  P. R. Horn,  L. D. Jacobson,  I. Kaliman,  T. Kus,  A. Landau,  
 Jie Liu,  E. I. Proynov,  R. M. Richard,  R. P. Steele,  E. J. Sundstrom,  
 H. L. Woodcock III,  P. M. Zimmerman,  D. Zuev,  B. Albrecht,  E. Alguire,  
 S. A. Baeppler,  D. Barton,  Z. Benda,  Y. A. Bernard,  E. J. Berquist,  
 K. B. Bravaya,  H. Burton,  D. Casanova,  Chun-Min Chang,  Yunqing Chen,  
 A. Chien,  K. D. Closser,  M. P. Coons,  S. Coriani,  S. Dasgupta,  
 A. L. Dempwolff,  M. Diedenhofen,  Hainam Do,  R. G. Edgar,  Po-Tung Fang,  
 S. Faraji,  S. Fatehi,  Qingguo Feng,  K. D. Fenk,  J. Fosso-Tande,  
 Qinghui Ge,  A. Ghysels,  G. Gidofalvi,  J. Gomes,  J. Gonthier,  A. Gunina,  
 D. Hait,  M. W. D. Hanson-Heine,  P. H. P. Harbach,  A. W. Hauser,  
 J. E. Herr,  E. G. Hohenstein,  Z. C. Holden,  Kerwin Hui,  B. C. Huynh,  
 T.-C. Jagau,  Hyunjun Ji,  B. Kaduk,  K. Khistyaev,  Jaehoon Kim,  
 P. Klunzinger,  K. Koh,  D. Kosenkov,  L. Koulias,  T. Kowalczyk,  
 C. M. Krauter,  A. Kunitsa,  Ka Un Lao,  A. Laurent,  K. V. Lawler,  
 Joonho Lee,  D. Lefrancois,  S. Lehtola,  D. S. Levine,  Yi-Pei Li,  
 You-Sheng Lin,  Fenglai Liu,  E. Livshits,  A. Luenser,  P. Manohar,  
 E. Mansoor,  S. F. Manzer,  Shan-Ping Mao,  Yuezhi Mao,  N. Mardirossian,  
 A. V. Marenich,  T. Markovich,  L. A. Martinez-Martinez,  S. A. Maurer,  
 N. J. Mayhall,  S. C. McKenzie,  J.-M. Mewes,  A. F. Morrison,  
 J. W. Mullinax,  K. Nanda,  T. S. Nguyen-Beck,  R. Olivares-Amaya,  
 J. A. Parkhill,  T. M. Perrine,  F. Plasser,  P. Pokhilko,  S. Prager,  
 A. Prociuk,  E. Ramos,  D. R. Rehn,  F. Rob,  M. Schneider,  N. Sergueev,  
 S. M. Sharada,  S. Sharma,  D. W. Small,  T. Stauch,  T. Stein,  
 Yu-Chuan Su,  A. J. W. Thom,  A. Tkatchenko,  T. Tsuchimochi,  N. M. Tubman,  
 L. Vogt,  M. L. Vidal,  O. Vydrov,  M. A. Watson,  J. Wenzel,  
 M. de Wergifosse,  T. A. Wesolowski,  A. White,  J. Witte,  A. Yamada,  
 Jun Yang,  K. Yao,  S. Yeganeh,  S. R. Yost,  Zhi-Qiang You,  A. Zech,  
 Igor Ying Zhang,  Xing Zhang,  Yan Zhao,  Ying Zhu,  B. R. Brooks,  
 G. K. L. Chan,  C. J. Cramer,  M. S. Gordon,  W. J. Hehre,  A. Klamt,  
 M. W. Schmidt,  C. D. Sherrill,  D. G. Truhlar,  A. Aspuru-Guzik,  R. Baer,  
 A. T. Bell,  N. A. Besley,  Jeng-Da Chai,  A. E. DePrince, III,  
 R. A. DiStasio Jr.,  A. Dreuw,  B. D. Dunietz,  T. R. Furlani,  
 Chao-Ping Hsu,  Yousung Jung,  Jing Kong,  D. S. Lambrecht,  WanZhen Liang,  
 C. Ochsenfeld,  V. A. Rassolov,  L. V. Slipchenko,  J. E. Subotnik,  
 T. Van Voorhis,  J. M. Herbert,  A. I. Krylov,  P. M. W. Gill,  M. Head-Gordon

 Contributors to earlier versions of Q-Chem not listed above: 
 R. D. Adamson,  B. Austin,  J. Baker,  G. J. O. Beran,  K. Brandhorst,  
 S. T. Brown,  E. F. C. Byrd,  A. K. Chakraborty,  C.-L. Cheng,  
 Siu Hung Chien,  D. M. Chipman,  D. L. Crittenden,  H. Dachsel,  
 R. J. Doerksen,  A. D. Dutoi,  L. Fusti-Molnar,  W. A. Goddard III,  
 A. Golubeva-Zadorozhnaya,  S. R. Gwaltney,  G. Hawkins,  A. Heyden,  
 S. Hirata,  G. Kedziora,  F. J. Keil,  C. Kelley,  Jihan Kim,  R. A. King,  
 R. Z. Khaliullin,  P. P. Korambath,  W. Kurlancheek,  A. M. Lee,  M. S. Lee,  
 S. V. Levchenko,  Ching Yeh Lin,  D. Liotard,  R. C. Lochan,  I. Lotan,  
 P. E. Maslen,  N. Nair,  D. P. O'Neill,  D. Neuhauser,  E. Neuscamman,  
 C. M. Oana,  R. Olson,  B. Peters,  R. Peverati,  P. A. Pieniazek,  
 Y. M. Rhee,  J. Ritchie,  M. A. Rohrdanz,  E. Rosta,  N. J. Russ,  
 H. F. Schaefer III,  N. E. Schultz,  N. Shenvi,  A. C. Simmonett,  A. Sodt,  
 D. Stuck,  K. S. Thanthiriwatte,  V. Vanovschi,  Tao Wang,  A. Warshel,  
 C. F. Williams,  Q. Wu,  X. Xu,  W. Zhang

 Please cite Q-Chem as follows:
 Y. Shao et al., Mol. Phys. 113, 184-215 (2015)
 DOI: 10.1080/00268976.2014.952696

 Q-Chem 5.1.1 for Intel X86 EM64T Linux

 Parts of Q-Chem use Armadillo 8.300.2 (Tropical Shenanigans).
 http://arma.sourceforge.net/

 Q-Chem begins on Fri Aug  7 17:44:27 2020  

Host: n0071.mhg0
0

     Scratch files written to /local/scratch/users/yhljason/PH_MN15_aug-pc-4.inp20200807172704//
Input Ideriv = 2
Curr. Ideriv = -1
Max.  Ideriv = 2
Input Ideriv = 1
Curr. Ideriv = 2
Max.  Ideriv = 1

Checking the input file for inconsistencies... 	...done.

--------------------------------------------------------------
User input:
--------------------------------------------------------------
$molecule
0 3
H1	0.0000	0.0000	0.0000
P2	0.0000	0.0000	1.4223
$end

$rem
jobtype sp
method MN15
xc_grid 000099000590
basis aug-pc-4
max_scf_cycles 200
thresh 14
scf_convergence 8
scf_algorithm gdm
symmetry false
sym_ignore true
unrestricted true
gen_scfman true
internal_stability_iter 15
internal_stability_davidson_iter 200
mem_total 64000
mem_static 1500
n_frozen_core 0
$end


--------------------------------------------------------------
 ----------------------------------------------------------------
             Standard Nuclear Orientation (Angstroms)
    I     Atom           X                Y                Z
 ----------------------------------------------------------------
    1      H       0.0000000000     0.0000000000     0.0000000000
    2      P       0.0000000000     0.0000000000     1.4223000000
 ----------------------------------------------------------------
 Nuclear Repulsion Energy =     5.5808606918 hartrees
 There are        9 alpha and        7 beta electrons
 Requested basis set is aug-pc-4
 There are 55 shells and 229 basis functions

 Total QAlloc Memory Limit  64000 MB
 Mega-Array Size      1467 MB
 MEM_STATIC part      1500 MB

                       Distance Matrix (Angstroms)
             H (  1)
   P (  2)  1.422300
 
 A cutoff of  1.0D-14 yielded   1537 shell pairs
 There are     26901 function pairs (     49956 Cartesian)
 
 -------------------------------------------------------
 OpenMP Integral Computing Module                       
 Release: version 1.0, May 2013, Q-Chem Inc. Pittsburgh 
 -------------------------------------------------------
 Integral Job Info:
 Integral job number is                      11
 Integral operator is                         1
 short-range coefficients                     0
 long-range coefficients              100000000
 Omega coefficients                           0
 if combine SR and LR in K                    0
 Integral screening is                        0
 Integral computing path is                   2
 max size of driver memory is           6400000
 size of driver memory is               5498286
 size of scratch memory is             27847117
 max col of scratch BK array             194481
 max len of scratch array in speh3         5572
 max len of scratch index in speh4           72
 max int batch size is                      520
 min int batch size is                       52
 fixed nKL is                                 7
 max L of basis functions is                  5
 order of int derivative is                   0
 number of shells is                         55
 number of basis is                         311
 number of cartesian basis is               311
 number of contracted shell pairs          1537
 number of primitive shell pairs           6667
 maxK2 (contraction) of shell pair          225
 max number of K2 of shell pair               1
 max number of CS2 of shell pair            144
 max number of PS2 of shell pair            528
 mem total for path MDJ                  836120
 -------------------------------------------------------
 Smallest overlap matrix eigenvalue = 7.44E-06

 Scale SEOQF with 1.000000e-01/1.000000e-01/1.000000e-01

 Standard Electronic Orientation quadrupole field applied
 Nucleus-field energy     =    -0.0000000033 hartrees
 Guess from superposition of atomic densities
 Warning:  Energy on first SCF cycle will be non-variational
 SAD guess density has 16.000000 electrons

 -----------------------------------------------------------------------
  General SCF calculation program by
  Eric Jon Sundstrom, Paul Horn, Yuezhi Mao, Dmitri Zuev, Alec White,
  David Stuck, Shaama M.S., Shane Yost, Joonho Lee, David Small,
  Daniel Levine, Susi Lehtola, Hugh Burton, Evgeny Epifanovsky
 -----------------------------------------------------------------------
 Exchange:     0.4400 Hartree-Fock + 1.0000 MN15
 Correlation:  1.0000 MN15
 Using Euler-Maclaurin-Lebedev (99,590) quadrature formula
Running Object-Oriented UKS (UHF)
performing a single roothaan step with Fock from read density so that orbitals are available to all algorithms
 LTot/LBra/LKet=          12           2          10
 LTot/LBra/LKet=          12           2          10

 Q-Chem warning:

 in GenH1, ket side, handled with new code


 Q-Chem warning:

 in GenH1, ket side, handled with new code

energy of the guess density (C=0) -341.640554723576
 LTot/LBra/LBra=          20          10          10

 Q-Chem warning:

 in GenH1, bra side, handled with new code

We will preform up to 15 macro iterations over saddle points until a stable solution is found
Energy prior to optimization (guess energy) = -341.789316698876
Begin Timing: Total SCF Calculation
Begin Timing: SCF Single Stationary Point Calculation
begin iterations for algorithm: GDM          
the SCF tolerance is set to 1.00e-08
    1    -341.7893166989      2.33e-02     00000  Normal BFGS step
    2    -341.7944518485      1.84e-02     00000  Normal BFGS step
    3    -341.7953571315      3.81e-03     00000  Normal BFGS step
    4    -341.7954126521      1.10e-03     00000  Normal BFGS step
    5    -341.7954192131      3.29e-04     00000  Normal BFGS step
    6    -341.7954199624      1.16e-04     00000  Normal BFGS step
    7    -341.7954199990      3.74e-05     00000  Normal BFGS step
    8    -341.7954200037      1.01e-05     00000  Normal BFGS step
    9    -341.7954200042      2.26e-06     00000  Normal BFGS step
   10    -341.7954200042      5.88e-07     00000  Normal BFGS step
   11    -341.7954200042      2.63e-07     00000  Normal BFGS step
   12    -341.7954200042      2.33e-08     00000  Normal BFGS step
   13    -341.7954200042      6.51e-09     00000 Convergence criterion met
Timing for Single Stationary Point: 619.00s (wall), 4912.91s (cpu)
Begin Timing: Stability
===================================================
Beginning Test for Internal Stability
===================================================
generating davidson guess vectors based on koopmans excitations
    1      8.36e-01     00000 Davidson Iteration
    2      2.41e-01     00000 Davidson Iteration
    3      1.41e-01     00000 Davidson Iteration
    4      3.77e-02     00000 Davidson Iteration
    5      1.98e-02     00000 Davidson Iteration
    6      4.12e-03     00000 Davidson Iteration
    7      2.67e-03     00000 Davidson Iteration
    8      8.15e-04     00000 Davidson Iteration
    9      1.98e-04     00000 Davidson Iteration
   10      5.68e-05     00000 Davidson Iteration
   11      2.46e-05     00000 Davidson Converged
converged_eigenvalues
   0.2518
   0.2518
Threshold for negative eigenvalues: -1.0e-05
solution was a local minimum (stable)
===================================================
End Test for Internal Stability
===================================================
Our SCF solution is stable!
Timing for Total SCF: 1327.00s (wall), 10524.58s (cpu)
 Total energy in the final basis set =     -341.7954200042
<S^2> =          2.008907762
    ==================================================
              The end of Object-Oriented SCFman       
    ==================================================
 
 --------------------------------------------------------------
 
                    Orbital Energies (a.u.)
 --------------------------------------------------------------
 
 Alpha MOs
 -- Occupied --
-76.165  -6.409  -4.770  -4.770  -4.763  -0.652  -0.386  -0.286
 -0.286
 -- Virtual --
  0.017   0.039   0.039   0.039   0.058   0.063   0.104   0.104
  0.106   0.106   0.124   0.124   0.128   0.141   0.174   0.177
  0.177   0.201   0.219   0.219   0.229   0.229   0.230   0.230
  0.255   0.255   0.269   0.296   0.296   0.324   0.324   0.327
  0.343   0.343   0.369   0.409   0.409   0.409   0.416   0.416
  0.417   0.417   0.476   0.476   0.478   0.480   0.480   0.493
  0.510   0.510   0.516   0.516   0.518   0.518   0.548   0.587
  0.587   0.606   0.615   0.615   0.618   0.618   0.666   0.666
  0.684   0.684   0.684   0.684   0.703   0.726   0.726   0.732
  0.732   0.737   0.737   0.751   0.751   0.815   0.890   0.914
  0.914   0.920   0.920   0.956   1.001   1.066   1.066   1.136
  1.136   1.189   1.189   1.215   1.236   1.236   1.321   1.321
  1.367   1.435   1.435   1.530   1.640   1.697   1.697   2.041
  2.041   2.047   2.047   2.081   2.081   2.104   2.109   2.109
  2.320   2.320   2.368   2.550   2.589   2.589   2.641   2.641
  2.676   2.676   2.829   2.829   2.861   2.937   3.033   3.033
  3.108   3.108   3.358   3.410   3.410   3.558   3.558   3.610
  3.610   3.661   3.954   4.065   4.065   4.285   4.285   4.361
  4.361   4.609   4.609   4.778   4.852   4.852   5.069   5.221
  5.221   5.277   5.278   5.355   5.355   5.585   5.982   5.982
  6.534   6.801   6.801   6.913   6.913   7.084   7.084   7.328
  7.328   7.704   8.178   8.178   8.535   8.535   8.604   8.856
  8.856   9.278  10.138  10.138  10.163  10.163  10.718  10.718
 10.849  11.217  11.939  11.939  12.064  12.064  12.451  12.451
 12.902  15.906  15.906  15.964  15.964  16.075  16.075  16.225
 16.225  16.294  16.294  16.406  17.107  17.107  17.418  21.547
 22.466  22.466  23.025  37.341  57.018  57.018  57.092  57.092
 57.591  86.147  86.896  86.896
 
 Beta MOs
 -- Occupied --
-76.158  -6.403  -4.760  -4.760  -4.760  -0.587  -0.356
 -- Virtual --
 -0.082  -0.082   0.022   0.038   0.039   0.039   0.069   0.082
  0.120   0.120   0.126   0.126   0.133   0.142   0.142   0.155
  0.183   0.183   0.186   0.215   0.237   0.237   0.239   0.239
  0.263   0.263   0.265   0.270   0.270   0.303   0.303   0.333
  0.358   0.358   0.365   0.365   0.378   0.415   0.427   0.427
  0.432   0.432   0.435   0.435   0.480   0.496   0.496   0.501
  0.501   0.503   0.519   0.519   0.533   0.533   0.549   0.549
  0.553   0.615   0.615   0.620   0.620   0.621   0.625   0.625
  0.675   0.675   0.682   0.682   0.698   0.698   0.705   0.730
  0.730   0.732   0.732   0.734   0.734   0.771   0.771   0.814
  0.890   0.961   0.961   0.971   0.971   0.990   1.019   1.128
  1.128   1.249   1.258   1.258   1.284   1.284   1.287   1.287
  1.362   1.362   1.366   1.433   1.433   1.541   1.650   1.740
  1.740   2.158   2.158   2.183   2.277   2.277   2.341   2.341
  2.396   2.437   2.437   2.438   2.438   2.615   2.615   2.701
  2.768   2.768   2.898   2.948   2.951   2.951   2.985   2.985
  3.078   3.078   3.269   3.269   3.320   3.385   3.385   3.572
  3.572   3.636   3.636   3.642   3.907   4.104   4.104   4.797
  4.824   4.824   4.834   4.834   4.910   4.910   4.970   4.970
  5.109   5.373   5.373   5.492   5.492   5.546   5.546   5.547
  6.038   6.038   6.620   7.219   7.219   7.251   7.251   7.293
  7.294   7.364   7.364   7.547   8.057   8.057   8.167   8.481
  8.481   8.677   8.677   9.161  10.195  10.196  10.216  10.216
 10.580  10.695  10.695  11.031  11.870  11.870  11.877  11.877
 11.912  11.912  12.300  15.785  15.785  15.915  15.915  15.944
 15.944  16.049  16.074  16.074  16.135  16.135  16.712  16.712
 17.209  21.416  22.370  22.370  22.740  37.084  57.026  57.026
 57.079  57.079  57.573  85.594  86.607  86.607
 --------------------------------------------------------------
 
          Ground-State Mulliken Net Atomic Charges

     Atom                 Charge (a.u.)    Spin (a.u.)
  --------------------------------------------------------
      1 H                     0.244833      -0.122712
      2 P                    -0.244833       2.122712
  --------------------------------------------------------
  Sum of atomic charges =     0.000000
  Sum of spin   charges =     2.000000

 -----------------------------------------------------------------
                    Cartesian Multipole Moments
 -----------------------------------------------------------------
    Charge (ESU x 10^10)
                 0.0000
    Dipole Moment (Debye)
         X       0.0000      Y      -0.0000      Z      -0.4172
       Tot       0.4172
    Quadrupole Moments (Debye-Ang)
        XX     -14.3864     XY      -0.0000     YY     -14.3864
        XZ       0.0000     YZ      -0.0000     ZZ     -15.2190
    Octopole Moments (Debye-Ang^2)
       XXX       0.0000    XXY      -0.0000    XYY       0.0000
       YYY      -0.0000    XXZ     -19.3583    XYZ      -0.0000
       YYZ     -19.3583    XZZ       0.0000    YZZ      -0.0000
       ZZZ     -59.1169
    Hexadecapole Moments (Debye-Ang^3)
      XXXX     -23.4332   XXXY      -0.0000   XXYY      -7.8111
      XYYY      -0.0000   YYYY     -23.4332   XXXZ       0.0000
      XXYZ      -0.0000   XYYZ       0.0000   YYYZ      -0.0000
      XXZZ     -35.5120   XYZZ      -0.0000   YYZZ     -35.5120
      XZZZ       0.0000   YZZZ      -0.0000   ZZZZ    -188.1328
 -----------------------------------------------------------------
Archival summary:
1\1\n0071.mhg0\SP\ProcedureUnspecified\BasisUnspecified\11(3)\yhljason\FriAug718:07:362020FriAug718:07:362020\0\\#,ProcedureUnspecified,BasisUnspecified,\\0,3\H\P,1,1.4223\\\@

 Total job time:  1388.49s(wall), 10991.87s(cpu) 
 Fri Aug  7 18:07:36 2020

        *************************************************************
        *                                                           *
        *  Thank you very much for using Q-Chem.  Have a nice day.  *
        *                                                           *
        *************************************************************


