Q-Chem Developer Version!
                  Welcome to Q-Chem
     A Quantum Leap Into The Future Of Chemistry


 Q-Chem 5.1, Q-Chem, Inc., Pleasanton, CA (2018)

 Yihan Shao,  Zhengting Gan,  E. Epifanovsky,  A. T. B. Gilbert,  M. Wormit,  
 J. Kussmann,  A. W. Lange,  A. Behn,  Jia Deng,  Xintian Feng,  D. Ghosh,  
 M. Goldey,  P. R. Horn,  L. D. Jacobson,  I. Kaliman,  T. Kus,  A. Landau,  
 Jie Liu,  E. I. Proynov,  R. M. Richard,  R. P. Steele,  E. J. Sundstrom,  
 H. L. Woodcock III,  P. M. Zimmerman,  D. Zuev,  B. Albrecht,  E. Alguire,  
 S. A. Baeppler,  D. Barton,  Z. Benda,  Y. A. Bernard,  E. J. Berquist,  
 K. B. Bravaya,  H. Burton,  D. Casanova,  Chun-Min Chang,  Yunqing Chen,  
 A. Chien,  K. D. Closser,  M. P. Coons,  S. Coriani,  S. Dasgupta,  
 A. L. Dempwolff,  M. Diedenhofen,  Hainam Do,  R. G. Edgar,  Po-Tung Fang,  
 S. Faraji,  S. Fatehi,  Qingguo Feng,  K. D. Fenk,  J. Fosso-Tande,  
 Qinghui Ge,  A. Ghysels,  G. Gidofalvi,  J. Gomes,  J. Gonthier,  A. Gunina,  
 D. Hait,  M. W. D. Hanson-Heine,  P. H. P. Harbach,  A. W. Hauser,  
 J. E. Herr,  E. G. Hohenstein,  Z. C. Holden,  Kerwin Hui,  B. C. Huynh,  
 T.-C. Jagau,  Hyunjun Ji,  B. Kaduk,  K. Khistyaev,  Jaehoon Kim,  
 P. Klunzinger,  K. Koh,  D. Kosenkov,  L. Koulias,  T. Kowalczyk,  
 C. M. Krauter,  A. Kunitsa,  Ka Un Lao,  A. Laurent,  K. V. Lawler,  
 Joonho Lee,  D. Lefrancois,  S. Lehtola,  D. S. Levine,  Yi-Pei Li,  
 You-Sheng Lin,  Fenglai Liu,  E. Livshits,  A. Luenser,  P. Manohar,  
 E. Mansoor,  S. F. Manzer,  Shan-Ping Mao,  Yuezhi Mao,  N. Mardirossian,  
 A. V. Marenich,  T. Markovich,  L. A. Martinez-Martinez,  S. A. Maurer,  
 N. J. Mayhall,  S. C. McKenzie,  J.-M. Mewes,  A. F. Morrison,  
 J. W. Mullinax,  K. Nanda,  T. S. Nguyen-Beck,  R. Olivares-Amaya,  
 J. A. Parkhill,  T. M. Perrine,  F. Plasser,  P. Pokhilko,  S. Prager,  
 A. Prociuk,  E. Ramos,  D. R. Rehn,  F. Rob,  M. Schneider,  N. Sergueev,  
 S. M. Sharada,  S. Sharma,  D. W. Small,  T. Stauch,  T. Stein,  
 Yu-Chuan Su,  A. J. W. Thom,  A. Tkatchenko,  T. Tsuchimochi,  N. M. Tubman,  
 L. Vogt,  M. L. Vidal,  O. Vydrov,  M. A. Watson,  J. Wenzel,  
 M. de Wergifosse,  T. A. Wesolowski,  A. White,  J. Witte,  A. Yamada,  
 Jun Yang,  K. Yao,  S. Yeganeh,  S. R. Yost,  Zhi-Qiang You,  A. Zech,  
 Igor Ying Zhang,  Xing Zhang,  Yan Zhao,  Ying Zhu,  B. R. Brooks,  
 G. K. L. Chan,  C. J. Cramer,  M. S. Gordon,  W. J. Hehre,  A. Klamt,  
 M. W. Schmidt,  C. D. Sherrill,  D. G. Truhlar,  A. Aspuru-Guzik,  R. Baer,  
 A. T. Bell,  N. A. Besley,  Jeng-Da Chai,  A. E. DePrince, III,  
 R. A. DiStasio Jr.,  A. Dreuw,  B. D. Dunietz,  T. R. Furlani,  
 Chao-Ping Hsu,  Yousung Jung,  Jing Kong,  D. S. Lambrecht,  WanZhen Liang,  
 C. Ochsenfeld,  V. A. Rassolov,  L. V. Slipchenko,  J. E. Subotnik,  
 T. Van Voorhis,  J. M. Herbert,  A. I. Krylov,  P. M. W. Gill,  M. Head-Gordon

 Contributors to earlier versions of Q-Chem not listed above: 
 R. D. Adamson,  B. Austin,  J. Baker,  G. J. O. Beran,  K. Brandhorst,  
 S. T. Brown,  E. F. C. Byrd,  A. K. Chakraborty,  C.-L. Cheng,  
 Siu Hung Chien,  D. M. Chipman,  D. L. Crittenden,  H. Dachsel,  
 R. J. Doerksen,  A. D. Dutoi,  L. Fusti-Molnar,  W. A. Goddard III,  
 A. Golubeva-Zadorozhnaya,  S. R. Gwaltney,  G. Hawkins,  A. Heyden,  
 S. Hirata,  G. Kedziora,  F. J. Keil,  C. Kelley,  Jihan Kim,  R. A. King,  
 R. Z. Khaliullin,  P. P. Korambath,  W. Kurlancheek,  A. M. Lee,  M. S. Lee,  
 S. V. Levchenko,  Ching Yeh Lin,  D. Liotard,  R. C. Lochan,  I. Lotan,  
 P. E. Maslen,  N. Nair,  D. P. O'Neill,  D. Neuhauser,  E. Neuscamman,  
 C. M. Oana,  R. Olson,  B. Peters,  R. Peverati,  P. A. Pieniazek,  
 Y. M. Rhee,  J. Ritchie,  M. A. Rohrdanz,  E. Rosta,  N. J. Russ,  
 H. F. Schaefer III,  N. E. Schultz,  N. Shenvi,  A. C. Simmonett,  A. Sodt,  
 D. Stuck,  K. S. Thanthiriwatte,  V. Vanovschi,  Tao Wang,  A. Warshel,  
 C. F. Williams,  Q. Wu,  X. Xu,  W. Zhang

 Please cite Q-Chem as follows:
 Y. Shao et al., Mol. Phys. 113, 184-215 (2015)
 DOI: 10.1080/00268976.2014.952696

 Q-Chem 5.1.1 for Intel X86 EM64T Linux

 Parts of Q-Chem use Armadillo 8.300.2 (Tropical Shenanigans).
 http://arma.sourceforge.net/

 Q-Chem begins on Fri Aug  7 17:58:34 2020  

Host: n0071.mhg0
0

     Scratch files written to /local/scratch/users/yhljason/PH_Slater_aug-pc-4.inp20200807172705//
Input Ideriv = 2
Curr. Ideriv = -1
Max.  Ideriv = 2

Checking the input file for inconsistencies... 	...done.

--------------------------------------------------------------
User input:
--------------------------------------------------------------
$molecule
0 3
H1	0.0000	0.0000	0.0000
P2	0.0000	0.0000	1.4223
$end

$rem
jobtype sp
exchange slater
xc_grid 000099000590
basis aug-pc-4
max_scf_cycles 200
thresh 14
scf_convergence 8
scf_algorithm gdm
symmetry false
sym_ignore true
unrestricted true
gen_scfman true
internal_stability_iter 15
internal_stability_davidson_iter 200
mem_total 64000
mem_static 1500
n_frozen_core 0
$end


--------------------------------------------------------------
 ----------------------------------------------------------------
             Standard Nuclear Orientation (Angstroms)
    I     Atom           X                Y                Z
 ----------------------------------------------------------------
    1      H       0.0000000000     0.0000000000     0.0000000000
    2      P       0.0000000000     0.0000000000     1.4223000000
 ----------------------------------------------------------------
 Nuclear Repulsion Energy =     5.5808606918 hartrees
 There are        9 alpha and        7 beta electrons
 Requested basis set is aug-pc-4
 There are 55 shells and 229 basis functions

 Total QAlloc Memory Limit  64000 MB
 Mega-Array Size      1467 MB
 MEM_STATIC part      1500 MB

                       Distance Matrix (Angstroms)
             H (  1)
   P (  2)  1.422300
 
 A cutoff of  1.0D-14 yielded   1537 shell pairs
 There are     26901 function pairs (     49956 Cartesian)
 
 -------------------------------------------------------
 OpenMP Integral Computing Module                       
 Release: version 1.0, May 2013, Q-Chem Inc. Pittsburgh 
 -------------------------------------------------------
 Integral Job Info:
 Integral job number is                      11
 Integral operator is                         1
 short-range coefficients                     0
 long-range coefficients              100000000
 Omega coefficients                           0
 if combine SR and LR in K                    0
 Integral screening is                        0
 Integral computing path is                   2
 max size of driver memory is           6400000
 size of driver memory is               5498286
 size of scratch memory is             27847117
 max col of scratch BK array             194481
 max len of scratch array in speh3         5572
 max len of scratch index in speh4           72
 max int batch size is                      520
 min int batch size is                       52
 fixed nKL is                                 7
 max L of basis functions is                  5
 order of int derivative is                   0
 number of shells is                         55
 number of basis is                         311
 number of cartesian basis is               311
 number of contracted shell pairs          1537
 number of primitive shell pairs           6667
 maxK2 (contraction) of shell pair          225
 max number of K2 of shell pair               1
 max number of CS2 of shell pair            144
 max number of PS2 of shell pair            528
 mem total for path MDJ                  836120
 -------------------------------------------------------
 Smallest overlap matrix eigenvalue = 7.44E-06

 Scale SEOQF with 1.000000e-01/1.000000e-01/1.000000e-01

 Standard Electronic Orientation quadrupole field applied
 Nucleus-field energy     =    -0.0000000033 hartrees
 Guess from superposition of atomic densities
 Warning:  Energy on first SCF cycle will be non-variational
 SAD guess density has 16.000000 electrons

 -----------------------------------------------------------------------
  General SCF calculation program by
  Eric Jon Sundstrom, Paul Horn, Yuezhi Mao, Dmitri Zuev, Alec White,
  David Stuck, Shaama M.S., Shane Yost, Joonho Lee, David Small,
  Daniel Levine, Susi Lehtola, Hugh Burton, Evgeny Epifanovsky
 -----------------------------------------------------------------------
 Exchange:  Slater     
 Using Euler-Maclaurin-Lebedev (99,590) quadrature formula
Running Object-Oriented UKS (UHF)
performing a single roothaan step with Fock from read density so that orbitals are available to all algorithms
energy of the guess density (C=0) -339.362335703790
We will preform up to 15 macro iterations over saddle points until a stable solution is found
Energy prior to optimization (guess energy) = -339.429405677722
Begin Timing: Total SCF Calculation
Begin Timing: SCF Single Stationary Point Calculation
begin iterations for algorithm: GDM          
the SCF tolerance is set to 1.00e-08
    1    -339.4294056777      3.06e-02     00000  Normal BFGS step
    2    -339.4332205575      3.28e-02     00000  Normal BFGS step
    3    -339.4347316331      1.08e-02     00000  Normal BFGS step
    4    -339.4349455232      2.21e-03     00000  Normal BFGS step
    5    -339.4349667556      3.47e-04     00000  Normal BFGS step
    6    -339.4349670184      1.51e-04     00000  Normal BFGS step
    7    -339.4349671516      3.00e-05     00000  Normal BFGS step
    8    -339.4349671537      7.95e-06     00000  Normal BFGS step
    9    -339.4349671539      7.77e-07     00000  Normal BFGS step
   10    -339.4349671539      3.32e-07     00000  Normal BFGS step
   11    -339.4349671539      5.47e-08     00000  Normal BFGS step
   12    -339.4349671539      1.16e-08     00000  Normal BFGS step
   13    -339.4349671539      9.28e-09     00000 Convergence criterion met
Timing for Single Stationary Point: 84.00s (wall), 658.40s (cpu)
Begin Timing: Stability
===================================================
Beginning Test for Internal Stability
===================================================
generating davidson guess vectors based on koopmans excitations
    1      7.91e-01     00000 Davidson Iteration
    2      4.81e-01     00000 Davidson Iteration
    3      6.04e-02     00000 Davidson Iteration
    4      4.07e-02     00000 Davidson Iteration
    5      1.19e-02     00000 Davidson Iteration
    6      5.27e-04     00000 Davidson Iteration
    7      1.41e-04     00000 Davidson Iteration
    8      2.54e-05     00000 Davidson Converged
converged_eigenvalues
   0.2361
   0.2361
Threshold for negative eigenvalues: -1.0e-05
solution was a local minimum (stable)
===================================================
End Test for Internal Stability
===================================================
Our SCF solution is stable!
Timing for Total SCF: 540.00s (wall), 4274.70s (cpu)
 Total energy in the final basis set =     -339.4349671539
<S^2> =          2.007802918
    ==================================================
              The end of Object-Oriented SCFman       
    ==================================================
 
 --------------------------------------------------------------
 
                    Orbital Energies (a.u.)
 --------------------------------------------------------------
 
 Alpha MOs
 -- Occupied --
-75.924  -6.241  -4.490  -4.490  -4.483  -0.529  -0.276  -0.197
 -0.197
 -- Virtual --
 -0.009   0.022   0.022   0.022   0.029   0.048   0.070   0.070
  0.070   0.070   0.097   0.097   0.098   0.117   0.144   0.146
  0.146   0.169   0.183   0.183   0.185   0.185   0.193   0.193
  0.207   0.207   0.237   0.258   0.258   0.284   0.284   0.284
  0.298   0.298   0.331   0.358   0.358   0.359   0.359   0.362
  0.363   0.363   0.421   0.421   0.424   0.424   0.427   0.446
  0.454   0.454   0.459   0.459   0.464   0.464   0.498   0.523
  0.523   0.545   0.545   0.545   0.545   0.549   0.606   0.606
  0.617   0.617   0.622   0.622   0.637   0.663   0.663   0.664
  0.664   0.670   0.670   0.694   0.694   0.757   0.837   0.860
  0.860   0.865   0.865   0.900   0.939   1.011   1.011   1.105
  1.105   1.149   1.149   1.165   1.184   1.184   1.250   1.250
  1.298   1.345   1.345   1.464   1.563   1.632   1.632   2.051
  2.051   2.095   2.095   2.099   2.181   2.181   2.183   2.183
  2.311   2.359   2.359   2.566   2.606   2.606   2.714   2.714
  2.819   2.819   2.882   2.882   2.902   2.923   3.027   3.027
  3.166   3.166   3.356   3.409   3.409   3.569   3.569   3.608
  3.608   3.639   3.936   4.117   4.117   4.703   4.703   4.712
  4.712   4.832   4.896   4.896   4.900   4.900   5.180   5.394
  5.394   5.401   5.401   5.604   5.604   5.736   6.145   6.145
  6.719   7.244   7.244   7.273   7.273   7.390   7.390   7.589
  7.589   7.876   8.448   8.448   8.781   8.781   9.023   9.122
  9.122   9.471  10.269  10.269  10.282  10.282  10.870  10.870
 11.174  11.564  12.316  12.316  12.600  12.600  12.962  12.962
 13.450  16.117  16.117  16.137  16.137  16.774  16.774  16.803
 16.803  16.809  17.071  17.071  17.778  17.778  17.995  22.182
 23.307  23.307  24.255  39.634  58.862  58.862  58.934  58.934
 59.454  91.012  91.012  91.509
 
 Beta MOs
 -- Occupied --
-75.915  -6.230  -4.475  -4.475  -4.475  -0.462  -0.242
 -- Virtual --
 -0.102  -0.102   0.005   0.025   0.031   0.031   0.052   0.062
  0.091   0.091   0.102   0.102   0.107   0.120   0.120   0.133
  0.156   0.156   0.159   0.186   0.210   0.210   0.222   0.222
  0.228   0.228   0.234   0.234   0.244   0.272   0.272   0.301
  0.314   0.314   0.326   0.326   0.351   0.383   0.383   0.389
  0.394   0.394   0.396   0.396   0.444   0.455   0.455   0.461
  0.461   0.467   0.475   0.475   0.488   0.488   0.503   0.503
  0.510   0.561   0.561   0.574   0.574   0.581   0.582   0.582
  0.632   0.632   0.639   0.639   0.653   0.653   0.656   0.683
  0.683   0.687   0.687   0.689   0.689   0.720   0.720   0.771
  0.854   0.915   0.915   0.919   0.919   0.938   0.975   1.072
  1.072   1.203   1.203   1.206   1.206   1.209   1.233   1.233
  1.297   1.297   1.325   1.369   1.369   1.481   1.590   1.668
  1.668   2.113   2.113   2.151   2.179   2.179   2.277   2.277
  2.310   2.310   2.335   2.423   2.423   2.629   2.647   2.647
  2.781   2.781   2.933   2.933   2.943   2.943   2.949   2.963
  3.063   3.063   3.232   3.232   3.369   3.423   3.423   3.593
  3.593   3.637   3.637   3.653   3.952   4.151   4.151   4.825
  4.825   4.842   4.842   4.867   4.923   4.923   4.982   4.982
  5.210   5.454   5.454   5.460   5.460   5.669   5.669   5.774
  6.189   6.189   6.761   7.349   7.349   7.354   7.354   7.454
  7.454   7.636   7.636   7.904   8.448   8.448   8.778   8.778
  9.025   9.120   9.120   9.468  10.301  10.301  10.305  10.305
 10.886  10.886  11.176  11.570  12.311  12.311  12.596  12.596
 12.958  12.958  13.446  16.134  16.134  16.168  16.168  16.767
 16.767  16.796  16.796  16.817  17.064  17.064  17.775  17.775
 18.007  22.203  23.292  23.292  24.245  39.616  58.885  58.885
 58.949  58.949  59.468  90.989  90.989  91.486
 --------------------------------------------------------------
 
          Ground-State Mulliken Net Atomic Charges

     Atom                 Charge (a.u.)    Spin (a.u.)
  --------------------------------------------------------
      1 H                     0.106203      -0.097314
      2 P                    -0.106203       2.097314
  --------------------------------------------------------
  Sum of atomic charges =    -0.000000
  Sum of spin   charges =     2.000000

 -----------------------------------------------------------------
                    Cartesian Multipole Moments
 -----------------------------------------------------------------
    Charge (ESU x 10^10)
                 0.0000
    Dipole Moment (Debye)
         X       0.0000      Y      -0.0000      Z      -0.4592
       Tot       0.4592
    Quadrupole Moments (Debye-Ang)
        XX     -14.9440     XY       0.0000     YY     -14.9440
        XZ       0.0000     YZ      -0.0000     ZZ     -15.6390
    Octopole Moments (Debye-Ang^2)
       XXX       0.0000    XXY      -0.0000    XYY      -0.0000
       YYY      -0.0000    XXZ     -19.9995    XYZ       0.0000
       YYZ     -19.9995    XZZ       0.0000    YZZ      -0.0000
       ZZZ     -60.5570
    Hexadecapole Moments (Debye-Ang^3)
      XXXX     -26.0448   XXXY       0.0000   XXYY      -8.6816
      XYYY       0.0000   YYYY     -26.0448   XXXZ       0.0000
      XXYZ      -0.0000   XYYZ      -0.0000   YYYZ      -0.0000
      XXZZ     -37.1111   XYZZ       0.0000   YYZZ     -37.1111
      XZZZ       0.0000   YZZZ      -0.0000   ZZZZ    -194.4362
 -----------------------------------------------------------------
Archival summary:
1\1\n0071.mhg0\SP\ProcedureUnspecified\BasisUnspecified\11(3)\yhljason\FriAug718:07:472020FriAug718:07:472020\0\\#,ProcedureUnspecified,BasisUnspecified,\\0,3\H\P,1,1.4223\\\@

 Total job time:  552.30s(wall), 4360.89s(cpu) 
 Fri Aug  7 18:07:47 2020

        *************************************************************
        *                                                           *
        *  Thank you very much for using Q-Chem.  Have a nice day.  *
        *                                                           *
        *************************************************************


