Q-Chem Developer Version!
                  Welcome to Q-Chem
     A Quantum Leap Into The Future Of Chemistry


 Q-Chem 5.1, Q-Chem, Inc., Pleasanton, CA (2018)

 Yihan Shao,  Zhengting Gan,  E. Epifanovsky,  A. T. B. Gilbert,  M. Wormit,  
 J. Kussmann,  A. W. Lange,  A. Behn,  Jia Deng,  Xintian Feng,  D. Ghosh,  
 M. Goldey,  P. R. Horn,  L. D. Jacobson,  I. Kaliman,  T. Kus,  A. Landau,  
 Jie Liu,  E. I. Proynov,  R. M. Richard,  R. P. Steele,  E. J. Sundstrom,  
 H. L. Woodcock III,  P. M. Zimmerman,  D. Zuev,  B. Albrecht,  E. Alguire,  
 S. A. Baeppler,  D. Barton,  Z. Benda,  Y. A. Bernard,  E. J. Berquist,  
 K. B. Bravaya,  H. Burton,  D. Casanova,  Chun-Min Chang,  Yunqing Chen,  
 A. Chien,  K. D. Closser,  M. P. Coons,  S. Coriani,  S. Dasgupta,  
 A. L. Dempwolff,  M. Diedenhofen,  Hainam Do,  R. G. Edgar,  Po-Tung Fang,  
 S. Faraji,  S. Fatehi,  Qingguo Feng,  K. D. Fenk,  J. Fosso-Tande,  
 Qinghui Ge,  A. Ghysels,  G. Gidofalvi,  J. Gomes,  J. Gonthier,  A. Gunina,  
 D. Hait,  M. W. D. Hanson-Heine,  P. H. P. Harbach,  A. W. Hauser,  
 J. E. Herr,  E. G. Hohenstein,  Z. C. Holden,  Kerwin Hui,  B. C. Huynh,  
 T.-C. Jagau,  Hyunjun Ji,  B. Kaduk,  K. Khistyaev,  Jaehoon Kim,  
 P. Klunzinger,  K. Koh,  D. Kosenkov,  L. Koulias,  T. Kowalczyk,  
 C. M. Krauter,  A. Kunitsa,  Ka Un Lao,  A. Laurent,  K. V. Lawler,  
 Joonho Lee,  D. Lefrancois,  S. Lehtola,  D. S. Levine,  Yi-Pei Li,  
 You-Sheng Lin,  Fenglai Liu,  E. Livshits,  A. Luenser,  P. Manohar,  
 E. Mansoor,  S. F. Manzer,  Shan-Ping Mao,  Yuezhi Mao,  N. Mardirossian,  
 A. V. Marenich,  T. Markovich,  L. A. Martinez-Martinez,  S. A. Maurer,  
 N. J. Mayhall,  S. C. McKenzie,  J.-M. Mewes,  A. F. Morrison,  
 J. W. Mullinax,  K. Nanda,  T. S. Nguyen-Beck,  R. Olivares-Amaya,  
 J. A. Parkhill,  T. M. Perrine,  F. Plasser,  P. Pokhilko,  S. Prager,  
 A. Prociuk,  E. Ramos,  D. R. Rehn,  F. Rob,  M. Schneider,  N. Sergueev,  
 S. M. Sharada,  S. Sharma,  D. W. Small,  T. Stauch,  T. Stein,  
 Yu-Chuan Su,  A. J. W. Thom,  A. Tkatchenko,  T. Tsuchimochi,  N. M. Tubman,  
 L. Vogt,  M. L. Vidal,  O. Vydrov,  M. A. Watson,  J. Wenzel,  
 M. de Wergifosse,  T. A. Wesolowski,  A. White,  J. Witte,  A. Yamada,  
 Jun Yang,  K. Yao,  S. Yeganeh,  S. R. Yost,  Zhi-Qiang You,  A. Zech,  
 Igor Ying Zhang,  Xing Zhang,  Yan Zhao,  Ying Zhu,  B. R. Brooks,  
 G. K. L. Chan,  C. J. Cramer,  M. S. Gordon,  W. J. Hehre,  A. Klamt,  
 M. W. Schmidt,  C. D. Sherrill,  D. G. Truhlar,  A. Aspuru-Guzik,  R. Baer,  
 A. T. Bell,  N. A. Besley,  Jeng-Da Chai,  A. E. DePrince, III,  
 R. A. DiStasio Jr.,  A. Dreuw,  B. D. Dunietz,  T. R. Furlani,  
 Chao-Ping Hsu,  Yousung Jung,  Jing Kong,  D. S. Lambrecht,  WanZhen Liang,  
 C. Ochsenfeld,  V. A. Rassolov,  L. V. Slipchenko,  J. E. Subotnik,  
 T. Van Voorhis,  J. M. Herbert,  A. I. Krylov,  P. M. W. Gill,  M. Head-Gordon

 Contributors to earlier versions of Q-Chem not listed above: 
 R. D. Adamson,  B. Austin,  J. Baker,  G. J. O. Beran,  K. Brandhorst,  
 S. T. Brown,  E. F. C. Byrd,  A. K. Chakraborty,  C.-L. Cheng,  
 Siu Hung Chien,  D. M. Chipman,  D. L. Crittenden,  H. Dachsel,  
 R. J. Doerksen,  A. D. Dutoi,  L. Fusti-Molnar,  W. A. Goddard III,  
 A. Golubeva-Zadorozhnaya,  S. R. Gwaltney,  G. Hawkins,  A. Heyden,  
 S. Hirata,  G. Kedziora,  F. J. Keil,  C. Kelley,  Jihan Kim,  R. A. King,  
 R. Z. Khaliullin,  P. P. Korambath,  W. Kurlancheek,  A. M. Lee,  M. S. Lee,  
 S. V. Levchenko,  Ching Yeh Lin,  D. Liotard,  R. C. Lochan,  I. Lotan,  
 P. E. Maslen,  N. Nair,  D. P. O'Neill,  D. Neuhauser,  E. Neuscamman,  
 C. M. Oana,  R. Olson,  B. Peters,  R. Peverati,  P. A. Pieniazek,  
 Y. M. Rhee,  J. Ritchie,  M. A. Rohrdanz,  E. Rosta,  N. J. Russ,  
 H. F. Schaefer III,  N. E. Schultz,  N. Shenvi,  A. C. Simmonett,  A. Sodt,  
 D. Stuck,  K. S. Thanthiriwatte,  V. Vanovschi,  Tao Wang,  A. Warshel,  
 C. F. Williams,  Q. Wu,  X. Xu,  W. Zhang

 Please cite Q-Chem as follows:
 Y. Shao et al., Mol. Phys. 113, 184-215 (2015)
 DOI: 10.1080/00268976.2014.952696

 Q-Chem 5.1.1 for Intel X86 EM64T Linux

 Parts of Q-Chem use Armadillo 8.300.2 (Tropical Shenanigans).
 http://arma.sourceforge.net/

 Q-Chem begins on Fri Aug  7 17:54:35 2020  

Host: n0101.mhg0
0

     Scratch files written to /local/scratch/users/yhljason/PH_SCAN0_aug-pc-4.inp20200807172704//
Input Ideriv = 2
Curr. Ideriv = -1
Max.  Ideriv = 2
Input Ideriv = 1
Curr. Ideriv = 2
Max.  Ideriv = 1

Checking the input file for inconsistencies... 	...done.

--------------------------------------------------------------
User input:
--------------------------------------------------------------
$molecule
0 3
H1	0.0000	0.0000	0.0000
P2	0.0000	0.0000	1.4223
$end

$rem
jobtype sp
method SCAN0
xc_grid 000099000590
basis aug-pc-4
max_scf_cycles 200
thresh 14
scf_convergence 8
scf_algorithm gdm
symmetry false
sym_ignore true
unrestricted true
gen_scfman true
internal_stability_iter 15
internal_stability_davidson_iter 200
mem_total 64000
mem_static 1500
n_frozen_core 0
$end


--------------------------------------------------------------
 ----------------------------------------------------------------
             Standard Nuclear Orientation (Angstroms)
    I     Atom           X                Y                Z
 ----------------------------------------------------------------
    1      H       0.0000000000     0.0000000000     0.0000000000
    2      P       0.0000000000     0.0000000000     1.4223000000
 ----------------------------------------------------------------
 Nuclear Repulsion Energy =     5.5808606918 hartrees
 There are        9 alpha and        7 beta electrons
 Requested basis set is aug-pc-4
 There are 55 shells and 229 basis functions

 Total QAlloc Memory Limit  64000 MB
 Mega-Array Size      1467 MB
 MEM_STATIC part      1500 MB

                       Distance Matrix (Angstroms)
             H (  1)
   P (  2)  1.422300
 
 A cutoff of  1.0D-14 yielded   1537 shell pairs
 There are     26901 function pairs (     49956 Cartesian)
 
 -------------------------------------------------------
 OpenMP Integral Computing Module                       
 Release: version 1.0, May 2013, Q-Chem Inc. Pittsburgh 
 -------------------------------------------------------
 Integral Job Info:
 Integral job number is                      11
 Integral operator is                         1
 short-range coefficients                     0
 long-range coefficients              100000000
 Omega coefficients                           0
 if combine SR and LR in K                    0
 Integral screening is                        0
 Integral computing path is                   2
 max size of driver memory is           6400000
 size of driver memory is               5498286
 size of scratch memory is             27847117
 max col of scratch BK array             194481
 max len of scratch array in speh3         5572
 max len of scratch index in speh4           72
 max int batch size is                      520
 min int batch size is                       52
 fixed nKL is                                 7
 max L of basis functions is                  5
 order of int derivative is                   0
 number of shells is                         55
 number of basis is                         311
 number of cartesian basis is               311
 number of contracted shell pairs          1537
 number of primitive shell pairs           6667
 maxK2 (contraction) of shell pair          225
 max number of K2 of shell pair               1
 max number of CS2 of shell pair            144
 max number of PS2 of shell pair            528
 mem total for path MDJ                  836120
 -------------------------------------------------------
 Smallest overlap matrix eigenvalue = 7.44E-06

 Scale SEOQF with 1.000000e-01/1.000000e-01/1.000000e-01

 Standard Electronic Orientation quadrupole field applied
 Nucleus-field energy     =    -0.0000000033 hartrees
 Guess from superposition of atomic densities
 Warning:  Energy on first SCF cycle will be non-variational
 SAD guess density has 16.000000 electrons

 -----------------------------------------------------------------------
  General SCF calculation program by
  Eric Jon Sundstrom, Paul Horn, Yuezhi Mao, Dmitri Zuev, Alec White,
  David Stuck, Shaama M.S., Shane Yost, Joonho Lee, David Small,
  Daniel Levine, Susi Lehtola, Hugh Burton, Evgeny Epifanovsky
 -----------------------------------------------------------------------
 Exchange:     0.2500 Hartree-Fock + 0.7500 SCAN
 Correlation:  1.0000 SCAN
 Using Euler-Maclaurin-Lebedev (99,590) quadrature formula
Running Object-Oriented UKS (UHF)
performing a single roothaan step with Fock from read density so that orbitals are available to all algorithms
 LTot/LBra/LKet=          12           2          10
 LTot/LBra/LKet=          12           2          10

 Q-Chem warning:

 in GenH1, ket side, handled with new code


 Q-Chem warning:

 in GenH1, ket side, handled with new code

energy of the guess density (C=0) -341.775987720868
 LTot/LBra/LBra=          20          10          10

 Q-Chem warning:

 in GenH1, bra side, handled with new code

We will preform up to 15 macro iterations over saddle points until a stable solution is found
Energy prior to optimization (guess energy) = -341.896887325435
Begin Timing: Total SCF Calculation
Begin Timing: SCF Single Stationary Point Calculation
begin iterations for algorithm: GDM          
the SCF tolerance is set to 1.00e-08
    1    -341.8968873254      2.90e-02     00000  Normal BFGS step
    2    -341.9022840426      1.59e-02     00000  Normal BFGS step
    3    -341.9029684451      5.83e-03     00000  Normal BFGS step
    4    -341.9030455116      1.38e-03     00000  Normal BFGS step
    5    -341.9030506067      5.03e-04     00000  Normal BFGS step
    6    -341.9030516261      1.64e-04     00000  Normal BFGS step
    7    -341.9030517741      3.60e-05     00000  Normal BFGS step
    8    -341.9030517869      5.76e-06     00000  Normal BFGS step
    9    -341.9030517872      1.83e-06     00000  Normal BFGS step
   10    -341.9030517872      4.38e-07     00000  Normal BFGS step
   11    -341.9030517872      4.49e-08     00000  Normal BFGS step
   12    -341.9030517872      1.16e-08     00000  Normal BFGS step
   13    -341.9030517872      3.70e-09     00000 Convergence criterion met
Timing for Single Stationary Point: 532.00s (wall), 4224.14s (cpu)
Begin Timing: Stability
===================================================
Beginning Test for Internal Stability
===================================================
generating davidson guess vectors based on koopmans excitations
    1      8.15e-01     00000 Davidson Iteration
    2      2.43e-01     00000 Davidson Iteration
    3      1.43e-01     00000 Davidson Iteration
    4      1.98e-02     00000 Davidson Iteration
    5      7.37e-03     00000 Davidson Iteration
    6      2.79e-03     00000 Davidson Iteration
    7      6.47e-04     00000 Davidson Iteration
    8      2.75e-04     00000 Davidson Iteration
    9      8.81e-05     00000 Davidson Converged
converged_eigenvalues
   0.2468
   0.2468
Threshold for negative eigenvalues: -1.0e-05
solution was a local minimum (stable)
===================================================
End Test for Internal Stability
===================================================
Our SCF solution is stable!
Timing for Total SCF: 1056.00s (wall), 8379.15s (cpu)
 Total energy in the final basis set =     -341.9030517872
<S^2> =          2.015006838
    ==================================================
              The end of Object-Oriented SCFman       
    ==================================================
 
 --------------------------------------------------------------
 
                    Orbital Energies (a.u.)
 --------------------------------------------------------------
 
 Alpha MOs
 -- Occupied --
-77.552  -6.749  -4.838  -4.838  -4.829  -0.664  -0.368  -0.283
 -0.283
 -- Virtual --
  0.005   0.028   0.029   0.029   0.044   0.058   0.090   0.090
  0.091   0.091   0.113   0.116   0.116   0.130   0.157   0.159
  0.159   0.185   0.200   0.200   0.212   0.212   0.215   0.215
  0.238   0.238   0.249   0.273   0.273   0.314   0.317   0.317
  0.319   0.319   0.363   0.395   0.398   0.398   0.398   0.398
  0.410   0.410   0.460   0.467   0.467   0.470   0.470   0.486
  0.494   0.494   0.499   0.499   0.502   0.502   0.530   0.569
  0.569   0.597   0.597   0.599   0.612   0.612   0.660   0.660
  0.665   0.665   0.670   0.670   0.681   0.706   0.706   0.712
  0.712   0.716   0.716   0.740   0.740   0.797   0.891   0.932
  0.932   0.942   0.942   0.975   1.021   1.098   1.098   1.195
  1.195   1.244   1.244   1.260   1.280   1.280   1.343   1.343
  1.399   1.441   1.441   1.558   1.681   1.757   1.757   2.203
  2.203   2.248   2.260   2.260   2.316   2.316   2.320   2.320
  2.470   2.504   2.505   2.735   2.770   2.770   2.875   2.875
  2.982   2.982   3.066   3.066   3.072   3.105   3.200   3.200
  3.381   3.381   3.523   3.616   3.616   3.784   3.784   3.828
  3.828   3.864   4.163   4.359   4.360   4.929   4.929   4.947
  4.948   5.079   5.143   5.143   5.156   5.156   5.450   5.612
  5.612   5.639   5.639   5.888   5.888   6.016   6.432   6.432
  7.001   7.542   7.542   7.565   7.565   7.677   7.677   7.879
  7.879   8.176   8.782   8.782   9.106   9.106   9.357   9.461
  9.461   9.815  10.622  10.622  10.634  10.634  11.236  11.236
 11.550  11.955  12.757  12.757  13.048  13.048  13.420  13.420
 13.908  16.544  16.544  16.555  16.555  17.284  17.339  17.339
 17.362  17.362  17.633  17.634  18.349  18.349  18.517  22.601
 23.900  23.900  24.844  40.479  59.898  59.898  59.974  59.974
 60.505  92.723  92.723  93.224
 
 Beta MOs
 -- Occupied --
-77.540  -6.740  -4.823  -4.817  -4.817  -0.574  -0.341
 -- Virtual --
 -0.094  -0.094   0.032   0.044   0.044   0.066   0.076   0.081
  0.123   0.123   0.132   0.132   0.151   0.151   0.159   0.174
  0.235   0.235   0.242   0.242   0.251   0.260   0.260   0.272
  0.272   0.279   0.328   0.328   0.361   0.372   0.372   0.410
  0.421   0.421   0.453   0.453   0.459   0.469   0.469   0.502
  0.502   0.517   0.517   0.527   0.528   0.528   0.532   0.533
  0.571   0.571   0.591   0.625   0.645   0.645   0.657   0.657
  0.672   0.672   0.697   0.704   0.704   0.721   0.735   0.735
  0.749   0.749   0.820   0.820   0.821   0.822   0.899   0.899
  0.903   0.917   0.917   0.930   0.930   0.979   0.979   1.010
  1.047   1.048   1.058   1.058   1.068   1.100   1.173   1.203
  1.203   1.267   1.267   1.317   1.327   1.327   1.341   1.341
  1.400   1.400   1.441   1.492   1.492   1.725   1.816   1.824
  1.824   2.232   2.232   2.273   2.305   2.306   2.353   2.353
  2.395   2.395   2.522   2.522   2.605   2.759   2.776   2.776
  2.884   2.884   3.039   3.039   3.058   3.058   3.085   3.132
  3.194   3.194   3.417   3.417   3.522   3.582   3.582   3.720
  3.720   3.792   3.792   3.859   4.154   4.286   4.287   4.950
  4.951   4.973   4.973   5.052   5.105   5.105   5.120   5.120
  5.405   5.619   5.619   5.628   5.629   5.821   5.821   5.977
  6.383   6.383   6.986   7.523   7.523   7.548   7.548   7.664
  7.664   7.846   7.846   8.146   8.685   8.685   9.018   9.018
  9.262   9.365   9.365   9.744  10.642  10.642  10.648  10.648
 11.233  11.233  11.499  11.883  12.609  12.609  12.896  12.896
 13.265  13.265  13.772  16.546  16.546  16.584  16.584  17.149
 17.149  17.177  17.177  17.238  17.455  17.455  18.185  18.185
 18.412  22.571  23.782  23.782  24.730  40.361  59.933  59.933
 59.992  59.992  60.519  92.540  92.540  93.039
 --------------------------------------------------------------
 
          Ground-State Mulliken Net Atomic Charges

     Atom                 Charge (a.u.)    Spin (a.u.)
  --------------------------------------------------------
      1 H                     0.366871       0.006062
      2 P                    -0.366871       1.993938
  --------------------------------------------------------
  Sum of atomic charges =     0.000000
  Sum of spin   charges =     2.000000

 -----------------------------------------------------------------
                    Cartesian Multipole Moments
 -----------------------------------------------------------------
    Charge (ESU x 10^10)
                 0.0000
    Dipole Moment (Debye)
         X       0.0000      Y      -0.0000      Z      -0.4748
       Tot       0.4748
    Quadrupole Moments (Debye-Ang)
        XX     -14.2590     XY       0.0000     YY     -14.2590
        XZ      -0.0000     YZ      -0.0000     ZZ     -15.1402
    Octopole Moments (Debye-Ang^2)
       XXX      -0.0000    XXY      -0.0000    XYY      -0.0000
       YYY      -0.0000    XXZ     -19.2037    XYZ       0.0000
       YYZ     -19.2037    XZZ      -0.0000    YZZ      -0.0000
       ZZZ     -58.6955
    Hexadecapole Moments (Debye-Ang^3)
      XXXX     -22.2290   XXXY      -0.0000   XXYY      -7.4099
      XYYY      -0.0000   YYYY     -22.2290   XXXZ      -0.0000
      XXYZ      -0.0000   XYYZ      -0.0000   YYYZ      -0.0000
      XXZZ     -34.9466   XYZZ       0.0000   YYZZ     -34.9466
      XZZZ      -0.0000   YZZZ      -0.0000   ZZZZ    -186.0345
 -----------------------------------------------------------------
Archival summary:
1\1\n0101.mhg0\SP\ProcedureUnspecified\BasisUnspecified\11(3)\yhljason\FriAug718:13:032020FriAug718:13:032020\0\\#,ProcedureUnspecified,BasisUnspecified,\\0,3\H\P,1,1.4223\\\@

 Total job time:  1107.81s(wall), 8773.64s(cpu) 
 Fri Aug  7 18:13:03 2020

        *************************************************************
        *                                                           *
        *  Thank you very much for using Q-Chem.  Have a nice day.  *
        *                                                           *
        *************************************************************


