Q-Chem Developer Version!
                  Welcome to Q-Chem
     A Quantum Leap Into The Future Of Chemistry


 Q-Chem 5.1, Q-Chem, Inc., Pleasanton, CA (2018)

 Yihan Shao,  Zhengting Gan,  E. Epifanovsky,  A. T. B. Gilbert,  M. Wormit,  
 J. Kussmann,  A. W. Lange,  A. Behn,  Jia Deng,  Xintian Feng,  D. Ghosh,  
 M. Goldey,  P. R. Horn,  L. D. Jacobson,  I. Kaliman,  T. Kus,  A. Landau,  
 Jie Liu,  E. I. Proynov,  R. M. Richard,  R. P. Steele,  E. J. Sundstrom,  
 H. L. Woodcock III,  P. M. Zimmerman,  D. Zuev,  B. Albrecht,  E. Alguire,  
 S. A. Baeppler,  D. Barton,  Z. Benda,  Y. A. Bernard,  E. J. Berquist,  
 K. B. Bravaya,  H. Burton,  D. Casanova,  Chun-Min Chang,  Yunqing Chen,  
 A. Chien,  K. D. Closser,  M. P. Coons,  S. Coriani,  S. Dasgupta,  
 A. L. Dempwolff,  M. Diedenhofen,  Hainam Do,  R. G. Edgar,  Po-Tung Fang,  
 S. Faraji,  S. Fatehi,  Qingguo Feng,  K. D. Fenk,  J. Fosso-Tande,  
 Qinghui Ge,  A. Ghysels,  G. Gidofalvi,  J. Gomes,  J. Gonthier,  A. Gunina,  
 D. Hait,  M. W. D. Hanson-Heine,  P. H. P. Harbach,  A. W. Hauser,  
 J. E. Herr,  E. G. Hohenstein,  Z. C. Holden,  Kerwin Hui,  B. C. Huynh,  
 T.-C. Jagau,  Hyunjun Ji,  B. Kaduk,  K. Khistyaev,  Jaehoon Kim,  
 P. Klunzinger,  K. Koh,  D. Kosenkov,  L. Koulias,  T. Kowalczyk,  
 C. M. Krauter,  A. Kunitsa,  Ka Un Lao,  A. Laurent,  K. V. Lawler,  
 Joonho Lee,  D. Lefrancois,  S. Lehtola,  D. S. Levine,  Yi-Pei Li,  
 You-Sheng Lin,  Fenglai Liu,  E. Livshits,  A. Luenser,  P. Manohar,  
 E. Mansoor,  S. F. Manzer,  Shan-Ping Mao,  Yuezhi Mao,  N. Mardirossian,  
 A. V. Marenich,  T. Markovich,  L. A. Martinez-Martinez,  S. A. Maurer,  
 N. J. Mayhall,  S. C. McKenzie,  J.-M. Mewes,  A. F. Morrison,  
 J. W. Mullinax,  K. Nanda,  T. S. Nguyen-Beck,  R. Olivares-Amaya,  
 J. A. Parkhill,  T. M. Perrine,  F. Plasser,  P. Pokhilko,  S. Prager,  
 A. Prociuk,  E. Ramos,  D. R. Rehn,  F. Rob,  M. Schneider,  N. Sergueev,  
 S. M. Sharada,  S. Sharma,  D. W. Small,  T. Stauch,  T. Stein,  
 Yu-Chuan Su,  A. J. W. Thom,  A. Tkatchenko,  T. Tsuchimochi,  N. M. Tubman,  
 L. Vogt,  M. L. Vidal,  O. Vydrov,  M. A. Watson,  J. Wenzel,  
 M. de Wergifosse,  T. A. Wesolowski,  A. White,  J. Witte,  A. Yamada,  
 Jun Yang,  K. Yao,  S. Yeganeh,  S. R. Yost,  Zhi-Qiang You,  A. Zech,  
 Igor Ying Zhang,  Xing Zhang,  Yan Zhao,  Ying Zhu,  B. R. Brooks,  
 G. K. L. Chan,  C. J. Cramer,  M. S. Gordon,  W. J. Hehre,  A. Klamt,  
 M. W. Schmidt,  C. D. Sherrill,  D. G. Truhlar,  A. Aspuru-Guzik,  R. Baer,  
 A. T. Bell,  N. A. Besley,  Jeng-Da Chai,  A. E. DePrince, III,  
 R. A. DiStasio Jr.,  A. Dreuw,  B. D. Dunietz,  T. R. Furlani,  
 Chao-Ping Hsu,  Yousung Jung,  Jing Kong,  D. S. Lambrecht,  WanZhen Liang,  
 C. Ochsenfeld,  V. A. Rassolov,  L. V. Slipchenko,  J. E. Subotnik,  
 T. Van Voorhis,  J. M. Herbert,  A. I. Krylov,  P. M. W. Gill,  M. Head-Gordon

 Contributors to earlier versions of Q-Chem not listed above: 
 R. D. Adamson,  B. Austin,  J. Baker,  G. J. O. Beran,  K. Brandhorst,  
 S. T. Brown,  E. F. C. Byrd,  A. K. Chakraborty,  C.-L. Cheng,  
 Siu Hung Chien,  D. M. Chipman,  D. L. Crittenden,  H. Dachsel,  
 R. J. Doerksen,  A. D. Dutoi,  L. Fusti-Molnar,  W. A. Goddard III,  
 A. Golubeva-Zadorozhnaya,  S. R. Gwaltney,  G. Hawkins,  A. Heyden,  
 S. Hirata,  G. Kedziora,  F. J. Keil,  C. Kelley,  Jihan Kim,  R. A. King,  
 R. Z. Khaliullin,  P. P. Korambath,  W. Kurlancheek,  A. M. Lee,  M. S. Lee,  
 S. V. Levchenko,  Ching Yeh Lin,  D. Liotard,  R. C. Lochan,  I. Lotan,  
 P. E. Maslen,  N. Nair,  D. P. O'Neill,  D. Neuhauser,  E. Neuscamman,  
 C. M. Oana,  R. Olson,  B. Peters,  R. Peverati,  P. A. Pieniazek,  
 Y. M. Rhee,  J. Ritchie,  M. A. Rohrdanz,  E. Rosta,  N. J. Russ,  
 H. F. Schaefer III,  N. E. Schultz,  N. Shenvi,  A. C. Simmonett,  A. Sodt,  
 D. Stuck,  K. S. Thanthiriwatte,  V. Vanovschi,  Tao Wang,  A. Warshel,  
 C. F. Williams,  Q. Wu,  X. Xu,  W. Zhang

 Please cite Q-Chem as follows:
 Y. Shao et al., Mol. Phys. 113, 184-215 (2015)
 DOI: 10.1080/00268976.2014.952696

 Q-Chem 5.1.1 for Intel X86 EM64T Linux

 Parts of Q-Chem use Armadillo 8.300.2 (Tropical Shenanigans).
 http://arma.sourceforge.net/

 Q-Chem begins on Fri Aug  7 18:02:32 2020  

Host: n0051.mhg0
0

     Scratch files written to /local/scratch/users/yhljason/PH_wB97M-V_aug-pc-4.inp20200807172705//
Input Ideriv = 2
Curr. Ideriv = -1
Max.  Ideriv = 2
Input Ideriv = 1
Curr. Ideriv = 2
Max.  Ideriv = 1

Checking the input file for inconsistencies... 	...done.

--------------------------------------------------------------
User input:
--------------------------------------------------------------
$molecule
0 3
H1	0.0000	0.0000	0.0000
P2	0.0000	0.0000	1.4223
$end

$rem
jobtype sp
method wB97M-V
xc_grid 000099000590
basis aug-pc-4
max_scf_cycles 200
thresh 14
scf_convergence 8
scf_algorithm gdm
symmetry false
sym_ignore true
unrestricted true
gen_scfman true
internal_stability_iter 15
internal_stability_davidson_iter 200
mem_total 64000
mem_static 1500
n_frozen_core 0
$end


--------------------------------------------------------------
 ----------------------------------------------------------------
             Standard Nuclear Orientation (Angstroms)
    I     Atom           X                Y                Z
 ----------------------------------------------------------------
    1      H       0.0000000000     0.0000000000     0.0000000000
    2      P       0.0000000000     0.0000000000     1.4223000000
 ----------------------------------------------------------------
 Nuclear Repulsion Energy =     5.5808606918 hartrees
 There are        9 alpha and        7 beta electrons
 Requested basis set is aug-pc-4
 There are 55 shells and 229 basis functions

 Total QAlloc Memory Limit  64000 MB
 Mega-Array Size      1467 MB
 MEM_STATIC part      1500 MB

                       Distance Matrix (Angstroms)
             H (  1)
   P (  2)  1.422300
 
 A cutoff of  1.0D-14 yielded   1537 shell pairs
 There are     26901 function pairs (     49956 Cartesian)
 
 -------------------------------------------------------
 OpenMP Integral Computing Module                       
 Release: version 1.0, May 2013, Q-Chem Inc. Pittsburgh 
 -------------------------------------------------------
 Integral Job Info:
 Integral job number is                      11
 Integral operator is                         1
 short-range coefficients              15000000
 long-range coefficients              100000000
 Omega coefficients                         300
 if combine SR and LR in K                    1
 Integral screening is                        0
 Integral computing path is                   2
 max size of driver memory is           6400000
 size of driver memory is               5498286
 size of scratch memory is             28418842
 max col of scratch BK array             194481
 max len of scratch array in speh3         5572
 max len of scratch index in speh4           72
 max int batch size is                      520
 min int batch size is                       52
 fixed nKL is                                 7
 max L of basis functions is                  5
 order of int derivative is                   0
 number of shells is                         55
 number of basis is                         311
 number of cartesian basis is               311
 number of contracted shell pairs          1537
 number of primitive shell pairs           6667
 maxK2 (contraction) of shell pair          225
 max number of K2 of shell pair               1
 max number of CS2 of shell pair            144
 max number of PS2 of shell pair            528
 mem total for path MDJ                  836120
 -------------------------------------------------------
 Smallest overlap matrix eigenvalue = 7.44E-06

 Scale SEOQF with 1.000000e-01/1.000000e-01/1.000000e-01

 Standard Electronic Orientation quadrupole field applied
 Nucleus-field energy     =    -0.0000000033 hartrees
 Guess from superposition of atomic densities
 Warning:  Energy on first SCF cycle will be non-variational
 SAD guess density has 16.000000 electrons

 -----------------------------------------------------------------------
  General SCF calculation program by
  Eric Jon Sundstrom, Paul Horn, Yuezhi Mao, Dmitri Zuev, Alec White,
  David Stuck, Shaama M.S., Shane Yost, Joonho Lee, David Small,
  Daniel Levine, Susi Lehtola, Hugh Burton, Evgeny Epifanovsky
 -----------------------------------------------------------------------
 Exchange:     0.1500 Hartree-Fock + 1.0000 wB97M-V + LR-HF
 Correlation:  1.0000 wB97M-V
 Using Euler-Maclaurin-Lebedev (99,590) quadrature formula
 Nonlocal Correlation:  VV10 with C = 0.0100 and b = 6.00 and scale = 1.00000
 Grid used for NLC:  SG-1 standard quadrature
Running Object-Oriented UKS (UHF)
performing a single roothaan step with Fock from read density so that orbitals are available to all algorithms
 Nonlocal correlation = 0.068025042672
energy of the guess density (C=0) -341.662439561781
 Nonlocal correlation = 0.068062909386
We will preform up to 15 macro iterations over saddle points until a stable solution is found
Energy prior to optimization (guess energy) = -341.858929137764
Begin Timing: Total SCF Calculation
Begin Timing: SCF Single Stationary Point Calculation
begin iterations for algorithm: GDM          
the SCF tolerance is set to 1.00e-08
 Nonlocal correlation = 6.814805892173e-02
    1    -341.8589291378      2.21e-02     00000  Normal BFGS step
 Nonlocal correlation = 6.814734674396e-02
    2    -341.8636215617      1.25e-02     00000  Normal BFGS step
 Nonlocal correlation = 6.814796690277e-02
    3    -341.8641211838      2.58e-03     00000  Normal BFGS step
 Nonlocal correlation = 6.814768960506e-02
    4    -341.8641472517      3.54e-04     00000  Normal BFGS step
 Nonlocal correlation = 6.814767455372e-02
    5    -341.8641484057      9.96e-05     00000  Normal BFGS step
 Nonlocal correlation = 6.814766913307e-02
    6    -341.8641484816      3.78e-05     00000  Normal BFGS step
 Nonlocal correlation = 6.814767166000e-02
    7    -341.8641484866      1.33e-05     00000  Normal BFGS step
 Nonlocal correlation = 6.814767246950e-02
    8    -341.8641484874      4.85e-06     00000  Normal BFGS step
 Nonlocal correlation = 6.814767200672e-02
    9    -341.8641484875      1.15e-06     00000  Normal BFGS step
 Nonlocal correlation = 6.814767198065e-02
   10    -341.8641484875      3.95e-07     00000  Normal BFGS step
 Nonlocal correlation = 6.814767203693e-02
   11    -341.8641484875      6.21e-08     00000  Normal BFGS step
 Nonlocal correlation = 6.814767207450e-02
   12    -341.8641484875      1.48e-08     00000  Normal BFGS step
 Nonlocal correlation = 6.814767208105e-02
   13    -341.8641484875      3.41e-09     00000 Convergence criterion met
Timing for Single Stationary Point: 561.00s (wall), 4451.41s (cpu)
Begin Timing: Stability
===================================================
Beginning Test for Internal Stability
===================================================
generating davidson guess vectors based on koopmans excitations
computing hessian-vector products by finite difference
 Nonlocal correlation = 0.068147672010
 Nonlocal correlation = 0.068147672144
 Nonlocal correlation = 0.068147672076
 Nonlocal correlation = 0.068147672078
 Nonlocal correlation = 0.068147672081
    1      6.37e-01     00000 Davidson Iteration
computing hessian-vector products by finite difference
 Nonlocal correlation = 6.814767217201e-02
 Nonlocal correlation = 6.814767196770e-02
 Nonlocal correlation = 6.814767237472e-02
 Nonlocal correlation = 6.814767176503e-02
 Nonlocal correlation = 6.814767208105e-02
    2      6.95e-01     00000 Davidson Iteration
computing hessian-vector products by finite difference
 Nonlocal correlation = 6.814767089270e-02
 Nonlocal correlation = 6.814767326338e-02
 Nonlocal correlation = 6.814767168720e-02
 Nonlocal correlation = 6.814767246882e-02
 Nonlocal correlation = 6.814767208105e-02
    3      9.58e-02     00000 Davidson Iteration
computing hessian-vector products by finite difference
 Nonlocal correlation = 6.814767217136e-02
 Nonlocal correlation = 6.814767199346e-02
 Nonlocal correlation = 6.814767267002e-02
 Nonlocal correlation = 6.814767149484e-02
 Nonlocal correlation = 6.814767208105e-02
    4      1.19e-01     00000 Davidson Iteration
computing hessian-vector products by finite difference
 Nonlocal correlation = 6.814767033642e-02
 Nonlocal correlation = 6.814767382185e-02
 Nonlocal correlation = 6.814767219663e-02
 Nonlocal correlation = 6.814767196135e-02
 Nonlocal correlation = 6.814767208105e-02
    5      1.22e-01     00000 Davidson Iteration
computing hessian-vector products by finite difference
 Nonlocal correlation = 6.814767045965e-02
 Nonlocal correlation = 6.814767369401e-02
 Nonlocal correlation = 6.814767525498e-02
 Nonlocal correlation = 6.814766889804e-02
 Nonlocal correlation = 6.814767208105e-02
    6      7.31e-02     00000 Davidson Iteration
computing hessian-vector products by finite difference
 Nonlocal correlation = 6.814767236388e-02
 Nonlocal correlation = 6.814767179066e-02
 Nonlocal correlation = 6.814767598214e-02
 Nonlocal correlation = 6.814766817186e-02
 Nonlocal correlation = 6.814767208105e-02
    7      6.59e-02     00000 Davidson Iteration
computing hessian-vector products by finite difference
 Nonlocal correlation = 6.814765988447e-02
 Nonlocal correlation = 6.814768427220e-02
 Nonlocal correlation = 6.814766744345e-02
 Nonlocal correlation = 6.814767671210e-02
 Nonlocal correlation = 6.814767208105e-02
    8      1.54e-02     00000 Davidson Iteration
computing hessian-vector products by finite difference
 Nonlocal correlation = 6.814763575830e-02
 Nonlocal correlation = 6.814770840431e-02
 Nonlocal correlation = 6.814765736141e-02
 Nonlocal correlation = 6.814768679648e-02
 Nonlocal correlation = 6.814767208105e-02
    9      8.27e-03     00000 Davidson Iteration
computing hessian-vector products by finite difference
 Nonlocal correlation = 6.814773114150e-02
 Nonlocal correlation = 6.814761301725e-02
 Nonlocal correlation = 6.814771095927e-02
 Nonlocal correlation = 6.814763320121e-02
 Nonlocal correlation = 6.814767208105e-02
   10      9.92e-03     00000 Davidson Iteration
computing hessian-vector products by finite difference
 Nonlocal correlation = 6.814775793075e-02
 Nonlocal correlation = 6.814758622603e-02
 Nonlocal correlation = 6.814772301847e-02
 Nonlocal correlation = 6.814762113762e-02
 Nonlocal correlation = 6.814767208105e-02
   11      3.36e-03     00000 Davidson Iteration
computing hessian-vector products by finite difference
 Nonlocal correlation = 6.814775218893e-02
 Nonlocal correlation = 6.814759197234e-02
 Nonlocal correlation = 6.814776651793e-02
 Nonlocal correlation = 6.814757763838e-02
 Nonlocal correlation = 6.814767208105e-02
   12      8.40e-04     00000 Davidson Iteration
computing hessian-vector products by finite difference
 Nonlocal correlation = 6.814768021409e-02
 Nonlocal correlation = 6.814766394527e-02
 Nonlocal correlation = 6.814766609609e-02
 Nonlocal correlation = 6.814767806172e-02
 Nonlocal correlation = 6.814767208105e-02
   13      5.50e-04     00000 Davidson Converged
converged_eigenvalues
   0.2538
   0.2538
Threshold for negative eigenvalues: -1.0e-05
solution was a local minimum (stable)
===================================================
End Test for Internal Stability
===================================================
Our SCF solution is stable!
Timing for Total SCF: 3358.00s (wall), 26647.56s (cpu)
 Total energy in the final basis set =     -341.8641484875
<S^2> =          2.003924509
    ==================================================
              The end of Object-Oriented SCFman       
    ==================================================
 
 --------------------------------------------------------------
 
                    Orbital Energies (a.u.)
 --------------------------------------------------------------
 
 Alpha MOs
 -- Occupied --
-77.368  -6.742  -4.857  -4.857  -4.848  -0.734  -0.445  -0.340
 -0.340
 -- Virtual --
  0.008   0.026   0.027   0.027   0.061   0.077   0.095   0.095
  0.098   0.098   0.115   0.115   0.118   0.137   0.157   0.157
  0.166   0.199   0.201   0.201   0.233   0.233   0.234   0.234
  0.236   0.236   0.240   0.283   0.283   0.321   0.322   0.322
  0.324   0.324   0.382   0.384   0.384   0.385   0.385   0.401
  0.415   0.415   0.445   0.456   0.456   0.465   0.465   0.482
  0.482   0.493   0.501   0.501   0.502   0.502   0.520   0.560
  0.560   0.567   0.567   0.569   0.569   0.618   0.643   0.644
  0.649   0.649   0.653   0.674   0.674   0.683   0.683   0.683
  0.683   0.690   0.690   0.725   0.725   0.776   0.879   0.938
  0.938   0.941   0.941   0.971   0.995   1.086   1.086   1.185
  1.185   1.209   1.209   1.234   1.260   1.260   1.319   1.319
  1.358   1.403   1.403   1.514   1.616   1.695   1.695   2.139
  2.139   2.172   2.172   2.178   2.234   2.234   2.244   2.244
  2.359   2.422   2.422   2.646   2.667   2.667   2.780   2.780
  2.866   2.866   2.927   2.927   2.942   3.025   3.093   3.093
  3.286   3.286   3.394   3.456   3.456   3.635   3.635   3.662
  3.662   3.699   3.980   4.150   4.150   4.623   4.623   4.666
  4.666   4.870   4.870   4.911   4.940   4.940   5.221   5.454
  5.454   5.514   5.514   5.580   5.580   5.701   6.169   6.169
  6.760   7.269   7.269   7.332   7.332   7.461   7.461   7.653
  7.653   7.928   8.364   8.364   8.722   8.722   8.781   9.029
  9.029   9.481  10.530  10.530  10.544  10.544  11.097  11.097
 11.129  11.543  12.186  12.186  12.377  12.377  12.623  12.623
 13.148  16.320  16.320  16.403  16.403  16.549  16.549  16.561
 16.561  16.770  16.770  16.821  17.503  17.503  17.866  22.258
 22.917  22.917  23.828  39.039  59.699  59.700  59.773  59.773
 60.295  89.793  89.793  90.089
 
 Beta MOs
 -- Occupied --
-77.359  -6.733  -4.842  -4.839  -4.839  -0.668  -0.416
 -- Virtual --
 -0.044  -0.044   0.006   0.025   0.029   0.029   0.058   0.083
  0.091   0.091   0.096   0.096   0.118   0.118   0.118   0.137
  0.158   0.158   0.169   0.193   0.193   0.209   0.227   0.227
  0.236   0.236   0.237   0.245   0.245   0.293   0.293   0.321
  0.321   0.323   0.332   0.332   0.377   0.377   0.378   0.378
  0.381   0.403   0.425   0.425   0.442   0.454   0.454   0.459
  0.459   0.482   0.482   0.502   0.508   0.508   0.517   0.527
  0.527   0.557   0.557   0.562   0.562   0.565   0.565   0.630
  0.641   0.642   0.650   0.650   0.651   0.678   0.678   0.679
  0.679   0.679   0.679   0.695   0.695   0.734   0.734   0.776
  0.894   0.968   0.968   0.974   0.974   0.997   1.018   1.118
  1.118   1.256   1.256   1.259   1.259   1.264   1.297   1.297
  1.344   1.344   1.370   1.413   1.413   1.527   1.640   1.722
  1.722   2.211   2.211   2.243   2.280   2.280   2.352   2.352
  2.381   2.381   2.389   2.499   2.499   2.720   2.734   2.734
  2.853   2.853   2.999   2.999   3.004   3.012   3.012   3.057
  3.139   3.139   3.361   3.361   3.427   3.489   3.489   3.667
  3.667   3.708   3.708   3.725   4.025   4.214   4.214   4.890
  4.890   4.916   4.916   4.956   5.003   5.003   5.037   5.037
  5.280   5.553   5.553   5.597   5.597   5.712   5.712   5.834
  6.261   6.261   6.861   7.476   7.476   7.477   7.477   7.567
  7.567   7.738   7.738   8.009   8.438   8.438   8.753   8.753
  9.078   9.133   9.133   9.501  10.550  10.550  10.554  10.554
 11.114  11.114  11.252  11.667  12.200  12.200  12.527  12.527
 12.944  12.944  13.527  16.378  16.378  16.444  16.444  16.548
 16.548  16.630  16.630  16.967  16.980  16.980  17.761  17.761
 18.132  22.382  22.991  22.991  24.101  39.244  59.731  59.733
 59.794  59.794  60.314  90.127  90.127  90.638
 --------------------------------------------------------------
 
          Ground-State Mulliken Net Atomic Charges

     Atom                 Charge (a.u.)    Spin (a.u.)
  --------------------------------------------------------
      1 H                     0.434656      -0.109423
      2 P                    -0.434656       2.109423
  --------------------------------------------------------
  Sum of atomic charges =     0.000000
  Sum of spin   charges =     2.000000

 -----------------------------------------------------------------
                    Cartesian Multipole Moments
 -----------------------------------------------------------------
    Charge (ESU x 10^10)
                -0.0000
    Dipole Moment (Debye)
         X      -0.0000      Y       0.0000      Z      -0.3911
       Tot       0.3911
    Quadrupole Moments (Debye-Ang)
        XX     -14.5772     XY       0.0000     YY     -14.5772
        XZ       0.0000     YZ       0.0000     ZZ     -15.1889
    Octopole Moments (Debye-Ang^2)
       XXX      -0.0000    XXY       0.0000    XYY      -0.0000
       YYY       0.0000    XXZ     -19.5892    XYZ       0.0000
       YYZ     -19.5892    XZZ       0.0000    YZZ       0.0000
       ZZZ     -59.0613
    Hexadecapole Moments (Debye-Ang^3)
      XXXX     -24.3863   XXXY      -0.0000   XXYY      -8.1288
      XYYY      -0.0000   YYYY     -24.3863   XXXZ      -0.0000
      XXYZ       0.0000   XYYZ       0.0000   YYYZ       0.0000
      XXZZ     -36.0755   XYZZ       0.0000   YYZZ     -36.0755
      XZZZ       0.0000   YZZZ       0.0000   ZZZZ    -188.4113
 -----------------------------------------------------------------
Archival summary:
1\1\n0051.mhg0\SP\ProcedureUnspecified\BasisUnspecified\11(3)\yhljason\FriAug718:59:242020FriAug718:59:242020\0\\#,ProcedureUnspecified,BasisUnspecified,\\0,3\H\P,1,1.4223\\\@

 Total job time:  3411.42s(wall), 27058.62s(cpu) 
 Fri Aug  7 18:59:24 2020

        *************************************************************
        *                                                           *
        *  Thank you very much for using Q-Chem.  Have a nice day.  *
        *                                                           *
        *************************************************************


