Q-Chem Developer Version!
                  Welcome to Q-Chem
     A Quantum Leap Into The Future Of Chemistry


 Q-Chem 5.1, Q-Chem, Inc., Pleasanton, CA (2018)

 Yihan Shao,  Zhengting Gan,  E. Epifanovsky,  A. T. B. Gilbert,  M. Wormit,  
 J. Kussmann,  A. W. Lange,  A. Behn,  Jia Deng,  Xintian Feng,  D. Ghosh,  
 M. Goldey,  P. R. Horn,  L. D. Jacobson,  I. Kaliman,  T. Kus,  A. Landau,  
 Jie Liu,  E. I. Proynov,  R. M. Richard,  R. P. Steele,  E. J. Sundstrom,  
 H. L. Woodcock III,  P. M. Zimmerman,  D. Zuev,  B. Albrecht,  E. Alguire,  
 S. A. Baeppler,  D. Barton,  Z. Benda,  Y. A. Bernard,  E. J. Berquist,  
 K. B. Bravaya,  H. Burton,  D. Casanova,  Chun-Min Chang,  Yunqing Chen,  
 A. Chien,  K. D. Closser,  M. P. Coons,  S. Coriani,  S. Dasgupta,  
 A. L. Dempwolff,  M. Diedenhofen,  Hainam Do,  R. G. Edgar,  Po-Tung Fang,  
 S. Faraji,  S. Fatehi,  Qingguo Feng,  K. D. Fenk,  J. Fosso-Tande,  
 Qinghui Ge,  A. Ghysels,  G. Gidofalvi,  J. Gomes,  J. Gonthier,  A. Gunina,  
 D. Hait,  M. W. D. Hanson-Heine,  P. H. P. Harbach,  A. W. Hauser,  
 J. E. Herr,  E. G. Hohenstein,  Z. C. Holden,  Kerwin Hui,  B. C. Huynh,  
 T.-C. Jagau,  Hyunjun Ji,  B. Kaduk,  K. Khistyaev,  Jaehoon Kim,  
 P. Klunzinger,  K. Koh,  D. Kosenkov,  L. Koulias,  T. Kowalczyk,  
 C. M. Krauter,  A. Kunitsa,  Ka Un Lao,  A. Laurent,  K. V. Lawler,  
 Joonho Lee,  D. Lefrancois,  S. Lehtola,  D. S. Levine,  Yi-Pei Li,  
 You-Sheng Lin,  Fenglai Liu,  E. Livshits,  A. Luenser,  P. Manohar,  
 E. Mansoor,  S. F. Manzer,  Shan-Ping Mao,  Yuezhi Mao,  N. Mardirossian,  
 A. V. Marenich,  T. Markovich,  L. A. Martinez-Martinez,  S. A. Maurer,  
 N. J. Mayhall,  S. C. McKenzie,  J.-M. Mewes,  A. F. Morrison,  
 J. W. Mullinax,  K. Nanda,  T. S. Nguyen-Beck,  R. Olivares-Amaya,  
 J. A. Parkhill,  T. M. Perrine,  F. Plasser,  P. Pokhilko,  S. Prager,  
 A. Prociuk,  E. Ramos,  D. R. Rehn,  F. Rob,  M. Schneider,  N. Sergueev,  
 S. M. Sharada,  S. Sharma,  D. W. Small,  T. Stauch,  T. Stein,  
 Yu-Chuan Su,  A. J. W. Thom,  A. Tkatchenko,  T. Tsuchimochi,  N. M. Tubman,  
 L. Vogt,  M. L. Vidal,  O. Vydrov,  M. A. Watson,  J. Wenzel,  
 M. de Wergifosse,  T. A. Wesolowski,  A. White,  J. Witte,  A. Yamada,  
 Jun Yang,  K. Yao,  S. Yeganeh,  S. R. Yost,  Zhi-Qiang You,  A. Zech,  
 Igor Ying Zhang,  Xing Zhang,  Yan Zhao,  Ying Zhu,  B. R. Brooks,  
 G. K. L. Chan,  C. J. Cramer,  M. S. Gordon,  W. J. Hehre,  A. Klamt,  
 M. W. Schmidt,  C. D. Sherrill,  D. G. Truhlar,  A. Aspuru-Guzik,  R. Baer,  
 A. T. Bell,  N. A. Besley,  Jeng-Da Chai,  A. E. DePrince, III,  
 R. A. DiStasio Jr.,  A. Dreuw,  B. D. Dunietz,  T. R. Furlani,  
 Chao-Ping Hsu,  Yousung Jung,  Jing Kong,  D. S. Lambrecht,  WanZhen Liang,  
 C. Ochsenfeld,  V. A. Rassolov,  L. V. Slipchenko,  J. E. Subotnik,  
 T. Van Voorhis,  J. M. Herbert,  A. I. Krylov,  P. M. W. Gill,  M. Head-Gordon

 Contributors to earlier versions of Q-Chem not listed above: 
 R. D. Adamson,  B. Austin,  J. Baker,  G. J. O. Beran,  K. Brandhorst,  
 S. T. Brown,  E. F. C. Byrd,  A. K. Chakraborty,  C.-L. Cheng,  
 Siu Hung Chien,  D. M. Chipman,  D. L. Crittenden,  H. Dachsel,  
 R. J. Doerksen,  A. D. Dutoi,  L. Fusti-Molnar,  W. A. Goddard III,  
 A. Golubeva-Zadorozhnaya,  S. R. Gwaltney,  G. Hawkins,  A. Heyden,  
 S. Hirata,  G. Kedziora,  F. J. Keil,  C. Kelley,  Jihan Kim,  R. A. King,  
 R. Z. Khaliullin,  P. P. Korambath,  W. Kurlancheek,  A. M. Lee,  M. S. Lee,  
 S. V. Levchenko,  Ching Yeh Lin,  D. Liotard,  R. C. Lochan,  I. Lotan,  
 P. E. Maslen,  N. Nair,  D. P. O'Neill,  D. Neuhauser,  E. Neuscamman,  
 C. M. Oana,  R. Olson,  B. Peters,  R. Peverati,  P. A. Pieniazek,  
 Y. M. Rhee,  J. Ritchie,  M. A. Rohrdanz,  E. Rosta,  N. J. Russ,  
 H. F. Schaefer III,  N. E. Schultz,  N. Shenvi,  A. C. Simmonett,  A. Sodt,  
 D. Stuck,  K. S. Thanthiriwatte,  V. Vanovschi,  Tao Wang,  A. Warshel,  
 C. F. Williams,  Q. Wu,  X. Xu,  W. Zhang

 Please cite Q-Chem as follows:
 Y. Shao et al., Mol. Phys. 113, 184-215 (2015)
 DOI: 10.1080/00268976.2014.952696

 Q-Chem 5.1.1 for Intel X86 EM64T Linux

 Parts of Q-Chem use Armadillo 8.300.2 (Tropical Shenanigans).
 http://arma.sourceforge.net/

 Q-Chem begins on Fri Oct 30 13:36:52 2020  

Host: n0088.mhg0
0

     Scratch files written to /local/scratch/users/yhljason/BH2F_B97_aug-pc-4.inp20201030131756//
Input Ideriv = 2
Curr. Ideriv = -1
Max.  Ideriv = 2

Checking the input file for inconsistencies... 	...done.

--------------------------------------------------------------
User input:
--------------------------------------------------------------
$molecule
0 1
B        0.0000000000      0.0000000000      0.0000000000
F        0.0000000000      0.0000000000      1.3157000000
H        0.0000000000      1.0599000000     -0.5569000000
H        0.0000000000     -1.0599000000     -0.5569000000
$end

$rem
jobtype sp
method B97
xc_grid 000099000590
basis aug-pc-4
max_scf_cycles 200
thresh 14
scf_convergence 8
scf_algorithm gdm
symmetry false
sym_ignore true
unrestricted True
gen_scfman true
internal_stability_iter 15
internal_stability_davidson_iter 200
mem_total 64000
mem_static 1500
n_frozen_core 0
$end



--------------------------------------------------------------
 ----------------------------------------------------------------
             Standard Nuclear Orientation (Angstroms)
    I     Atom           X                Y                Z
 ----------------------------------------------------------------
    1      B       0.0000000000     0.0000000000     0.0000000000
    2      F       0.0000000000     0.0000000000     1.3157000000
    3      H       0.0000000000     1.0599000000    -0.5569000000
    4      H       0.0000000000    -1.0599000000    -0.5569000000
 ----------------------------------------------------------------
 Nuclear Repulsion Energy =    27.1952060366 hartrees
 There are        8 alpha and        8 beta electrons
 Requested basis set is aug-pc-4
 There are 114 shells and 466 basis functions

 Total QAlloc Memory Limit  64000 MB
 Mega-Array Size      1467 MB
 MEM_STATIC part      1500 MB

                       Distance Matrix (Angstroms)
             B (  1)   F (  2)   H (  3)
   F (  2)  1.315700
   H (  3)  1.197299  2.151748
   H (  4)  1.197299  2.151748  2.119800
 
 A cutoff of  1.0D-14 yielded   6446 shell pairs
 There are    109152 function pairs (    200533 Cartesian)
 
 -------------------------------------------------------
 OpenMP Integral Computing Module                       
 Release: version 1.0, May 2013, Q-Chem Inc. Pittsburgh 
 -------------------------------------------------------
 Integral Job Info:
 Integral job number is                      11
 Integral operator is                         1
 short-range coefficients                     0
 long-range coefficients              100000000
 Omega coefficients                           0
 if combine SR and LR in K                    0
 Integral screening is                        0
 Integral computing path is                   2
 max size of driver memory is           6400000
 size of driver memory is               5498286
 size of scratch memory is             29792225
 max col of scratch BK array             194481
 max len of scratch array in speh3         5572
 max len of scratch index in speh4           72
 max int batch size is                      520
 min int batch size is                       52
 fixed nKL is                                25
 max L of basis functions is                  5
 order of int derivative is                   0
 number of shells is                        114
 number of basis is                         630
 number of cartesian basis is               630
 number of contracted shell pairs          6446
 number of primitive shell pairs          12398
 maxK2 (contraction) of shell pair          121
 max number of K2 of shell pair               1
 max number of CS2 of shell pair            776
 max number of PS2 of shell pair            776
 mem total for path MDJ                 1105572
 -------------------------------------------------------
 Smallest overlap matrix eigenvalue = 4.44E-07
 Linear dependence detected in AO basis
 Number of orthogonalized atomic orbitals = 464
 Maximum deviation from orthogonality = 1.675E-10

 Scale SEOQF with 1.000000e-01/1.000000e-01/1.000000e-01

 Standard Electronic Orientation quadrupole field applied
 Nucleus-field energy     =    -0.0000000016 hartrees
 Guess from superposition of atomic densities
 Warning:  Energy on first SCF cycle will be non-variational
 SAD guess density has 16.000000 electrons

 -----------------------------------------------------------------------
  General SCF calculation program by
  Eric Jon Sundstrom, Paul Horn, Yuezhi Mao, Dmitri Zuev, Alec White,
  David Stuck, Shaama M.S., Shane Yost, Joonho Lee, David Small,
  Daniel Levine, Susi Lehtola, Hugh Burton, Evgeny Epifanovsky
 -----------------------------------------------------------------------
 Exchange:     0.1943 Hartree-Fock + 1.0000 B97
 Correlation:  1.0000 B97
 Using Euler-Maclaurin-Lebedev (99,590) quadrature formula
Running Object-Oriented UKS (UHF)
performing a single roothaan step with Fock from read density so that orbitals are available to all algorithms
 LTot/LBra/LKet=          18           9           9
 LTot/LBra/LKet=          18           9           9
 LTot/LBra/LKet=          18           9           9
 LTot/LBra/LKet=          18           9           9

 Q-Chem warning:

 in GenH1, ket side, handled with new code


 Q-Chem warning:

 in GenH1, ket side, handled with new code


 Q-Chem warning:

 in GenH1, ket side, handled with new code


 Q-Chem warning:

 in GenH1, ket side, handled with new code

 LTot/LBra/LBra=          18           9           9

 Q-Chem warning:

 in GenH1, bra side, handled with new code

energy of the guess density (C=0) -125.940084856140
We will preform up to 15 macro iterations over saddle points until a stable solution is found
Energy prior to optimization (guess energy) = -125.930634632854
Begin Timing: Total SCF Calculation
Begin Timing: SCF Single Stationary Point Calculation
begin iterations for algorithm: GDM          
the SCF tolerance is set to 1.00e-08
    1    -125.9306346329      7.21e-02     00000  Normal BFGS step
    2    -125.9090364795      1.52e-01     00000 Line search: overstep
    3    -125.9470723954      1.03e-02     00000  Normal BFGS step
    4    -125.9483702351      5.25e-03     00000  Normal BFGS step
    5    -125.9486179214      7.27e-04     00000  Normal BFGS step
    6    -125.9486260252      2.95e-04     00000  Normal BFGS step
    7    -125.9486272089      2.20e-05     00000  Normal BFGS step
    8    -125.9486272133      4.64e-06     00000  Normal BFGS step
    9    -125.9486272136      4.51e-07     00000  Normal BFGS step
   10    -125.9486272136      5.68e-08     00000  Normal BFGS step
   11    -125.9486272136      3.72e-09     00000 Convergence criterion met
Timing for Single Stationary Point: 5290.00s (wall), 42304.64s (cpu)
Begin Timing: Stability
===================================================
Beginning Test for Internal Stability
===================================================
generating davidson guess vectors based on koopmans excitations
    1      4.98e-01     00000 Davidson Iteration
    2      2.56e-02     00000 Davidson Iteration
    3      4.65e-03     00000 Davidson Iteration
    4      6.12e-04     00000 Davidson Iteration
    5      3.16e-04     00000 Davidson Iteration
    6      5.46e-05     00000 Davidson Iteration
    7      5.72e-05     00000 Davidson Converged
converged_eigenvalues
   0.4583
   0.3711
Threshold for negative eigenvalues: -1.0e-05
solution was a local minimum (stable)
===================================================
End Test for Internal Stability
===================================================
Our SCF solution is stable!
Timing for Total SCF: 10243.00s (wall), 81837.65s (cpu)
 Total energy in the final basis set =     -125.9486272136
<S^2> =         -0.000000000
    ==================================================
              The end of Object-Oriented SCFman       
    ==================================================
 
 --------------------------------------------------------------
 
                    Orbital Energies (a.u.)
 --------------------------------------------------------------
 
 Alpha MOs
 -- Occupied --
-24.680  -6.798  -1.229  -0.570  -0.485  -0.469  -0.452  -0.331
 -- Virtual --
 -0.051   0.004   0.014   0.015   0.019   0.038   0.041   0.049
  0.054   0.058   0.058   0.066   0.067   0.068   0.091   0.097
  0.098   0.102   0.111   0.116   0.125   0.127   0.129   0.135
  0.141   0.142   0.148   0.166   0.166   0.174   0.175   0.185
  0.190   0.191   0.200   0.202   0.203   0.212   0.219   0.227
  0.229   0.234   0.240   0.244   0.244   0.272   0.276   0.281
  0.291   0.296   0.307   0.309   0.310   0.315   0.322   0.322
  0.325   0.329   0.332   0.333   0.336   0.339   0.346   0.348
  0.352   0.353   0.380   0.384   0.385   0.393   0.402   0.407
  0.425   0.439   0.439   0.455   0.468   0.474   0.493   0.496
  0.500   0.505   0.514   0.531   0.534   0.541   0.565   0.566
  0.571   0.581   0.588   0.590   0.597   0.604   0.608   0.622
  0.625   0.630   0.630   0.655   0.658   0.663   0.664   0.678
  0.680   0.688   0.695   0.702   0.713   0.723   0.725   0.726
  0.727   0.732   0.744   0.765   0.767   0.770   0.780   0.781
  0.793   0.819   0.820   0.836   0.841   0.844   0.844   0.877
  0.899   0.899   0.904   0.914   0.920   0.926   0.958   0.997
  1.015   1.019   1.038   1.046   1.054   1.071   1.092   1.100
  1.102   1.113   1.120   1.131   1.168   1.186   1.212   1.254
  1.273   1.298   1.302   1.327   1.335   1.340   1.343   1.357
  1.358   1.374   1.403   1.416   1.425   1.425   1.438   1.443
  1.450   1.529   1.529   1.536   1.537   1.582   1.597   1.611
  1.614   1.650   1.676   1.700   1.735   1.745   1.752   1.763
  1.768   1.776   1.852   1.926   1.967   1.987   2.047   2.050
  2.101   2.129   2.135   2.165   2.179   2.384   2.387   2.419
  2.434   2.496   2.524   2.546   2.580   2.621   2.670   2.689
  2.750   2.823   2.877   2.954   3.017   3.104   3.109   3.154
  3.168   3.170   3.243   3.258   3.330   3.335   3.393   3.407
  3.472   3.478   3.512   3.555   3.626   3.658   3.661   3.699
  3.702   3.742   3.866   3.874   3.880   3.901   3.938   3.963
  3.988   3.989   4.008   4.075   4.088   4.181   4.201   4.240
  4.297   4.300   4.385   4.473   4.581   4.593   4.620   4.786
  4.798   4.802   4.971   4.989   5.046   5.120   5.284   5.374
  5.460   5.482   5.537   5.609   5.610   5.641   5.865   5.865
  5.889   5.992   5.993   6.102   6.108   6.240   6.269   6.322
  6.408   6.587   6.695   6.868   6.918   6.941   7.189   7.240
  7.248   7.314   7.529   7.614   7.751   7.761   7.812   7.960
  8.181   8.230   8.429   8.609   8.622   8.682   8.732   8.879
  8.890   8.893   8.918   8.936   8.989   9.014   9.036   9.096
  9.099   9.212   9.294   9.450   9.659   9.720   9.742   9.793
  9.801   9.809   9.837   9.898   9.950   9.952  10.048  10.054
 10.138  10.165  10.473  10.502  10.554  10.691  10.849  10.923
 11.095  11.153  11.198  11.383  11.457  11.626  11.641  11.798
 11.892  12.128  12.132  12.355  12.376  12.474  12.490  12.509
 12.532  12.552  12.777  12.778  12.799  12.808  12.826  12.863
 12.892  12.925  12.977  13.058  13.076  13.154  13.273  13.405
 13.421  13.552  13.921  13.954  14.085  14.253  14.281  14.288
 14.451  14.529  14.710  14.791  14.919  14.960  15.175  15.193
 15.238  15.497  15.617  15.883  16.230  16.363  16.837  16.842
 16.851  16.852  16.996  17.003  17.017  17.084  17.100  17.332
 17.777  17.906  18.063  18.098  18.823  19.213  19.335  19.374
 19.457  19.846  19.949  20.271  20.272  20.457  20.542  20.542
 20.798  20.915  21.164  21.284  22.152  22.160  22.296  22.348
 22.666  23.186  23.544  23.555  23.871  23.938  24.863  25.133
 30.582  30.688  30.966  31.261  32.209  40.820  41.002  41.972
 42.165  42.354  44.645  80.417  91.167  91.169  91.389  91.417
 91.654  91.724  91.901  92.040  92.100  92.269  92.809 203.162
 
 Beta MOs
 -- Occupied --
-24.680  -6.798  -1.229  -0.570  -0.485  -0.469  -0.452  -0.331
 -- Virtual --
 -0.051   0.004   0.014   0.015   0.019   0.038   0.041   0.049
  0.054   0.058   0.058   0.066   0.067   0.068   0.091   0.097
  0.098   0.102   0.111   0.116   0.125   0.127   0.129   0.135
  0.141   0.142   0.148   0.166   0.166   0.174   0.175   0.185
  0.190   0.191   0.200   0.202   0.203   0.212   0.219   0.227
  0.229   0.234   0.240   0.244   0.244   0.272   0.276   0.281
  0.291   0.296   0.307   0.309   0.310   0.315   0.322   0.322
  0.325   0.329   0.332   0.333   0.336   0.339   0.346   0.348
  0.352   0.353   0.380   0.384   0.385   0.393   0.402   0.407
  0.425   0.439   0.439   0.455   0.468   0.474   0.493   0.496
  0.500   0.505   0.514   0.531   0.534   0.541   0.565   0.566
  0.571   0.581   0.588   0.590   0.597   0.604   0.608   0.622
  0.625   0.630   0.630   0.655   0.658   0.663   0.664   0.678
  0.680   0.688   0.695   0.702   0.713   0.723   0.725   0.726
  0.727   0.732   0.744   0.765   0.767   0.770   0.780   0.781
  0.793   0.819   0.820   0.836   0.841   0.844   0.844   0.877
  0.899   0.899   0.904   0.914   0.920   0.926   0.958   0.997
  1.015   1.019   1.038   1.046   1.054   1.071   1.092   1.100
  1.102   1.113   1.120   1.131   1.168   1.186   1.212   1.254
  1.273   1.298   1.302   1.327   1.335   1.340   1.343   1.357
  1.358   1.374   1.403   1.416   1.425   1.425   1.438   1.443
  1.450   1.529   1.529   1.536   1.537   1.582   1.597   1.611
  1.614   1.650   1.676   1.700   1.735   1.745   1.752   1.763
  1.768   1.776   1.852   1.926   1.967   1.987   2.047   2.050
  2.101   2.129   2.135   2.165   2.179   2.384   2.387   2.419
  2.434   2.496   2.524   2.546   2.580   2.621   2.670   2.689
  2.750   2.823   2.877   2.954   3.017   3.104   3.109   3.154
  3.168   3.170   3.243   3.258   3.330   3.335   3.393   3.407
  3.472   3.478   3.512   3.555   3.626   3.658   3.661   3.699
  3.702   3.742   3.866   3.874   3.880   3.901   3.938   3.963
  3.988   3.989   4.008   4.075   4.088   4.181   4.201   4.240
  4.297   4.300   4.385   4.473   4.581   4.593   4.620   4.786
  4.798   4.802   4.971   4.989   5.046   5.120   5.284   5.374
  5.460   5.482   5.537   5.609   5.610   5.641   5.865   5.865
  5.889   5.992   5.993   6.102   6.108   6.240   6.269   6.322
  6.408   6.587   6.695   6.868   6.918   6.941   7.189   7.240
  7.248   7.314   7.529   7.614   7.751   7.761   7.812   7.960
  8.181   8.230   8.429   8.609   8.622   8.682   8.732   8.879
  8.890   8.893   8.918   8.936   8.989   9.014   9.036   9.096
  9.099   9.212   9.294   9.450   9.659   9.720   9.742   9.793
  9.801   9.809   9.837   9.898   9.950   9.952  10.048  10.054
 10.138  10.165  10.473  10.502  10.554  10.691  10.849  10.923
 11.095  11.153  11.198  11.383  11.457  11.626  11.641  11.798
 11.892  12.128  12.132  12.355  12.376  12.474  12.490  12.509
 12.532  12.552  12.777  12.778  12.799  12.808  12.826  12.863
 12.892  12.925  12.977  13.058  13.076  13.154  13.273  13.405
 13.421  13.552  13.921  13.954  14.085  14.253  14.281  14.288
 14.451  14.529  14.710  14.791  14.919  14.960  15.175  15.193
 15.238  15.497  15.617  15.883  16.230  16.363  16.837  16.842
 16.851  16.852  16.996  17.003  17.017  17.084  17.100  17.332
 17.777  17.906  18.063  18.098  18.823  19.213  19.335  19.374
 19.457  19.846  19.949  20.271  20.272  20.457  20.542  20.542
 20.798  20.915  21.164  21.284  22.152  22.160  22.296  22.348
 22.666  23.186  23.544  23.555  23.871  23.938  24.863  25.133
 30.582  30.688  30.966  31.261  32.209  40.820  41.002  41.972
 42.165  42.354  44.645  80.417  91.167  91.169  91.389  91.417
 91.654  91.724  91.901  92.040  92.100  92.269  92.809 203.162
 --------------------------------------------------------------
 
          Ground-State Mulliken Net Atomic Charges

     Atom                 Charge (a.u.)    Spin (a.u.)
  --------------------------------------------------------
      1 B                     0.322011      -0.000000
      2 F                    -0.282634      -0.000000
      3 H                    -0.019688       0.000000
      4 H                    -0.019688       0.000000
  --------------------------------------------------------
  Sum of atomic charges =    -0.000000
  Sum of spin   charges =     0.000000

 -----------------------------------------------------------------
                    Cartesian Multipole Moments
 -----------------------------------------------------------------
    Charge (ESU x 10^10)
                -0.0000
    Dipole Moment (Debye)
         X      -0.0000      Y      -0.0000      Z      -0.7197
       Tot       0.7197
    Quadrupole Moments (Debye-Ang)
        XX     -10.9247     XY      -0.0000     YY     -12.7049
        XZ       0.0000     YZ      -0.0000     ZZ     -14.1165
    Octopole Moments (Debye-Ang^2)
       XXX      -0.0000    XXY      -0.0000    XYY       0.0000
       YYY      -0.0000    XXZ      -5.0841    XYZ      -0.0000
       YYZ      -4.9565    XZZ      -0.0000    YZZ      -0.0000
       ZZZ     -17.8877
    Hexadecapole Moments (Debye-Ang^3)
      XXXX      -9.6493   XXXY       0.0000   XXYY      -6.3102
      XYYY      -0.0000   YYYY     -26.3655   XXXZ      -0.0000
      XXYZ      -0.0000   XYYZ      -0.0000   YYYZ      -0.0000
      XXZZ     -12.8557   XYZZ       0.0000   YYZZ     -15.5960
      XZZZ      -0.0000   YZZZ      -0.0000   ZZZZ     -69.3473
 -----------------------------------------------------------------
Archival summary:
1\1\n0088.mhg0\SP\ProcedureUnspecified\BasisUnspecified\112\yhljason\FriOct3016:36:382020FriOct3016:36:382020\0\\#,ProcedureUnspecified,BasisUnspecified,\\0,1\F\B,1,1.3157\H,2,1.1973,1,117.719\H,2,1.1973,1,117.719,3,-180,0\\\@

 Total job time:  10786.48s(wall), 86119.90s(cpu) 
 Fri Oct 30 16:36:38 2020

        *************************************************************
        *                                                           *
        *  Thank you very much for using Q-Chem.  Have a nice day.  *
        *                                                           *
        *************************************************************


