Q-Chem Developer Version!
                  Welcome to Q-Chem
     A Quantum Leap Into The Future Of Chemistry


 Q-Chem 5.1, Q-Chem, Inc., Pleasanton, CA (2018)

 Yihan Shao,  Zhengting Gan,  E. Epifanovsky,  A. T. B. Gilbert,  M. Wormit,  
 J. Kussmann,  A. W. Lange,  A. Behn,  Jia Deng,  Xintian Feng,  D. Ghosh,  
 M. Goldey,  P. R. Horn,  L. D. Jacobson,  I. Kaliman,  T. Kus,  A. Landau,  
 Jie Liu,  E. I. Proynov,  R. M. Richard,  R. P. Steele,  E. J. Sundstrom,  
 H. L. Woodcock III,  P. M. Zimmerman,  D. Zuev,  B. Albrecht,  E. Alguire,  
 S. A. Baeppler,  D. Barton,  Z. Benda,  Y. A. Bernard,  E. J. Berquist,  
 K. B. Bravaya,  H. Burton,  D. Casanova,  Chun-Min Chang,  Yunqing Chen,  
 A. Chien,  K. D. Closser,  M. P. Coons,  S. Coriani,  S. Dasgupta,  
 A. L. Dempwolff,  M. Diedenhofen,  Hainam Do,  R. G. Edgar,  Po-Tung Fang,  
 S. Faraji,  S. Fatehi,  Qingguo Feng,  K. D. Fenk,  J. Fosso-Tande,  
 Qinghui Ge,  A. Ghysels,  G. Gidofalvi,  J. Gomes,  J. Gonthier,  A. Gunina,  
 D. Hait,  M. W. D. Hanson-Heine,  P. H. P. Harbach,  A. W. Hauser,  
 J. E. Herr,  E. G. Hohenstein,  Z. C. Holden,  Kerwin Hui,  B. C. Huynh,  
 T.-C. Jagau,  Hyunjun Ji,  B. Kaduk,  K. Khistyaev,  Jaehoon Kim,  
 P. Klunzinger,  K. Koh,  D. Kosenkov,  L. Koulias,  T. Kowalczyk,  
 C. M. Krauter,  A. Kunitsa,  Ka Un Lao,  A. Laurent,  K. V. Lawler,  
 Joonho Lee,  D. Lefrancois,  S. Lehtola,  D. S. Levine,  Yi-Pei Li,  
 You-Sheng Lin,  Fenglai Liu,  E. Livshits,  A. Luenser,  P. Manohar,  
 E. Mansoor,  S. F. Manzer,  Shan-Ping Mao,  Yuezhi Mao,  N. Mardirossian,  
 A. V. Marenich,  T. Markovich,  L. A. Martinez-Martinez,  S. A. Maurer,  
 N. J. Mayhall,  S. C. McKenzie,  J.-M. Mewes,  A. F. Morrison,  
 J. W. Mullinax,  K. Nanda,  T. S. Nguyen-Beck,  R. Olivares-Amaya,  
 J. A. Parkhill,  T. M. Perrine,  F. Plasser,  P. Pokhilko,  S. Prager,  
 A. Prociuk,  E. Ramos,  D. R. Rehn,  F. Rob,  M. Schneider,  N. Sergueev,  
 S. M. Sharada,  S. Sharma,  D. W. Small,  T. Stauch,  T. Stein,  
 Yu-Chuan Su,  A. J. W. Thom,  A. Tkatchenko,  T. Tsuchimochi,  N. M. Tubman,  
 L. Vogt,  M. L. Vidal,  O. Vydrov,  M. A. Watson,  J. Wenzel,  
 M. de Wergifosse,  T. A. Wesolowski,  A. White,  J. Witte,  A. Yamada,  
 Jun Yang,  K. Yao,  S. Yeganeh,  S. R. Yost,  Zhi-Qiang You,  A. Zech,  
 Igor Ying Zhang,  Xing Zhang,  Yan Zhao,  Ying Zhu,  B. R. Brooks,  
 G. K. L. Chan,  C. J. Cramer,  M. S. Gordon,  W. J. Hehre,  A. Klamt,  
 M. W. Schmidt,  C. D. Sherrill,  D. G. Truhlar,  A. Aspuru-Guzik,  R. Baer,  
 A. T. Bell,  N. A. Besley,  Jeng-Da Chai,  A. E. DePrince, III,  
 R. A. DiStasio Jr.,  A. Dreuw,  B. D. Dunietz,  T. R. Furlani,  
 Chao-Ping Hsu,  Yousung Jung,  Jing Kong,  D. S. Lambrecht,  WanZhen Liang,  
 C. Ochsenfeld,  V. A. Rassolov,  L. V. Slipchenko,  J. E. Subotnik,  
 T. Van Voorhis,  J. M. Herbert,  A. I. Krylov,  P. M. W. Gill,  M. Head-Gordon

 Contributors to earlier versions of Q-Chem not listed above: 
 R. D. Adamson,  B. Austin,  J. Baker,  G. J. O. Beran,  K. Brandhorst,  
 S. T. Brown,  E. F. C. Byrd,  A. K. Chakraborty,  C.-L. Cheng,  
 Siu Hung Chien,  D. M. Chipman,  D. L. Crittenden,  H. Dachsel,  
 R. J. Doerksen,  A. D. Dutoi,  L. Fusti-Molnar,  W. A. Goddard III,  
 A. Golubeva-Zadorozhnaya,  S. R. Gwaltney,  G. Hawkins,  A. Heyden,  
 S. Hirata,  G. Kedziora,  F. J. Keil,  C. Kelley,  Jihan Kim,  R. A. King,  
 R. Z. Khaliullin,  P. P. Korambath,  W. Kurlancheek,  A. M. Lee,  M. S. Lee,  
 S. V. Levchenko,  Ching Yeh Lin,  D. Liotard,  R. C. Lochan,  I. Lotan,  
 P. E. Maslen,  N. Nair,  D. P. O'Neill,  D. Neuhauser,  E. Neuscamman,  
 C. M. Oana,  R. Olson,  B. Peters,  R. Peverati,  P. A. Pieniazek,  
 Y. M. Rhee,  J. Ritchie,  M. A. Rohrdanz,  E. Rosta,  N. J. Russ,  
 H. F. Schaefer III,  N. E. Schultz,  N. Shenvi,  A. C. Simmonett,  A. Sodt,  
 D. Stuck,  K. S. Thanthiriwatte,  V. Vanovschi,  Tao Wang,  A. Warshel,  
 C. F. Williams,  Q. Wu,  X. Xu,  W. Zhang

 Please cite Q-Chem as follows:
 Y. Shao et al., Mol. Phys. 113, 184-215 (2015)
 DOI: 10.1080/00268976.2014.952696

 Q-Chem 5.1.1 for Intel X86 EM64T Linux

 Parts of Q-Chem use Armadillo 8.300.2 (Tropical Shenanigans).
 http://arma.sourceforge.net/

 Q-Chem begins on Fri Oct 30 15:35:47 2020  

Host: n0070.mhg0
0

     Scratch files written to /local/scratch/users/yhljason/NaH_B97_aug-pc-4.inp20201030131801//
Input Ideriv = 2
Curr. Ideriv = -1
Max.  Ideriv = 2

Checking the input file for inconsistencies... 	...done.

--------------------------------------------------------------
User input:
--------------------------------------------------------------
$molecule
0 1
Na1	0.0000	0.0000	0.0000
H2	0.0000	0.0000	1.8874
$end

$rem
jobtype sp
method B97
xc_grid 000099000590
basis aug-pc-4
max_scf_cycles 200
thresh 14
scf_convergence 8
scf_algorithm gdm
symmetry false
sym_ignore true
unrestricted True
gen_scfman true
internal_stability_iter 15
internal_stability_davidson_iter 200
mem_total 64000
mem_static 1500
n_frozen_core 0
$end



--------------------------------------------------------------
 ----------------------------------------------------------------
             Standard Nuclear Orientation (Angstroms)
    I     Atom           X                Y                Z
 ----------------------------------------------------------------
    1      Na      0.0000000000     0.0000000000     0.0000000000
    2      H       0.0000000000     0.0000000000     1.8874000000
 ----------------------------------------------------------------
 Nuclear Repulsion Energy =     3.0841100555 hartrees
 There are        6 alpha and        6 beta electrons
 Requested basis set is aug-pc-4
 There are 47 shells and 173 basis functions

 Total QAlloc Memory Limit  64000 MB
 Mega-Array Size      1467 MB
 MEM_STATIC part      1500 MB

                       Distance Matrix (Angstroms)
             Na(  1)
   H (  2)  1.887400
 
 A cutoff of  1.0D-14 yielded   1128 shell pairs
 There are     15440 function pairs (     25825 Cartesian)
 
 -------------------------------------------------------
 OpenMP Integral Computing Module                       
 Release: version 1.0, May 2013, Q-Chem Inc. Pittsburgh 
 -------------------------------------------------------
 Integral Job Info:
 Integral job number is                      11
 Integral operator is                         1
 short-range coefficients                     0
 long-range coefficients              100000000
 Omega coefficients                           0
 if combine SR and LR in K                    0
 Integral screening is                        0
 Integral computing path is                   2
 max size of driver memory is           3200000
 size of driver memory is               1704330
 size of scratch memory is             26840125
 max col of scratch BK array              50625
 max len of scratch array in speh3         2114
 max len of scratch index in speh4           50
 max int batch size is                      520
 min int batch size is                       52
 fixed nKL is                                 7
 max L of basis functions is                  4
 order of int derivative is                   0
 number of shells is                         47
 number of basis is                         223
 number of cartesian basis is               223
 number of contracted shell pairs          1128
 number of primitive shell pairs           4705
 maxK2 (contraction) of shell pair          225
 max number of K2 of shell pair               1
 max number of CS2 of shell pair            145
 max number of PS2 of shell pair            231
 mem total for path MDJ                  660646
 -------------------------------------------------------
 Smallest overlap matrix eigenvalue = 2.06E-05

 Scale SEOQF with 1.000000e-02/1.000000e-02/1.000000e-02

 Standard Electronic Orientation quadrupole field applied
 Guess from superposition of atomic densities
 Warning:  Energy on first SCF cycle will be non-variational
 SAD guess density has 12.000000 electrons

 -----------------------------------------------------------------------
  General SCF calculation program by
  Eric Jon Sundstrom, Paul Horn, Yuezhi Mao, Dmitri Zuev, Alec White,
  David Stuck, Shaama M.S., Shane Yost, Joonho Lee, David Small,
  Daniel Levine, Susi Lehtola, Hugh Burton, Evgeny Epifanovsky
 -----------------------------------------------------------------------
 Exchange:     0.1943 Hartree-Fock + 1.0000 B97
 Correlation:  1.0000 B97
 Using Euler-Maclaurin-Lebedev (99,590) quadrature formula
Running Object-Oriented UKS (UHF)
performing a single roothaan step with Fock from read density so that orbitals are available to all algorithms
energy of the guess density (C=0) -162.721038940814
We will preform up to 15 macro iterations over saddle points until a stable solution is found
Energy prior to optimization (guess energy) = -162.794306209522
Begin Timing: Total SCF Calculation
Begin Timing: SCF Single Stationary Point Calculation
begin iterations for algorithm: GDM          
the SCF tolerance is set to 1.00e-08
    1    -162.7943062095      1.57e-01     00000  Descent step
    2    -162.7772601092      2.63e-01     00000 Line search: overstep
    3    -162.8285502645      1.62e-02     00000  Normal BFGS step
    4    -162.8298936791      3.27e-03     00000  Normal BFGS step
    5    -162.8299619095      1.18e-03     00000  Normal BFGS step
    6    -162.8299647539      2.55e-04     00000  Normal BFGS step
    7    -162.8299648833      2.93e-05     00000  Normal BFGS step
    8    -162.8299648859      1.40e-05     00000  Normal BFGS step
    9    -162.8299648863      1.41e-06     00000  Normal BFGS step
   10    -162.8299648863      2.16e-07     00000  Normal BFGS step
   11    -162.8299648863      1.32e-08     00000  Normal BFGS step
   12    -162.8299648863      1.63e-09     00000 Convergence criterion met
Timing for Single Stationary Point: 82.00s (wall), 647.34s (cpu)
Begin Timing: Stability
===================================================
Beginning Test for Internal Stability
===================================================
generating davidson guess vectors based on koopmans excitations
    1      4.73e-01     00000 Davidson Iteration
    2      1.74e-01     00000 Davidson Iteration
    3      1.82e-02     00000 Davidson Iteration
    4      1.83e-03     00000 Davidson Iteration
    5      5.18e-04     00000 Davidson Iteration
    6      7.85e-05     00000 Davidson Iteration
    7      9.72e-05     00000 Davidson Converged
converged_eigenvalues
   0.1643
   0.2624
Threshold for negative eigenvalues: -1.0e-05
solution was a local minimum (stable)
===================================================
End Test for Internal Stability
===================================================
Our SCF solution is stable!
Timing for Total SCF: 156.00s (wall), 1234.26s (cpu)
 Total energy in the final basis set =     -162.8299648863
<S^2> =          0.000000000
    ==================================================
              The end of Object-Oriented SCFman       
    ==================================================
 
 --------------------------------------------------------------
 
                    Orbital Energies (a.u.)
 --------------------------------------------------------------
 
 Alpha MOs
 -- Occupied --
-38.388  -2.213  -1.139  -1.139  -1.136  -0.180
 -- Virtual --
 -0.051  -0.004  -0.004   0.003   0.013   0.021   0.021   0.027
  0.034   0.043   0.043   0.043   0.043   0.052   0.070   0.079
  0.079   0.084   0.087   0.087   0.088   0.088   0.089   0.089
  0.106   0.126   0.136   0.136   0.139   0.139   0.139   0.139
  0.141   0.141   0.142   0.142   0.142   0.187   0.210   0.210
  0.211   0.228   0.228   0.266   0.266   0.288   0.304   0.345
  0.345   0.359   0.374   0.374   0.381   0.381   0.431   0.431
  0.436   0.465   0.465   0.519   0.519   0.546   0.546   0.546
  0.588   0.594   0.594   0.604   0.604   0.611   0.611   0.649
  0.683   0.698   0.698   0.862   0.862   0.868   0.965   0.965
  1.001   1.001   1.133   1.133   1.165   1.303   1.305   1.305
  1.409   1.421   1.421   1.442   1.442   1.481   1.481   1.508
  1.508   1.540   1.540   1.557   1.580   1.580   1.845   1.874
  1.874   2.103   2.965   2.965   3.072   3.072   3.196   3.419
  3.458   3.458   3.674   3.674   3.750   3.805   3.876   3.876
  4.046   4.046   4.094   4.094   4.114   4.115   4.115   4.259
  4.259   4.678   5.723   5.723   5.823   5.823   6.385   8.411
  8.411   8.651   8.871   8.871   8.991   8.991   9.334  10.383
 12.453  12.453  12.570  12.570  12.773  12.773  12.897  16.976
 16.976  16.977  16.977  16.977  16.977  16.980  16.980  16.988
 23.334  23.334  23.579  38.666  91.062  91.062  91.237
 
 Beta MOs
 -- Occupied --
-38.388  -2.213  -1.139  -1.139  -1.136  -0.180
 -- Virtual --
 -0.051  -0.004  -0.004   0.003   0.013   0.021   0.021   0.027
  0.034   0.043   0.043   0.043   0.043   0.052   0.070   0.079
  0.079   0.084   0.087   0.087   0.088   0.088   0.089   0.089
  0.106   0.126   0.136   0.136   0.139   0.139   0.139   0.139
  0.141   0.141   0.142   0.142   0.142   0.187   0.210   0.210
  0.211   0.228   0.228   0.266   0.266   0.288   0.304   0.345
  0.345   0.359   0.374   0.374   0.381   0.381   0.431   0.431
  0.436   0.465   0.465   0.519   0.519   0.546   0.546   0.546
  0.588   0.594   0.594   0.604   0.604   0.611   0.611   0.649
  0.683   0.698   0.698   0.862   0.862   0.868   0.965   0.965
  1.001   1.001   1.133   1.133   1.165   1.303   1.305   1.305
  1.409   1.421   1.421   1.442   1.442   1.481   1.481   1.508
  1.508   1.540   1.540   1.557   1.580   1.580   1.845   1.874
  1.874   2.103   2.965   2.965   3.072   3.072   3.196   3.419
  3.458   3.458   3.674   3.674   3.750   3.805   3.876   3.876
  4.046   4.046   4.094   4.094   4.114   4.115   4.115   4.259
  4.259   4.678   5.723   5.723   5.823   5.823   6.385   8.411
  8.411   8.651   8.871   8.871   8.991   8.991   9.334  10.383
 12.453  12.453  12.570  12.570  12.773  12.773  12.897  16.976
 16.976  16.977  16.977  16.977  16.977  16.980  16.980  16.988
 23.334  23.334  23.579  38.666  91.062  91.062  91.237
 --------------------------------------------------------------
 
          Ground-State Mulliken Net Atomic Charges

     Atom                 Charge (a.u.)    Spin (a.u.)
  --------------------------------------------------------
      1 Na                    0.701612      -0.000000
      2 H                    -0.701612       0.000000
  --------------------------------------------------------
  Sum of atomic charges =    -0.000000
  Sum of spin   charges =    -0.000000

 -----------------------------------------------------------------
                    Cartesian Multipole Moments
 -----------------------------------------------------------------
    Charge (ESU x 10^10)
                 0.0000
    Dipole Moment (Debye)
         X       0.0000      Y       0.0000      Z      -6.1436
       Tot       6.1436
    Quadrupole Moments (Debye-Ang)
        XX      -8.7018     XY       0.0000     YY      -8.7018
        XZ       0.0000     YZ      -0.0000     ZZ     -17.8119
    Octopole Moments (Debye-Ang^2)
       XXX       0.0000    XXY       0.0000    XYY       0.0000
       YYY       0.0000    XXZ      -7.5432    XYZ       0.0000
       YYZ      -7.5432    XZZ       0.0000    YZZ       0.0000
       ZZZ     -35.9685
    Hexadecapole Moments (Debye-Ang^3)
      XXXX     -17.8194   XXXY       0.0000   XXYY      -5.9398
      XYYY       0.0000   YYYY     -17.8194   XXXZ       0.0000
      XXYZ       0.0000   XYYZ       0.0000   YYYZ       0.0000
      XXZZ     -17.7802   XYZZ       0.0000   YYZZ     -17.7802
      XZZZ       0.0000   YZZZ       0.0000   ZZZZ    -108.8233
 -----------------------------------------------------------------
Archival summary:
1\1\n0070.mhg0\SP\ProcedureUnspecified\BasisUnspecified\a11\yhljason\FriOct3015:38:332020FriOct3015:38:332020\0\\#,ProcedureUnspecified,BasisUnspecified,\\0,1\Na\H,1,1.8874\\\@

 Total job time:  166.00s(wall), 1312.79s(cpu) 
 Fri Oct 30 15:38:33 2020

        *************************************************************
        *                                                           *
        *  Thank you very much for using Q-Chem.  Have a nice day.  *
        *                                                           *
        *************************************************************


