Q-Chem Developer Version!
                  Welcome to Q-Chem
     A Quantum Leap Into The Future Of Chemistry


 Q-Chem 5.1, Q-Chem, Inc., Pleasanton, CA (2018)

 Yihan Shao,  Zhengting Gan,  E. Epifanovsky,  A. T. B. Gilbert,  M. Wormit,  
 J. Kussmann,  A. W. Lange,  A. Behn,  Jia Deng,  Xintian Feng,  D. Ghosh,  
 M. Goldey,  P. R. Horn,  L. D. Jacobson,  I. Kaliman,  T. Kus,  A. Landau,  
 Jie Liu,  E. I. Proynov,  R. M. Richard,  R. P. Steele,  E. J. Sundstrom,  
 H. L. Woodcock III,  P. M. Zimmerman,  D. Zuev,  B. Albrecht,  E. Alguire,  
 S. A. Baeppler,  D. Barton,  Z. Benda,  Y. A. Bernard,  E. J. Berquist,  
 K. B. Bravaya,  H. Burton,  D. Casanova,  Chun-Min Chang,  Yunqing Chen,  
 A. Chien,  K. D. Closser,  M. P. Coons,  S. Coriani,  S. Dasgupta,  
 A. L. Dempwolff,  M. Diedenhofen,  Hainam Do,  R. G. Edgar,  Po-Tung Fang,  
 S. Faraji,  S. Fatehi,  Qingguo Feng,  K. D. Fenk,  J. Fosso-Tande,  
 Qinghui Ge,  A. Ghysels,  G. Gidofalvi,  J. Gomes,  J. Gonthier,  A. Gunina,  
 D. Hait,  M. W. D. Hanson-Heine,  P. H. P. Harbach,  A. W. Hauser,  
 J. E. Herr,  E. G. Hohenstein,  Z. C. Holden,  Kerwin Hui,  B. C. Huynh,  
 T.-C. Jagau,  Hyunjun Ji,  B. Kaduk,  K. Khistyaev,  Jaehoon Kim,  
 P. Klunzinger,  K. Koh,  D. Kosenkov,  L. Koulias,  T. Kowalczyk,  
 C. M. Krauter,  A. Kunitsa,  Ka Un Lao,  A. Laurent,  K. V. Lawler,  
 Joonho Lee,  D. Lefrancois,  S. Lehtola,  D. S. Levine,  Yi-Pei Li,  
 You-Sheng Lin,  Fenglai Liu,  E. Livshits,  A. Luenser,  P. Manohar,  
 E. Mansoor,  S. F. Manzer,  Shan-Ping Mao,  Yuezhi Mao,  N. Mardirossian,  
 A. V. Marenich,  T. Markovich,  L. A. Martinez-Martinez,  S. A. Maurer,  
 N. J. Mayhall,  S. C. McKenzie,  J.-M. Mewes,  A. F. Morrison,  
 J. W. Mullinax,  K. Nanda,  T. S. Nguyen-Beck,  R. Olivares-Amaya,  
 J. A. Parkhill,  T. M. Perrine,  F. Plasser,  P. Pokhilko,  S. Prager,  
 A. Prociuk,  E. Ramos,  D. R. Rehn,  F. Rob,  M. Schneider,  N. Sergueev,  
 S. M. Sharada,  S. Sharma,  D. W. Small,  T. Stauch,  T. Stein,  
 Yu-Chuan Su,  A. J. W. Thom,  A. Tkatchenko,  T. Tsuchimochi,  N. M. Tubman,  
 L. Vogt,  M. L. Vidal,  O. Vydrov,  M. A. Watson,  J. Wenzel,  
 M. de Wergifosse,  T. A. Wesolowski,  A. White,  J. Witte,  A. Yamada,  
 Jun Yang,  K. Yao,  S. Yeganeh,  S. R. Yost,  Zhi-Qiang You,  A. Zech,  
 Igor Ying Zhang,  Xing Zhang,  Yan Zhao,  Ying Zhu,  B. R. Brooks,  
 G. K. L. Chan,  C. J. Cramer,  M. S. Gordon,  W. J. Hehre,  A. Klamt,  
 M. W. Schmidt,  C. D. Sherrill,  D. G. Truhlar,  A. Aspuru-Guzik,  R. Baer,  
 A. T. Bell,  N. A. Besley,  Jeng-Da Chai,  A. E. DePrince, III,  
 R. A. DiStasio Jr.,  A. Dreuw,  B. D. Dunietz,  T. R. Furlani,  
 Chao-Ping Hsu,  Yousung Jung,  Jing Kong,  D. S. Lambrecht,  WanZhen Liang,  
 C. Ochsenfeld,  V. A. Rassolov,  L. V. Slipchenko,  J. E. Subotnik,  
 T. Van Voorhis,  J. M. Herbert,  A. I. Krylov,  P. M. W. Gill,  M. Head-Gordon

 Contributors to earlier versions of Q-Chem not listed above: 
 R. D. Adamson,  B. Austin,  J. Baker,  G. J. O. Beran,  K. Brandhorst,  
 S. T. Brown,  E. F. C. Byrd,  A. K. Chakraborty,  C.-L. Cheng,  
 Siu Hung Chien,  D. M. Chipman,  D. L. Crittenden,  H. Dachsel,  
 R. J. Doerksen,  A. D. Dutoi,  L. Fusti-Molnar,  W. A. Goddard III,  
 A. Golubeva-Zadorozhnaya,  S. R. Gwaltney,  G. Hawkins,  A. Heyden,  
 S. Hirata,  G. Kedziora,  F. J. Keil,  C. Kelley,  Jihan Kim,  R. A. King,  
 R. Z. Khaliullin,  P. P. Korambath,  W. Kurlancheek,  A. M. Lee,  M. S. Lee,  
 S. V. Levchenko,  Ching Yeh Lin,  D. Liotard,  R. C. Lochan,  I. Lotan,  
 P. E. Maslen,  N. Nair,  D. P. O'Neill,  D. Neuhauser,  E. Neuscamman,  
 C. M. Oana,  R. Olson,  B. Peters,  R. Peverati,  P. A. Pieniazek,  
 Y. M. Rhee,  J. Ritchie,  M. A. Rohrdanz,  E. Rosta,  N. J. Russ,  
 H. F. Schaefer III,  N. E. Schultz,  N. Shenvi,  A. C. Simmonett,  A. Sodt,  
 D. Stuck,  K. S. Thanthiriwatte,  V. Vanovschi,  Tao Wang,  A. Warshel,  
 C. F. Williams,  Q. Wu,  X. Xu,  W. Zhang

 Please cite Q-Chem as follows:
 Y. Shao et al., Mol. Phys. 113, 184-215 (2015)
 DOI: 10.1080/00268976.2014.952696

 Q-Chem 5.1.1 for Intel X86 EM64T Linux

 Parts of Q-Chem use Armadillo 8.300.2 (Tropical Shenanigans).
 http://arma.sourceforge.net/

 Q-Chem begins on Fri Oct 30 16:02:23 2020  

Host: n0067.mhg0
0

     Scratch files written to /local/scratch/users/yhljason/SiH3Cl_B97_aug-pc-4.inp20201030131803//
Input Ideriv = 2
Curr. Ideriv = -1
Max.  Ideriv = 2

Checking the input file for inconsistencies... 	...done.

--------------------------------------------------------------
User input:
--------------------------------------------------------------
$molecule
0 1
Si1     0.0000  0.0000  -0.9844
Cl2     0.0000  0.0000  1.0661
H3      0.0000  1.4004  -1.4474
H4      1.2128  -0.7002 -1.4474
H5      -1.2128 -0.7002 -1.4474
$end

$rem
jobtype sp
method B97
xc_grid 000099000590
basis aug-pc-4
max_scf_cycles 200
thresh 14
scf_convergence 8
scf_algorithm gdm
symmetry false
sym_ignore true
unrestricted True
gen_scfman true
internal_stability_iter 15
internal_stability_davidson_iter 200
mem_total 64000
mem_static 1500
n_frozen_core 0
$end



--------------------------------------------------------------
 ----------------------------------------------------------------
             Standard Nuclear Orientation (Angstroms)
    I     Atom           X                Y                Z
 ----------------------------------------------------------------
    1      Si      0.0000000000     0.0000000000    -0.9844000000
    2      Cl      0.0000000000     0.0000000000     1.0661000000
    3      H       0.0000000000     1.4004000000    -1.4474000000
    4      H       1.2128000000    -0.7002000000    -1.4474000000
    5      H      -1.2128000000    -0.7002000000    -1.4474000000
 ----------------------------------------------------------------
 Nuclear Repulsion Energy =    86.5238174982 hartrees
 There are       17 alpha and       17 beta electrons
 Requested basis set is aug-pc-4
 There are 134 shells and 546 basis functions

 Total QAlloc Memory Limit  64000 MB
 Mega-Array Size      1467 MB
 MEM_STATIC part      1500 MB

                       Distance Matrix (Angstroms)
             Si(  1)   Cl(  2)   H (  3)   H (  4)
   Cl(  2)  2.050500
   H (  3)  1.474954  2.877291
   H (  4)  1.474969  2.877298  2.425573
   H (  5)  1.474969  2.877298  2.425573  2.425600
 
 A cutoff of  1.0D-14 yielded   8729 shell pairs
 There are    146831 function pairs (    267870 Cartesian)
 
 -------------------------------------------------------
 OpenMP Integral Computing Module                       
 Release: version 1.0, May 2013, Q-Chem Inc. Pittsburgh 
 -------------------------------------------------------
 Integral Job Info:
 Integral job number is                      11
 Integral operator is                         1
 short-range coefficients                     0
 long-range coefficients              100000000
 Omega coefficients                           0
 if combine SR and LR in K                    0
 Integral screening is                        0
 Integral computing path is                   2
 max size of driver memory is           6400000
 size of driver memory is               5498286
 size of scratch memory is             27847117
 max col of scratch BK array             194481
 max len of scratch array in speh3         5572
 max len of scratch index in speh4           72
 max int batch size is                      520
 min int batch size is                       52
 fixed nKL is                                 7
 max L of basis functions is                  5
 order of int derivative is                   0
 number of shells is                        134
 number of basis is                         735
 number of cartesian basis is               735
 number of contracted shell pairs          8729
 number of primitive shell pairs          26567
 maxK2 (contraction) of shell pair          225
 max number of K2 of shell pair               1
 max number of CS2 of shell pair            958
 max number of PS2 of shell pair           1284
 mem total for path MDJ                 1284904
 -------------------------------------------------------
 Smallest overlap matrix eigenvalue = 1.33E-06

 Scale SEOQF with 1.000000e-01/1.000000e-01/1.000000e-01

 Standard Electronic Orientation quadrupole field applied
 Nucleus-field energy     =    -0.0000000039 hartrees
 Guess from superposition of atomic densities
 Warning:  Energy on first SCF cycle will be non-variational
 SAD guess density has 34.000000 electrons

 -----------------------------------------------------------------------
  General SCF calculation program by
  Eric Jon Sundstrom, Paul Horn, Yuezhi Mao, Dmitri Zuev, Alec White,
  David Stuck, Shaama M.S., Shane Yost, Joonho Lee, David Small,
  Daniel Levine, Susi Lehtola, Hugh Burton, Evgeny Epifanovsky
 -----------------------------------------------------------------------
 Exchange:     0.1943 Hartree-Fock + 1.0000 B97
 Correlation:  1.0000 B97
 Using Euler-Maclaurin-Lebedev (99,590) quadrature formula
Running Object-Oriented UKS (UHF)
performing a single roothaan step with Fock from read density so that orbitals are available to all algorithms
 LTot/LBra/LKet=          19           9          10
 LTot/LBra/LKet=          19           9          10
 LTot/LBra/LKet=          20          10          10
 LTot/LBra/LKet=          20          10          10
 LTot/LBra/LKet=          20          10          10
 LTot/LBra/LKet=          20          10          10

 Q-Chem warning:

 in GenH1, ket side, handled with new code

 LTot/LBra/LKet=          20          10          10

 Q-Chem warning:

 in GenH1, ket side, handled with new code


 Q-Chem warning:

 in GenH1, ket side, handled with new code

 LTot/LBra/LKet=          19           9          10

 Q-Chem warning:

 in GenH1, ket side, handled with new code


 Q-Chem warning:

 in GenH1, ket side, handled with new code


 Q-Chem warning:

 in GenH1, ket side, handled with new code


 Q-Chem warning:

 in GenH1, ket side, handled with new code


 Q-Chem warning:

 in GenH1, ket side, handled with new code

 LTot/LBra/LBra=          19           9           9

 Q-Chem warning:

 in GenH1, bra side, handled with new code

energy of the guess density (C=0) -751.509116044914
We will preform up to 15 macro iterations over saddle points until a stable solution is found
Energy prior to optimization (guess energy) = -751.476592857681
Begin Timing: Total SCF Calculation
Begin Timing: SCF Single Stationary Point Calculation
begin iterations for algorithm: GDM          
the SCF tolerance is set to 1.00e-08
    1    -751.4765928577      1.51e-02     00000  Normal BFGS step
    2    -751.4795991359      2.60e-02     00000  Normal BFGS step
    3    -751.4839322138      4.57e-03     00000  Normal BFGS step
    4    -751.4840522461      1.65e-03     00000  Normal BFGS step
    5    -751.4841109316      4.13e-04     00000  Normal BFGS step
    6    -751.4841133122      2.53e-04     00000  Normal BFGS step
    7    -751.4841143040      1.72e-05     00000  Normal BFGS step
    8    -751.4841143078      5.27e-06     00000  Normal BFGS step
    9    -751.4841143083      4.79e-07     00000  Normal BFGS step
   10    -751.4841143083      2.28e-07     00000  Normal BFGS step
   11    -751.4841143083      7.36e-09     00000 Convergence criterion met
Timing for Single Stationary Point: 10999.00s (wall), 87440.90s (cpu)
Begin Timing: Stability
===================================================
Beginning Test for Internal Stability
===================================================
generating davidson guess vectors based on koopmans excitations
    1      7.41e-01     00000 Davidson Iteration
    2      3.11e-01     00000 Davidson Iteration
    3      4.45e-02     00000 Davidson Iteration
    4      1.28e-02     00000 Davidson Iteration
    5      3.87e-03     00000 Davidson Iteration
    6      2.09e-03     00000 Davidson Iteration
    7      8.25e-04     00000 Davidson Iteration
    8      3.60e-04     00000 Davidson Iteration
    9      2.67e-04     00000 Davidson Iteration
   10      2.55e-04     00000 Davidson Iteration
   11      1.32e-04     00000 Davidson Iteration
   12      4.97e-05     00000 Davidson Converged
converged_eigenvalues
   0.4802
   0.5269
Threshold for negative eigenvalues: -1.0e-05
solution was a local minimum (stable)
===================================================
End Test for Internal Stability
===================================================
Our SCF solution is stable!
Timing for Total SCF: 27109.00s (wall), 215500.01s (cpu)
 Total energy in the final basis set =     -751.4841143083
<S^2> =         -0.000000000
    ==================================================
              The end of Object-Oriented SCFman       
    ==================================================
 
 --------------------------------------------------------------
 
                    Orbital Energies (a.u.)
 --------------------------------------------------------------
 
 Alpha MOs
 -- Occupied --
******* -66.072  -9.453  -7.206  -7.201  -7.201  -5.305  -3.657
 -3.654  -3.654  -0.830  -0.550  -0.395  -0.386  -0.386  -0.320
 -0.320
 -- Virtual --
 -0.020  -0.006   0.013   0.013   0.022   0.022   0.023   0.032
  0.041   0.041   0.044   0.050   0.050   0.064   0.064   0.073
  0.082   0.084   0.084   0.097   0.103   0.103   0.114   0.119
  0.121   0.121   0.131   0.131   0.133   0.146   0.146   0.153
  0.164   0.165   0.165   0.169   0.169   0.173   0.178   0.185
  0.187   0.187   0.191   0.191   0.212   0.219   0.219   0.242
  0.242   0.253   0.254   0.256   0.256   0.272   0.273   0.273
  0.279   0.279   0.281   0.281   0.288   0.292   0.302   0.302
  0.304   0.315   0.315   0.322   0.333   0.340   0.340   0.344
  0.347   0.347   0.365   0.371   0.371   0.374   0.387   0.389
  0.389   0.399   0.399   0.412   0.412   0.432   0.432   0.434
  0.441   0.447   0.447   0.455   0.470   0.470   0.473   0.485
  0.496   0.496   0.499   0.499   0.500   0.517   0.517   0.524
  0.524   0.527   0.534   0.534   0.535   0.562   0.565   0.567
  0.567   0.571   0.572   0.581   0.589   0.594   0.595   0.595
  0.600   0.600   0.619   0.629   0.629   0.644   0.644   0.647
  0.652   0.652   0.657   0.669   0.684   0.684   0.685   0.701
  0.706   0.708   0.708   0.719   0.719   0.730   0.755   0.755
  0.763   0.763   0.765   0.782   0.782   0.794   0.809   0.809
  0.814   0.818   0.818   0.828   0.829   0.829   0.835   0.845
  0.845   0.875   0.875   0.875   0.880   0.886   0.886   0.902
  0.922   0.929   0.929   0.940   0.943   0.943   0.952   0.952
  0.977   0.977   0.989   0.989   0.994   1.004   1.004   1.024
  1.033   1.033   1.049   1.088   1.089   1.089   1.106   1.106
  1.125   1.125   1.127   1.137   1.137   1.155   1.161   1.161
  1.177   1.180   1.218   1.218   1.277   1.277   1.296   1.304
  1.332   1.332   1.363   1.375   1.375   1.431   1.436   1.436
  1.455   1.459   1.508   1.522   1.522   1.584   1.586   1.614
  1.614   1.635   1.653   1.653   1.670   1.670   1.671   1.710
  1.710   1.712   1.811   1.845   1.845   1.860   1.870   1.870
  1.937   1.937   2.013   2.013   2.053   2.111   2.184   2.277
  2.277   2.290   2.290   2.308   2.383   2.383   2.423   2.423
  2.475   2.491   2.514   2.514   2.538   2.538   2.574   2.606
  2.606   2.640   2.640   2.686   2.715   2.715   2.761   2.793
  2.865   2.865   2.951   2.969   2.969   2.976   3.097   3.135
  3.135   3.146   3.146   3.187   3.208   3.209   3.336   3.336
  3.391   3.391   3.412   3.412   3.424   3.438   3.438   3.538
  3.543   3.577   3.577   3.584   3.641   3.657   3.657   3.677
  3.681   3.681   3.709   3.761   3.765   3.765   3.867   3.883
  3.883   3.960   3.960   3.986   4.001   4.001   4.066   4.084
  4.084   4.131   4.209   4.264   4.264   4.394   4.397   4.397
  4.471   4.662   4.662   4.800   4.820   4.820   4.849   4.946
  4.947   5.011   5.074   5.074   5.122   5.122   5.184   5.184
  5.274   5.361   5.370   5.382   5.382   5.517   5.526   5.526
  5.606   5.606   5.773   5.773   5.788   5.788   5.797   5.817
  5.857   5.857   5.914   5.916   6.017   6.017   6.184   6.184
  6.278   6.278   6.445   6.499   6.499   6.591   6.591   6.761
  6.895   6.909   6.909   7.068   7.068   7.133   7.173   7.333
  7.333   7.491   7.491   7.537   8.532   8.593   8.593   8.680
  8.704   8.704   8.944   8.944   8.977   8.977   9.003   9.003
  9.018   9.100   9.100   9.159   9.231   9.231   9.247   9.262
  9.262   9.266   9.385   9.457   9.457   9.483   9.483   9.548
  9.548   9.551   9.627   9.820   9.820  10.126  10.126  10.226
 10.226  10.270  10.448  10.715  10.952  11.598  11.598  12.334
 12.428  12.428  12.466  12.466  12.507  12.625  12.716  12.716
 12.810  12.877  12.877  12.998  13.040  13.051  13.051  13.073
 13.147  13.147  13.214  13.226  13.226  13.282  13.282  13.349
 13.384  13.384  13.486  15.603  15.603  16.026  16.292  16.292
 16.775  16.809  16.817  16.817  16.820  16.820  16.821  16.821
 16.849  16.849  16.864  16.864  16.888  16.981  16.981  17.011
 17.179  17.179  17.270  17.450  17.486  17.486  17.689  17.750
 17.750  17.883  17.883  17.998  17.998  18.041  18.041  18.466
 23.439  23.476  23.476  23.482  23.548  23.555  23.555  24.040
 24.040  25.561  39.736  39.955  39.955  40.096  55.694  55.694
 55.938  56.131  56.131  66.228  66.228  66.309  66.309  66.564
 91.097  91.121  91.121  91.173  91.181  91.181  91.532  91.532
 91.702
 
 Beta MOs
 -- Occupied --
******* -66.072  -9.453  -7.206  -7.201  -7.201  -5.305  -3.657
 -3.654  -3.654  -0.830  -0.550  -0.395  -0.386  -0.386  -0.320
 -0.320
 -- Virtual --
 -0.020  -0.006   0.013   0.013   0.022   0.022   0.023   0.032
  0.041   0.041   0.044   0.050   0.050   0.064   0.064   0.073
  0.082   0.084   0.084   0.097   0.103   0.103   0.114   0.119
  0.121   0.121   0.131   0.131   0.133   0.146   0.146   0.153
  0.164   0.165   0.165   0.169   0.169   0.173   0.178   0.185
  0.187   0.187   0.191   0.191   0.212   0.219   0.219   0.242
  0.242   0.253   0.254   0.256   0.256   0.272   0.273   0.273
  0.279   0.279   0.281   0.281   0.288   0.292   0.302   0.302
  0.304   0.315   0.315   0.322   0.333   0.340   0.340   0.344
  0.347   0.347   0.365   0.371   0.371   0.374   0.387   0.389
  0.389   0.399   0.399   0.412   0.412   0.432   0.432   0.434
  0.441   0.447   0.447   0.455   0.470   0.470   0.473   0.485
  0.496   0.496   0.499   0.499   0.500   0.517   0.517   0.524
  0.524   0.527   0.534   0.534   0.535   0.562   0.565   0.567
  0.567   0.571   0.572   0.581   0.589   0.594   0.595   0.595
  0.600   0.600   0.619   0.629   0.629   0.644   0.644   0.647
  0.652   0.652   0.657   0.669   0.684   0.684   0.685   0.701
  0.706   0.708   0.708   0.719   0.719   0.730   0.755   0.755
  0.763   0.763   0.765   0.782   0.782   0.794   0.809   0.809
  0.814   0.818   0.818   0.828   0.829   0.829   0.835   0.845
  0.845   0.875   0.875   0.875   0.880   0.886   0.886   0.902
  0.922   0.929   0.929   0.940   0.943   0.943   0.952   0.952
  0.977   0.977   0.989   0.989   0.994   1.004   1.004   1.024
  1.033   1.033   1.049   1.088   1.089   1.089   1.106   1.106
  1.125   1.125   1.127   1.137   1.137   1.155   1.161   1.161
  1.177   1.180   1.218   1.218   1.277   1.277   1.296   1.304
  1.332   1.332   1.363   1.375   1.375   1.431   1.436   1.436
  1.455   1.459   1.508   1.522   1.522   1.584   1.586   1.614
  1.614   1.635   1.653   1.653   1.670   1.670   1.671   1.710
  1.710   1.712   1.811   1.845   1.845   1.860   1.870   1.870
  1.937   1.937   2.013   2.013   2.053   2.111   2.184   2.277
  2.277   2.290   2.290   2.308   2.383   2.383   2.423   2.423
  2.475   2.491   2.514   2.514   2.538   2.538   2.574   2.606
  2.606   2.640   2.640   2.686   2.715   2.715   2.761   2.793
  2.865   2.865   2.951   2.969   2.969   2.976   3.097   3.135
  3.135   3.146   3.146   3.187   3.208   3.209   3.336   3.336
  3.391   3.391   3.412   3.412   3.424   3.438   3.438   3.538
  3.543   3.577   3.577   3.584   3.641   3.657   3.657   3.677
  3.681   3.681   3.709   3.761   3.765   3.765   3.867   3.883
  3.883   3.960   3.960   3.986   4.001   4.001   4.066   4.084
  4.084   4.131   4.209   4.264   4.264   4.394   4.397   4.397
  4.471   4.662   4.662   4.800   4.820   4.820   4.849   4.946
  4.947   5.011   5.074   5.074   5.122   5.122   5.184   5.184
  5.274   5.361   5.370   5.382   5.382   5.517   5.526   5.526
  5.606   5.606   5.773   5.773   5.788   5.788   5.797   5.817
  5.857   5.857   5.914   5.916   6.017   6.017   6.184   6.184
  6.278   6.278   6.445   6.499   6.499   6.591   6.591   6.761
  6.895   6.909   6.909   7.068   7.068   7.133   7.173   7.333
  7.333   7.491   7.491   7.537   8.532   8.593   8.593   8.680
  8.704   8.704   8.944   8.944   8.977   8.977   9.003   9.003
  9.018   9.100   9.100   9.159   9.231   9.231   9.247   9.262
  9.262   9.266   9.385   9.457   9.457   9.483   9.483   9.548
  9.548   9.551   9.627   9.820   9.820  10.126  10.126  10.226
 10.226  10.270  10.448  10.715  10.952  11.598  11.598  12.334
 12.428  12.428  12.466  12.466  12.507  12.625  12.716  12.716
 12.810  12.877  12.877  12.998  13.040  13.051  13.051  13.073
 13.147  13.147  13.214  13.226  13.226  13.282  13.282  13.349
 13.384  13.384  13.486  15.603  15.603  16.026  16.292  16.292
 16.775  16.809  16.817  16.817  16.820  16.820  16.821  16.821
 16.849  16.849  16.864  16.864  16.888  16.981  16.981  17.011
 17.179  17.179  17.270  17.450  17.486  17.486  17.689  17.750
 17.750  17.883  17.883  17.998  17.998  18.041  18.041  18.466
 23.439  23.476  23.476  23.482  23.548  23.555  23.555  24.040
 24.040  25.561  39.736  39.955  39.955  40.096  55.694  55.694
 55.938  56.131  56.131  66.228  66.228  66.309  66.309  66.564
 91.097  91.121  91.121  91.173  91.181  91.181  91.532  91.532
 91.702
 --------------------------------------------------------------
 
          Ground-State Mulliken Net Atomic Charges

     Atom                 Charge (a.u.)    Spin (a.u.)
  --------------------------------------------------------
      1 Si                    0.594144      -0.000000
      2 Cl                   -0.192545       0.000000
      3 H                    -0.133858       0.000000
      4 H                    -0.133870       0.000000
      5 H                    -0.133870       0.000000
  --------------------------------------------------------
  Sum of atomic charges =    -0.000000
  Sum of spin   charges =    -0.000000

 -----------------------------------------------------------------
                    Cartesian Multipole Moments
 -----------------------------------------------------------------
    Charge (ESU x 10^10)
                 0.0000
    Dipole Moment (Debye)
         X      -0.0000      Y       0.0000      Z      -1.2675
       Tot       1.2675
    Quadrupole Moments (Debye-Ang)
        XX     -27.8506     XY       0.0000     YY     -27.8506
        XZ       0.0000     YZ      -0.0000     ZZ     -27.0910
    Octopole Moments (Debye-Ang^2)
       XXX       0.0000    XXY       0.6659    XYY       0.0000
       YYY      -0.6658    XXZ       2.8556    XYZ      -0.0000
       YYZ       2.8556    XZZ      -0.0000    YZZ       0.0000
       ZZZ       7.0930
    Hexadecapole Moments (Debye-Ang^3)
      XXXX     -54.4102   XXXY       0.0000   XXYY     -18.1366
      XYYY       0.0000   YYYY     -54.4096   XXXZ      -0.0000
      XXYZ      -0.6332   XYYZ       0.0000   YYYZ       0.6330
      XXZZ     -49.0196   XYZZ       0.0000   YYZZ     -49.0194
      XZZZ       0.0000   YZZZ      -0.0001   ZZZZ    -216.8621
 -----------------------------------------------------------------
Archival summary:
1\1\n0067.mhg0\SP\ProcedureUnspecified\BasisUnspecified\l1i13\yhljason\FriOct3023:53:192020FriOct3023:53:192020\0\\#,ProcedureUnspecified,BasisUnspecified,\\0,1\Si\H,1,1.47495\H,1,1.47497,2,110.621\H,1,1.47497,2,110.621,3,122.934,0\Cl,1,2.0505,2,108.295,3,-118.533,0\\\@

 Total job time:  28255.78s(wall), 224546.06s(cpu) 
 Fri Oct 30 23:53:19 2020

        *************************************************************
        *                                                           *
        *  Thank you very much for using Q-Chem.  Have a nice day.  *
        *                                                           *
        *************************************************************


