Q-Chem Developer Version!
                  Welcome to Q-Chem
     A Quantum Leap Into The Future Of Chemistry


 Q-Chem 5.1, Q-Chem, Inc., Pleasanton, CA (2018)

 Yihan Shao,  Zhengting Gan,  E. Epifanovsky,  A. T. B. Gilbert,  M. Wormit,  
 J. Kussmann,  A. W. Lange,  A. Behn,  Jia Deng,  Xintian Feng,  D. Ghosh,  
 M. Goldey,  P. R. Horn,  L. D. Jacobson,  I. Kaliman,  T. Kus,  A. Landau,  
 Jie Liu,  E. I. Proynov,  R. M. Richard,  R. P. Steele,  E. J. Sundstrom,  
 H. L. Woodcock III,  P. M. Zimmerman,  D. Zuev,  B. Albrecht,  E. Alguire,  
 S. A. Baeppler,  D. Barton,  Z. Benda,  Y. A. Bernard,  E. J. Berquist,  
 K. B. Bravaya,  H. Burton,  D. Casanova,  Chun-Min Chang,  Yunqing Chen,  
 A. Chien,  K. D. Closser,  M. P. Coons,  S. Coriani,  S. Dasgupta,  
 A. L. Dempwolff,  M. Diedenhofen,  Hainam Do,  R. G. Edgar,  Po-Tung Fang,  
 S. Faraji,  S. Fatehi,  Qingguo Feng,  K. D. Fenk,  J. Fosso-Tande,  
 Qinghui Ge,  A. Ghysels,  G. Gidofalvi,  J. Gomes,  J. Gonthier,  A. Gunina,  
 D. Hait,  M. W. D. Hanson-Heine,  P. H. P. Harbach,  A. W. Hauser,  
 J. E. Herr,  E. G. Hohenstein,  Z. C. Holden,  Kerwin Hui,  B. C. Huynh,  
 T.-C. Jagau,  Hyunjun Ji,  B. Kaduk,  K. Khistyaev,  Jaehoon Kim,  
 P. Klunzinger,  K. Koh,  D. Kosenkov,  L. Koulias,  T. Kowalczyk,  
 C. M. Krauter,  A. Kunitsa,  Ka Un Lao,  A. Laurent,  K. V. Lawler,  
 Joonho Lee,  D. Lefrancois,  S. Lehtola,  D. S. Levine,  Yi-Pei Li,  
 You-Sheng Lin,  Fenglai Liu,  E. Livshits,  A. Luenser,  P. Manohar,  
 E. Mansoor,  S. F. Manzer,  Shan-Ping Mao,  Yuezhi Mao,  N. Mardirossian,  
 A. V. Marenich,  T. Markovich,  L. A. Martinez-Martinez,  S. A. Maurer,  
 N. J. Mayhall,  S. C. McKenzie,  J.-M. Mewes,  A. F. Morrison,  
 J. W. Mullinax,  K. Nanda,  T. S. Nguyen-Beck,  R. Olivares-Amaya,  
 J. A. Parkhill,  T. M. Perrine,  F. Plasser,  P. Pokhilko,  S. Prager,  
 A. Prociuk,  E. Ramos,  D. R. Rehn,  F. Rob,  M. Schneider,  N. Sergueev,  
 S. M. Sharada,  S. Sharma,  D. W. Small,  T. Stauch,  T. Stein,  
 Yu-Chuan Su,  A. J. W. Thom,  A. Tkatchenko,  T. Tsuchimochi,  N. M. Tubman,  
 L. Vogt,  M. L. Vidal,  O. Vydrov,  M. A. Watson,  J. Wenzel,  
 M. de Wergifosse,  T. A. Wesolowski,  A. White,  J. Witte,  A. Yamada,  
 Jun Yang,  K. Yao,  S. Yeganeh,  S. R. Yost,  Zhi-Qiang You,  A. Zech,  
 Igor Ying Zhang,  Xing Zhang,  Yan Zhao,  Ying Zhu,  B. R. Brooks,  
 G. K. L. Chan,  C. J. Cramer,  M. S. Gordon,  W. J. Hehre,  A. Klamt,  
 M. W. Schmidt,  C. D. Sherrill,  D. G. Truhlar,  A. Aspuru-Guzik,  R. Baer,  
 A. T. Bell,  N. A. Besley,  Jeng-Da Chai,  A. E. DePrince, III,  
 R. A. DiStasio Jr.,  A. Dreuw,  B. D. Dunietz,  T. R. Furlani,  
 Chao-Ping Hsu,  Yousung Jung,  Jing Kong,  D. S. Lambrecht,  WanZhen Liang,  
 C. Ochsenfeld,  V. A. Rassolov,  L. V. Slipchenko,  J. E. Subotnik,  
 T. Van Voorhis,  J. M. Herbert,  A. I. Krylov,  P. M. W. Gill,  M. Head-Gordon

 Contributors to earlier versions of Q-Chem not listed above: 
 R. D. Adamson,  B. Austin,  J. Baker,  G. J. O. Beran,  K. Brandhorst,  
 S. T. Brown,  E. F. C. Byrd,  A. K. Chakraborty,  C.-L. Cheng,  
 Siu Hung Chien,  D. M. Chipman,  D. L. Crittenden,  H. Dachsel,  
 R. J. Doerksen,  A. D. Dutoi,  L. Fusti-Molnar,  W. A. Goddard III,  
 A. Golubeva-Zadorozhnaya,  S. R. Gwaltney,  G. Hawkins,  A. Heyden,  
 S. Hirata,  G. Kedziora,  F. J. Keil,  C. Kelley,  Jihan Kim,  R. A. King,  
 R. Z. Khaliullin,  P. P. Korambath,  W. Kurlancheek,  A. M. Lee,  M. S. Lee,  
 S. V. Levchenko,  Ching Yeh Lin,  D. Liotard,  R. C. Lochan,  I. Lotan,  
 P. E. Maslen,  N. Nair,  D. P. O'Neill,  D. Neuhauser,  E. Neuscamman,  
 C. M. Oana,  R. Olson,  B. Peters,  R. Peverati,  P. A. Pieniazek,  
 Y. M. Rhee,  J. Ritchie,  M. A. Rohrdanz,  E. Rosta,  N. J. Russ,  
 H. F. Schaefer III,  N. E. Schultz,  N. Shenvi,  A. C. Simmonett,  A. Sodt,  
 D. Stuck,  K. S. Thanthiriwatte,  V. Vanovschi,  Tao Wang,  A. Warshel,  
 C. F. Williams,  Q. Wu,  X. Xu,  W. Zhang

 Please cite Q-Chem as follows:
 Y. Shao et al., Mol. Phys. 113, 184-215 (2015)
 DOI: 10.1080/00268976.2014.952696

 Q-Chem 5.1.1 for Intel X86 EM64T Linux

 Parts of Q-Chem use Armadillo 8.300.2 (Tropical Shenanigans).
 http://arma.sourceforge.net/

 Q-Chem begins on Sat Sep 19 03:09:19 2020  

Host: n0062.mhg0
0

     Scratch files written to /local/scratch/users/yhljason/SO-trip_B2GPPLYP_aug-cc-pcVQZ.inp20200919022542//
Input Ideriv = 0
Curr. Ideriv = -1
Max.  Ideriv = 0
Input Ideriv = 1
Curr. Ideriv = 0
Max.  Ideriv = 0

Checking the input file for inconsistencies... 	...done.

--------------------------------------------------------------
User input:
--------------------------------------------------------------
$molecule
0 3
S1      0.0000  0.0000  0.0000
O2      0.0000  0.0000  1.4811
$end

$rem
jobtype sp
method B2GPPLYP
xc_grid 000099000590
basis aug-cc-pcVQZ
max_scf_cycles 200
thresh 14
scf_convergence 8
scf_algorithm gdm
symmetry false
sym_ignore true
unrestricted false
gen_scfman true
internal_stability_iter 15
internal_stability_davidson_iter 200
mem_total 128000
cc_memory 96000
cc_backend xm
mem_static 1500
n_frozen_core 0
$end


--------------------------------------------------------------
 ----------------------------------------------------------------
             Standard Nuclear Orientation (Angstroms)
    I     Atom           X                Y                Z
 ----------------------------------------------------------------
    1      S       0.0000000000     0.0000000000     0.0000000000
    2      O       0.0000000000     0.0000000000     1.4811000000
 ----------------------------------------------------------------
 Nuclear Repulsion Energy =    45.7326871801 hartrees
 There are       13 alpha and       11 beta electrons
 Requested basis set is aug-cc-pCVQZ
 There are 63 shells and 243 basis functions

 Total QAlloc Memory Limit 128000 MB
 Mega-Array Size      1467 MB
 MEM_STATIC part      1500 MB

                       Distance Matrix (Angstroms)
             S (  1)
   O (  2)  1.481100
 
 A cutoff of  1.0D-14 yielded   1941 shell pairs
 There are     29175 function pairs (     48737 Cartesian)
 
 -------------------------------------------------------
 OpenMP Integral Computing Module                       
 Release: version 1.0, May 2013, Q-Chem Inc. Pittsburgh 
 -------------------------------------------------------
 Integral Job Info:
 Integral job number is                      11
 Integral operator is                         1
 short-range coefficients                     0
 long-range coefficients              100000000
 Omega coefficients                           0
 if combine SR and LR in K                    0
 Integral screening is                        0
 Integral computing path is                   2
 max size of driver memory is           3200000
 size of driver memory is               1704330
 size of scratch memory is             29435624
 max col of scratch BK array              50625
 max len of scratch array in speh3         2114
 max len of scratch index in speh4           50
 max int batch size is                      520
 min int batch size is                       52
 fixed nKL is                                22
 max L of basis functions is                  4
 order of int derivative is                   0
 number of shells is                         63
 number of basis is                         313
 number of cartesian basis is               313
 number of contracted shell pairs          1941
 number of primitive shell pairs           7431
 maxK2 (contraction) of shell pair          169
 max number of K2 of shell pair               1
 max number of CS2 of shell pair            190
 max number of PS2 of shell pair           1014
 mem total for path MDJ                  712981
 -------------------------------------------------------
 Smallest overlap matrix eigenvalue = 2.74E-05

 Scale SEOQF with 1.000000e-01/1.000000e-01/1.000000e-01

 Standard Electronic Orientation quadrupole field applied
 Nucleus-field energy     =    -0.0000000019 hartrees
 Guess from superposition of atomic densities
 Warning:  Energy on first SCF cycle will be non-variational
 SAD guess density has 24.000000 electrons

 -----------------------------------------------------------------------
  General SCF calculation program by
  Eric Jon Sundstrom, Paul Horn, Yuezhi Mao, Dmitri Zuev, Alec White,
  David Stuck, Shaama M.S., Shane Yost, Joonho Lee, David Small,
  Daniel Levine, Susi Lehtola, Hugh Burton, Evgeny Epifanovsky
 -----------------------------------------------------------------------
 Exchange:     0.6500 Hartree-Fock + 0.3500 B88
 Correlation:  0.6400 LYP
 Using Euler-Maclaurin-Lebedev (99,590) quadrature formula
Running Object-Oriented ROKS (ROHF)
ROHF occupied orbitals are orthonormal
ROHF occupied orbitals are orthogonal to virtual orbitals
ROHF virtual orbitals are orthonormal
We will preform up to 15 macro iterations over saddle points until a stable solution is found
Energy prior to optimization (guess energy) = -471.404346622150
Begin Timing: Total SCF Calculation
Begin Timing: SCF Single Stationary Point Calculation
begin iterations for algorithm: GDM          
the SCF tolerance is set to 1.00e-08
    1    -471.4043466222      5.44e-01     00000  Descent step
    2    -471.7663437172      4.11e-01     00000  Descent step
    3    -472.0005086871      2.59e-01     00000  Descent step
    4    -472.1296055102      1.98e-01     00000  Dog-leg BFGS step
    5    -472.2209701295      3.80e-01     00000  Descent step
Fro norm of D 1.307462758396e+00
transformation scaled by 2
    6    -472.3799401135      1.25e+00     00000  Descent step
    7    -472.5330392263      3.04e-01     00000  Normal BFGS step
    8    -472.5807309780      3.08e-01     00000  Descent step
    9    -472.5939218040      4.65e-01     00000  Descent step
   10    -472.6802692835      5.02e-01     00000  Descent step
Fro norm of D 1.066337650229e+00
transformation scaled by 2
   11    -472.7916750221      3.70e-01     00000  Descent step
   12    -472.6832809686      1.13e+00     00000 Line search: overstep
   13    -472.8140499994      4.69e-02     00000  Normal BFGS step
   14    -472.8066148215      1.15e-01     00000 Line search: overstep
   15    -472.8170417399      2.66e-02     00000  Dog-leg BFGS step
   16    -472.7910604567      1.11e-01     00000 Line search: overstep
   17    -472.8196367174      3.28e-02     00000  Normal BFGS step
   18    -472.8196483005      3.64e-02     00000  Normal BFGS step
   19    -472.8211086916      3.12e-03     00000  Normal BFGS step
   20    -472.8211214497      7.04e-04     00000  Normal BFGS step
   21    -472.8211233097      9.03e-05     00000  Normal BFGS step
   22    -472.8211233524      2.56e-05     00000  Normal BFGS step
   23    -472.8211233556      1.44e-05     00000  Normal BFGS step
   24    -472.8211233557      1.46e-06     00000  Normal BFGS step
   25    -472.8211233557      4.62e-07     00000  Normal BFGS step
   26    -472.8211233557      1.66e-07     00000  Normal BFGS step
   27    -472.8211233557      8.63e-08     00000  Normal BFGS step
   28    -472.8211233557      3.63e-08     00000  Normal BFGS step
   29    -472.8211233557      3.63e-08     00000  Normal BFGS step
   30    -472.8211233557      3.63e-08     00000  Normal BFGS step
   31    -472.8211233557      3.84e-08     00000  Normal BFGS step
   32    -472.8211233557      7.96e-08     00000  Normal BFGS step
   33    -472.8211233557      1.58e-07     00000  Normal BFGS step
   34    -472.8211233557      2.73e-07     00000  Normal BFGS step
   35    -472.8211233557      4.67e-07     00000  Normal BFGS step
   36    -472.8211233557      7.71e-07     00000  Normal BFGS step
   37    -472.8211233557      1.29e-06     00000  Normal BFGS step
   38    -472.8211233558      2.42e-06     00000  Normal BFGS step
  /global/home/groups-sw/mhg/qchem_public/qchem5p0/libgscf/libgscf/opt/gdm.C::WARNING energy changes are now smaller than effective accuracy.
  /global/home/groups-sw/mhg/qchem_public/qchem5p0/libgscf/libgscf/opt/gdm.C::        calculation will continue, but THRESH should be increased
  /global/home/groups-sw/mhg/qchem_public/qchem5p0/libgscf/libgscf/opt/gdm.C::        or SCF_CONVERGENCE decreased. 
  /global/home/groups-sw/mhg/qchem_public/qchem5p0/libgscf/libgscf/opt/gdm.C::        effective_thresh = 3.04e-09
   39    -472.8211233544      2.99e-05     00000  Normal BFGS step
   40    -472.8211233558      3.68e-06     00000  Normal BFGS step
   41    -472.8211233558      5.73e-06     00000  Normal BFGS step
   42    -472.8211233568      2.47e-05     00000  Normal BFGS step
   43    -472.8211234134      2.05e-04     00000 Line search: understep
   44    -472.8211277104      1.86e-03     00000 Line search: understep
   45    -472.8212242584      1.86e-02     00000  Normal BFGS step
   46    -472.8211273292      1.75e-03     00000 Line search: overstep
Fro norm of D 1.018868308045e+00
transformation scaled by 2
   47    -472.8212318365      1.22e-02     00000  Normal BFGS step
Fro norm of D 1.077235288263e+00
transformation scaled by 2
   48    -472.8236064535      9.11e-02     00000  Dog-leg BFGS step
   49    -472.8480193995      1.79e-01     00000  Dog-leg BFGS step
   50    -472.9200763828      2.34e-01     00000  Dog-leg BFGS step
   51    -472.9717238931      3.18e-01     00000  Descent step
   52    -472.9596698119      5.89e-01     00000 Line search: overstep
   53    -473.0017157586      1.33e-01     00000  Dog-leg BFGS step
   54    -472.9647225357      5.38e-01     00000 Line search: overstep
   55    -473.0128834277      1.78e-01     00000  Dog-leg BFGS step
   56    -472.9831841020      3.34e-01     00000 Line search: overstep
   57    -473.0194911982      5.84e-02     00000  Dog-leg BFGS step
   58    -472.9665184234      5.21e-01     00000 Line search: overstep
   59    -473.0215528093      8.09e-02     00000  Dog-leg BFGS step
   60    -472.9490680157      4.50e-01     00000 Line search: overstep
   61    -473.0260642658      5.70e-02     00000  Dog-leg BFGS step
   62    -472.9909482135      3.07e-01     00000 Line search: overstep
   63    -473.0271050514      4.14e-02     00000  Normal BFGS step
   64    -473.0278355615      4.55e-02     00000  Normal BFGS step
   65    -473.0292460680      1.04e-02     00000  Normal BFGS step
   66    -473.0285947873      2.13e-02     00000 Line search: overstep
   67    -473.0294309383      4.99e-03     00000  Normal BFGS step
   68    -473.0294625613      2.72e-03     00000  Normal BFGS step
   69    -473.0294650829      2.95e-03     00000  Normal BFGS step
   70    -473.0294736168      4.53e-04     00000  Normal BFGS step
   71    -473.0294739209      1.41e-04     00000  Normal BFGS step
   72    -473.0294739947      7.39e-05     00000  Normal BFGS step
   73    -473.0294739999      3.67e-05     00000  Normal BFGS step
   74    -473.0294740050      8.29e-06     00000  Normal BFGS step
   75    -473.0294740053      3.14e-06     00000  Normal BFGS step
   76    -473.0294740054      8.51e-07     00000  Normal BFGS step
   77    -473.0294740054      3.17e-07     00000  Normal BFGS step
   78    -473.0294740054      3.12e-07     00000  Normal BFGS step
   79    -473.0294740054      3.98e-07     00000  Normal BFGS step
   80    -473.0294740054      4.54e-08     00000  Normal BFGS step
   81    -473.0294740054      2.17e-08     00000  Normal BFGS step
   82    -473.0294740054      5.07e-09     00000 Convergence criterion met
The disked orbital energies are calculated using alpha and beta Focks
Timing for Single Stationary Point: 783.00s (wall), 12191.11s (cpu)
Begin Timing: Stability
===================================================
Beginning Test for Internal Stability
===================================================
generating davidson guess vectors based on koopmans-like excitations
    1      5.25e-01     00000 Davidson Iteration
    2      4.71e-01     00000 Davidson Iteration
    3      1.51e-01     00000 Davidson Iteration
    4      1.40e-02     00000 Davidson Iteration
    5      5.94e-03     00000 Davidson Iteration
    6      9.78e-04     00000 Davidson Iteration
    7      3.05e-04     00000 Davidson Iteration
    8      2.25e-04     00000 Davidson Iteration
    9      8.36e-05     00000 Davidson Iteration
   10      8.51e-05     00000 Davidson Converged
converged_eigenvalues
   0.1876
   0.1876
Threshold for negative eigenvalues: -1.0e-05
solution was a local minimum (stable)
===================================================
End Test for Internal Stability
===================================================
Our SCF solution is stable!
The disked orbital energies are calculated using alpha and beta Focks
Timing for Total SCF: 941.00s (wall), 14432.07s (cpu)
 Total energy in the final basis set =     -473.0294740054
<S^2> =          2.000000000
    ==================================================
              The end of Object-Oriented SCFman       
    ==================================================
 
 Components of the MP2 correlation energy:
        aaaa  correlation energy =        -0.0452556557 au
        abab  correlation energy =        -0.2569511374 au
        bbbb  correlation energy =        -0.0447268700 au
        non-Brillouin singles    =        -0.0058246535 au

 Total  MP2   correlation energy =                    -0.35275832 au
        MP2         total energy =                  -473.38223232 au
 
 --------------------------------------------------------------
 
                    Orbital Energies (a.u.)
 --------------------------------------------------------------
 
 Alpha MOs
 -- Occupied --
-90.725 -20.013  -8.618  -6.418  -6.426  -6.426  -1.290  -0.837
 -0.563  -0.572  -0.572  -0.351  -0.351
 -- Virtual --
  0.033   0.037   0.058   0.058   0.105   0.138   0.143   0.143
  0.156   0.156   0.235   0.235   0.244   0.269   0.326   0.326
  0.362   0.431   0.431   0.455   0.451   0.451   0.470   0.470
  0.491   0.491   0.592   0.586   0.586   0.614   0.614   0.634
  0.634   0.689   0.736   0.874   0.874   0.998   1.108   1.206
  1.206   1.231   1.252   1.252   1.246   1.246   1.264   1.264
  1.360   1.360   1.373   1.373   1.375   1.375   1.480   1.480
  1.477   1.477   1.518   1.550   1.550   1.574   1.584   1.584
  1.600   1.600   1.790   1.969   1.969   2.068   2.098   2.098
  2.176   2.202   2.202   2.625   2.997   2.997   3.160   3.160
  3.207   3.323   3.323   3.345   3.349   3.349   3.451   3.451
  3.464   3.464   3.463   3.463   3.547   3.547   3.627   3.627
  3.636   3.636   3.801   3.903   3.903   3.935   3.935   4.001
  4.037   4.037   4.132   4.132   4.319   4.325   4.325   4.492
  4.492   4.519   4.768   4.768   4.816   4.816   5.107   5.107
  5.198   5.582   5.934   5.934   6.932   8.516   9.578   9.578
  9.810   9.810  10.112  10.112  10.320  10.389  10.389  10.492
 10.492  10.519  10.678  10.678  10.695  10.695  11.060  11.614
 11.614  11.766  11.766  12.155  12.155  12.514  12.514  12.811
 12.912  12.912  13.350  16.017  16.017  16.699  17.402  18.416
 18.416  18.457  18.457  18.777  18.777  19.293  28.263  31.483
 31.483  31.629  31.629  32.276  33.211  33.211  34.082  45.790
 45.790  46.506  46.651  46.651  46.891  46.891  47.264  55.330
 55.330  55.330  55.330  55.332  55.332  55.334  55.334  55.336
 63.472  65.537  65.537  65.559  65.559  65.708  65.708  65.859
 82.312  93.306  93.306  93.425  93.425  93.851 102.725 102.725
102.739 102.739 102.779 102.779 102.803 116.132 116.132 116.818
145.578 145.578 146.130 197.665 197.665 197.789 197.789 197.963
215.479 387.752 394.097 394.097 394.664 893.416
 
 Beta MOs
 -- Occupied --
-90.715 -19.994  -8.608  -6.413  -6.403  -6.403  -1.237  -0.732
 -0.517  -0.467  -0.467
 -- Virtual --
 -0.042  -0.042   0.038   0.040   0.060   0.060   0.116   0.145
  0.145   0.145   0.168   0.168   0.245   0.245   0.248   0.277
  0.338   0.338   0.376   0.447   0.447   0.457   0.490   0.490
  0.493   0.493   0.496   0.496   0.597   0.608   0.608   0.631
  0.631   0.640   0.640   0.701   0.748   0.883   0.883   1.012
  1.116   1.242   1.242   1.249   1.256   1.256   1.280   1.280
  1.289   1.289   1.375   1.375   1.393   1.393   1.414   1.414
  1.495   1.495   1.498   1.498   1.530   1.569   1.569   1.583
  1.593   1.593   1.610   1.610   1.803   1.984   1.984   2.081
  2.118   2.118   2.195   2.223   2.223   2.639   3.024   3.024
  3.181   3.181   3.222   3.342   3.342   3.362   3.369   3.369
  3.475   3.475   3.481   3.481   3.507   3.507   3.557   3.557
  3.657   3.657   3.678   3.678   3.818   3.917   3.917   3.953
  3.953   4.017   4.062   4.062   4.156   4.156   4.329   4.338
  4.338   4.526   4.526   4.537   4.792   4.792   4.836   4.836
  5.132   5.132   5.210   5.592   5.951   5.951   6.947   8.533
  9.610   9.610   9.829   9.829  10.127  10.127  10.328  10.417
 10.417  10.513  10.513  10.533  10.692  10.692  10.711  10.711
 11.074  11.656  11.656  11.795  11.795  12.175  12.175  12.561
 12.561  12.824  12.938  12.938  13.363  16.035  16.035  16.707
 17.423  18.419  18.419  18.460  18.460  18.780  18.780  19.298
 28.270  31.499  31.499  31.639  31.639  32.284  33.237  33.237
 34.090  45.802  45.802  46.511  46.676  46.676  46.905  46.905
 47.273  55.333  55.333  55.334  55.334  55.334  55.334  55.336
 55.336  55.338  63.486  65.549  65.549  65.567  65.567  65.715
 65.715  65.864  82.320  93.321  93.321  93.433  93.433  93.858
102.744 102.744 102.752 102.752 102.788 102.788 102.811 116.142
116.142 116.822 145.587 145.587 146.133 197.672 197.672 197.793
197.793 197.966 215.484 387.756 394.100 394.100 394.665 893.418
 --------------------------------------------------------------
 
          Ground-State Mulliken Net Atomic Charges

     Atom                 Charge (a.u.)
  ----------------------------------------
      1 S                     0.620516
      2 O                    -0.620516
  ----------------------------------------
  Sum of atomic charges =    -0.000000

 -----------------------------------------------------------------
                    Cartesian Multipole Moments
 -----------------------------------------------------------------
    Charge (ESU x 10^10)
                -0.0000
    Dipole Moment (Debye)
         X       0.0000      Y      -0.0000      Z      -1.9110
       Tot       1.9110
    Quadrupole Moments (Debye-Ang)
        XX     -17.5413     XY       0.0000     YY     -17.5413
        XZ       0.0000     YZ      -0.0000     ZZ     -20.5525
    Octopole Moments (Debye-Ang^2)
       XXX      -0.0000    XXY      -0.0000    XYY       0.0000
       YYY      -0.0000    XXZ      -7.6496    XYZ      -0.0000
       YYZ      -7.6496    XZZ       0.0000    YZZ      -0.0000
       ZZZ     -29.8592
    Hexadecapole Moments (Debye-Ang^3)
      XXXX     -19.7886   XXXY       0.0000   XXYY      -6.5962
      XYYY       0.0000   YYYY     -19.7886   XXXZ       0.0000
      XXYZ      -0.0000   XYYZ      -0.0000   YYYZ      -0.0000
      XXZZ     -18.6358   XYZZ       0.0000   YYZZ     -18.6358
      XZZZ       0.0000   YZZZ      -0.0000   ZZZZ     -97.8854
 -----------------------------------------------------------------
Archival summary:
1\1\n0062.mhg0\SP\ROProcedureUnspecified\BasisUnspecified\11(3)\yhljason\SatSep1903:33:042020SatSep1903:33:042020\0\\#,ROProcedureUnspecified,BasisUnspecified,\\0,3\S\O,1,1.4811\\\@

 Total job time:  1425.50s(wall), 21540.28s(cpu) 
 Sat Sep 19 03:33:04 2020

        *************************************************************
        *                                                           *
        *  Thank you very much for using Q-Chem.  Have a nice day.  *
        *                                                           *
        *************************************************************


 
User input: 2 of 7 
 
Q-Chem Developer Version!
                  Welcome to Q-Chem
     A Quantum Leap Into The Future Of Chemistry


 Q-Chem 5.1, Q-Chem, Inc., Pleasanton, CA (2018)

 Yihan Shao,  Zhengting Gan,  E. Epifanovsky,  A. T. B. Gilbert,  M. Wormit,  
 J. Kussmann,  A. W. Lange,  A. Behn,  Jia Deng,  Xintian Feng,  D. Ghosh,  
 M. Goldey,  P. R. Horn,  L. D. Jacobson,  I. Kaliman,  T. Kus,  A. Landau,  
 Jie Liu,  E. I. Proynov,  R. M. Richard,  R. P. Steele,  E. J. Sundstrom,  
 H. L. Woodcock III,  P. M. Zimmerman,  D. Zuev,  B. Albrecht,  E. Alguire,  
 S. A. Baeppler,  D. Barton,  Z. Benda,  Y. A. Bernard,  E. J. Berquist,  
 K. B. Bravaya,  H. Burton,  D. Casanova,  Chun-Min Chang,  Yunqing Chen,  
 A. Chien,  K. D. Closser,  M. P. Coons,  S. Coriani,  S. Dasgupta,  
 A. L. Dempwolff,  M. Diedenhofen,  Hainam Do,  R. G. Edgar,  Po-Tung Fang,  
 S. Faraji,  S. Fatehi,  Qingguo Feng,  K. D. Fenk,  J. Fosso-Tande,  
 Qinghui Ge,  A. Ghysels,  G. Gidofalvi,  J. Gomes,  J. Gonthier,  A. Gunina,  
 D. Hait,  M. W. D. Hanson-Heine,  P. H. P. Harbach,  A. W. Hauser,  
 J. E. Herr,  E. G. Hohenstein,  Z. C. Holden,  Kerwin Hui,  B. C. Huynh,  
 T.-C. Jagau,  Hyunjun Ji,  B. Kaduk,  K. Khistyaev,  Jaehoon Kim,  
 P. Klunzinger,  K. Koh,  D. Kosenkov,  L. Koulias,  T. Kowalczyk,  
 C. M. Krauter,  A. Kunitsa,  Ka Un Lao,  A. Laurent,  K. V. Lawler,  
 Joonho Lee,  D. Lefrancois,  S. Lehtola,  D. S. Levine,  Yi-Pei Li,  
 You-Sheng Lin,  Fenglai Liu,  E. Livshits,  A. Luenser,  P. Manohar,  
 E. Mansoor,  S. F. Manzer,  Shan-Ping Mao,  Yuezhi Mao,  N. Mardirossian,  
 A. V. Marenich,  T. Markovich,  L. A. Martinez-Martinez,  S. A. Maurer,  
 N. J. Mayhall,  S. C. McKenzie,  J.-M. Mewes,  A. F. Morrison,  
 J. W. Mullinax,  K. Nanda,  T. S. Nguyen-Beck,  R. Olivares-Amaya,  
 J. A. Parkhill,  T. M. Perrine,  F. Plasser,  P. Pokhilko,  S. Prager,  
 A. Prociuk,  E. Ramos,  D. R. Rehn,  F. Rob,  M. Schneider,  N. Sergueev,  
 S. M. Sharada,  S. Sharma,  D. W. Small,  T. Stauch,  T. Stein,  
 Yu-Chuan Su,  A. J. W. Thom,  A. Tkatchenko,  T. Tsuchimochi,  N. M. Tubman,  
 L. Vogt,  M. L. Vidal,  O. Vydrov,  M. A. Watson,  J. Wenzel,  
 M. de Wergifosse,  T. A. Wesolowski,  A. White,  J. Witte,  A. Yamada,  
 Jun Yang,  K. Yao,  S. Yeganeh,  S. R. Yost,  Zhi-Qiang You,  A. Zech,  
 Igor Ying Zhang,  Xing Zhang,  Yan Zhao,  Ying Zhu,  B. R. Brooks,  
 G. K. L. Chan,  C. J. Cramer,  M. S. Gordon,  W. J. Hehre,  A. Klamt,  
 M. W. Schmidt,  C. D. Sherrill,  D. G. Truhlar,  A. Aspuru-Guzik,  R. Baer,  
 A. T. Bell,  N. A. Besley,  Jeng-Da Chai,  A. E. DePrince, III,  
 R. A. DiStasio Jr.,  A. Dreuw,  B. D. Dunietz,  T. R. Furlani,  
 Chao-Ping Hsu,  Yousung Jung,  Jing Kong,  D. S. Lambrecht,  WanZhen Liang,  
 C. Ochsenfeld,  V. A. Rassolov,  L. V. Slipchenko,  J. E. Subotnik,  
 T. Van Voorhis,  J. M. Herbert,  A. I. Krylov,  P. M. W. Gill,  M. Head-Gordon

 Contributors to earlier versions of Q-Chem not listed above: 
 R. D. Adamson,  B. Austin,  J. Baker,  G. J. O. Beran,  K. Brandhorst,  
 S. T. Brown,  E. F. C. Byrd,  A. K. Chakraborty,  C.-L. Cheng,  
 Siu Hung Chien,  D. M. Chipman,  D. L. Crittenden,  H. Dachsel,  
 R. J. Doerksen,  A. D. Dutoi,  L. Fusti-Molnar,  W. A. Goddard III,  
 A. Golubeva-Zadorozhnaya,  S. R. Gwaltney,  G. Hawkins,  A. Heyden,  
 S. Hirata,  G. Kedziora,  F. J. Keil,  C. Kelley,  Jihan Kim,  R. A. King,  
 R. Z. Khaliullin,  P. P. Korambath,  W. Kurlancheek,  A. M. Lee,  M. S. Lee,  
 S. V. Levchenko,  Ching Yeh Lin,  D. Liotard,  R. C. Lochan,  I. Lotan,  
 P. E. Maslen,  N. Nair,  D. P. O'Neill,  D. Neuhauser,  E. Neuscamman,  
 C. M. Oana,  R. Olson,  B. Peters,  R. Peverati,  P. A. Pieniazek,  
 Y. M. Rhee,  J. Ritchie,  M. A. Rohrdanz,  E. Rosta,  N. J. Russ,  
 H. F. Schaefer III,  N. E. Schultz,  N. Shenvi,  A. C. Simmonett,  A. Sodt,  
 D. Stuck,  K. S. Thanthiriwatte,  V. Vanovschi,  Tao Wang,  A. Warshel,  
 C. F. Williams,  Q. Wu,  X. Xu,  W. Zhang

 Please cite Q-Chem as follows:
 Y. Shao et al., Mol. Phys. 113, 184-215 (2015)
 DOI: 10.1080/00268976.2014.952696

 Q-Chem 5.1.1 for Intel X86 EM64T Linux

 Parts of Q-Chem use Armadillo 8.300.2 (Tropical Shenanigans).
 http://arma.sourceforge.net/

 Q-Chem begins on Sat Sep 19 03:33:05 2020  

Host: n0062.mhg0
0

     Scratch files written to /local/scratch/users/yhljason/SO-trip_B2GPPLYP_aug-cc-pcVQZ.inp20200919022542//
The previous job contains 0 fragments, simply inherited here
Input Ideriv = 0
Curr. Ideriv = -1
Max.  Ideriv = 0
Input Ideriv = 1
Curr. Ideriv = 0
Max.  Ideriv = 0

Checking the input file for inconsistencies... 	...done.

--------------------------------------------------------------
User input:
--------------------------------------------------------------
$molecule
read
$end

$rem

jobtype sp
method B2GPPLYP
xc_grid 000099000590
basis aug-cc-pcVQZ
max_scf_cycles 200
thresh 14
scf_convergence 8
mem_total 128000
cc_memory 96000
cc_backend xm
mem_static 1500
symmetry false
sym_ignore true
scf_guess read
unrestricted false
scf_algorithm gdm
n_frozen_core 0
$end

$multipole_field
XX 0.0001
$end


--------------------------------------------------------------
 ----------------------------------------------------------------
             Standard Nuclear Orientation (Angstroms)
    I     Atom           X                Y                Z
 ----------------------------------------------------------------
    1      S       0.0000000000     0.0000000000     0.0000000000
    2      O       0.0000000000     0.0000000000     1.4811000000
 ----------------------------------------------------------------
 Nuclear Repulsion Energy =    45.7326871801 hartrees
 There are       13 alpha and       11 beta electrons
 Requested basis set is aug-cc-pCVQZ
 There are 63 shells and 243 basis functions

 Total QAlloc Memory Limit 128000 MB
 Mega-Array Size      1467 MB
 MEM_STATIC part      1500 MB

                       Distance Matrix (Angstroms)
             S (  1)
   O (  2)  1.481100
 
 Applying Cartesian multipole field
    Component          Value
    ---------          -----
     (2,0,0)        1.00000E-04
 A cutoff of  1.0D-14 yielded   1941 shell pairs
 There are     29175 function pairs (     48737 Cartesian)
 
 -------------------------------------------------------
 OpenMP Integral Computing Module                       
 Release: version 1.0, May 2013, Q-Chem Inc. Pittsburgh 
 -------------------------------------------------------
 Integral Job Info:
 Integral job number is                      11
 Integral operator is                         1
 short-range coefficients                     0
 long-range coefficients              100000000
 Omega coefficients                           0
 if combine SR and LR in K                    0
 Integral screening is                        0
 Integral computing path is                   2
 max size of driver memory is           3200000
 size of driver memory is               1704330
 size of scratch memory is             29435624
 max col of scratch BK array              50625
 max len of scratch array in speh3         2114
 max len of scratch index in speh4           50
 max int batch size is                      520
 min int batch size is                       52
 fixed nKL is                                22
 max L of basis functions is                  4
 order of int derivative is                   0
 number of shells is                         63
 number of basis is                         313
 number of cartesian basis is               313
 number of contracted shell pairs          1941
 number of primitive shell pairs           7431
 maxK2 (contraction) of shell pair          169
 max number of K2 of shell pair               1
 max number of CS2 of shell pair            190
 max number of PS2 of shell pair           1014
 mem total for path MDJ                  712981
 -------------------------------------------------------
 Smallest overlap matrix eigenvalue = 2.74E-05
 Guess MOs from SCF MO coefficient file
 Reading MOs from coefficient file
 Reading MOs from coefficient file
 A restricted hybrid HF-DFT SCF calculation will be
 performed using Geometric Direct Minimization
 Exchange:     0.6500 Hartree-Fock + 0.3500 B88
 Correlation:  0.6400 LYP
 Using Euler-Maclaurin-Lebedev (99,590) quadrature formula
 SCF converges when RMS gradient is below 1.0E-08
Using Q-Chem read-in guess as SCF_GUESS READ specified.

 using 16 threads for integral computing
 -------------------------------------------------------
 OpenMP Integral computing Module                
 Release: version 2.0, May 2017, Q-Chem Inc. Pleasanton 
 -------------------------------------------------------
TIMEINFO->: J/JK contribution 119.33 sec.
 -------------------------------------------------------
 OpenMP BLAS3 based DFT computing Module                
 Release: version 1.0, May 2013, Q-Chem Inc. Pittsburgh 
 -------------------------------------------------------
 ---------------------------------------
  Cycle       Energy        RMS Gradient
 ---------------------------------------
    1    -473.0307781575      5.04E-04 Normal BFGS step
TIMEINFO->: J/JK contribution 127.88 sec.
    2    -473.0307785239      3.22E-04 Normal BFGS step
TIMEINFO->: J/JK contribution 119.05 sec.
    3    -473.0307786041      1.92E-04 Normal BFGS step
TIMEINFO->: J/JK contribution 119.57 sec.
    4    -473.0307786122      1.35E-04 Normal BFGS step
TIMEINFO->: J/JK contribution 135.24 sec.
    5    -473.0307786297      2.79E-05 Normal BFGS step
TIMEINFO->: J/JK contribution 122.52 sec.
    6    -473.0307786314      2.49E-05 Normal BFGS step
TIMEINFO->: J/JK contribution 117.13 sec.
    7    -473.0307786325      6.74E-06 Normal BFGS step
TIMEINFO->: J/JK contribution 122.26 sec.
    8    -473.0307786326      3.81E-06 Normal BFGS step
TIMEINFO->: J/JK contribution 123.68 sec.
    9    -473.0307786326      2.33E-06 Normal BFGS step
TIMEINFO->: J/JK contribution 127.44 sec.
   10    -473.0307786326      6.73E-07 Normal BFGS step
TIMEINFO->: J/JK contribution 117.43 sec.
   11    -473.0307786326      2.32E-07 Normal BFGS step
TIMEINFO->: J/JK contribution 113.07 sec.
   12    -473.0307786326      3.31E-08 Normal BFGS step
TIMEINFO->: J/JK contribution 105.25 sec.
   GDM::WARNING energy changes are now smaller than effective accuracy.
   GDM::        calculation will continue, but THRESH should be increased
   GDM::        or SCF_CONVERGENCE decreased.
   GDM::        effective_thresh =   1.300000000000000E-010
   13    -473.0307786326      6.25E-09 Convergence criterion met
 ---------------------------------------
 SCF time:  CPU 1703.63 s  wall 123.61 s
 SCF   energy in the final basis set = -473.03077863
 Total energy in the final basis set = -473.03077863
 
 Components of the MP2 correlation energy:
        aaaa  correlation energy =        -0.0452563385 au
        abab  correlation energy =        -0.2569563543 au
        bbbb  correlation energy =        -0.0447300364 au
        non-Brillouin singles    =        -0.0058269677 au

 Total  MP2   correlation energy =                    -0.35276970 au
        MP2         total energy =                  -473.38354833 au
 
 --------------------------------------------------------------
 
                    Orbital Energies (a.u.)
 --------------------------------------------------------------
 
 Alpha MOs
 -- Occupied --
-90.725 -20.014  -8.618  -6.419  -6.427  -6.427  -1.290  -0.836
 -0.565  -0.572  -0.572  -0.352  -0.352
 -- Virtual --
  0.030   0.036   0.055   0.057   0.102   0.138   0.141   0.142
  0.153   0.153   0.232   0.233   0.243   0.269   0.324   0.325
  0.362   0.418   0.418   0.454   0.463   0.463   0.467   0.468
  0.490   0.490   0.580   0.581   0.591   0.620   0.621   0.634
  0.634   0.688   0.736   0.873   0.873   0.997   1.107   1.205
  1.205   1.231   1.251   1.251   1.246   1.246   1.266   1.266
  1.360   1.360   1.372   1.372   1.375   1.375   1.477   1.477
  1.479   1.479   1.518   1.550   1.550   1.574   1.584   1.584
  1.600   1.600   1.790   1.969   1.969   2.068   2.097   2.097
  2.176   2.201   2.202   2.625   2.997   2.997   3.160   3.160
  3.207   3.322   3.322   3.344   3.349   3.349   3.451   3.451
  3.455   3.455   3.471   3.471   3.547   3.547   3.627   3.627
  3.636   3.636   3.801   3.903   3.903   3.935   3.935   4.001
  4.037   4.037   4.131   4.131   4.319   4.324   4.324   4.493
  4.493   4.518   4.768   4.768   4.816   4.816   5.106   5.106
  5.198   5.581   5.933   5.934   6.931   8.516   9.577   9.577
  9.809   9.809  10.112  10.112  10.320  10.389  10.389  10.492
 10.492  10.519  10.678  10.678  10.695  10.695  11.060  11.614
 11.614  11.766  11.766  12.155  12.155  12.513  12.513  12.811
 12.912  12.912  13.349  16.017  16.017  16.699  17.402  18.416
 18.416  18.457  18.457  18.777  18.777  19.293  28.263  31.483
 31.483  31.629  31.629  32.276  33.211  33.211  34.081  45.789
 45.789  46.506  46.650  46.650  46.890  46.890  47.263  55.330
 55.330  55.330  55.330  55.332  55.332  55.334  55.334  55.336
 63.472  65.537  65.537  65.558  65.558  65.708  65.708  65.858
 82.312  93.306  93.306  93.425  93.425  93.851 102.724 102.724
102.739 102.739 102.779 102.779 102.802 116.132 116.132 116.818
145.578 145.578 146.130 197.665 197.665 197.788 197.788 197.963
215.478 387.752 394.097 394.097 394.663 893.416
 
 Beta MOs
 -- Occupied --
-90.715 -19.994  -8.608  -6.414  -6.403  -6.403  -1.237  -0.732
 -0.517  -0.467  -0.467
 -- Virtual --
 -0.042  -0.042   0.038   0.038   0.057   0.059   0.116   0.144
  0.143   0.145   0.168   0.168   0.244   0.245   0.247   0.275
  0.336   0.337   0.375   0.453   0.453   0.456   0.483   0.483
  0.493   0.493   0.496   0.496   0.608   0.609   0.597   0.627
  0.628   0.639   0.639   0.700   0.748   0.882   0.883   1.012
  1.115   1.242   1.242   1.248   1.256   1.256   1.279   1.279
  1.288   1.288   1.375   1.375   1.393   1.393   1.413   1.413
  1.498   1.498   1.495   1.495   1.530   1.568   1.568   1.583
  1.593   1.593   1.609   1.609   1.803   1.984   1.984   2.080
  2.117   2.117   2.194   2.222   2.223   2.639   3.023   3.023
  3.180   3.180   3.222   3.341   3.341   3.362   3.369   3.369
  3.475   3.475   3.487   3.487   3.501   3.501   3.557   3.557
  3.657   3.657   3.677   3.677   3.818   3.917   3.917   3.952
  3.952   4.016   4.062   4.062   4.156   4.156   4.328   4.338
  4.338   4.525   4.525   4.537   4.792   4.792   4.835   4.835
  5.131   5.131   5.210   5.592   5.950   5.951   6.947   8.533
  9.609   9.609   9.828   9.828  10.127  10.127  10.328  10.417
 10.417  10.512  10.512  10.533  10.691  10.691  10.711  10.711
 11.074  11.656  11.656  11.794  11.794  12.175  12.175  12.561
 12.561  12.823  12.938  12.938  13.363  16.035  16.035  16.706
 17.423  18.419  18.419  18.460  18.460  18.779  18.779  19.298
 28.270  31.499  31.499  31.639  31.639  32.283  33.236  33.236
 34.090  45.802  45.802  46.511  46.676  46.676  46.905  46.905
 47.273  55.333  55.333  55.333  55.333  55.334  55.334  55.336
 55.336  55.338  63.486  65.548  65.548  65.567  65.567  65.714
 65.714  65.864  82.319  93.321  93.321  93.433  93.433  93.858
102.744 102.744 102.752 102.752 102.788 102.788 102.810 116.142
116.142 116.821 145.587 145.587 146.132 197.672 197.672 197.793
197.793 197.966 215.483 387.756 394.100 394.100 394.664 893.417
 --------------------------------------------------------------
 
          Ground-State Mulliken Net Atomic Charges

     Atom                 Charge (a.u.)
  ----------------------------------------
      1 S                     0.619847
      2 O                    -0.619847
  ----------------------------------------
  Sum of atomic charges =    -0.000000

 -----------------------------------------------------------------
                    Cartesian Multipole Moments
 -----------------------------------------------------------------
    Charge (ESU x 10^10)
                -0.0000
    Dipole Moment (Debye)
         X      -0.0000      Y       0.0000      Z      -1.9089
       Tot       1.9089
    Quadrupole Moments (Debye-Ang)
        XX     -17.5541     XY       0.0000     YY     -17.5433
        XZ       0.0000     YZ      -0.0000     ZZ     -20.5506
    Octopole Moments (Debye-Ang^2)
       XXX      -0.0000    XXY       0.0000    XYY      -0.0000
       YYY       0.0000    XXZ      -7.6490    XYZ       0.0000
       YYZ      -7.6490    XZZ       0.0000    YZZ      -0.0000
       ZZZ     -29.8528
    Hexadecapole Moments (Debye-Ang^3)
      XXXX     -19.8440   XXXY       0.0000   XXYY      -6.6071
      XYYY       0.0000   YYYY     -19.7983   XXXZ       0.0000
      XXYZ      -0.0000   XYYZ       0.0000   YYYZ       0.0000
      XXZZ     -18.6477   XYZZ       0.0000   YYZZ     -18.6383
      XZZZ       0.0000   YZZZ      -0.0000   ZZZZ     -97.8828
 -----------------------------------------------------------------
Archival summary:
1\1\n0062.mhg0\SP\ROProcedureUnspecified\BasisUnspecified\11(3)\yhljason\SatSep1903:42:112020SatSep1903:42:112020\0\\#,ROProcedureUnspecified,BasisUnspecified,\\0,3\S\O,1,1.4811\\\@

 Total job time:  546.80s(wall), 8296.24s(cpu) 
 Sat Sep 19 03:42:11 2020

        *************************************************************
        *                                                           *
        *  Thank you very much for using Q-Chem.  Have a nice day.  *
        *                                                           *
        *************************************************************


 
User input: 3 of 7 
 
Q-Chem Developer Version!
                  Welcome to Q-Chem
     A Quantum Leap Into The Future Of Chemistry


 Q-Chem 5.1, Q-Chem, Inc., Pleasanton, CA (2018)

 Yihan Shao,  Zhengting Gan,  E. Epifanovsky,  A. T. B. Gilbert,  M. Wormit,  
 J. Kussmann,  A. W. Lange,  A. Behn,  Jia Deng,  Xintian Feng,  D. Ghosh,  
 M. Goldey,  P. R. Horn,  L. D. Jacobson,  I. Kaliman,  T. Kus,  A. Landau,  
 Jie Liu,  E. I. Proynov,  R. M. Richard,  R. P. Steele,  E. J. Sundstrom,  
 H. L. Woodcock III,  P. M. Zimmerman,  D. Zuev,  B. Albrecht,  E. Alguire,  
 S. A. Baeppler,  D. Barton,  Z. Benda,  Y. A. Bernard,  E. J. Berquist,  
 K. B. Bravaya,  H. Burton,  D. Casanova,  Chun-Min Chang,  Yunqing Chen,  
 A. Chien,  K. D. Closser,  M. P. Coons,  S. Coriani,  S. Dasgupta,  
 A. L. Dempwolff,  M. Diedenhofen,  Hainam Do,  R. G. Edgar,  Po-Tung Fang,  
 S. Faraji,  S. Fatehi,  Qingguo Feng,  K. D. Fenk,  J. Fosso-Tande,  
 Qinghui Ge,  A. Ghysels,  G. Gidofalvi,  J. Gomes,  J. Gonthier,  A. Gunina,  
 D. Hait,  M. W. D. Hanson-Heine,  P. H. P. Harbach,  A. W. Hauser,  
 J. E. Herr,  E. G. Hohenstein,  Z. C. Holden,  Kerwin Hui,  B. C. Huynh,  
 T.-C. Jagau,  Hyunjun Ji,  B. Kaduk,  K. Khistyaev,  Jaehoon Kim,  
 P. Klunzinger,  K. Koh,  D. Kosenkov,  L. Koulias,  T. Kowalczyk,  
 C. M. Krauter,  A. Kunitsa,  Ka Un Lao,  A. Laurent,  K. V. Lawler,  
 Joonho Lee,  D. Lefrancois,  S. Lehtola,  D. S. Levine,  Yi-Pei Li,  
 You-Sheng Lin,  Fenglai Liu,  E. Livshits,  A. Luenser,  P. Manohar,  
 E. Mansoor,  S. F. Manzer,  Shan-Ping Mao,  Yuezhi Mao,  N. Mardirossian,  
 A. V. Marenich,  T. Markovich,  L. A. Martinez-Martinez,  S. A. Maurer,  
 N. J. Mayhall,  S. C. McKenzie,  J.-M. Mewes,  A. F. Morrison,  
 J. W. Mullinax,  K. Nanda,  T. S. Nguyen-Beck,  R. Olivares-Amaya,  
 J. A. Parkhill,  T. M. Perrine,  F. Plasser,  P. Pokhilko,  S. Prager,  
 A. Prociuk,  E. Ramos,  D. R. Rehn,  F. Rob,  M. Schneider,  N. Sergueev,  
 S. M. Sharada,  S. Sharma,  D. W. Small,  T. Stauch,  T. Stein,  
 Yu-Chuan Su,  A. J. W. Thom,  A. Tkatchenko,  T. Tsuchimochi,  N. M. Tubman,  
 L. Vogt,  M. L. Vidal,  O. Vydrov,  M. A. Watson,  J. Wenzel,  
 M. de Wergifosse,  T. A. Wesolowski,  A. White,  J. Witte,  A. Yamada,  
 Jun Yang,  K. Yao,  S. Yeganeh,  S. R. Yost,  Zhi-Qiang You,  A. Zech,  
 Igor Ying Zhang,  Xing Zhang,  Yan Zhao,  Ying Zhu,  B. R. Brooks,  
 G. K. L. Chan,  C. J. Cramer,  M. S. Gordon,  W. J. Hehre,  A. Klamt,  
 M. W. Schmidt,  C. D. Sherrill,  D. G. Truhlar,  A. Aspuru-Guzik,  R. Baer,  
 A. T. Bell,  N. A. Besley,  Jeng-Da Chai,  A. E. DePrince, III,  
 R. A. DiStasio Jr.,  A. Dreuw,  B. D. Dunietz,  T. R. Furlani,  
 Chao-Ping Hsu,  Yousung Jung,  Jing Kong,  D. S. Lambrecht,  WanZhen Liang,  
 C. Ochsenfeld,  V. A. Rassolov,  L. V. Slipchenko,  J. E. Subotnik,  
 T. Van Voorhis,  J. M. Herbert,  A. I. Krylov,  P. M. W. Gill,  M. Head-Gordon

 Contributors to earlier versions of Q-Chem not listed above: 
 R. D. Adamson,  B. Austin,  J. Baker,  G. J. O. Beran,  K. Brandhorst,  
 S. T. Brown,  E. F. C. Byrd,  A. K. Chakraborty,  C.-L. Cheng,  
 Siu Hung Chien,  D. M. Chipman,  D. L. Crittenden,  H. Dachsel,  
 R. J. Doerksen,  A. D. Dutoi,  L. Fusti-Molnar,  W. A. Goddard III,  
 A. Golubeva-Zadorozhnaya,  S. R. Gwaltney,  G. Hawkins,  A. Heyden,  
 S. Hirata,  G. Kedziora,  F. J. Keil,  C. Kelley,  Jihan Kim,  R. A. King,  
 R. Z. Khaliullin,  P. P. Korambath,  W. Kurlancheek,  A. M. Lee,  M. S. Lee,  
 S. V. Levchenko,  Ching Yeh Lin,  D. Liotard,  R. C. Lochan,  I. Lotan,  
 P. E. Maslen,  N. Nair,  D. P. O'Neill,  D. Neuhauser,  E. Neuscamman,  
 C. M. Oana,  R. Olson,  B. Peters,  R. Peverati,  P. A. Pieniazek,  
 Y. M. Rhee,  J. Ritchie,  M. A. Rohrdanz,  E. Rosta,  N. J. Russ,  
 H. F. Schaefer III,  N. E. Schultz,  N. Shenvi,  A. C. Simmonett,  A. Sodt,  
 D. Stuck,  K. S. Thanthiriwatte,  V. Vanovschi,  Tao Wang,  A. Warshel,  
 C. F. Williams,  Q. Wu,  X. Xu,  W. Zhang

 Please cite Q-Chem as follows:
 Y. Shao et al., Mol. Phys. 113, 184-215 (2015)
 DOI: 10.1080/00268976.2014.952696

 Q-Chem 5.1.1 for Intel X86 EM64T Linux

 Parts of Q-Chem use Armadillo 8.300.2 (Tropical Shenanigans).
 http://arma.sourceforge.net/

 Q-Chem begins on Sat Sep 19 03:42:11 2020  

Host: n0062.mhg0
0

     Scratch files written to /local/scratch/users/yhljason/SO-trip_B2GPPLYP_aug-cc-pcVQZ.inp20200919022542//
The previous job contains 0 fragments, simply inherited here
Input Ideriv = 0
Curr. Ideriv = -1
Max.  Ideriv = 0
Input Ideriv = 1
Curr. Ideriv = 0
Max.  Ideriv = 0

Checking the input file for inconsistencies... 	...done.

--------------------------------------------------------------
User input:
--------------------------------------------------------------
$molecule
read
$end

$rem

jobtype sp
method B2GPPLYP
xc_grid 000099000590
basis aug-cc-pcVQZ
max_scf_cycles 200
thresh 14
scf_convergence 8
mem_total 128000
cc_memory 96000
cc_backend xm
mem_static 1500
symmetry false
sym_ignore true
scf_guess read
unrestricted false
scf_algorithm gdm
n_frozen_core 0
$end

$multipole_field
XX -0.0001
$end


--------------------------------------------------------------
 ----------------------------------------------------------------
             Standard Nuclear Orientation (Angstroms)
    I     Atom           X                Y                Z
 ----------------------------------------------------------------
    1      S       0.0000000000     0.0000000000     0.0000000000
    2      O       0.0000000000     0.0000000000     1.4811000000
 ----------------------------------------------------------------
 Nuclear Repulsion Energy =    45.7326871801 hartrees
 There are       13 alpha and       11 beta electrons
 Requested basis set is aug-cc-pCVQZ
 There are 63 shells and 243 basis functions

 Total QAlloc Memory Limit 128000 MB
 Mega-Array Size      1467 MB
 MEM_STATIC part      1500 MB

                       Distance Matrix (Angstroms)
             S (  1)
   O (  2)  1.481100
 
 Applying Cartesian multipole field
    Component          Value
    ---------          -----
     (2,0,0)       -1.00000E-04
 A cutoff of  1.0D-14 yielded   1941 shell pairs
 There are     29175 function pairs (     48737 Cartesian)
 
 -------------------------------------------------------
 OpenMP Integral Computing Module                       
 Release: version 1.0, May 2013, Q-Chem Inc. Pittsburgh 
 -------------------------------------------------------
 Integral Job Info:
 Integral job number is                      11
 Integral operator is                         1
 short-range coefficients                     0
 long-range coefficients              100000000
 Omega coefficients                           0
 if combine SR and LR in K                    0
 Integral screening is                        0
 Integral computing path is                   2
 max size of driver memory is           3200000
 size of driver memory is               1704330
 size of scratch memory is             29435624
 max col of scratch BK array              50625
 max len of scratch array in speh3         2114
 max len of scratch index in speh4           50
 max int batch size is                      520
 min int batch size is                       52
 fixed nKL is                                22
 max L of basis functions is                  4
 order of int derivative is                   0
 number of shells is                         63
 number of basis is                         313
 number of cartesian basis is               313
 number of contracted shell pairs          1941
 number of primitive shell pairs           7431
 maxK2 (contraction) of shell pair          169
 max number of K2 of shell pair               1
 max number of CS2 of shell pair            190
 max number of PS2 of shell pair           1014
 mem total for path MDJ                  712981
 -------------------------------------------------------
 Smallest overlap matrix eigenvalue = 2.74E-05
 Guess MOs from SCF MO coefficient file
 Reading MOs from coefficient file
 Reading MOs from coefficient file
 A restricted hybrid HF-DFT SCF calculation will be
 performed using Geometric Direct Minimization
 Exchange:     0.6500 Hartree-Fock + 0.3500 B88
 Correlation:  0.6400 LYP
 Using Euler-Maclaurin-Lebedev (99,590) quadrature formula
 SCF converges when RMS gradient is below 1.0E-08
Using Q-Chem read-in guess as SCF_GUESS READ specified.

 using 16 threads for integral computing
 -------------------------------------------------------
 OpenMP Integral computing Module                
 Release: version 2.0, May 2017, Q-Chem Inc. Pleasanton 
 -------------------------------------------------------
TIMEINFO->: J/JK contribution 133.08 sec.
 -------------------------------------------------------
 OpenMP BLAS3 based DFT computing Module                
 Release: version 1.0, May 2013, Q-Chem Inc. Pittsburgh 
 -------------------------------------------------------
 ---------------------------------------
  Cycle       Energy        RMS Gradient
 ---------------------------------------
    1    -473.0281684251      1.00E-03 Normal BFGS step
TIMEINFO->: J/JK contribution 130.72 sec.
    2    -473.0281699017      6.15E-04 Normal BFGS step
TIMEINFO->: J/JK contribution 128.64 sec.
    3    -473.0281702100      3.90E-04 Normal BFGS step
TIMEINFO->: J/JK contribution 129.63 sec.
    4    -473.0281702461      2.66E-04 Normal BFGS step
TIMEINFO->: J/JK contribution 129.52 sec.
    5    -473.0281703145      5.50E-05 Normal BFGS step
TIMEINFO->: J/JK contribution 128.42 sec.
    6    -473.0281703212      4.94E-05 Normal BFGS step
TIMEINFO->: J/JK contribution 128.99 sec.
    7    -473.0281703255      1.32E-05 Normal BFGS step
TIMEINFO->: J/JK contribution 128.12 sec.
    8    -473.0281703260      7.57E-06 Normal BFGS step
TIMEINFO->: J/JK contribution 126.78 sec.
    9    -473.0281703261      4.64E-06 Normal BFGS step
TIMEINFO->: J/JK contribution 126.29 sec.
   10    -473.0281703262      1.36E-06 Normal BFGS step
TIMEINFO->: J/JK contribution 124.95 sec.
   11    -473.0281703262      3.22E-07 Normal BFGS step
TIMEINFO->: J/JK contribution 120.99 sec.
   GDM::WARNING energy changes are now smaller than effective accuracy.
   GDM::        calculation will continue, but THRESH should be increased
   GDM::        or SCF_CONVERGENCE decreased.
   GDM::        effective_thresh =   1.300000000000000E-010
   12    -473.0281703262      5.43E-08 Normal BFGS step
TIMEINFO->: J/JK contribution 116.32 sec.
   13    -473.0281703262      1.04E-08 Normal BFGS step
TIMEINFO->: J/JK contribution 110.08 sec.
   GDM::WARNING energy changes are now smaller than effective accuracy.
   GDM::        calculation will continue, but THRESH should be increased
   GDM::        or SCF_CONVERGENCE decreased.
   GDM::        effective_thresh =   1.300000000000000E-010
   14    -473.0281703262      1.48E-09 Convergence criterion met
 ---------------------------------------
 SCF time:  CPU 1918.12 s  wall 120.34 s
 SCF   energy in the final basis set = -473.02817033
 Total energy in the final basis set = -473.02817033
 
 Components of the MP2 correlation energy:
        aaaa  correlation energy =        -0.0452549789 au
        abab  correlation energy =        -0.2569459317 au
        bbbb  correlation energy =        -0.0447237050 au
        non-Brillouin singles    =        -0.0058223516 au

 Total  MP2   correlation energy =                    -0.35274697 au
        MP2         total energy =                  -473.38091729 au
 
 --------------------------------------------------------------
 
                    Orbital Energies (a.u.)
 --------------------------------------------------------------
 
 Alpha MOs
 -- Occupied --
-90.724 -20.013  -8.617  -6.418  -6.426  -6.426  -1.290  -0.836
 -0.564  -0.571  -0.571  -0.351  -0.351
 -- Virtual --
  0.032   0.039   0.059   0.061   0.104   0.140   0.144   0.145
  0.155   0.155   0.234   0.235   0.245   0.271   0.326   0.327
  0.363   0.419   0.419   0.455   0.464   0.464   0.468   0.469
  0.492   0.492   0.581   0.582   0.592   0.621   0.622   0.635
  0.635   0.690   0.737   0.874   0.874   0.998   1.108   1.205
  1.205   1.232   1.252   1.252   1.247   1.247   1.267   1.267
  1.361   1.361   1.373   1.373   1.376   1.376   1.478   1.478
  1.480   1.480   1.519   1.551   1.551   1.575   1.584   1.584
  1.600   1.600   1.791   1.969   1.970   2.069   2.098   2.098
  2.177   2.202   2.202   2.625   2.998   2.998   3.161   3.161
  3.208   3.323   3.323   3.345   3.350   3.350   3.451   3.452
  3.456   3.456   3.471   3.471   3.548   3.548   3.627   3.627
  3.636   3.636   3.801   3.903   3.903   3.935   3.935   4.002
  4.037   4.037   4.132   4.132   4.320   4.325   4.325   4.493
  4.493   4.519   4.768   4.768   4.817   4.817   5.107   5.107
  5.198   5.582   5.934   5.934   6.932   8.517   9.578   9.578
  9.810   9.810  10.112  10.112  10.320  10.389  10.389  10.492
 10.492  10.519  10.679  10.679  10.695  10.695  11.060  11.614
 11.614  11.766  11.766  12.156  12.156  12.514  12.514  12.811
 12.912  12.912  13.350  16.017  16.017  16.699  17.402  18.416
 18.416  18.458  18.458  18.777  18.777  19.293  28.263  31.483
 31.483  31.630  31.630  32.276  33.212  33.212  34.082  45.790
 45.790  46.507  46.651  46.651  46.891  46.891  47.264  55.330
 55.330  55.330  55.330  55.332  55.332  55.334  55.334  55.337
 63.472  65.537  65.537  65.559  65.559  65.709  65.709  65.859
 82.312  93.307  93.307  93.425  93.425  93.851 102.725 102.725
102.740 102.740 102.779 102.779 102.803 116.132 116.132 116.819
145.579 145.579 146.130 197.665 197.665 197.789 197.789 197.964
215.479 387.752 394.097 394.097 394.664 893.417
 
 Beta MOs
 -- Occupied --
-90.714 -19.993  -8.607  -6.413  -6.402  -6.402  -1.237  -0.732
 -0.516  -0.467  -0.467
 -- Virtual --
 -0.041  -0.041   0.040   0.041   0.062   0.064   0.118   0.146
  0.146   0.148   0.171   0.171   0.246   0.247   0.249   0.277
  0.338   0.339   0.376   0.454   0.454   0.458   0.484   0.484
  0.494   0.495   0.497   0.497   0.609   0.610   0.598   0.628
  0.629   0.640   0.640   0.701   0.749   0.883   0.884   1.013
  1.116   1.243   1.243   1.249   1.257   1.257   1.280   1.280
  1.289   1.289   1.376   1.376   1.394   1.394   1.414   1.414
  1.499   1.499   1.496   1.496   1.530   1.568   1.569   1.584
  1.594   1.594   1.610   1.610   1.803   1.984   1.985   2.081
  2.118   2.118   2.195   2.223   2.223   2.639   3.024   3.024
  3.181   3.181   3.222   3.342   3.342   3.363   3.369   3.369
  3.476   3.476   3.487   3.487   3.502   3.502   3.557   3.557
  3.657   3.657   3.678   3.678   3.819   3.917   3.917   3.953
  3.953   4.017   4.063   4.063   4.156   4.156   4.329   4.338
  4.338   4.526   4.526   4.537   4.792   4.792   4.836   4.836
  5.132   5.132   5.210   5.593   5.951   5.951   6.947   8.534
  9.610   9.610   9.829   9.829  10.127  10.127  10.329  10.418
 10.418  10.513  10.513  10.533  10.692  10.692  10.711  10.711
 11.074  11.656  11.656  11.795  11.795  12.175  12.175  12.561
 12.561  12.824  12.938  12.938  13.363  16.036  16.036  16.707
 17.424  18.419  18.419  18.460  18.460  18.780  18.780  19.298
 28.270  31.500  31.500  31.639  31.639  32.284  33.237  33.237
 34.091  45.802  45.802  46.511  46.677  46.677  46.905  46.905
 47.273  55.333  55.333  55.334  55.334  55.335  55.335  55.336
 55.336  55.338  63.487  65.549  65.549  65.567  65.567  65.715
 65.715  65.864  82.320  93.321  93.321  93.434  93.434  93.858
102.744 102.744 102.753 102.753 102.788 102.788 102.811 116.142
116.143 116.822 145.587 145.587 146.133 197.673 197.673 197.793
197.793 197.966 215.484 387.757 394.101 394.101 394.665 893.418
 --------------------------------------------------------------
 
          Ground-State Mulliken Net Atomic Charges

     Atom                 Charge (a.u.)
  ----------------------------------------
      1 S                     0.621177
      2 O                    -0.621177
  ----------------------------------------
  Sum of atomic charges =    -0.000000

 -----------------------------------------------------------------
                    Cartesian Multipole Moments
 -----------------------------------------------------------------
    Charge (ESU x 10^10)
                -0.0000
    Dipole Moment (Debye)
         X       0.0000      Y      -0.0000      Z      -1.9130
       Tot       1.9130
    Quadrupole Moments (Debye-Ang)
        XX     -17.5286     XY      -0.0000     YY     -17.5393
        XZ      -0.0000     YZ      -0.0000     ZZ     -20.5544
    Octopole Moments (Debye-Ang^2)
       XXX       0.0000    XXY      -0.0000    XYY       0.0000
       YYY      -0.0000    XXZ      -7.6501    XYZ      -0.0000
       YYZ      -7.6501    XZZ       0.0000    YZZ      -0.0000
       ZZZ     -29.8656
    Hexadecapole Moments (Debye-Ang^3)
      XXXX     -19.7340   XXXY      -0.0000   XXYY      -6.5855
      XYYY       0.0000   YYYY     -19.7791   XXXZ       0.0000
      XXYZ      -0.0000   XYYZ       0.0000   YYYZ      -0.0000
      XXZZ     -18.6240   XYZZ      -0.0000   YYZZ     -18.6333
      XZZZ       0.0000   YZZZ      -0.0000   ZZZZ     -97.8881
 -----------------------------------------------------------------
Archival summary:
1\1\n0062.mhg0\SP\ROProcedureUnspecified\BasisUnspecified\11(3)\yhljason\SatSep1903:50:262020SatSep1903:50:262020\0\\#,ROProcedureUnspecified,BasisUnspecified,\\0,3\S\O,1,1.4811\\\@

 Total job time:  494.82s(wall), 7813.10s(cpu) 
 Sat Sep 19 03:50:26 2020

        *************************************************************
        *                                                           *
        *  Thank you very much for using Q-Chem.  Have a nice day.  *
        *                                                           *
        *************************************************************


 
User input: 4 of 7 
 
Q-Chem Developer Version!
                  Welcome to Q-Chem
     A Quantum Leap Into The Future Of Chemistry


 Q-Chem 5.1, Q-Chem, Inc., Pleasanton, CA (2018)

 Yihan Shao,  Zhengting Gan,  E. Epifanovsky,  A. T. B. Gilbert,  M. Wormit,  
 J. Kussmann,  A. W. Lange,  A. Behn,  Jia Deng,  Xintian Feng,  D. Ghosh,  
 M. Goldey,  P. R. Horn,  L. D. Jacobson,  I. Kaliman,  T. Kus,  A. Landau,  
 Jie Liu,  E. I. Proynov,  R. M. Richard,  R. P. Steele,  E. J. Sundstrom,  
 H. L. Woodcock III,  P. M. Zimmerman,  D. Zuev,  B. Albrecht,  E. Alguire,  
 S. A. Baeppler,  D. Barton,  Z. Benda,  Y. A. Bernard,  E. J. Berquist,  
 K. B. Bravaya,  H. Burton,  D. Casanova,  Chun-Min Chang,  Yunqing Chen,  
 A. Chien,  K. D. Closser,  M. P. Coons,  S. Coriani,  S. Dasgupta,  
 A. L. Dempwolff,  M. Diedenhofen,  Hainam Do,  R. G. Edgar,  Po-Tung Fang,  
 S. Faraji,  S. Fatehi,  Qingguo Feng,  K. D. Fenk,  J. Fosso-Tande,  
 Qinghui Ge,  A. Ghysels,  G. Gidofalvi,  J. Gomes,  J. Gonthier,  A. Gunina,  
 D. Hait,  M. W. D. Hanson-Heine,  P. H. P. Harbach,  A. W. Hauser,  
 J. E. Herr,  E. G. Hohenstein,  Z. C. Holden,  Kerwin Hui,  B. C. Huynh,  
 T.-C. Jagau,  Hyunjun Ji,  B. Kaduk,  K. Khistyaev,  Jaehoon Kim,  
 P. Klunzinger,  K. Koh,  D. Kosenkov,  L. Koulias,  T. Kowalczyk,  
 C. M. Krauter,  A. Kunitsa,  Ka Un Lao,  A. Laurent,  K. V. Lawler,  
 Joonho Lee,  D. Lefrancois,  S. Lehtola,  D. S. Levine,  Yi-Pei Li,  
 You-Sheng Lin,  Fenglai Liu,  E. Livshits,  A. Luenser,  P. Manohar,  
 E. Mansoor,  S. F. Manzer,  Shan-Ping Mao,  Yuezhi Mao,  N. Mardirossian,  
 A. V. Marenich,  T. Markovich,  L. A. Martinez-Martinez,  S. A. Maurer,  
 N. J. Mayhall,  S. C. McKenzie,  J.-M. Mewes,  A. F. Morrison,  
 J. W. Mullinax,  K. Nanda,  T. S. Nguyen-Beck,  R. Olivares-Amaya,  
 J. A. Parkhill,  T. M. Perrine,  F. Plasser,  P. Pokhilko,  S. Prager,  
 A. Prociuk,  E. Ramos,  D. R. Rehn,  F. Rob,  M. Schneider,  N. Sergueev,  
 S. M. Sharada,  S. Sharma,  D. W. Small,  T. Stauch,  T. Stein,  
 Yu-Chuan Su,  A. J. W. Thom,  A. Tkatchenko,  T. Tsuchimochi,  N. M. Tubman,  
 L. Vogt,  M. L. Vidal,  O. Vydrov,  M. A. Watson,  J. Wenzel,  
 M. de Wergifosse,  T. A. Wesolowski,  A. White,  J. Witte,  A. Yamada,  
 Jun Yang,  K. Yao,  S. Yeganeh,  S. R. Yost,  Zhi-Qiang You,  A. Zech,  
 Igor Ying Zhang,  Xing Zhang,  Yan Zhao,  Ying Zhu,  B. R. Brooks,  
 G. K. L. Chan,  C. J. Cramer,  M. S. Gordon,  W. J. Hehre,  A. Klamt,  
 M. W. Schmidt,  C. D. Sherrill,  D. G. Truhlar,  A. Aspuru-Guzik,  R. Baer,  
 A. T. Bell,  N. A. Besley,  Jeng-Da Chai,  A. E. DePrince, III,  
 R. A. DiStasio Jr.,  A. Dreuw,  B. D. Dunietz,  T. R. Furlani,  
 Chao-Ping Hsu,  Yousung Jung,  Jing Kong,  D. S. Lambrecht,  WanZhen Liang,  
 C. Ochsenfeld,  V. A. Rassolov,  L. V. Slipchenko,  J. E. Subotnik,  
 T. Van Voorhis,  J. M. Herbert,  A. I. Krylov,  P. M. W. Gill,  M. Head-Gordon

 Contributors to earlier versions of Q-Chem not listed above: 
 R. D. Adamson,  B. Austin,  J. Baker,  G. J. O. Beran,  K. Brandhorst,  
 S. T. Brown,  E. F. C. Byrd,  A. K. Chakraborty,  C.-L. Cheng,  
 Siu Hung Chien,  D. M. Chipman,  D. L. Crittenden,  H. Dachsel,  
 R. J. Doerksen,  A. D. Dutoi,  L. Fusti-Molnar,  W. A. Goddard III,  
 A. Golubeva-Zadorozhnaya,  S. R. Gwaltney,  G. Hawkins,  A. Heyden,  
 S. Hirata,  G. Kedziora,  F. J. Keil,  C. Kelley,  Jihan Kim,  R. A. King,  
 R. Z. Khaliullin,  P. P. Korambath,  W. Kurlancheek,  A. M. Lee,  M. S. Lee,  
 S. V. Levchenko,  Ching Yeh Lin,  D. Liotard,  R. C. Lochan,  I. Lotan,  
 P. E. Maslen,  N. Nair,  D. P. O'Neill,  D. Neuhauser,  E. Neuscamman,  
 C. M. Oana,  R. Olson,  B. Peters,  R. Peverati,  P. A. Pieniazek,  
 Y. M. Rhee,  J. Ritchie,  M. A. Rohrdanz,  E. Rosta,  N. J. Russ,  
 H. F. Schaefer III,  N. E. Schultz,  N. Shenvi,  A. C. Simmonett,  A. Sodt,  
 D. Stuck,  K. S. Thanthiriwatte,  V. Vanovschi,  Tao Wang,  A. Warshel,  
 C. F. Williams,  Q. Wu,  X. Xu,  W. Zhang

 Please cite Q-Chem as follows:
 Y. Shao et al., Mol. Phys. 113, 184-215 (2015)
 DOI: 10.1080/00268976.2014.952696

 Q-Chem 5.1.1 for Intel X86 EM64T Linux

 Parts of Q-Chem use Armadillo 8.300.2 (Tropical Shenanigans).
 http://arma.sourceforge.net/

 Q-Chem begins on Sat Sep 19 03:50:26 2020  

Host: n0062.mhg0
0

     Scratch files written to /local/scratch/users/yhljason/SO-trip_B2GPPLYP_aug-cc-pcVQZ.inp20200919022542//
The previous job contains 0 fragments, simply inherited here
Input Ideriv = 0
Curr. Ideriv = -1
Max.  Ideriv = 0
Input Ideriv = 1
Curr. Ideriv = 0
Max.  Ideriv = 0

Checking the input file for inconsistencies... 	...done.

--------------------------------------------------------------
User input:
--------------------------------------------------------------
$molecule
read
$end

$rem

jobtype sp
method B2GPPLYP
xc_grid 000099000590
basis aug-cc-pcVQZ
max_scf_cycles 200
thresh 14
scf_convergence 8
mem_total 128000
cc_memory 96000
cc_backend xm
mem_static 1500
symmetry false
sym_ignore true
scf_guess read
unrestricted false
scf_algorithm gdm
n_frozen_core 0
$end

$multipole_field
YY 0.0001
$end


--------------------------------------------------------------
 ----------------------------------------------------------------
             Standard Nuclear Orientation (Angstroms)
    I     Atom           X                Y                Z
 ----------------------------------------------------------------
    1      S       0.0000000000     0.0000000000     0.0000000000
    2      O       0.0000000000     0.0000000000     1.4811000000
 ----------------------------------------------------------------
 Nuclear Repulsion Energy =    45.7326871801 hartrees
 There are       13 alpha and       11 beta electrons
 Requested basis set is aug-cc-pCVQZ
 There are 63 shells and 243 basis functions

 Total QAlloc Memory Limit 128000 MB
 Mega-Array Size      1467 MB
 MEM_STATIC part      1500 MB

                       Distance Matrix (Angstroms)
             S (  1)
   O (  2)  1.481100
 
 Applying Cartesian multipole field
    Component          Value
    ---------          -----
     (0,2,0)        1.00000E-04
 A cutoff of  1.0D-14 yielded   1941 shell pairs
 There are     29175 function pairs (     48737 Cartesian)
 
 -------------------------------------------------------
 OpenMP Integral Computing Module                       
 Release: version 1.0, May 2013, Q-Chem Inc. Pittsburgh 
 -------------------------------------------------------
 Integral Job Info:
 Integral job number is                      11
 Integral operator is                         1
 short-range coefficients                     0
 long-range coefficients              100000000
 Omega coefficients                           0
 if combine SR and LR in K                    0
 Integral screening is                        0
 Integral computing path is                   2
 max size of driver memory is           3200000
 size of driver memory is               1704330
 size of scratch memory is             29435624
 max col of scratch BK array              50625
 max len of scratch array in speh3         2114
 max len of scratch index in speh4           50
 max int batch size is                      520
 min int batch size is                       52
 fixed nKL is                                22
 max L of basis functions is                  4
 order of int derivative is                   0
 number of shells is                         63
 number of basis is                         313
 number of cartesian basis is               313
 number of contracted shell pairs          1941
 number of primitive shell pairs           7431
 maxK2 (contraction) of shell pair          169
 max number of K2 of shell pair               1
 max number of CS2 of shell pair            190
 max number of PS2 of shell pair           1014
 mem total for path MDJ                  712981
 -------------------------------------------------------
 Smallest overlap matrix eigenvalue = 2.74E-05
 Guess MOs from SCF MO coefficient file
 Reading MOs from coefficient file
 Reading MOs from coefficient file
 A restricted hybrid HF-DFT SCF calculation will be
 performed using Geometric Direct Minimization
 Exchange:     0.6500 Hartree-Fock + 0.3500 B88
 Correlation:  0.6400 LYP
 Using Euler-Maclaurin-Lebedev (99,590) quadrature formula
 SCF converges when RMS gradient is below 1.0E-08
Using Q-Chem read-in guess as SCF_GUESS READ specified.

 using 16 threads for integral computing
 -------------------------------------------------------
 OpenMP Integral computing Module                
 Release: version 2.0, May 2017, Q-Chem Inc. Pleasanton 
 -------------------------------------------------------
TIMEINFO->: J/JK contribution 133.47 sec.
 -------------------------------------------------------
 OpenMP BLAS3 based DFT computing Module                
 Release: version 1.0, May 2013, Q-Chem Inc. Pittsburgh 
 -------------------------------------------------------
 ---------------------------------------
  Cycle       Energy        RMS Gradient
 ---------------------------------------
    1    -473.0307775410      6.71E-04 Normal BFGS step
TIMEINFO->: J/JK contribution 135.63 sec.
    2    -473.0307782744      4.71E-04 Normal BFGS step
TIMEINFO->: J/JK contribution 129.39 sec.
    3    -473.0307785702      2.69E-04 Normal BFGS step
TIMEINFO->: J/JK contribution 133.09 sec.
    4    -473.0307785703      2.02E-04 Normal BFGS step
TIMEINFO->: J/JK contribution 126.60 sec.
    5    -473.0307786298      1.83E-05 Normal BFGS step
TIMEINFO->: J/JK contribution 126.35 sec.
    6    -473.0307786318      1.58E-05 Normal BFGS step
TIMEINFO->: J/JK contribution 125.73 sec.
    7    -473.0307786326      3.00E-06 Normal BFGS step
TIMEINFO->: J/JK contribution 126.45 sec.
    8    -473.0307786326      5.69E-07 Normal BFGS step
TIMEINFO->: J/JK contribution 124.94 sec.
    9    -473.0307786326      1.54E-07 Normal BFGS step
TIMEINFO->: J/JK contribution 120.61 sec.
   10    -473.0307786326      2.80E-08 Normal BFGS step
TIMEINFO->: J/JK contribution 114.30 sec.
   11    -473.0307786326      2.31E-08 Normal BFGS step
TIMEINFO->: J/JK contribution 114.72 sec.
   12    -473.0307786326      1.20E-08 Normal BFGS step
TIMEINFO->: J/JK contribution 106.83 sec.
   13    -473.0307786326      3.79E-09 Convergence criterion met
 ---------------------------------------
 SCF time:  CPU 1754.73 s  wall 123.51 s
 SCF   energy in the final basis set = -473.03077863
 Total energy in the final basis set = -473.03077863
 
 Components of the MP2 correlation energy:
        aaaa  correlation energy =        -0.0452563385 au
        abab  correlation energy =        -0.2569563543 au
        bbbb  correlation energy =        -0.0447300364 au
        non-Brillouin singles    =        -0.0058269677 au

 Total  MP2   correlation energy =                    -0.35276970 au
        MP2         total energy =                  -473.38354833 au
 
 --------------------------------------------------------------
 
                    Orbital Energies (a.u.)
 --------------------------------------------------------------
 
 Alpha MOs
 -- Occupied --
-90.725 -20.014  -8.618  -6.419  -6.427  -6.427  -1.290  -0.836
 -0.565  -0.572  -0.572  -0.352  -0.352
 -- Virtual --
  0.030   0.036   0.055   0.057   0.102   0.138   0.141   0.142
  0.153   0.153   0.232   0.233   0.243   0.269   0.324   0.325
  0.362   0.418   0.418   0.454   0.463   0.463   0.467   0.468
  0.490   0.490   0.580   0.581   0.591   0.620   0.621   0.634
  0.634   0.688   0.736   0.873   0.873   0.997   1.107   1.205
  1.205   1.231   1.251   1.251   1.246   1.246   1.266   1.266
  1.360   1.360   1.372   1.372   1.375   1.375   1.477   1.477
  1.479   1.479   1.518   1.550   1.550   1.574   1.584   1.584
  1.600   1.600   1.790   1.969   1.969   2.068   2.097   2.097
  2.176   2.201   2.202   2.625   2.997   2.997   3.160   3.160
  3.207   3.322   3.322   3.344   3.349   3.349   3.451   3.451
  3.455   3.455   3.471   3.471   3.547   3.547   3.627   3.627
  3.636   3.636   3.801   3.903   3.903   3.935   3.935   4.001
  4.037   4.037   4.131   4.131   4.319   4.324   4.324   4.493
  4.493   4.518   4.768   4.768   4.816   4.816   5.106   5.106
  5.198   5.581   5.933   5.934   6.931   8.516   9.577   9.577
  9.809   9.809  10.112  10.112  10.320  10.389  10.389  10.492
 10.492  10.519  10.678  10.678  10.695  10.695  11.060  11.614
 11.614  11.766  11.766  12.155  12.155  12.513  12.513  12.811
 12.912  12.912  13.349  16.017  16.017  16.699  17.402  18.416
 18.416  18.457  18.457  18.777  18.777  19.293  28.263  31.483
 31.483  31.629  31.629  32.276  33.211  33.211  34.081  45.789
 45.789  46.506  46.650  46.650  46.890  46.890  47.263  55.330
 55.330  55.330  55.330  55.332  55.332  55.334  55.334  55.336
 63.472  65.537  65.537  65.558  65.558  65.708  65.708  65.858
 82.312  93.306  93.306  93.425  93.425  93.851 102.724 102.724
102.739 102.739 102.779 102.779 102.802 116.132 116.132 116.818
145.578 145.578 146.130 197.665 197.665 197.788 197.788 197.963
215.478 387.752 394.097 394.097 394.663 893.416
 
 Beta MOs
 -- Occupied --
-90.715 -19.994  -8.608  -6.414  -6.403  -6.403  -1.237  -0.732
 -0.517  -0.467  -0.467
 -- Virtual --
 -0.042  -0.042   0.038   0.038   0.057   0.059   0.116   0.144
  0.143   0.145   0.168   0.168   0.244   0.245   0.247   0.275
  0.336   0.337   0.375   0.453   0.453   0.456   0.483   0.483
  0.493   0.493   0.496   0.496   0.608   0.609   0.597   0.627
  0.628   0.639   0.639   0.700   0.748   0.882   0.883   1.012
  1.115   1.242   1.242   1.248   1.256   1.256   1.279   1.279
  1.288   1.288   1.375   1.375   1.393   1.393   1.413   1.413
  1.498   1.498   1.495   1.495   1.530   1.568   1.568   1.583
  1.593   1.593   1.609   1.609   1.803   1.984   1.984   2.080
  2.117   2.117   2.194   2.222   2.223   2.639   3.023   3.023
  3.180   3.180   3.222   3.341   3.341   3.362   3.369   3.369
  3.475   3.475   3.487   3.487   3.501   3.501   3.557   3.557
  3.657   3.657   3.677   3.677   3.818   3.917   3.917   3.952
  3.952   4.016   4.062   4.062   4.156   4.156   4.328   4.338
  4.338   4.525   4.525   4.537   4.792   4.792   4.835   4.835
  5.131   5.131   5.210   5.592   5.950   5.951   6.947   8.533
  9.609   9.609   9.828   9.828  10.127  10.127  10.328  10.417
 10.417  10.512  10.512  10.533  10.691  10.691  10.711  10.711
 11.074  11.656  11.656  11.794  11.794  12.175  12.175  12.561
 12.561  12.823  12.938  12.938  13.363  16.035  16.035  16.706
 17.423  18.419  18.419  18.460  18.460  18.779  18.779  19.298
 28.270  31.499  31.499  31.639  31.639  32.283  33.236  33.236
 34.090  45.802  45.802  46.511  46.676  46.676  46.905  46.905
 47.273  55.333  55.333  55.333  55.333  55.334  55.334  55.336
 55.336  55.338  63.486  65.548  65.548  65.567  65.567  65.714
 65.714  65.864  82.319  93.321  93.321  93.433  93.433  93.858
102.744 102.744 102.752 102.752 102.788 102.788 102.810 116.142
116.142 116.821 145.587 145.587 146.132 197.672 197.672 197.793
197.793 197.966 215.483 387.756 394.100 394.100 394.664 893.417
 --------------------------------------------------------------
 
          Ground-State Mulliken Net Atomic Charges

     Atom                 Charge (a.u.)
  ----------------------------------------
      1 S                     0.619847
      2 O                    -0.619847
  ----------------------------------------
  Sum of atomic charges =    -0.000000

 -----------------------------------------------------------------
                    Cartesian Multipole Moments
 -----------------------------------------------------------------
    Charge (ESU x 10^10)
                -0.0000
    Dipole Moment (Debye)
         X       0.0000      Y      -0.0000      Z      -1.9089
       Tot       1.9089
    Quadrupole Moments (Debye-Ang)
        XX     -17.5433     XY       0.0000     YY     -17.5541
        XZ       0.0000     YZ       0.0000     ZZ     -20.5506
    Octopole Moments (Debye-Ang^2)
       XXX       0.0000    XXY      -0.0000    XYY       0.0000
       YYY      -0.0000    XXZ      -7.6490    XYZ       0.0000
       YYZ      -7.6490    XZZ       0.0000    YZZ      -0.0000
       ZZZ     -29.8528
    Hexadecapole Moments (Debye-Ang^3)
      XXXX     -19.7983   XXXY      -0.0000   XXYY      -6.6071
      XYYY      -0.0000   YYYY     -19.8440   XXXZ       0.0000
      XXYZ       0.0000   XYYZ       0.0000   YYYZ      -0.0000
      XXZZ     -18.6383   XYZZ       0.0000   YYZZ     -18.6477
      XZZZ       0.0000   YZZZ       0.0000   ZZZZ     -97.8828
 -----------------------------------------------------------------
Archival summary:
1\1\n0062.mhg0\SP\ROProcedureUnspecified\BasisUnspecified\11(3)\yhljason\SatSep1903:59:292020SatSep1903:59:292020\0\\#,ROProcedureUnspecified,BasisUnspecified,\\0,3\S\O,1,1.4811\\\@

 Total job time:  542.88s(wall), 7867.72s(cpu) 
 Sat Sep 19 03:59:29 2020

        *************************************************************
        *                                                           *
        *  Thank you very much for using Q-Chem.  Have a nice day.  *
        *                                                           *
        *************************************************************


 
User input: 5 of 7 
 
Q-Chem Developer Version!
                  Welcome to Q-Chem
     A Quantum Leap Into The Future Of Chemistry


 Q-Chem 5.1, Q-Chem, Inc., Pleasanton, CA (2018)

 Yihan Shao,  Zhengting Gan,  E. Epifanovsky,  A. T. B. Gilbert,  M. Wormit,  
 J. Kussmann,  A. W. Lange,  A. Behn,  Jia Deng,  Xintian Feng,  D. Ghosh,  
 M. Goldey,  P. R. Horn,  L. D. Jacobson,  I. Kaliman,  T. Kus,  A. Landau,  
 Jie Liu,  E. I. Proynov,  R. M. Richard,  R. P. Steele,  E. J. Sundstrom,  
 H. L. Woodcock III,  P. M. Zimmerman,  D. Zuev,  B. Albrecht,  E. Alguire,  
 S. A. Baeppler,  D. Barton,  Z. Benda,  Y. A. Bernard,  E. J. Berquist,  
 K. B. Bravaya,  H. Burton,  D. Casanova,  Chun-Min Chang,  Yunqing Chen,  
 A. Chien,  K. D. Closser,  M. P. Coons,  S. Coriani,  S. Dasgupta,  
 A. L. Dempwolff,  M. Diedenhofen,  Hainam Do,  R. G. Edgar,  Po-Tung Fang,  
 S. Faraji,  S. Fatehi,  Qingguo Feng,  K. D. Fenk,  J. Fosso-Tande,  
 Qinghui Ge,  A. Ghysels,  G. Gidofalvi,  J. Gomes,  J. Gonthier,  A. Gunina,  
 D. Hait,  M. W. D. Hanson-Heine,  P. H. P. Harbach,  A. W. Hauser,  
 J. E. Herr,  E. G. Hohenstein,  Z. C. Holden,  Kerwin Hui,  B. C. Huynh,  
 T.-C. Jagau,  Hyunjun Ji,  B. Kaduk,  K. Khistyaev,  Jaehoon Kim,  
 P. Klunzinger,  K. Koh,  D. Kosenkov,  L. Koulias,  T. Kowalczyk,  
 C. M. Krauter,  A. Kunitsa,  Ka Un Lao,  A. Laurent,  K. V. Lawler,  
 Joonho Lee,  D. Lefrancois,  S. Lehtola,  D. S. Levine,  Yi-Pei Li,  
 You-Sheng Lin,  Fenglai Liu,  E. Livshits,  A. Luenser,  P. Manohar,  
 E. Mansoor,  S. F. Manzer,  Shan-Ping Mao,  Yuezhi Mao,  N. Mardirossian,  
 A. V. Marenich,  T. Markovich,  L. A. Martinez-Martinez,  S. A. Maurer,  
 N. J. Mayhall,  S. C. McKenzie,  J.-M. Mewes,  A. F. Morrison,  
 J. W. Mullinax,  K. Nanda,  T. S. Nguyen-Beck,  R. Olivares-Amaya,  
 J. A. Parkhill,  T. M. Perrine,  F. Plasser,  P. Pokhilko,  S. Prager,  
 A. Prociuk,  E. Ramos,  D. R. Rehn,  F. Rob,  M. Schneider,  N. Sergueev,  
 S. M. Sharada,  S. Sharma,  D. W. Small,  T. Stauch,  T. Stein,  
 Yu-Chuan Su,  A. J. W. Thom,  A. Tkatchenko,  T. Tsuchimochi,  N. M. Tubman,  
 L. Vogt,  M. L. Vidal,  O. Vydrov,  M. A. Watson,  J. Wenzel,  
 M. de Wergifosse,  T. A. Wesolowski,  A. White,  J. Witte,  A. Yamada,  
 Jun Yang,  K. Yao,  S. Yeganeh,  S. R. Yost,  Zhi-Qiang You,  A. Zech,  
 Igor Ying Zhang,  Xing Zhang,  Yan Zhao,  Ying Zhu,  B. R. Brooks,  
 G. K. L. Chan,  C. J. Cramer,  M. S. Gordon,  W. J. Hehre,  A. Klamt,  
 M. W. Schmidt,  C. D. Sherrill,  D. G. Truhlar,  A. Aspuru-Guzik,  R. Baer,  
 A. T. Bell,  N. A. Besley,  Jeng-Da Chai,  A. E. DePrince, III,  
 R. A. DiStasio Jr.,  A. Dreuw,  B. D. Dunietz,  T. R. Furlani,  
 Chao-Ping Hsu,  Yousung Jung,  Jing Kong,  D. S. Lambrecht,  WanZhen Liang,  
 C. Ochsenfeld,  V. A. Rassolov,  L. V. Slipchenko,  J. E. Subotnik,  
 T. Van Voorhis,  J. M. Herbert,  A. I. Krylov,  P. M. W. Gill,  M. Head-Gordon

 Contributors to earlier versions of Q-Chem not listed above: 
 R. D. Adamson,  B. Austin,  J. Baker,  G. J. O. Beran,  K. Brandhorst,  
 S. T. Brown,  E. F. C. Byrd,  A. K. Chakraborty,  C.-L. Cheng,  
 Siu Hung Chien,  D. M. Chipman,  D. L. Crittenden,  H. Dachsel,  
 R. J. Doerksen,  A. D. Dutoi,  L. Fusti-Molnar,  W. A. Goddard III,  
 A. Golubeva-Zadorozhnaya,  S. R. Gwaltney,  G. Hawkins,  A. Heyden,  
 S. Hirata,  G. Kedziora,  F. J. Keil,  C. Kelley,  Jihan Kim,  R. A. King,  
 R. Z. Khaliullin,  P. P. Korambath,  W. Kurlancheek,  A. M. Lee,  M. S. Lee,  
 S. V. Levchenko,  Ching Yeh Lin,  D. Liotard,  R. C. Lochan,  I. Lotan,  
 P. E. Maslen,  N. Nair,  D. P. O'Neill,  D. Neuhauser,  E. Neuscamman,  
[...]
 55.335  55.338  63.486  65.548  65.548  65.566  65.566  65.714
 65.714  65.864  82.319  93.320  93.320  93.433  93.433  93.857
102.743 102.743 102.752 102.752 102.788 102.788 102.810 116.142
116.142 116.821 145.586 145.586 146.132 197.672 197.672 197.792
197.792 197.966 215.483 387.756 394.100 394.100 394.664 893.417
 --------------------------------------------------------------
 
          Ground-State Mulliken Net Atomic Charges

     Atom                 Charge (a.u.)
  ----------------------------------------
      1 S                     0.622928
      2 O                    -0.622928
  ----------------------------------------
  Sum of atomic charges =    -0.000000

 -----------------------------------------------------------------
                    Cartesian Multipole Moments
 -----------------------------------------------------------------
    Charge (ESU x 10^10)
                -0.0000
    Dipole Moment (Debye)
         X       0.0000      Y      -0.0000      Z      -1.9262
       Tot       1.9262
    Quadrupole Moments (Debye-Ang)
        XX     -17.5394     XY       0.0000     YY     -17.5394
        XZ      -0.0000     YZ      -0.0000     ZZ     -20.5956
    Octopole Moments (Debye-Ang^2)
       XXX       0.0000    XXY      -0.0000    XYY       0.0000
       YYY       0.0000    XXZ      -7.6578    XYZ       0.0000
       YYZ      -7.6578    XZZ       0.0000    YZZ      -0.0000
       ZZZ     -29.9522
    Hexadecapole Moments (Debye-Ang^3)
      XXXX     -19.7840   XXXY       0.0000   XXYY      -6.5947
      XYYY       0.0000   YYYY     -19.7840   XXXZ       0.0000
      XXYZ      -0.0000   XYYZ       0.0000   YYYZ      -0.0000
      XXZZ     -18.6606   XYZZ       0.0000   YYZZ     -18.6606
      XZZZ       0.0000   YZZZ      -0.0000   ZZZZ     -98.1462
 -----------------------------------------------------------------
Archival summary:
1\1\n0062.mhg0\SP\ROProcedureUnspecified\BasisUnspecified\11(3)\yhljason\SatSep1904:17:132020SatSep1904:17:132020\0\\#,ROProcedureUnspecified,BasisUnspecified,\\0,3\S\O,1,1.4811\\\@

 Total job time:  526.90s(wall), 7936.51s(cpu) 
 Sat Sep 19 04:17:13 2020

        *************************************************************
        *                                                           *
        *  Thank you very much for using Q-Chem.  Have a nice day.  *
        *                                                           *
        *************************************************************


 
User input: 7 of 7 
 
Q-Chem Developer Version!
                  Welcome to Q-Chem
     A Quantum Leap Into The Future Of Chemistry


 Q-Chem 5.1, Q-Chem, Inc., Pleasanton, CA (2018)

 Yihan Shao,  Zhengting Gan,  E. Epifanovsky,  A. T. B. Gilbert,  M. Wormit,  
 J. Kussmann,  A. W. Lange,  A. Behn,  Jia Deng,  Xintian Feng,  D. Ghosh,  
 M. Goldey,  P. R. Horn,  L. D. Jacobson,  I. Kaliman,  T. Kus,  A. Landau,  
 Jie Liu,  E. I. Proynov,  R. M. Richard,  R. P. Steele,  E. J. Sundstrom,  
 H. L. Woodcock III,  P. M. Zimmerman,  D. Zuev,  B. Albrecht,  E. Alguire,  
 S. A. Baeppler,  D. Barton,  Z. Benda,  Y. A. Bernard,  E. J. Berquist,  
 K. B. Bravaya,  H. Burton,  D. Casanova,  Chun-Min Chang,  Yunqing Chen,  
 A. Chien,  K. D. Closser,  M. P. Coons,  S. Coriani,  S. Dasgupta,  
 A. L. Dempwolff,  M. Diedenhofen,  Hainam Do,  R. G. Edgar,  Po-Tung Fang,  
 S. Faraji,  S. Fatehi,  Qingguo Feng,  K. D. Fenk,  J. Fosso-Tande,  
 Qinghui Ge,  A. Ghysels,  G. Gidofalvi,  J. Gomes,  J. Gonthier,  A. Gunina,  
 D. Hait,  M. W. D. Hanson-Heine,  P. H. P. Harbach,  A. W. Hauser,  
 J. E. Herr,  E. G. Hohenstein,  Z. C. Holden,  Kerwin Hui,  B. C. Huynh,  
 T.-C. Jagau,  Hyunjun Ji,  B. Kaduk,  K. Khistyaev,  Jaehoon Kim,  
 P. Klunzinger,  K. Koh,  D. Kosenkov,  L. Koulias,  T. Kowalczyk,  
 C. M. Krauter,  A. Kunitsa,  Ka Un Lao,  A. Laurent,  K. V. Lawler,  
 Joonho Lee,  D. Lefrancois,  S. Lehtola,  D. S. Levine,  Yi-Pei Li,  
 You-Sheng Lin,  Fenglai Liu,  E. Livshits,  A. Luenser,  P. Manohar,  
 E. Mansoor,  S. F. Manzer,  Shan-Ping Mao,  Yuezhi Mao,  N. Mardirossian,  
 A. V. Marenich,  T. Markovich,  L. A. Martinez-Martinez,  S. A. Maurer,  
 N. J. Mayhall,  S. C. McKenzie,  J.-M. Mewes,  A. F. Morrison,  
 J. W. Mullinax,  K. Nanda,  T. S. Nguyen-Beck,  R. Olivares-Amaya,  
 J. A. Parkhill,  T. M. Perrine,  F. Plasser,  P. Pokhilko,  S. Prager,  
 A. Prociuk,  E. Ramos,  D. R. Rehn,  F. Rob,  M. Schneider,  N. Sergueev,  
 S. M. Sharada,  S. Sharma,  D. W. Small,  T. Stauch,  T. Stein,  
 Yu-Chuan Su,  A. J. W. Thom,  A. Tkatchenko,  T. Tsuchimochi,  N. M. Tubman,  
 L. Vogt,  M. L. Vidal,  O. Vydrov,  M. A. Watson,  J. Wenzel,  
 M. de Wergifosse,  T. A. Wesolowski,  A. White,  J. Witte,  A. Yamada,  
 Jun Yang,  K. Yao,  S. Yeganeh,  S. R. Yost,  Zhi-Qiang You,  A. Zech,  
 Igor Ying Zhang,  Xing Zhang,  Yan Zhao,  Ying Zhu,  B. R. Brooks,  
 G. K. L. Chan,  C. J. Cramer,  M. S. Gordon,  W. J. Hehre,  A. Klamt,  
 M. W. Schmidt,  C. D. Sherrill,  D. G. Truhlar,  A. Aspuru-Guzik,  R. Baer,  
 A. T. Bell,  N. A. Besley,  Jeng-Da Chai,  A. E. DePrince, III,  
 R. A. DiStasio Jr.,  A. Dreuw,  B. D. Dunietz,  T. R. Furlani,  
 Chao-Ping Hsu,  Yousung Jung,  Jing Kong,  D. S. Lambrecht,  WanZhen Liang,  
 C. Ochsenfeld,  V. A. Rassolov,  L. V. Slipchenko,  J. E. Subotnik,  
 T. Van Voorhis,  J. M. Herbert,  A. I. Krylov,  P. M. W. Gill,  M. Head-Gordon

 Contributors to earlier versions of Q-Chem not listed above: 
 R. D. Adamson,  B. Austin,  J. Baker,  G. J. O. Beran,  K. Brandhorst,  
 S. T. Brown,  E. F. C. Byrd,  A. K. Chakraborty,  C.-L. Cheng,  
 Siu Hung Chien,  D. M. Chipman,  D. L. Crittenden,  H. Dachsel,  
 R. J. Doerksen,  A. D. Dutoi,  L. Fusti-Molnar,  W. A. Goddard III,  
 A. Golubeva-Zadorozhnaya,  S. R. Gwaltney,  G. Hawkins,  A. Heyden,  
 S. Hirata,  G. Kedziora,  F. J. Keil,  C. Kelley,  Jihan Kim,  R. A. King,  
 R. Z. Khaliullin,  P. P. Korambath,  W. Kurlancheek,  A. M. Lee,  M. S. Lee,  
 S. V. Levchenko,  Ching Yeh Lin,  D. Liotard,  R. C. Lochan,  I. Lotan,  
 P. E. Maslen,  N. Nair,  D. P. O'Neill,  D. Neuhauser,  E. Neuscamman,  
 C. M. Oana,  R. Olson,  B. Peters,  R. Peverati,  P. A. Pieniazek,  
 Y. M. Rhee,  J. Ritchie,  M. A. Rohrdanz,  E. Rosta,  N. J. Russ,  
 H. F. Schaefer III,  N. E. Schultz,  N. Shenvi,  A. C. Simmonett,  A. Sodt,  
 D. Stuck,  K. S. Thanthiriwatte,  V. Vanovschi,  Tao Wang,  A. Warshel,  
 C. F. Williams,  Q. Wu,  X. Xu,  W. Zhang

 Please cite Q-Chem as follows:
 Y. Shao et al., Mol. Phys. 113, 184-215 (2015)
 DOI: 10.1080/00268976.2014.952696

 Q-Chem 5.1.1 for Intel X86 EM64T Linux

 Parts of Q-Chem use Armadillo 8.300.2 (Tropical Shenanigans).
 http://arma.sourceforge.net/

 Q-Chem begins on Sat Sep 19 04:17:13 2020  

Host: n0062.mhg0
0

     Scratch files written to /local/scratch/users/yhljason/SO-trip_B2GPPLYP_aug-cc-pcVQZ.inp20200919022542//
The previous job contains 0 fragments, simply inherited here
Input Ideriv = 0
Curr. Ideriv = -1
Max.  Ideriv = 0
Input Ideriv = 1
Curr. Ideriv = 0
Max.  Ideriv = 0

Checking the input file for inconsistencies... 	...done.

--------------------------------------------------------------
User input:
--------------------------------------------------------------
$molecule
read
$end

$rem

jobtype sp
method B2GPPLYP
xc_grid 000099000590
basis aug-cc-pcVQZ
max_scf_cycles 200
thresh 14
scf_convergence 8
mem_total 128000
cc_memory 96000
cc_backend xm
mem_static 1500
symmetry false
sym_ignore true
scf_guess read
unrestricted false
scf_algorithm gdm
n_frozen_core 0
$end

$multipole_field
ZZ -0.0001
$end

--------------------------------------------------------------
 ----------------------------------------------------------------
             Standard Nuclear Orientation (Angstroms)
    I     Atom           X                Y                Z
 ----------------------------------------------------------------
    1      S       0.0000000000     0.0000000000     0.0000000000
    2      O       0.0000000000     0.0000000000     1.4811000000
 ----------------------------------------------------------------
 Nuclear Repulsion Energy =    45.7326871801 hartrees
 There are       13 alpha and       11 beta electrons
 Requested basis set is aug-cc-pCVQZ
 There are 63 shells and 243 basis functions

 Total QAlloc Memory Limit 128000 MB
 Mega-Array Size      1467 MB
 MEM_STATIC part      1500 MB

                       Distance Matrix (Angstroms)
             S (  1)
   O (  2)  1.481100
 
 Applying Cartesian multipole field
    Component          Value
    ---------          -----
     (0,0,2)       -1.00000E-04
 Nucleus-field energy     =    -0.0062669537 hartrees
 A cutoff of  1.0D-14 yielded   1941 shell pairs
 There are     29175 function pairs (     48737 Cartesian)
 
 -------------------------------------------------------
 OpenMP Integral Computing Module                       
 Release: version 1.0, May 2013, Q-Chem Inc. Pittsburgh 
 -------------------------------------------------------
 Integral Job Info:
 Integral job number is                      11
 Integral operator is                         1
 short-range coefficients                     0
 long-range coefficients              100000000
 Omega coefficients                           0
 if combine SR and LR in K                    0
 Integral screening is                        0
 Integral computing path is                   2
 max size of driver memory is           3200000
 size of driver memory is               1704330
 size of scratch memory is             29435624
 max col of scratch BK array              50625
 max len of scratch array in speh3         2114
 max len of scratch index in speh4           50
 max int batch size is                      520
 min int batch size is                       52
 fixed nKL is                                22
 max L of basis functions is                  4
 order of int derivative is                   0
 number of shells is                         63
 number of basis is                         313
 number of cartesian basis is               313
 number of contracted shell pairs          1941
 number of primitive shell pairs           7431
 maxK2 (contraction) of shell pair          169
 max number of K2 of shell pair               1
 max number of CS2 of shell pair            190
 max number of PS2 of shell pair           1014
 mem total for path MDJ                  712981
 -------------------------------------------------------
 Smallest overlap matrix eigenvalue = 2.74E-05
 Guess MOs from SCF MO coefficient file
 Reading MOs from coefficient file
 Reading MOs from coefficient file
 A restricted hybrid HF-DFT SCF calculation will be
 performed using Geometric Direct Minimization
 Exchange:     0.6500 Hartree-Fock + 0.3500 B88
 Correlation:  0.6400 LYP
 Using Euler-Maclaurin-Lebedev (99,590) quadrature formula
 SCF converges when RMS gradient is below 1.0E-08
Using Q-Chem read-in guess as SCF_GUESS READ specified.

 using 16 threads for integral computing
 -------------------------------------------------------
 OpenMP Integral computing Module                
 Release: version 2.0, May 2017, Q-Chem Inc. Pleasanton 
 -------------------------------------------------------
TIMEINFO->: J/JK contribution 141.35 sec.
 -------------------------------------------------------
 OpenMP BLAS3 based DFT computing Module                
 Release: version 1.0, May 2013, Q-Chem Inc. Pittsburgh 
 -------------------------------------------------------
 ---------------------------------------
  Cycle       Energy        RMS Gradient
 ---------------------------------------
    1    -473.0279411740      1.51E-03 Normal BFGS step
TIMEINFO->: J/JK contribution 137.62 sec.
    2    -473.0279447480      1.18E-03 Normal BFGS step
TIMEINFO->: J/JK contribution 133.11 sec.
    3    -473.0279466056      7.52E-04 Normal BFGS step
TIMEINFO->: J/JK contribution 131.91 sec.
    4    -473.0279474096      1.54E-04 Normal BFGS step
TIMEINFO->: J/JK contribution 132.72 sec.
    5    -473.0279475438      7.14E-05 Normal BFGS step
TIMEINFO->: J/JK contribution 133.76 sec.
    6    -473.0279475655      2.65E-05 Normal BFGS step
TIMEINFO->: J/JK contribution 126.65 sec.
    7    -473.0279475713      8.64E-06 Normal BFGS step
TIMEINFO->: J/JK contribution 125.39 sec.
    8    -473.0279475715      3.34E-06 Normal BFGS step
TIMEINFO->: J/JK contribution 126.33 sec.
    9    -473.0279475716      3.69E-07 Normal BFGS step
TIMEINFO->: J/JK contribution 122.79 sec.
   10    -473.0279475716      5.54E-08 Normal BFGS step
TIMEINFO->: J/JK contribution 120.35 sec.
   11    -473.0279475716      1.43E-08 Normal BFGS step
TIMEINFO->: J/JK contribution 113.22 sec.
   GDM::WARNING energy changes are now smaller than effective accuracy.
   GDM::        calculation will continue, but THRESH should be increased
   GDM::        or SCF_CONVERGENCE decreased.
   GDM::        effective_thresh =   3.907943538217218E-009
   12    -473.0279475716      3.57E-09 Convergence criterion met
 ---------------------------------------
 SCF time:  CPU 1676.07 s  wall 109.93 s
 SCF   energy in the final basis set = -473.02794757
 Total energy in the final basis set = -473.02794757
 
 Components of the MP2 correlation energy:
        aaaa  correlation energy =        -0.0452543961 au
        abab  correlation energy =        -0.2569719361 au
        bbbb  correlation energy =        -0.0447468719 au
        non-Brillouin singles    =        -0.0058402208 au

 Total  MP2   correlation energy =                    -0.35281342 au
        MP2         total energy =                  -473.38076100 au
 
 --------------------------------------------------------------
 
                    Orbital Energies (a.u.)
 --------------------------------------------------------------
 
 Alpha MOs
 -- Occupied --
-90.724 -20.013  -8.617  -6.418  -6.426  -6.426  -1.289  -0.835
 -0.564  -0.571  -0.571  -0.351  -0.351
 -- Virtual --
  0.033   0.039   0.059   0.059   0.106   0.143   0.146   0.146
  0.154   0.154   0.235   0.235   0.246   0.272   0.327   0.327
  0.364   0.419   0.419   0.457   0.464   0.464   0.469   0.469
  0.491   0.491   0.582   0.582   0.592   0.622   0.622   0.635
  0.635   0.691   0.738   0.875   0.875   0.999   1.109   1.205
  1.205   1.233   1.252   1.252   1.247   1.247   1.267   1.267
  1.361   1.361   1.373   1.373   1.376   1.376   1.478   1.478
  1.480   1.480   1.519   1.552   1.552   1.576   1.585   1.585
  1.601   1.601   1.792   1.970   1.970   2.069   2.099   2.099
  2.177   2.203   2.203   2.626   2.998   2.998   3.161   3.161
  3.208   3.323   3.323   3.345   3.350   3.350   3.452   3.452
  3.456   3.456   3.472   3.472   3.548   3.548   3.627   3.627
  3.637   3.637   3.802   3.904   3.904   3.936   3.936   4.003
  4.038   4.038   4.132   4.132   4.320   4.325   4.325   4.494
  4.494   4.519   4.769   4.769   4.817   4.817   5.107   5.107
  5.199   5.582   5.934   5.934   6.932   8.517   9.578   9.578
  9.810   9.810  10.113  10.113  10.321  10.390  10.390  10.492
 10.492  10.520  10.679  10.679  10.696  10.696  11.061  11.614
 11.614  11.767  11.767  12.156  12.156  12.514  12.514  12.812
 12.913  12.913  13.350  16.018  16.018  16.700  17.403  18.416
 18.416  18.458  18.458  18.778  18.778  19.294  28.263  31.484
 31.484  31.630  31.630  32.277  33.212  33.212  34.082  45.790
 45.790  46.507  46.651  46.651  46.891  46.891  47.264  55.330
 55.330  55.331  55.331  55.333  55.333  55.335  55.335  55.337
 63.473  65.538  65.538  65.559  65.559  65.709  65.709  65.859
 82.313  93.307  93.307  93.426  93.426  93.852 102.725 102.725
102.740 102.740 102.779 102.779 102.803 116.132 116.132 116.819
145.579 145.579 146.131 197.665 197.665 197.789 197.789 197.964
215.479 387.753 394.098 394.098 394.664 893.417
 
 Beta MOs
 -- Occupied --
-90.714 -19.993  -8.607  -6.413  -6.402  -6.402  -1.236  -0.732
 -0.516  -0.466  -0.466
 -- Virtual --
 -0.041  -0.041   0.042   0.041   0.062   0.062   0.120   0.148
  0.148   0.148   0.170   0.170   0.247   0.247   0.250   0.278
  0.339   0.339   0.377   0.454   0.454   0.459   0.484   0.484
  0.495   0.495   0.497   0.497   0.610   0.610   0.599   0.629
  0.629   0.641   0.641   0.702   0.750   0.884   0.884   1.014
  1.117   1.243   1.243   1.250   1.257   1.257   1.280   1.280
  1.289   1.289   1.375   1.375   1.395   1.395   1.414   1.414
  1.499   1.499   1.496   1.496   1.531   1.569   1.569   1.585
  1.594   1.594   1.611   1.611   1.804   1.985   1.985   2.081
  2.118   2.118   2.196   2.224   2.224   2.640   3.024   3.024
  3.181   3.181   3.222   3.342   3.342   3.363   3.370   3.370
  3.476   3.476   3.488   3.488   3.502   3.502   3.558   3.558
  3.658   3.658   3.678   3.678   3.819   3.918   3.918   3.953
  3.953   4.018   4.063   4.063   4.157   4.157   4.329   4.339
  4.339   4.526   4.526   4.538   4.793   4.793   4.836   4.836
  5.132   5.132   5.211   5.593   5.951   5.951   6.948   8.534
  9.610   9.610   9.829   9.829  10.128  10.128  10.329  10.418
 10.418  10.513  10.513  10.534  10.692  10.692  10.712  10.712
 11.074  11.657  11.657  11.795  11.795  12.176  12.176  12.562
 12.562  12.824  12.939  12.939  13.364  16.036  16.036  16.707
 17.424  18.420  18.420  18.460  18.460  18.780  18.780  19.298
 28.271  31.500  31.500  31.640  31.640  32.284  33.237  33.237
 34.091  45.803  45.803  46.512  46.677  46.677  46.905  46.905
 47.273  55.334  55.334  55.334  55.334  55.335  55.335  55.337
 55.337  55.339  63.487  65.549  65.549  65.568  65.568  65.715
 65.715  65.865  82.320  93.322  93.322  93.434  93.434  93.858
102.744 102.744 102.753 102.753 102.789 102.789 102.811 116.143
116.143 116.822 145.588 145.588 146.133 197.673 197.673 197.793
197.793 197.967 215.484 387.757 394.101 394.101 394.665 893.418
 --------------------------------------------------------------
 
          Ground-State Mulliken Net Atomic Charges

     Atom                 Charge (a.u.)
  ----------------------------------------
      1 S                     0.618112
      2 O                    -0.618112
  ----------------------------------------
  Sum of atomic charges =    -0.000000

 -----------------------------------------------------------------
                    Cartesian Multipole Moments
 -----------------------------------------------------------------
    Charge (ESU x 10^10)
                -0.0000
    Dipole Moment (Debye)
         X      -0.0000      Y      -0.0000      Z      -1.8957
       Tot       1.8957
    Quadrupole Moments (Debye-Ang)
        XX     -17.5432     XY      -0.0000     YY     -17.5432
        XZ      -0.0000     YZ       0.0000     ZZ     -20.5096
    Octopole Moments (Debye-Ang^2)
       XXX      -0.0000    XXY      -0.0000    XYY       0.0000
       YYY      -0.0000    XXZ      -7.6414    XYZ      -0.0000
       YYZ      -7.6414    XZZ      -0.0000    YZZ       0.0000
       ZZZ     -29.7667
    Hexadecapole Moments (Debye-Ang^3)
      XXXX     -19.7934   XXXY      -0.0000   XXYY      -6.5978
      XYYY      -0.0000   YYYY     -19.7934   XXXZ       0.0000
      XXYZ      -0.0000   XYYZ       0.0000   YYYZ      -0.0000
      XXZZ     -18.6111   XYZZ      -0.0000   YYZZ     -18.6111
      XZZZ      -0.0000   YZZZ       0.0000   ZZZZ     -97.6264
 -----------------------------------------------------------------
Archival summary:
1\1\n0062.mhg0\SP\ROProcedureUnspecified\BasisUnspecified\11(3)\yhljason\SatSep1904:25:332020SatSep1904:25:332020\0\\#,ROProcedureUnspecified,BasisUnspecified,\\0,3\S\O,1,1.4811\\\@

 Total job time:  499.54s(wall), 7635.07s(cpu) 
 Sat Sep 19 04:25:33 2020

        *************************************************************
        *                                                           *
        *  Thank you very much for using Q-Chem.  Have a nice day.  *
        *                                                           *
        *************************************************************


