Q-Chem Developer Version!
                  Welcome to Q-Chem
     A Quantum Leap Into The Future Of Chemistry


 Q-Chem 5.1, Q-Chem, Inc., Pleasanton, CA (2018)

 Yihan Shao,  Zhengting Gan,  E. Epifanovsky,  A. T. B. Gilbert,  M. Wormit,  
 J. Kussmann,  A. W. Lange,  A. Behn,  Jia Deng,  Xintian Feng,  D. Ghosh,  
 M. Goldey,  P. R. Horn,  L. D. Jacobson,  I. Kaliman,  T. Kus,  A. Landau,  
 Jie Liu,  E. I. Proynov,  R. M. Richard,  R. P. Steele,  E. J. Sundstrom,  
 H. L. Woodcock III,  P. M. Zimmerman,  D. Zuev,  B. Albrecht,  E. Alguire,  
 S. A. Baeppler,  D. Barton,  Z. Benda,  Y. A. Bernard,  E. J. Berquist,  
 K. B. Bravaya,  H. Burton,  D. Casanova,  Chun-Min Chang,  Yunqing Chen,  
 A. Chien,  K. D. Closser,  M. P. Coons,  S. Coriani,  S. Dasgupta,  
 A. L. Dempwolff,  M. Diedenhofen,  Hainam Do,  R. G. Edgar,  Po-Tung Fang,  
 S. Faraji,  S. Fatehi,  Qingguo Feng,  K. D. Fenk,  J. Fosso-Tande,  
 Qinghui Ge,  A. Ghysels,  G. Gidofalvi,  J. Gomes,  J. Gonthier,  A. Gunina,  
 D. Hait,  M. W. D. Hanson-Heine,  P. H. P. Harbach,  A. W. Hauser,  
 J. E. Herr,  E. G. Hohenstein,  Z. C. Holden,  Kerwin Hui,  B. C. Huynh,  
 T.-C. Jagau,  Hyunjun Ji,  B. Kaduk,  K. Khistyaev,  Jaehoon Kim,  
 P. Klunzinger,  K. Koh,  D. Kosenkov,  L. Koulias,  T. Kowalczyk,  
 C. M. Krauter,  A. Kunitsa,  Ka Un Lao,  A. Laurent,  K. V. Lawler,  
 Joonho Lee,  D. Lefrancois,  S. Lehtola,  D. S. Levine,  Yi-Pei Li,  
 You-Sheng Lin,  Fenglai Liu,  E. Livshits,  A. Luenser,  P. Manohar,  
 E. Mansoor,  S. F. Manzer,  Shan-Ping Mao,  Yuezhi Mao,  N. Mardirossian,  
 A. V. Marenich,  T. Markovich,  L. A. Martinez-Martinez,  S. A. Maurer,  
 N. J. Mayhall,  S. C. McKenzie,  J.-M. Mewes,  A. F. Morrison,  
 J. W. Mullinax,  K. Nanda,  T. S. Nguyen-Beck,  R. Olivares-Amaya,  
 J. A. Parkhill,  T. M. Perrine,  F. Plasser,  P. Pokhilko,  S. Prager,  
 A. Prociuk,  E. Ramos,  D. R. Rehn,  F. Rob,  M. Schneider,  N. Sergueev,  
 S. M. Sharada,  S. Sharma,  D. W. Small,  T. Stauch,  T. Stein,  
 Yu-Chuan Su,  A. J. W. Thom,  A. Tkatchenko,  T. Tsuchimochi,  N. M. Tubman,  
 L. Vogt,  M. L. Vidal,  O. Vydrov,  M. A. Watson,  J. Wenzel,  
 M. de Wergifosse,  T. A. Wesolowski,  A. White,  J. Witte,  A. Yamada,  
 Jun Yang,  K. Yao,  S. Yeganeh,  S. R. Yost,  Zhi-Qiang You,  A. Zech,  
 Igor Ying Zhang,  Xing Zhang,  Yan Zhao,  Ying Zhu,  B. R. Brooks,  
 G. K. L. Chan,  C. J. Cramer,  M. S. Gordon,  W. J. Hehre,  A. Klamt,  
 M. W. Schmidt,  C. D. Sherrill,  D. G. Truhlar,  A. Aspuru-Guzik,  R. Baer,  
 A. T. Bell,  N. A. Besley,  Jeng-Da Chai,  A. E. DePrince, III,  
 R. A. DiStasio Jr.,  A. Dreuw,  B. D. Dunietz,  T. R. Furlani,  
 Chao-Ping Hsu,  Yousung Jung,  Jing Kong,  D. S. Lambrecht,  WanZhen Liang,  
 C. Ochsenfeld,  V. A. Rassolov,  L. V. Slipchenko,  J. E. Subotnik,  
 T. Van Voorhis,  J. M. Herbert,  A. I. Krylov,  P. M. W. Gill,  M. Head-Gordon

 Contributors to earlier versions of Q-Chem not listed above: 
 R. D. Adamson,  B. Austin,  J. Baker,  G. J. O. Beran,  K. Brandhorst,  
 S. T. Brown,  E. F. C. Byrd,  A. K. Chakraborty,  C.-L. Cheng,  
 Siu Hung Chien,  D. M. Chipman,  D. L. Crittenden,  H. Dachsel,  
 R. J. Doerksen,  A. D. Dutoi,  L. Fusti-Molnar,  W. A. Goddard III,  
 A. Golubeva-Zadorozhnaya,  S. R. Gwaltney,  G. Hawkins,  A. Heyden,  
 S. Hirata,  G. Kedziora,  F. J. Keil,  C. Kelley,  Jihan Kim,  R. A. King,  
 R. Z. Khaliullin,  P. P. Korambath,  W. Kurlancheek,  A. M. Lee,  M. S. Lee,  
 S. V. Levchenko,  Ching Yeh Lin,  D. Liotard,  R. C. Lochan,  I. Lotan,  
 P. E. Maslen,  N. Nair,  D. P. O'Neill,  D. Neuhauser,  E. Neuscamman,  
 C. M. Oana,  R. Olson,  B. Peters,  R. Peverati,  P. A. Pieniazek,  
 Y. M. Rhee,  J. Ritchie,  M. A. Rohrdanz,  E. Rosta,  N. J. Russ,  
 H. F. Schaefer III,  N. E. Schultz,  N. Shenvi,  A. C. Simmonett,  A. Sodt,  
 D. Stuck,  K. S. Thanthiriwatte,  V. Vanovschi,  Tao Wang,  A. Warshel,  
 C. F. Williams,  Q. Wu,  X. Xu,  W. Zhang

 Please cite Q-Chem as follows:
 Y. Shao et al., Mol. Phys. 113, 184-215 (2015)
 DOI: 10.1080/00268976.2014.952696

 Q-Chem 5.1.1 for Intel X86 EM64T Linux

 Parts of Q-Chem use Armadillo 8.300.2 (Tropical Shenanigans).
 http://arma.sourceforge.net/

 Q-Chem begins on Sat Oct 31 12:16:39 2020  

Host: n0062.mhg0
0

     Scratch files written to /local/scratch/users/yhljason/CH4_SOGGA11-X_aug-pc-4.inp20201031121614//
Input Ideriv = 2
Curr. Ideriv = -1
Max.  Ideriv = 2

Checking the input file for inconsistencies... 	...done.

--------------------------------------------------------------
User input:
--------------------------------------------------------------
$molecule 
0 1
C1	0.0000	0.0000	0.0000
H2	0.6276	0.6276	0.6276
H3	0.6276	-0.6276	-0.6276
H4	-0.6276	0.6276	-0.6276
H5	-0.6276	-0.6276	0.6276
$end

$rem
jobtype sp
method SOGGA11-X
xc_grid 000099000590
basis aug-pc-4
max_scf_cycles 200
thresh 14
scf_convergence 8
scf_algorithm gdm
symmetry false
sym_ignore true
unrestricted True
gen_scfman true
internal_stability_iter 15
internal_stability_davidson_iter 200
mem_total 64000
mem_static 1500
n_frozen_core 0
$end



--------------------------------------------------------------
 ----------------------------------------------------------------
             Standard Nuclear Orientation (Angstroms)
    I     Atom           X                Y                Z
 ----------------------------------------------------------------
    1      C       0.0000000000     0.0000000000     0.0000000000
    2      H       0.6276000000     0.6276000000     0.6276000000
    3      H       0.6276000000    -0.6276000000    -0.6276000000
    4      H      -0.6276000000     0.6276000000    -0.6276000000
    5      H      -0.6276000000    -0.6276000000     0.6276000000
 ----------------------------------------------------------------
 Nuclear Repulsion Energy =    13.4720345843 hartrees
 There are        5 alpha and        5 beta electrons
 Requested basis set is aug-pc-4
 There are 129 shells and 497 basis functions

 Total QAlloc Memory Limit  64000 MB
 Mega-Array Size      1467 MB
 MEM_STATIC part      1500 MB

                       Distance Matrix (Angstroms)
             C (  1)   H (  2)   H (  3)   H (  4)
   H (  2)  1.087035
   H (  3)  1.087035  1.775121
   H (  4)  1.087035  1.775121  1.775121
   H (  5)  1.087035  1.775121  1.775121  1.775121
 
 A cutoff of  1.0D-14 yielded   8337 shell pairs
 There are    124693 function pairs (    216693 Cartesian)
 
 -------------------------------------------------------
 OpenMP Integral Computing Module                       
 Release: version 1.0, May 2013, Q-Chem Inc. Pittsburgh 
 -------------------------------------------------------
 Integral Job Info:
 Integral job number is                      11
 Integral operator is                         1
 short-range coefficients                     0
 long-range coefficients              100000000
 Omega coefficients                           0
 if combine SR and LR in K                    0
 Integral screening is                        0
 Integral computing path is                   2
 max size of driver memory is           6400000
 size of driver memory is               5498286
 size of scratch memory is             29792225
 max col of scratch BK array             194481
 max len of scratch array in speh3         5572
 max len of scratch index in speh4           72
 max int batch size is                      520
 min int batch size is                       52
 fixed nKL is                                25
 max L of basis functions is                  5
 order of int derivative is                   0
 number of shells is                        129
 number of basis is                         654
 number of cartesian basis is               654
 number of contracted shell pairs          8337
 number of primitive shell pairs          13454
 maxK2 (contraction) of shell pair          121
 max number of K2 of shell pair               1
 max number of CS2 of shell pair           1229
 max number of PS2 of shell pair           1229
 mem total for path MDJ                 1193104
 -------------------------------------------------------
 Smallest overlap matrix eigenvalue = 1.73E-07
 Linear dependence detected in AO basis
 Number of orthogonalized atomic orbitals = 491
 Maximum deviation from orthogonality = 1.746E-10

 Scale SEOQF with 1.000000e-01/1.000000e-01/1.000000e-01

 Standard Electronic Orientation quadrupole field applied
 Guess from superposition of atomic densities
 Warning:  Energy on first SCF cycle will be non-variational
 SAD guess density has 10.000000 electrons

 -----------------------------------------------------------------------
  General SCF calculation program by
  Eric Jon Sundstrom, Paul Horn, Yuezhi Mao, Dmitri Zuev, Alec White,
  David Stuck, Shaama M.S., Shane Yost, Joonho Lee, David Small,
  Daniel Levine, Susi Lehtola, Hugh Burton, Evgeny Epifanovsky
 -----------------------------------------------------------------------
 Exchange:     0.4015 Hartree-Fock + 1.0000 SOGGA11-X
 Correlation:  1.0000 SOGGA11-X
 Using Euler-Maclaurin-Lebedev (99,590) quadrature formula
Running Object-Oriented UKS (UHF)
performing a single roothaan step with Fock from read density so that orbitals are available to all algorithms
 LTot/LBra/LKet=          18           9           9
 LTot/LBra/LKet=          18           9           9

 Q-Chem warning:

 in GenH1, ket side, handled with new code

 LTot/LBra/LKet=          18           9           9

 Q-Chem warning:

 in GenH1, ket side, handled with new code


 Q-Chem warning:

 in GenH1, ket side, handled with new code

 LTot/LBra/LBra=          18           9           9

 Q-Chem warning:

 in GenH1, bra side, handled with new code

energy of the guess density (C=0) -40.472743372694
We will preform up to 15 macro iterations over saddle points until a stable solution is found
Energy prior to optimization (guess energy) = -40.497313167781
Begin Timing: Total SCF Calculation
Begin Timing: SCF Single Stationary Point Calculation
begin iterations for algorithm: GDM          
the SCF tolerance is set to 1.00e-08
    1     -40.4973131678      4.28e-02     00000  Descent step
    2     -40.5097014898      3.48e-02     00000  Normal BFGS step
    3     -40.5301249013      1.25e-03     00000  Normal BFGS step
    4     -40.5301605185      1.37e-04     00000  Normal BFGS step
    5     -40.5301610356      1.83e-05     00000  Normal BFGS step
    6     -40.5301610433      2.15e-06     00000  Normal BFGS step
    7     -40.5301610434      2.05e-07     00000  Normal BFGS step
    8     -40.5301610434      3.17e-08     00000  Normal BFGS step
    9     -40.5301610434      1.44e-08     00000  Normal BFGS step
   10     -40.5301610434      1.26e-09     00000 Convergence criterion met
Timing for Single Stationary Point: 3730.00s (wall), 29824.75s (cpu)
Begin Timing: Stability
===================================================
Beginning Test for Internal Stability
===================================================
generating davidson guess vectors based on koopmans excitations
    1      3.86e-01     00000 Davidson Iteration
    2      1.47e-01     00000 Davidson Iteration
    3      1.67e-02     00000 Davidson Iteration
    4      9.09e-03     00000 Davidson Iteration
    5      6.92e-03     00000 Davidson Iteration
    6      2.29e-03     00000 Davidson Iteration
    7      8.95e-04     00000 Davidson Iteration
    8      2.18e-04     00000 Davidson Iteration
    9      1.10e-04     00000 Davidson Iteration
   10      4.11e-05     00000 Davidson Iteration
   11      3.78e-05     00000 Davidson Converged
converged_eigenvalues
   0.7179
   0.7450
Threshold for negative eigenvalues: -1.0e-05
solution was a local minimum (stable)
===================================================
End Test for Internal Stability
===================================================
Our SCF solution is stable!
Timing for Total SCF: 9912.00s (wall), 79260.77s (cpu)
 Total energy in the final basis set =      -40.5301610434
<S^2> =          0.000000000
    ==================================================
              The end of Object-Oriented SCFman       
    ==================================================
 
 --------------------------------------------------------------
 
                    Orbital Energies (a.u.)
 --------------------------------------------------------------
 
 Alpha MOs
 -- Occupied --
-10.421  -0.773  -0.441  -0.441  -0.441
 -- Virtual --
 -0.006   0.018   0.018   0.018   0.040   0.040   0.040   0.043
  0.071   0.071   0.082   0.082   0.082   0.102   0.102   0.102
  0.119   0.122   0.122   0.122   0.130   0.130   0.130   0.143
  0.185   0.185   0.203   0.203   0.203   0.205   0.205   0.212
  0.212   0.212   0.231   0.231   0.231   0.237   0.245   0.245
  0.245   0.269   0.274   0.274   0.274   0.299   0.299   0.299
  0.313   0.318   0.318   0.319   0.319   0.319   0.321   0.321
  0.321   0.381   0.381   0.381   0.388   0.388   0.411   0.411
  0.411   0.439   0.439   0.440   0.440   0.440   0.450   0.450
  0.450   0.455   0.459   0.464   0.464   0.464   0.478   0.495
  0.495   0.495   0.496   0.496   0.501   0.501   0.501   0.539
  0.541   0.541   0.541   0.550   0.550   0.550   0.564   0.564
  0.564   0.592   0.612   0.612   0.612   0.653   0.653   0.670
  0.670   0.670   0.718   0.718   0.737   0.751   0.751   0.752
  0.752   0.752   0.760   0.760   0.760   0.786   0.786   0.786
  0.791   0.791   0.791   0.803   0.803   0.803   0.828   0.836
  0.836   0.837   0.837   0.837   0.875   0.875   0.875   0.875
  0.875   0.875   0.901   0.901   0.901   0.912   0.913   0.913
  0.913   0.930   0.933   0.933   0.933   0.933   0.933   0.980
  0.980   0.980   0.981   0.981   0.981   0.997   0.997   1.012
  1.012   1.012   1.021   1.029   1.029   1.029   1.158   1.158
  1.158   1.237   1.266   1.266   1.429   1.429   1.429   1.442
  1.442   1.466   1.466   1.466   1.496   1.496   1.496   1.576
  1.631   1.631   1.631   1.659   1.659   1.675   1.675   1.675
  1.728   1.728   1.728   1.747   1.912   1.912   1.912   1.991
  1.991   1.991   2.005   2.005   2.005   2.297   2.297   2.297
  2.324   2.356   2.356   2.440   2.465   2.465   2.465   2.540
  2.540   2.540   2.612   2.612   2.762   2.812   2.812   2.812
  3.154   3.154   3.154   3.198   3.198   3.198   3.250   3.250
  3.490   3.490   3.490   3.548   3.548   3.548   3.646   3.719
  3.719   3.719   3.870   3.870   3.870   3.890   3.890   3.890
  4.037   4.046   4.046   4.046   4.068   4.068   4.244   4.304
  4.304   4.304   4.313   4.313   4.403   4.403   4.403   4.466
  4.466   4.557   4.602   4.602   4.602   4.776   4.776   4.776
  4.784   4.784   4.784   5.112   5.149   5.149   5.149   5.320
  5.416   5.416   5.454   5.454   5.454   5.562   5.562   5.562
  5.985   5.985   5.985   6.001   6.001   6.001   6.125   6.125
  6.125   6.192   6.471   6.471   6.497   6.690   6.690   6.920
  6.920   6.920   6.960   6.960   6.960   6.979   6.979   6.979
  7.899   7.899   7.899   7.982   8.715   8.715   8.715   9.106
  9.106   9.106   9.138   9.138   9.210   9.210   9.210   9.219
  9.219   9.219   9.323   9.323   9.323   9.531   9.531   9.733
  9.733   9.733   9.882   9.882  10.095  10.154  10.154  10.154
 11.010  11.010  11.010  11.234  11.234  11.234  11.370  11.452
 11.452  11.452  11.586  11.586  11.586  11.725  11.998  11.998
 12.378  12.378  12.378  12.378  12.428  12.428  12.428  12.453
 12.453  12.600  12.600  12.600  12.639  12.720  12.720  12.720
 12.941  12.941  13.044  13.089  13.089  13.089  13.161  13.161
 13.161  13.408  13.408  13.408  13.755  13.755  13.755  13.755
 13.755  13.794  14.253  14.253  14.253  14.830  14.830  14.830
 15.086  15.086  15.086  15.790  15.790  15.790  16.235  16.350
 16.350  16.479  16.479  16.479  16.894  16.942  16.942  16.942
 17.002  17.002  17.002  17.016  17.016  17.516  17.516  17.516
 17.635  17.635  17.635  17.636  18.329  18.721  18.721  18.721
 18.776  18.776  19.393  19.393  19.393  20.022  20.022  20.022
 20.385  20.385  20.385  20.554  20.554  20.554  21.367  21.367
 21.771  22.054  22.054  22.054  23.680  23.680  23.680  24.097
 24.097  24.097  24.439  24.439  25.944  25.998  25.998  25.998
 33.188  33.188  34.473  34.473  34.473  41.478  41.478  41.478
 42.187  79.804  91.355  91.355  91.355  91.594  91.594  91.594
 91.872  91.872  92.818  92.827  92.827  92.827
 
 Beta MOs
 -- Occupied --
-10.421  -0.773  -0.441  -0.441  -0.441
 -- Virtual --
 -0.006   0.018   0.018   0.018   0.040   0.040   0.040   0.043
  0.071   0.071   0.082   0.082   0.082   0.102   0.102   0.102
  0.119   0.122   0.122   0.122   0.130   0.130   0.130   0.143
  0.185   0.185   0.203   0.203   0.203   0.205   0.205   0.212
  0.212   0.212   0.231   0.231   0.231   0.237   0.245   0.245
  0.245   0.269   0.274   0.274   0.274   0.299   0.299   0.299
  0.313   0.318   0.318   0.319   0.319   0.319   0.321   0.321
  0.321   0.381   0.381   0.381   0.388   0.388   0.411   0.411
  0.411   0.439   0.439   0.440   0.440   0.440   0.450   0.450
  0.450   0.455   0.459   0.464   0.464   0.464   0.478   0.495
  0.495   0.495   0.496   0.496   0.501   0.501   0.501   0.539
  0.541   0.541   0.541   0.550   0.550   0.550   0.564   0.564
  0.564   0.592   0.612   0.612   0.612   0.653   0.653   0.670
  0.670   0.670   0.718   0.718   0.737   0.751   0.751   0.752
  0.752   0.752   0.760   0.760   0.760   0.786   0.786   0.786
  0.791   0.791   0.791   0.803   0.803   0.803   0.828   0.836
  0.836   0.837   0.837   0.837   0.875   0.875   0.875   0.875
  0.875   0.875   0.901   0.901   0.901   0.912   0.913   0.913
  0.913   0.930   0.933   0.933   0.933   0.933   0.933   0.980
  0.980   0.980   0.981   0.981   0.981   0.997   0.997   1.012
  1.012   1.012   1.021   1.029   1.029   1.029   1.158   1.158
  1.158   1.237   1.266   1.266   1.429   1.429   1.429   1.442
  1.442   1.466   1.466   1.466   1.496   1.496   1.496   1.576
  1.631   1.631   1.631   1.659   1.659   1.675   1.675   1.675
  1.728   1.728   1.728   1.747   1.912   1.912   1.912   1.991
  1.991   1.991   2.005   2.005   2.005   2.297   2.297   2.297
  2.324   2.356   2.356   2.440   2.465   2.465   2.465   2.540
  2.540   2.540   2.612   2.612   2.762   2.812   2.812   2.812
  3.154   3.154   3.154   3.198   3.198   3.198   3.250   3.250
  3.490   3.490   3.490   3.548   3.548   3.548   3.646   3.719
  3.719   3.719   3.870   3.870   3.870   3.890   3.890   3.890
  4.037   4.046   4.046   4.046   4.068   4.068   4.244   4.304
  4.304   4.304   4.313   4.313   4.403   4.403   4.403   4.466
  4.466   4.557   4.602   4.602   4.602   4.776   4.776   4.776
  4.784   4.784   4.784   5.112   5.149   5.149   5.149   5.320
  5.416   5.416   5.454   5.454   5.454   5.562   5.562   5.562
  5.985   5.985   5.985   6.001   6.001   6.001   6.125   6.125
  6.125   6.192   6.471   6.471   6.497   6.690   6.690   6.920
  6.920   6.920   6.960   6.960   6.960   6.979   6.979   6.979
  7.899   7.899   7.899   7.982   8.715   8.715   8.715   9.106
  9.106   9.106   9.138   9.138   9.210   9.210   9.210   9.219
  9.219   9.219   9.323   9.323   9.323   9.531   9.531   9.733
  9.733   9.733   9.882   9.882  10.095  10.154  10.154  10.154
 11.010  11.010  11.010  11.234  11.234  11.234  11.370  11.452
 11.452  11.452  11.586  11.586  11.586  11.725  11.998  11.998
 12.378  12.378  12.378  12.378  12.428  12.428  12.428  12.453
 12.453  12.600  12.600  12.600  12.639  12.720  12.720  12.720
 12.941  12.941  13.044  13.089  13.089  13.089  13.161  13.161
 13.161  13.408  13.408  13.408  13.755  13.755  13.755  13.755
 13.755  13.794  14.253  14.253  14.253  14.830  14.830  14.830
 15.086  15.086  15.086  15.790  15.790  15.790  16.235  16.350
 16.350  16.479  16.479  16.479  16.894  16.942  16.942  16.942
 17.002  17.002  17.002  17.016  17.016  17.516  17.516  17.516
 17.635  17.635  17.635  17.636  18.329  18.721  18.721  18.721
 18.776  18.776  19.393  19.393  19.393  20.022  20.022  20.022
 20.385  20.385  20.385  20.554  20.554  20.554  21.367  21.367
 21.771  22.054  22.054  22.054  23.680  23.680  23.680  24.097
 24.097  24.097  24.439  24.439  25.944  25.998  25.998  25.998
 33.188  33.188  34.473  34.473  34.473  41.478  41.478  41.478
 42.187  79.804  91.355  91.355  91.355  91.594  91.594  91.594
 91.872  91.872  92.818  92.827  92.827  92.827
 --------------------------------------------------------------
 
          Ground-State Mulliken Net Atomic Charges

     Atom                 Charge (a.u.)    Spin (a.u.)
  --------------------------------------------------------
      1 C                    -3.711131       0.000000
      2 H                     0.927783      -0.000000
      3 H                     0.927783      -0.000000
      4 H                     0.927783      -0.000000
      5 H                     0.927783      -0.000000
  --------------------------------------------------------
  Sum of atomic charges =     0.000000
  Sum of spin   charges =     0.000000

 -----------------------------------------------------------------
                    Cartesian Multipole Moments
 -----------------------------------------------------------------
    Charge (ESU x 10^10)
                 0.0000
    Dipole Moment (Debye)
         X       0.0000      Y       0.0000      Z      -0.0000
       Tot       0.0000
    Quadrupole Moments (Debye-Ang)
        XX      -8.4087     XY       0.0000     YY      -8.4087
        XZ       0.0000     YZ      -0.0000     ZZ      -8.4087
    Octopole Moments (Debye-Ang^2)
       XXX      -0.0000    XXY      -0.0000    XYY       0.0000
       YYY      -0.0000    XXZ      -0.0000    XYZ       0.7259
       YYZ       0.0000    XZZ      -0.0000    YZZ       0.0000
       ZZZ       0.0000
    Hexadecapole Moments (Debye-Ang^3)
      XXXX     -16.8525   XXXY       0.0000   XXYY      -5.0681
      XYYY       0.0000   YYYY     -16.8525   XXXZ       0.0000
      XXYZ      -0.0000   XYYZ      -0.0000   YYYZ       0.0000
      XXZZ      -5.0681   XYZZ       0.0000   YYZZ      -5.0681
      XZZZ       0.0000   YZZZ       0.0000   ZZZZ     -16.8525
 -----------------------------------------------------------------
Archival summary:
1\1\n0062.mhg0\SP\ProcedureUnspecified\BasisUnspecified\14\yhljason\SatOct3115:08:442020SatOct3115:08:442020\0\\#,ProcedureUnspecified,BasisUnspecified,\\0,1\C\H,1,1.08704\H,1,1.08704,2,109.471\H,1,1.08704,2,109.471,3,-120,0\H,1,1.08704,2,109.471,3,120,0\\\@

 Total job time:  10324.67s(wall), 82516.68s(cpu) 
 Sat Oct 31 15:08:44 2020

        *************************************************************
        *                                                           *
        *  Thank you very much for using Q-Chem.  Have a nice day.  *
        *                                                           *
        *************************************************************


