Q-Chem Developer Version!
                  Welcome to Q-Chem
     A Quantum Leap Into The Future Of Chemistry


 Q-Chem 5.1, Q-Chem, Inc., Pleasanton, CA (2018)

 Yihan Shao,  Zhengting Gan,  E. Epifanovsky,  A. T. B. Gilbert,  M. Wormit,  
 J. Kussmann,  A. W. Lange,  A. Behn,  Jia Deng,  Xintian Feng,  D. Ghosh,  
 M. Goldey,  P. R. Horn,  L. D. Jacobson,  I. Kaliman,  T. Kus,  A. Landau,  
 Jie Liu,  E. I. Proynov,  R. M. Richard,  R. P. Steele,  E. J. Sundstrom,  
 H. L. Woodcock III,  P. M. Zimmerman,  D. Zuev,  B. Albrecht,  E. Alguire,  
 S. A. Baeppler,  D. Barton,  Z. Benda,  Y. A. Bernard,  E. J. Berquist,  
 K. B. Bravaya,  H. Burton,  D. Casanova,  Chun-Min Chang,  Yunqing Chen,  
 A. Chien,  K. D. Closser,  M. P. Coons,  S. Coriani,  S. Dasgupta,  
 A. L. Dempwolff,  M. Diedenhofen,  Hainam Do,  R. G. Edgar,  Po-Tung Fang,  
 S. Faraji,  S. Fatehi,  Qingguo Feng,  K. D. Fenk,  J. Fosso-Tande,  
 Qinghui Ge,  A. Ghysels,  G. Gidofalvi,  J. Gomes,  J. Gonthier,  A. Gunina,  
 D. Hait,  M. W. D. Hanson-Heine,  P. H. P. Harbach,  A. W. Hauser,  
 J. E. Herr,  E. G. Hohenstein,  Z. C. Holden,  Kerwin Hui,  B. C. Huynh,  
 T.-C. Jagau,  Hyunjun Ji,  B. Kaduk,  K. Khistyaev,  Jaehoon Kim,  
 P. Klunzinger,  K. Koh,  D. Kosenkov,  L. Koulias,  T. Kowalczyk,  
 C. M. Krauter,  A. Kunitsa,  Ka Un Lao,  A. Laurent,  K. V. Lawler,  
 Joonho Lee,  D. Lefrancois,  S. Lehtola,  D. S. Levine,  Yi-Pei Li,  
 You-Sheng Lin,  Fenglai Liu,  E. Livshits,  A. Luenser,  P. Manohar,  
 E. Mansoor,  S. F. Manzer,  Shan-Ping Mao,  Yuezhi Mao,  N. Mardirossian,  
 A. V. Marenich,  T. Markovich,  L. A. Martinez-Martinez,  S. A. Maurer,  
 N. J. Mayhall,  S. C. McKenzie,  J.-M. Mewes,  A. F. Morrison,  
 J. W. Mullinax,  K. Nanda,  T. S. Nguyen-Beck,  R. Olivares-Amaya,  
 J. A. Parkhill,  T. M. Perrine,  F. Plasser,  P. Pokhilko,  S. Prager,  
 A. Prociuk,  E. Ramos,  D. R. Rehn,  F. Rob,  M. Schneider,  N. Sergueev,  
 S. M. Sharada,  S. Sharma,  D. W. Small,  T. Stauch,  T. Stein,  
 Yu-Chuan Su,  A. J. W. Thom,  A. Tkatchenko,  T. Tsuchimochi,  N. M. Tubman,  
 L. Vogt,  M. L. Vidal,  O. Vydrov,  M. A. Watson,  J. Wenzel,  
 M. de Wergifosse,  T. A. Wesolowski,  A. White,  J. Witte,  A. Yamada,  
 Jun Yang,  K. Yao,  S. Yeganeh,  S. R. Yost,  Zhi-Qiang You,  A. Zech,  
 Igor Ying Zhang,  Xing Zhang,  Yan Zhao,  Ying Zhu,  B. R. Brooks,  
 G. K. L. Chan,  C. J. Cramer,  M. S. Gordon,  W. J. Hehre,  A. Klamt,  
 M. W. Schmidt,  C. D. Sherrill,  D. G. Truhlar,  A. Aspuru-Guzik,  R. Baer,  
 A. T. Bell,  N. A. Besley,  Jeng-Da Chai,  A. E. DePrince, III,  
 R. A. DiStasio Jr.,  A. Dreuw,  B. D. Dunietz,  T. R. Furlani,  
 Chao-Ping Hsu,  Yousung Jung,  Jing Kong,  D. S. Lambrecht,  WanZhen Liang,  
 C. Ochsenfeld,  V. A. Rassolov,  L. V. Slipchenko,  J. E. Subotnik,  
 T. Van Voorhis,  J. M. Herbert,  A. I. Krylov,  P. M. W. Gill,  M. Head-Gordon

 Contributors to earlier versions of Q-Chem not listed above: 
 R. D. Adamson,  B. Austin,  J. Baker,  G. J. O. Beran,  K. Brandhorst,  
 S. T. Brown,  E. F. C. Byrd,  A. K. Chakraborty,  C.-L. Cheng,  
 Siu Hung Chien,  D. M. Chipman,  D. L. Crittenden,  H. Dachsel,  
 R. J. Doerksen,  A. D. Dutoi,  L. Fusti-Molnar,  W. A. Goddard III,  
 A. Golubeva-Zadorozhnaya,  S. R. Gwaltney,  G. Hawkins,  A. Heyden,  
 S. Hirata,  G. Kedziora,  F. J. Keil,  C. Kelley,  Jihan Kim,  R. A. King,  
 R. Z. Khaliullin,  P. P. Korambath,  W. Kurlancheek,  A. M. Lee,  M. S. Lee,  
 S. V. Levchenko,  Ching Yeh Lin,  D. Liotard,  R. C. Lochan,  I. Lotan,  
 P. E. Maslen,  N. Nair,  D. P. O'Neill,  D. Neuhauser,  E. Neuscamman,  
 C. M. Oana,  R. Olson,  B. Peters,  R. Peverati,  P. A. Pieniazek,  
 Y. M. Rhee,  J. Ritchie,  M. A. Rohrdanz,  E. Rosta,  N. J. Russ,  
 H. F. Schaefer III,  N. E. Schultz,  N. Shenvi,  A. C. Simmonett,  A. Sodt,  
 D. Stuck,  K. S. Thanthiriwatte,  V. Vanovschi,  Tao Wang,  A. Warshel,  
 C. F. Williams,  Q. Wu,  X. Xu,  W. Zhang

 Please cite Q-Chem as follows:
 Y. Shao et al., Mol. Phys. 113, 184-215 (2015)
 DOI: 10.1080/00268976.2014.952696

 Q-Chem 5.1.1 for Intel X86 EM64T Linux

 Parts of Q-Chem use Armadillo 8.300.2 (Tropical Shenanigans).
 http://arma.sourceforge.net/

 Q-Chem begins on Sat Oct 31 12:16:17 2020  

Host: n0067.mhg0
0

     Scratch files written to /local/scratch/users/yhljason/CSO_SOGGA11-X_aug-pc-4.inp20201031121615//
Input Ideriv = 2
Curr. Ideriv = -1
Max.  Ideriv = 2

Checking the input file for inconsistencies... 	...done.

--------------------------------------------------------------
User input:
--------------------------------------------------------------
$molecule
0 1
C1      0.0000  0.0000  0.0000
O2      0.0000  0.0000  1.1600
S3      0.0000  0.0000  -1.5600
$end

$rem
jobtype sp
method SOGGA11-X
xc_grid 000099000590
basis aug-pc-4
max_scf_cycles 200
thresh 14
scf_convergence 8
scf_algorithm gdm
symmetry false
sym_ignore true
unrestricted True
gen_scfman true
internal_stability_iter 15
internal_stability_davidson_iter 200
mem_total 64000
mem_static 1500
n_frozen_core 0
$end



--------------------------------------------------------------
 ----------------------------------------------------------------
             Standard Nuclear Orientation (Angstroms)
    I     Atom           X                Y                Z
 ----------------------------------------------------------------
    1      C       0.0000000000     0.0000000000     0.0000000000
    2      O       0.0000000000     0.0000000000     1.1600000000
    3      S       0.0000000000     0.0000000000    -1.5600000000
 ----------------------------------------------------------------
 Nuclear Repulsion Energy =    79.3641964458 hartrees
 There are       15 alpha and       15 beta electrons
 Requested basis set is aug-pc-4
 There are 97 shells and 431 basis functions

 Total QAlloc Memory Limit  64000 MB
 Mega-Array Size      1467 MB
 MEM_STATIC part      1500 MB

                       Distance Matrix (Angstroms)
             C (  1)   O (  2)
   O (  2)  1.160000
   S (  3)  1.560000  2.720000
 
 A cutoff of  1.0D-14 yielded   4665 shell pairs
 There are     93069 function pairs (    182639 Cartesian)
 
 -------------------------------------------------------
 OpenMP Integral Computing Module                       
 Release: version 1.0, May 2013, Q-Chem Inc. Pittsburgh 
 -------------------------------------------------------
 Integral Job Info:
 Integral job number is                      11
 Integral operator is                         1
 short-range coefficients                     0
 long-range coefficients              100000000
 Omega coefficients                           0
 if combine SR and LR in K                    0
 Integral screening is                        0
 Integral computing path is                   2
 max size of driver memory is           6400000
 size of driver memory is               5498286
 size of scratch memory is             27847117
 max col of scratch BK array             194481
 max len of scratch array in speh3         5572
 max len of scratch index in speh4           72
 max int batch size is                      520
 min int batch size is                       52
 fixed nKL is                                 7
 max L of basis functions is                  5
 order of int derivative is                   0
 number of shells is                         97
 number of basis is                         602
 number of cartesian basis is               602
 number of contracted shell pairs          4665
 number of primitive shell pairs          15841
 maxK2 (contraction) of shell pair          225
 max number of K2 of shell pair               1
 max number of CS2 of shell pair            399
 max number of PS2 of shell pair            792
 mem total for path MDJ                 1213232
 -------------------------------------------------------
 Smallest overlap matrix eigenvalue = 2.60E-07
 Linear dependence detected in AO basis
 Number of orthogonalized atomic orbitals = 429
 Maximum deviation from orthogonality = 2.311E-10

 Scale SEOQF with 1.000000e-01/1.000000e-01/1.000000e-01

 Standard Electronic Orientation quadrupole field applied
 Nucleus-field energy     =    -0.0000000053 hartrees
 Guess from superposition of atomic densities
 Warning:  Energy on first SCF cycle will be non-variational
 SAD guess density has 30.000000 electrons

 -----------------------------------------------------------------------
  General SCF calculation program by
  Eric Jon Sundstrom, Paul Horn, Yuezhi Mao, Dmitri Zuev, Alec White,
  David Stuck, Shaama M.S., Shane Yost, Joonho Lee, David Small,
  Daniel Levine, Susi Lehtola, Hugh Burton, Evgeny Epifanovsky
 -----------------------------------------------------------------------
 Exchange:     0.4015 Hartree-Fock + 1.0000 SOGGA11-X
 Correlation:  1.0000 SOGGA11-X
 Using Euler-Maclaurin-Lebedev (99,590) quadrature formula
Running Object-Oriented UKS (UHF)
performing a single roothaan step with Fock from read density so that orbitals are available to all algorithms
 LTot/LBra/LKet=          20          10          10
 LTot/LBra/LKet=          19           9          10
 LTot/LBra/LKet=          19           9          10
 LTot/LBra/LKet=          19           9          10
 LTot/LBra/LKet=          20          10          10

 Q-Chem warning:

 in GenH1, ket side, handled with new code

 LTot/LBra/LKet=          20          10          10

 Q-Chem warning:

 in GenH1, ket side, handled with new code

 LTot/LBra/LKet=          20          10          10

 Q-Chem warning:

 in GenH1, ket side, handled with new code


 Q-Chem warning:

 in GenH1, ket side, handled with new code

 LTot/LBra/LKet=          20          10          10

 Q-Chem warning:

 in GenH1, ket side, handled with new code


 Q-Chem warning:

 in GenH1, ket side, handled with new code


 Q-Chem warning:

 in GenH1, ket side, handled with new code


 Q-Chem warning:

 in GenH1, ket side, handled with new code

 LTot/LBra/LBra=          20          10          10

 Q-Chem warning:

 in GenH1, bra side, handled with new code

energy of the guess density (C=0) -512.060028508729
We will preform up to 15 macro iterations over saddle points until a stable solution is found
Energy prior to optimization (guess energy) = -511.538950877619
Begin Timing: Total SCF Calculation
Begin Timing: SCF Single Stationary Point Calculation
begin iterations for algorithm: GDM          
the SCF tolerance is set to 1.00e-08
    1    -511.5389508776      1.19e-01     00000  Descent step
    2    -511.5170671689      1.54e-01     00000 Line search: overstep
    3    -511.5693283904      1.05e-02     00000  Normal BFGS step
    4    -511.5703994942      2.13e-02     00000  Normal BFGS step
    5    -511.5710915169      8.27e-03     00000  Normal BFGS step
    6    -511.5712323988      1.42e-03     00000  Normal BFGS step
    7    -511.5712551092      2.91e-04     00000  Normal BFGS step
    8    -511.5712557176      3.98e-05     00000  Normal BFGS step
    9    -511.5712557398      6.41e-06     00000  Normal BFGS step
   10    -511.5712557408      1.92e-06     00000  Normal BFGS step
   11    -511.5712557409      1.32e-07     00000  Normal BFGS step
   12    -511.5712557409      4.32e-08     00000  Normal BFGS step
   13    -511.5712557409      6.90e-08     00000  Normal BFGS step
   14    -511.5712557409      1.48e-08     00000  Normal BFGS step
   15    -511.5712557409      1.23e-08     00000  Normal BFGS step
   16    -511.5712557409      4.50e-09     00000 Convergence criterion met
Timing for Single Stationary Point: 10005.00s (wall), 79652.16s (cpu)
Begin Timing: Stability
===================================================
Beginning Test for Internal Stability
===================================================
generating davidson guess vectors based on koopmans excitations
    1      6.31e-01     00000 Davidson Iteration
    2      3.98e-01     00000 Davidson Iteration
    3      1.53e-01     00000 Davidson Iteration
    4      3.14e-02     00000 Davidson Iteration
    5      8.64e-03     00000 Davidson Iteration
    6      5.28e-03     00000 Davidson Iteration
    7      2.06e-03     00000 Davidson Iteration
    8      5.52e-04     00000 Davidson Iteration
    9      1.71e-04     00000 Davidson Iteration
   10      2.98e-04     00000 Davidson Iteration
   11      2.59e-04     00000 Davidson Iteration
   12      5.48e-05     00000 Davidson Iteration
   13      3.59e-04     00000 Davidson Iteration
   14      3.50e-04     00000 Davidson Iteration
   15      3.56e-04     00000 Davidson Iteration
   16      1.84e-04     00000 Davidson Iteration
   17      5.56e-05     00000 Davidson Iteration
   18      7.42e-05     00000 Davidson Iteration
   19      2.44e-04     00000 Davidson Iteration
   20      1.27e-04     00000 Davidson Iteration
   21      4.67e-05     00000 Davidson Converged
converged_eigenvalues
   0.3002
   0.3002
   0.4033
   0.2563
Threshold for negative eigenvalues: -1.0e-05
solution was a local minimum (stable)
===================================================
End Test for Internal Stability
===================================================
Our SCF solution is stable!
Timing for Total SCF: 26437.00s (wall), 210511.56s (cpu)
 Total energy in the final basis set =     -511.5712557409
<S^2> =          0.000000000
    ==================================================
              The end of Object-Oriented SCFman       
    ==================================================
 
 --------------------------------------------------------------
 
                    Orbital Energies (a.u.)
 --------------------------------------------------------------
 
 Alpha MOs
 -- Occupied --
-89.659 -19.592 -10.617  -8.247  -6.112  -6.107  -6.107  -1.255
 -0.906  -0.624  -0.537  -0.537  -0.527  -0.347  -0.347
 -- Virtual --
 -0.015  -0.015  -0.009   0.012   0.017   0.017   0.031   0.038
  0.038   0.059   0.070   0.071   0.071   0.074   0.074   0.078
  0.089   0.099   0.099   0.127   0.127   0.127   0.127   0.133
  0.169   0.170   0.170   0.190   0.197   0.197   0.197   0.197
  0.202   0.203   0.203   0.227   0.227   0.229   0.251   0.251
  0.255   0.255   0.278   0.278   0.280   0.290   0.292   0.292
  0.330   0.330   0.342   0.342   0.349   0.349   0.365   0.365
  0.365   0.395   0.399   0.399   0.421   0.421   0.433   0.433
  0.437   0.466   0.471   0.471   0.481   0.481   0.490   0.490
  0.507   0.525   0.532   0.532   0.532   0.532   0.555   0.555
  0.562   0.562   0.564   0.564   0.572   0.585   0.585   0.591
  0.591   0.606   0.606   0.615   0.615   0.641   0.653   0.653
  0.656   0.656   0.658   0.658   0.691   0.691   0.695   0.711
  0.711   0.753   0.765   0.765   0.797   0.802   0.802   0.810
  0.810   0.833   0.839   0.839   0.844   0.844   0.886   0.886
  0.907   0.907   0.915   0.920   0.920   0.971   0.972   0.972
  0.988   0.990   0.990   1.002   1.002   1.020   1.020   1.020
  1.020   1.072   1.072   1.093   1.093   1.095   1.095   1.100
  1.100   1.138   1.145   1.145   1.198   1.288   1.288   1.294
  1.294   1.295   1.350   1.350   1.375   1.388   1.435   1.435
  1.498   1.498   1.529   1.529   1.533   1.632   1.632   1.662
  1.662   1.741   1.799   1.815   1.815   1.841   1.841   1.958
  2.037   2.064   2.064   2.110   2.110   2.113   2.113   2.201
  2.201   2.231   2.231   2.250   2.377   2.377   2.444   2.444
  2.446   2.591   2.591   2.602   2.602   2.637   2.637   2.699
  2.699   2.723   2.723   2.823   2.869   2.869   2.906   3.101
  3.310   3.310   3.322   3.409   3.409   3.469   3.469   3.523
  3.523   3.561   3.773   3.785   3.785   3.799   3.868   3.868
  3.985   4.044   4.044   4.140   4.140   4.195   4.195   4.243
  4.243   4.275   4.275   4.386   4.386   4.447   4.550   4.550
  4.583   4.781   4.781   4.843   4.843   4.979   4.979   5.036
  5.068   5.068   5.198   5.285   5.285   5.305   5.305   5.308
  5.308   5.321   5.321   5.487   5.613   5.613   5.872   5.872
  5.891   5.891   5.944   5.944   5.966   6.104   6.114   6.114
  6.183   6.183   6.560   6.560   6.586   6.680   6.680   6.746
  6.746   7.056   7.150   7.150   7.686   7.686   7.794   8.031
  8.031   8.323   8.384   8.384   8.442   8.442   8.508   8.516
  8.516   8.724   8.724   9.234   9.234   9.365   9.692   9.692
  9.706  10.424  10.424  10.425  10.425  10.595  10.595  10.720
 10.720  10.784  10.835  10.835  10.857  10.857  10.878  10.878
 11.195  11.581  11.581  11.599  11.599  11.694  11.770  11.770
 11.839  11.839  11.909  11.909  11.979  11.979  12.043  12.043
 12.119  12.119  12.217  12.217  12.443  12.443  12.460  12.644
 12.644  12.707  12.707  12.824  12.824  12.911  13.009  13.009
 13.212  13.345  13.345  13.623  13.623  13.801  13.801  14.015
 14.663  14.663  14.955  15.884  15.884  16.383  16.637  17.214
 17.214  17.299  17.299  17.496  17.496  17.519  17.519  17.922
 17.922  18.319  18.319  18.855  19.044  19.044  19.158  19.422
 19.422  20.068  22.999  23.392  23.392  24.748  24.748  26.972
 30.865  31.531  32.249  32.249  32.611  32.611  33.245  33.245
 34.632  35.335  63.156  63.156  63.396  63.396  63.994  67.218
 67.218  67.998  67.998  69.498  76.443 144.837
 
 Beta MOs
 -- Occupied --
-89.659 -19.592 -10.617  -8.247  -6.112  -6.107  -6.107  -1.255
 -0.906  -0.624  -0.537  -0.537  -0.527  -0.347  -0.347
 -- Virtual --
 -0.015  -0.015  -0.009   0.012   0.017   0.017   0.031   0.038
  0.038   0.059   0.070   0.071   0.071   0.074   0.074   0.078
  0.089   0.099   0.099   0.127   0.127   0.127   0.127   0.133
  0.169   0.170   0.170   0.190   0.197   0.197   0.197   0.197
  0.202   0.203   0.203   0.227   0.227   0.229   0.251   0.251
  0.255   0.255   0.278   0.278   0.280   0.290   0.292   0.292
  0.330   0.330   0.342   0.342   0.349   0.349   0.365   0.365
  0.365   0.395   0.399   0.399   0.421   0.421   0.433   0.433
  0.437   0.466   0.471   0.471   0.481   0.481   0.490   0.490
  0.507   0.525   0.532   0.532   0.532   0.532   0.555   0.555
  0.562   0.562   0.564   0.564   0.572   0.585   0.585   0.591
  0.591   0.606   0.606   0.615   0.615   0.641   0.653   0.653
  0.656   0.656   0.658   0.658   0.691   0.691   0.695   0.711
  0.711   0.753   0.765   0.765   0.797   0.802   0.802   0.810
  0.810   0.833   0.839   0.839   0.844   0.844   0.886   0.886
  0.907   0.907   0.915   0.920   0.920   0.971   0.972   0.972
  0.988   0.990   0.990   1.002   1.002   1.020   1.020   1.020
  1.020   1.072   1.072   1.093   1.093   1.095   1.095   1.100
  1.100   1.138   1.145   1.145   1.198   1.288   1.288   1.294
  1.294   1.295   1.350   1.350   1.375   1.388   1.435   1.435
  1.498   1.498   1.529   1.529   1.533   1.632   1.632   1.662
  1.662   1.741   1.799   1.815   1.815   1.841   1.841   1.958
  2.037   2.064   2.064   2.110   2.110   2.113   2.113   2.201
  2.201   2.231   2.231   2.250   2.377   2.377   2.444   2.444
  2.446   2.591   2.591   2.602   2.602   2.637   2.637   2.699
  2.699   2.723   2.723   2.823   2.869   2.869   2.906   3.101
  3.310   3.310   3.322   3.409   3.409   3.469   3.469   3.523
  3.523   3.561   3.773   3.785   3.785   3.799   3.868   3.868
  3.985   4.044   4.044   4.140   4.140   4.195   4.195   4.243
  4.243   4.275   4.275   4.386   4.386   4.447   4.550   4.550
  4.583   4.781   4.781   4.843   4.843   4.979   4.979   5.036
  5.068   5.068   5.198   5.285   5.285   5.305   5.305   5.308
  5.308   5.321   5.321   5.487   5.613   5.613   5.872   5.872
  5.891   5.891   5.944   5.944   5.966   6.104   6.114   6.114
  6.183   6.183   6.560   6.560   6.586   6.680   6.680   6.746
  6.746   7.056   7.150   7.150   7.686   7.686   7.794   8.031
  8.031   8.323   8.384   8.384   8.442   8.442   8.508   8.516
  8.516   8.724   8.724   9.234   9.234   9.365   9.692   9.692
  9.706  10.424  10.424  10.425  10.425  10.595  10.595  10.720
 10.720  10.784  10.835  10.835  10.857  10.857  10.878  10.878
 11.195  11.581  11.581  11.599  11.599  11.694  11.770  11.770
 11.839  11.839  11.909  11.909  11.979  11.979  12.043  12.043
 12.119  12.119  12.217  12.217  12.443  12.443  12.460  12.644
 12.644  12.707  12.707  12.824  12.824  12.911  13.009  13.009
 13.212  13.345  13.345  13.623  13.623  13.801  13.801  14.015
 14.663  14.663  14.955  15.884  15.884  16.383  16.637  17.214
 17.214  17.299  17.299  17.496  17.496  17.519  17.519  17.922
 17.922  18.319  18.319  18.855  19.044  19.044  19.158  19.422
 19.422  20.068  22.999  23.392  23.392  24.748  24.748  26.972
 30.865  31.531  32.249  32.249  32.611  32.611  33.245  33.245
 34.632  35.335  63.156  63.156  63.396  63.396  63.994  67.218
 67.218  67.998  67.998  69.498  76.443 144.837
 --------------------------------------------------------------
 
          Ground-State Mulliken Net Atomic Charges

     Atom                 Charge (a.u.)    Spin (a.u.)
  --------------------------------------------------------
      1 C                    -0.656011      -0.000000
      2 O                     0.359828       0.000000
      3 S                     0.296183      -0.000000
  --------------------------------------------------------
  Sum of atomic charges =     0.000000
  Sum of spin   charges =     0.000000

 -----------------------------------------------------------------
                    Cartesian Multipole Moments
 -----------------------------------------------------------------
    Charge (ESU x 10^10)
                 0.0000
    Dipole Moment (Debye)
         X       0.0000      Y      -0.0000      Z      -0.7901
       Tot       0.7901
    Quadrupole Moments (Debye-Ang)
        XX     -23.3699     XY       0.0000     YY     -23.3699
        XZ      -0.0000     YZ       0.0000     ZZ     -23.5824
    Octopole Moments (Debye-Ang^2)
       XXX      -0.0000    XXY      -0.0000    XYY      -0.0000
       YYY      -0.0000    XXZ      14.8080    XYZ       0.0000
       YYZ      14.8080    XZZ      -0.0000    YZZ      -0.0000
       ZZZ      33.1889
    Hexadecapole Moments (Debye-Ang^3)
      XXXX     -27.0063   XXXY       0.0000   XXYY      -9.0021
      XYYY       0.0000   YYYY     -27.0063   XXXZ       0.0000
      XXYZ       0.0000   XYYZ       0.0000   YYYZ       0.0000
      XXZZ     -47.6782   XYZZ      -0.0000   YYZZ     -47.6782
      XZZZ      -0.0000   YZZZ       0.0000   ZZZZ    -232.6404
 -----------------------------------------------------------------
Archival summary:
1\1\n0067.mhg0\SP\ProcedureUnspecified\BasisUnspecified\111\yhljason\SatOct3119:50:492020SatOct3119:50:492020\0\\#,ProcedureUnspecified,BasisUnspecified,\\0,1\S\C,1,1.56\O,2,1.16,1,180\\\@

 Total job time:  27271.92s(wall), 217068.97s(cpu) 
 Sat Oct 31 19:50:49 2020

        *************************************************************
        *                                                           *
        *  Thank you very much for using Q-Chem.  Have a nice day.  *
        *                                                           *
        *************************************************************


