Q-Chem Developer Version!
                  Welcome to Q-Chem
     A Quantum Leap Into The Future Of Chemistry


 Q-Chem 5.1, Q-Chem, Inc., Pleasanton, CA (2018)

 Yihan Shao,  Zhengting Gan,  E. Epifanovsky,  A. T. B. Gilbert,  M. Wormit,  
 J. Kussmann,  A. W. Lange,  A. Behn,  Jia Deng,  Xintian Feng,  D. Ghosh,  
 M. Goldey,  P. R. Horn,  L. D. Jacobson,  I. Kaliman,  T. Kus,  A. Landau,  
 Jie Liu,  E. I. Proynov,  R. M. Richard,  R. P. Steele,  E. J. Sundstrom,  
 H. L. Woodcock III,  P. M. Zimmerman,  D. Zuev,  B. Albrecht,  E. Alguire,  
 S. A. Baeppler,  D. Barton,  Z. Benda,  Y. A. Bernard,  E. J. Berquist,  
 K. B. Bravaya,  H. Burton,  D. Casanova,  Chun-Min Chang,  Yunqing Chen,  
 A. Chien,  K. D. Closser,  M. P. Coons,  S. Coriani,  S. Dasgupta,  
 A. L. Dempwolff,  M. Diedenhofen,  Hainam Do,  R. G. Edgar,  Po-Tung Fang,  
 S. Faraji,  S. Fatehi,  Qingguo Feng,  K. D. Fenk,  J. Fosso-Tande,  
 Qinghui Ge,  A. Ghysels,  G. Gidofalvi,  J. Gomes,  J. Gonthier,  A. Gunina,  
 D. Hait,  M. W. D. Hanson-Heine,  P. H. P. Harbach,  A. W. Hauser,  
 J. E. Herr,  E. G. Hohenstein,  Z. C. Holden,  Kerwin Hui,  B. C. Huynh,  
 T.-C. Jagau,  Hyunjun Ji,  B. Kaduk,  K. Khistyaev,  Jaehoon Kim,  
 P. Klunzinger,  K. Koh,  D. Kosenkov,  L. Koulias,  T. Kowalczyk,  
 C. M. Krauter,  A. Kunitsa,  Ka Un Lao,  A. Laurent,  K. V. Lawler,  
 Joonho Lee,  D. Lefrancois,  S. Lehtola,  D. S. Levine,  Yi-Pei Li,  
 You-Sheng Lin,  Fenglai Liu,  E. Livshits,  A. Luenser,  P. Manohar,  
 E. Mansoor,  S. F. Manzer,  Shan-Ping Mao,  Yuezhi Mao,  N. Mardirossian,  
 A. V. Marenich,  T. Markovich,  L. A. Martinez-Martinez,  S. A. Maurer,  
 N. J. Mayhall,  S. C. McKenzie,  J.-M. Mewes,  A. F. Morrison,  
 J. W. Mullinax,  K. Nanda,  T. S. Nguyen-Beck,  R. Olivares-Amaya,  
 J. A. Parkhill,  T. M. Perrine,  F. Plasser,  P. Pokhilko,  S. Prager,  
 A. Prociuk,  E. Ramos,  D. R. Rehn,  F. Rob,  M. Schneider,  N. Sergueev,  
 S. M. Sharada,  S. Sharma,  D. W. Small,  T. Stauch,  T. Stein,  
 Yu-Chuan Su,  A. J. W. Thom,  A. Tkatchenko,  T. Tsuchimochi,  N. M. Tubman,  
 L. Vogt,  M. L. Vidal,  O. Vydrov,  M. A. Watson,  J. Wenzel,  
 M. de Wergifosse,  T. A. Wesolowski,  A. White,  J. Witte,  A. Yamada,  
 Jun Yang,  K. Yao,  S. Yeganeh,  S. R. Yost,  Zhi-Qiang You,  A. Zech,  
 Igor Ying Zhang,  Xing Zhang,  Yan Zhao,  Ying Zhu,  B. R. Brooks,  
 G. K. L. Chan,  C. J. Cramer,  M. S. Gordon,  W. J. Hehre,  A. Klamt,  
 M. W. Schmidt,  C. D. Sherrill,  D. G. Truhlar,  A. Aspuru-Guzik,  R. Baer,  
 A. T. Bell,  N. A. Besley,  Jeng-Da Chai,  A. E. DePrince, III,  
 R. A. DiStasio Jr.,  A. Dreuw,  B. D. Dunietz,  T. R. Furlani,  
 Chao-Ping Hsu,  Yousung Jung,  Jing Kong,  D. S. Lambrecht,  WanZhen Liang,  
 C. Ochsenfeld,  V. A. Rassolov,  L. V. Slipchenko,  J. E. Subotnik,  
 T. Van Voorhis,  J. M. Herbert,  A. I. Krylov,  P. M. W. Gill,  M. Head-Gordon

 Contributors to earlier versions of Q-Chem not listed above: 
 R. D. Adamson,  B. Austin,  J. Baker,  G. J. O. Beran,  K. Brandhorst,  
 S. T. Brown,  E. F. C. Byrd,  A. K. Chakraborty,  C.-L. Cheng,  
 Siu Hung Chien,  D. M. Chipman,  D. L. Crittenden,  H. Dachsel,  
 R. J. Doerksen,  A. D. Dutoi,  L. Fusti-Molnar,  W. A. Goddard III,  
 A. Golubeva-Zadorozhnaya,  S. R. Gwaltney,  G. Hawkins,  A. Heyden,  
 S. Hirata,  G. Kedziora,  F. J. Keil,  C. Kelley,  Jihan Kim,  R. A. King,  
 R. Z. Khaliullin,  P. P. Korambath,  W. Kurlancheek,  A. M. Lee,  M. S. Lee,  
 S. V. Levchenko,  Ching Yeh Lin,  D. Liotard,  R. C. Lochan,  I. Lotan,  
 P. E. Maslen,  N. Nair,  D. P. O'Neill,  D. Neuhauser,  E. Neuscamman,  
 C. M. Oana,  R. Olson,  B. Peters,  R. Peverati,  P. A. Pieniazek,  
 Y. M. Rhee,  J. Ritchie,  M. A. Rohrdanz,  E. Rosta,  N. J. Russ,  
 H. F. Schaefer III,  N. E. Schultz,  N. Shenvi,  A. C. Simmonett,  A. Sodt,  
 D. Stuck,  K. S. Thanthiriwatte,  V. Vanovschi,  Tao Wang,  A. Warshel,  
 C. F. Williams,  Q. Wu,  X. Xu,  W. Zhang

 Please cite Q-Chem as follows:
 Y. Shao et al., Mol. Phys. 113, 184-215 (2015)
 DOI: 10.1080/00268976.2014.952696

 Q-Chem 5.1.1 for Intel X86 EM64T Linux

 Parts of Q-Chem use Armadillo 8.300.2 (Tropical Shenanigans).
 http://arma.sourceforge.net/

 Q-Chem begins on Sat Oct 31 12:16:50 2020  

Host: n0081.mhg0
0

     Scratch files written to /local/scratch/users/yhljason/HNC_SOGGA11-X_aug-pc-4.inp20201031121621//
Input Ideriv = 2
Curr. Ideriv = -1
Max.  Ideriv = 2

Checking the input file for inconsistencies... 	...done.

--------------------------------------------------------------
User input:
--------------------------------------------------------------
$molecule
0 1
C1      0.0000  0.0000  -0.7405
N2      0.0000  0.0000  0.4321
H3      0.0000  0.0000  1.4183
$end

$rem
jobtype sp
method SOGGA11-X
xc_grid 000099000590
basis aug-pc-4
max_scf_cycles 200
thresh 14
scf_convergence 8
scf_algorithm gdm
symmetry false
sym_ignore true
unrestricted True
gen_scfman true
internal_stability_iter 15
internal_stability_davidson_iter 200
mem_total 64000
mem_static 1500
n_frozen_core 0
$end



--------------------------------------------------------------
 ----------------------------------------------------------------
             Standard Nuclear Orientation (Angstroms)
    I     Atom           X                Y                Z
 ----------------------------------------------------------------
    1      C       0.0000000000     0.0000000000    -0.7405000000
    2      N       0.0000000000     0.0000000000     0.4321000000
    3      H       0.0000000000     0.0000000000     1.4183000000
 ----------------------------------------------------------------
 Nuclear Repulsion Energy =    24.1808131194 hartrees
 There are        7 alpha and        7 beta electrons
 Requested basis set is aug-pc-4
 There are 90 shells and 378 basis functions

 Total QAlloc Memory Limit  64000 MB
 Mega-Array Size      1467 MB
 MEM_STATIC part      1500 MB

                       Distance Matrix (Angstroms)
             C (  1)   N (  2)
   N (  2)  1.172600
   H (  3)  2.158800  0.986200
 
 A cutoff of  1.0D-14 yielded   4075 shell pairs
 There are     72509 function pairs (    136289 Cartesian)
 
 -------------------------------------------------------
 OpenMP Integral Computing Module                       
 Release: version 1.0, May 2013, Q-Chem Inc. Pittsburgh 
 -------------------------------------------------------
 Integral Job Info:
 Integral job number is                      11
 Integral operator is                         1
 short-range coefficients                     0
 long-range coefficients              100000000
 Omega coefficients                           0
 if combine SR and LR in K                    0
 Integral screening is                        0
 Integral computing path is                   2
 max size of driver memory is           6400000
 size of driver memory is               5498286
 size of scratch memory is             29792225
 max col of scratch BK array             194481
 max len of scratch array in speh3         5572
 max len of scratch index in speh4           72
 max int batch size is                      520
 min int batch size is                       52
 fixed nKL is                                25
 max L of basis functions is                  5
 order of int derivative is                   0
 number of shells is                         90
 number of basis is                         517
 number of cartesian basis is               517
 number of contracted shell pairs          4075
 number of primitive shell pairs           8918
 maxK2 (contraction) of shell pair          121
 max number of K2 of shell pair               1
 max number of CS2 of shell pair            442
 max number of PS2 of shell pair            451
 mem total for path MDJ                  998666
 -------------------------------------------------------
 Smallest overlap matrix eigenvalue = 2.40E-07
 Linear dependence detected in AO basis
 Number of orthogonalized atomic orbitals = 376
 Maximum deviation from orthogonality = 1.494E-10

 Scale SEOQF with 1.000000e-01/1.000000e-01/1.000000e-01

 Standard Electronic Orientation quadrupole field applied
 Nucleus-field energy     =    -0.0000000007 hartrees
 Guess from superposition of atomic densities
 Warning:  Energy on first SCF cycle will be non-variational
 SAD guess density has 14.000000 electrons

 -----------------------------------------------------------------------
  General SCF calculation program by
  Eric Jon Sundstrom, Paul Horn, Yuezhi Mao, Dmitri Zuev, Alec White,
  David Stuck, Shaama M.S., Shane Yost, Joonho Lee, David Small,
  Daniel Levine, Susi Lehtola, Hugh Burton, Evgeny Epifanovsky
 -----------------------------------------------------------------------
 Exchange:     0.4015 Hartree-Fock + 1.0000 SOGGA11-X
 Correlation:  1.0000 SOGGA11-X
 Using Euler-Maclaurin-Lebedev (99,590) quadrature formula
Running Object-Oriented UKS (UHF)
performing a single roothaan step with Fock from read density so that orbitals are available to all algorithms
 LTot/LBra/LKet=          18           9           9
 LTot/LBra/LKet=          18           9           9
 LTot/LBra/LKet=          18           9           9

 Q-Chem warning:

 in GenH1, ket side, handled with new code


 Q-Chem warning:

 in GenH1, ket side, handled with new code

 LTot/LBra/LKet=          18           9           9
 LTot/LBra/LKet=          18           9           9

 Q-Chem warning:

 in GenH1, ket side, handled with new code


 Q-Chem warning:

 in GenH1, ket side, handled with new code

 LTot/LBra/LBra=          18           9           9

 Q-Chem warning:

 in GenH1, bra side, handled with new code


 Q-Chem warning:

 in GenH1, ket side, handled with new code

energy of the guess density (C=0) -93.603717049849
We will preform up to 15 macro iterations over saddle points until a stable solution is found
Energy prior to optimization (guess energy) = -93.393700548289
Begin Timing: Total SCF Calculation
Begin Timing: SCF Single Stationary Point Calculation
begin iterations for algorithm: GDM          
the SCF tolerance is set to 1.00e-08
    1     -93.3937005483      4.12e-02     00000  Normal BFGS step
    2     -93.4018163660      2.69e-02     00000  Normal BFGS step
    3     -93.4096870704      1.08e-02     00000  Normal BFGS step
    4     -93.4094014008      1.57e-02     00000 Line search: overstep
    5     -93.4099902200      1.38e-03     00000  Normal BFGS step
    6     -93.4100121430      1.05e-04     00000  Normal BFGS step
    7     -93.4100124226      2.90e-05     00000  Normal BFGS step
    8     -93.4100124333      2.04e-06     00000  Normal BFGS step
    9     -93.4100124334      2.70e-07     00000  Normal BFGS step
   10     -93.4100124334      3.97e-08     00000  Normal BFGS step
   11     -93.4100124334      8.09e-09     00000 Convergence criterion met
Timing for Single Stationary Point: 2790.00s (wall), 22184.44s (cpu)
Begin Timing: Stability
===================================================
Beginning Test for Internal Stability
===================================================
generating davidson guess vectors based on koopmans excitations
    1      3.69e-01     00000 Davidson Iteration
    2      2.61e-01     00000 Davidson Iteration
    3      6.91e-02     00000 Davidson Iteration
    4      7.04e-02     00000 Davidson Iteration
    5      1.97e-02     00000 Davidson Iteration
    6      1.54e-02     00000 Davidson Iteration
    7      8.24e-03     00000 Davidson Iteration
    8      5.87e-03     00000 Davidson Iteration
    9      1.66e-03     00000 Davidson Iteration
   10      5.65e-04     00000 Davidson Iteration
   11      1.36e-04     00000 Davidson Iteration
   12      4.79e-05     00000 Davidson Iteration
   13      1.33e-04     00000 Davidson Iteration
   14      3.16e-05     00000 Davidson Converged
converged_eigenvalues
   0.3749
   0.3581
Threshold for negative eigenvalues: -1.0e-05
solution was a local minimum (stable)
===================================================
End Test for Internal Stability
===================================================
Our SCF solution is stable!
Timing for Total SCF: 7791.00s (wall), 61960.32s (cpu)
 Total energy in the final basis set =      -93.4100124334
<S^2> =          0.000000000
    ==================================================
              The end of Object-Oriented SCFman       
    ==================================================
 
 --------------------------------------------------------------
 
                    Orbital Energies (a.u.)
 --------------------------------------------------------------
 
 Alpha MOs
 -- Occupied --
-14.686 -10.505  -1.052  -0.740  -0.431  -0.431  -0.378
 -- Virtual --
 -0.012   0.017   0.018   0.018   0.024   0.024   0.038   0.041
  0.052   0.052   0.084   0.084   0.087   0.095   0.095   0.095
  0.118   0.118   0.128   0.141   0.147   0.147   0.167   0.167
  0.187   0.187   0.191   0.212   0.223   0.223   0.233   0.233
  0.243   0.244   0.245   0.259   0.259   0.277   0.277   0.291
  0.302   0.302   0.318   0.318   0.322   0.334   0.342   0.342
  0.361   0.377   0.377   0.385   0.385   0.425   0.425   0.446
  0.446   0.450   0.463   0.463   0.473   0.473   0.478   0.480
  0.480   0.497   0.497   0.504   0.504   0.514   0.526   0.526
  0.557   0.557   0.562   0.562   0.576   0.576   0.576   0.595
  0.595   0.607   0.635   0.635   0.641   0.644   0.644   0.647
  0.647   0.724   0.724   0.743   0.754   0.754   0.756   0.756
  0.760   0.804   0.812   0.812   0.818   0.818   0.825   0.825
  0.830   0.830   0.862   0.862   0.867   0.867   0.870   0.909
  0.909   0.918   0.933   0.933   1.011   1.011   1.012   1.012
  1.017   1.017   1.042   1.043   1.058   1.058   1.064   1.064
  1.069   1.090   1.210   1.210   1.211   1.250   1.349   1.420
  1.420   1.467   1.467   1.545   1.579   1.599   1.599   1.642
  1.642   1.668   1.668   1.705   1.705   1.856   1.859   1.859
  1.964   1.964   1.990   1.990   1.993   2.051   2.051   2.163
  2.163   2.251   2.386   2.386   2.395   2.429   2.496   2.496
  2.641   2.684   2.684   2.879   2.947   2.947   2.974   3.174
  3.174   3.184   3.184   3.400   3.400   3.486   3.618   3.618
  3.622   3.725   3.725   3.728   3.728   3.807   3.943   3.943
  4.150   4.150   4.173   4.209   4.209   4.261   4.261   4.434
  4.434   4.469   4.469   4.547   4.547   4.658   4.666   4.674
  4.674   4.814   4.814   4.861   4.861   5.025   5.025   5.167
  5.167   5.194   5.274   5.274   5.348   5.722   5.722   5.859
  5.923   5.923   5.968   5.968   6.080   6.315   6.315   6.364
  6.615   6.652   6.652   6.808   6.808   6.970   6.970   7.111
  7.562   7.628   7.628   7.672   7.672   8.432   8.769   8.769
  8.959   8.959   9.114   9.120   9.120   9.631   9.631  10.004
 10.452  10.452  10.513  10.513  10.627  10.627  10.664  10.664
 10.669  10.690  10.690  10.906  10.927  10.927  11.134  11.134
 11.367  11.367  11.489  11.489  11.560  11.560  11.570  11.804
 11.804  11.835  11.835  11.926  11.926  11.990  11.990  12.027
 12.052  12.052  12.183  12.183  12.334  12.334  12.376  12.434
 12.434  12.575  12.575  13.161  13.219  13.219  13.284  13.284
 13.439  13.439  13.680  14.190  14.299  14.299  14.463  14.463
 14.748  14.748  14.822  14.822  14.998  15.665  15.665  15.935
 15.935  16.415  16.437  16.437  16.566  16.860  16.860  17.003
 17.240  17.240  17.651  17.651  18.163  18.163  18.472  18.472
 19.258  19.750  19.750  20.005  20.005  20.597  21.039  22.412
 22.412  23.118  24.004  24.004  25.728  26.773  26.773  26.842
 30.171  32.341  32.341  33.495  33.495  34.945  41.892  48.268
 48.268  49.126  49.126  51.544  75.401  91.371  91.371  93.408
107.778
 
 Beta MOs
 -- Occupied --
-14.686 -10.505  -1.052  -0.740  -0.431  -0.431  -0.378
 -- Virtual --
 -0.012   0.017   0.018   0.018   0.024   0.024   0.038   0.041
  0.052   0.052   0.084   0.084   0.087   0.095   0.095   0.095
  0.118   0.118   0.128   0.141   0.147   0.147   0.167   0.167
  0.187   0.187   0.191   0.212   0.223   0.223   0.233   0.233
  0.243   0.244   0.245   0.259   0.259   0.277   0.277   0.291
  0.302   0.302   0.318   0.318   0.322   0.334   0.342   0.342
  0.361   0.377   0.377   0.385   0.385   0.425   0.425   0.446
  0.446   0.450   0.463   0.463   0.473   0.473   0.478   0.480
  0.480   0.497   0.497   0.504   0.504   0.514   0.526   0.526
  0.557   0.557   0.562   0.562   0.576   0.576   0.576   0.595
  0.595   0.607   0.635   0.635   0.641   0.644   0.644   0.647
  0.647   0.724   0.724   0.743   0.754   0.754   0.756   0.756
  0.760   0.804   0.812   0.812   0.818   0.818   0.825   0.825
  0.830   0.830   0.862   0.862   0.867   0.867   0.870   0.909
  0.909   0.918   0.933   0.933   1.011   1.011   1.012   1.012
  1.017   1.017   1.042   1.043   1.058   1.058   1.064   1.064
  1.069   1.090   1.210   1.210   1.211   1.250   1.349   1.420
  1.420   1.467   1.467   1.545   1.579   1.599   1.599   1.642
  1.642   1.668   1.668   1.705   1.705   1.856   1.859   1.859
  1.964   1.964   1.990   1.990   1.993   2.051   2.051   2.163
  2.163   2.251   2.386   2.386   2.395   2.429   2.496   2.496
  2.641   2.684   2.684   2.879   2.947   2.947   2.974   3.174
  3.174   3.184   3.184   3.400   3.400   3.486   3.618   3.618
  3.622   3.725   3.725   3.728   3.728   3.807   3.943   3.943
  4.150   4.150   4.173   4.209   4.209   4.261   4.261   4.434
  4.434   4.469   4.469   4.547   4.547   4.658   4.666   4.674
  4.674   4.814   4.814   4.861   4.861   5.025   5.025   5.167
  5.167   5.194   5.274   5.274   5.348   5.722   5.722   5.859
  5.923   5.923   5.968   5.968   6.080   6.315   6.315   6.364
  6.615   6.652   6.652   6.808   6.808   6.970   6.970   7.111
  7.562   7.628   7.628   7.672   7.672   8.432   8.769   8.769
  8.959   8.959   9.114   9.120   9.120   9.631   9.631  10.004
 10.452  10.452  10.513  10.513  10.627  10.627  10.664  10.664
 10.669  10.690  10.690  10.906  10.927  10.927  11.134  11.134
 11.367  11.367  11.489  11.489  11.560  11.560  11.570  11.804
 11.804  11.835  11.835  11.926  11.926  11.990  11.990  12.027
 12.052  12.052  12.183  12.183  12.334  12.334  12.376  12.434
 12.434  12.575  12.575  13.161  13.219  13.219  13.284  13.284
 13.439  13.439  13.680  14.190  14.299  14.299  14.463  14.463
 14.748  14.748  14.822  14.822  14.998  15.665  15.665  15.935
 15.935  16.415  16.437  16.437  16.566  16.860  16.860  17.003
 17.240  17.240  17.651  17.651  18.163  18.163  18.472  18.472
 19.258  19.750  19.750  20.005  20.005  20.597  21.039  22.412
 22.412  23.118  24.004  24.004  25.728  26.773  26.773  26.842
 30.171  32.341  32.341  33.495  33.495  34.945  41.892  48.268
 48.268  49.126  49.126  51.544  75.401  91.371  91.371  93.408
107.778
 --------------------------------------------------------------
 
          Ground-State Mulliken Net Atomic Charges

     Atom                 Charge (a.u.)    Spin (a.u.)
  --------------------------------------------------------
      1 C                     1.223507      -0.000000
      2 N                    -1.227444       0.000000
      3 H                     0.003937      -0.000000
  --------------------------------------------------------
  Sum of atomic charges =    -0.000000
  Sum of spin   charges =    -0.000000

 -----------------------------------------------------------------
                    Cartesian Multipole Moments
 -----------------------------------------------------------------
    Charge (ESU x 10^10)
                 0.0000
    Dipole Moment (Debye)
         X       0.0000      Y      -0.0000      Z       2.9632
       Tot       2.9632
    Quadrupole Moments (Debye-Ang)
        XX     -12.1211     XY      -0.0000     YY     -12.1211
        XZ       0.0000     YZ       0.0000     ZZ     -10.4103
    Octopole Moments (Debye-Ang^2)
       XXX       0.0000    XXY      -0.0000    XYY       0.0000
       YYY      -0.0000    XXZ       1.4905    XYZ      -0.0000
       YYZ       1.4905    XZZ      -0.0000    YZZ      -0.0000
       ZZZ      14.3443
    Hexadecapole Moments (Debye-Ang^3)
      XXXX     -12.9902   XXXY      -0.0000   XXYY      -4.3301
      XYYY      -0.0000   YYYY     -12.9902   XXXZ       0.0000
      XXYZ       0.0000   XYYZ       0.0000   YYYZ       0.0000
      XXZZ     -10.0554   XYZZ       0.0000   YYZZ     -10.0554
      XZZZ       0.0000   YZZZ       0.0000   ZZZZ     -42.7094
 -----------------------------------------------------------------
Archival summary:
1\1\n0081.mhg0\SP\ProcedureUnspecified\BasisUnspecified\111\yhljason\SatOct3114:31:532020SatOct3114:31:532020\0\\#,ProcedureUnspecified,BasisUnspecified,\\0,1\N\H,1,0.9862\C,1,1.1726,2,180\\\@

 Total job time:  8103.67s(wall), 64394.71s(cpu) 
 Sat Oct 31 14:31:53 2020

        *************************************************************
        *                                                           *
        *  Thank you very much for using Q-Chem.  Have a nice day.  *
        *                                                           *
        *************************************************************


