Q-Chem Developer Version!
                  Welcome to Q-Chem
     A Quantum Leap Into The Future Of Chemistry


 Q-Chem 5.1, Q-Chem, Inc., Pleasanton, CA (2018)

 Yihan Shao,  Zhengting Gan,  E. Epifanovsky,  A. T. B. Gilbert,  M. Wormit,  
 J. Kussmann,  A. W. Lange,  A. Behn,  Jia Deng,  Xintian Feng,  D. Ghosh,  
 M. Goldey,  P. R. Horn,  L. D. Jacobson,  I. Kaliman,  T. Kus,  A. Landau,  
 Jie Liu,  E. I. Proynov,  R. M. Richard,  R. P. Steele,  E. J. Sundstrom,  
 H. L. Woodcock III,  P. M. Zimmerman,  D. Zuev,  B. Albrecht,  E. Alguire,  
 S. A. Baeppler,  D. Barton,  Z. Benda,  Y. A. Bernard,  E. J. Berquist,  
 K. B. Bravaya,  H. Burton,  D. Casanova,  Chun-Min Chang,  Yunqing Chen,  
 A. Chien,  K. D. Closser,  M. P. Coons,  S. Coriani,  S. Dasgupta,  
 A. L. Dempwolff,  M. Diedenhofen,  Hainam Do,  R. G. Edgar,  Po-Tung Fang,  
 S. Faraji,  S. Fatehi,  Qingguo Feng,  K. D. Fenk,  J. Fosso-Tande,  
 Qinghui Ge,  A. Ghysels,  G. Gidofalvi,  J. Gomes,  J. Gonthier,  A. Gunina,  
 D. Hait,  M. W. D. Hanson-Heine,  P. H. P. Harbach,  A. W. Hauser,  
 J. E. Herr,  E. G. Hohenstein,  Z. C. Holden,  Kerwin Hui,  B. C. Huynh,  
 T.-C. Jagau,  Hyunjun Ji,  B. Kaduk,  K. Khistyaev,  Jaehoon Kim,  
 P. Klunzinger,  K. Koh,  D. Kosenkov,  L. Koulias,  T. Kowalczyk,  
 C. M. Krauter,  A. Kunitsa,  Ka Un Lao,  A. Laurent,  K. V. Lawler,  
 Joonho Lee,  D. Lefrancois,  S. Lehtola,  D. S. Levine,  Yi-Pei Li,  
 You-Sheng Lin,  Fenglai Liu,  E. Livshits,  A. Luenser,  P. Manohar,  
 E. Mansoor,  S. F. Manzer,  Shan-Ping Mao,  Yuezhi Mao,  N. Mardirossian,  
 A. V. Marenich,  T. Markovich,  L. A. Martinez-Martinez,  S. A. Maurer,  
 N. J. Mayhall,  S. C. McKenzie,  J.-M. Mewes,  A. F. Morrison,  
 J. W. Mullinax,  K. Nanda,  T. S. Nguyen-Beck,  R. Olivares-Amaya,  
 J. A. Parkhill,  T. M. Perrine,  F. Plasser,  P. Pokhilko,  S. Prager,  
 A. Prociuk,  E. Ramos,  D. R. Rehn,  F. Rob,  M. Schneider,  N. Sergueev,  
 S. M. Sharada,  S. Sharma,  D. W. Small,  T. Stauch,  T. Stein,  
 Yu-Chuan Su,  A. J. W. Thom,  A. Tkatchenko,  T. Tsuchimochi,  N. M. Tubman,  
 L. Vogt,  M. L. Vidal,  O. Vydrov,  M. A. Watson,  J. Wenzel,  
 M. de Wergifosse,  T. A. Wesolowski,  A. White,  J. Witte,  A. Yamada,  
 Jun Yang,  K. Yao,  S. Yeganeh,  S. R. Yost,  Zhi-Qiang You,  A. Zech,  
 Igor Ying Zhang,  Xing Zhang,  Yan Zhao,  Ying Zhu,  B. R. Brooks,  
 G. K. L. Chan,  C. J. Cramer,  M. S. Gordon,  W. J. Hehre,  A. Klamt,  
 M. W. Schmidt,  C. D. Sherrill,  D. G. Truhlar,  A. Aspuru-Guzik,  R. Baer,  
 A. T. Bell,  N. A. Besley,  Jeng-Da Chai,  A. E. DePrince, III,  
 R. A. DiStasio Jr.,  A. Dreuw,  B. D. Dunietz,  T. R. Furlani,  
 Chao-Ping Hsu,  Yousung Jung,  Jing Kong,  D. S. Lambrecht,  WanZhen Liang,  
 C. Ochsenfeld,  V. A. Rassolov,  L. V. Slipchenko,  J. E. Subotnik,  
 T. Van Voorhis,  J. M. Herbert,  A. I. Krylov,  P. M. W. Gill,  M. Head-Gordon

 Contributors to earlier versions of Q-Chem not listed above: 
 R. D. Adamson,  B. Austin,  J. Baker,  G. J. O. Beran,  K. Brandhorst,  
 S. T. Brown,  E. F. C. Byrd,  A. K. Chakraborty,  C.-L. Cheng,  
 Siu Hung Chien,  D. M. Chipman,  D. L. Crittenden,  H. Dachsel,  
 R. J. Doerksen,  A. D. Dutoi,  L. Fusti-Molnar,  W. A. Goddard III,  
 A. Golubeva-Zadorozhnaya,  S. R. Gwaltney,  G. Hawkins,  A. Heyden,  
 S. Hirata,  G. Kedziora,  F. J. Keil,  C. Kelley,  Jihan Kim,  R. A. King,  
 R. Z. Khaliullin,  P. P. Korambath,  W. Kurlancheek,  A. M. Lee,  M. S. Lee,  
 S. V. Levchenko,  Ching Yeh Lin,  D. Liotard,  R. C. Lochan,  I. Lotan,  
 P. E. Maslen,  N. Nair,  D. P. O'Neill,  D. Neuhauser,  E. Neuscamman,  
 C. M. Oana,  R. Olson,  B. Peters,  R. Peverati,  P. A. Pieniazek,  
 Y. M. Rhee,  J. Ritchie,  M. A. Rohrdanz,  E. Rosta,  N. J. Russ,  
 H. F. Schaefer III,  N. E. Schultz,  N. Shenvi,  A. C. Simmonett,  A. Sodt,  
 D. Stuck,  K. S. Thanthiriwatte,  V. Vanovschi,  Tao Wang,  A. Warshel,  
 C. F. Williams,  Q. Wu,  X. Xu,  W. Zhang

 Please cite Q-Chem as follows:
 Y. Shao et al., Mol. Phys. 113, 184-215 (2015)
 DOI: 10.1080/00268976.2014.952696

 Q-Chem 5.1.1 for Intel X86 EM64T Linux

 Parts of Q-Chem use Armadillo 8.300.2 (Tropical Shenanigans).
 http://arma.sourceforge.net/

 Q-Chem begins on Wed Nov 11 18:50:12 2020  

Host: n0073.mhg0
0

     Scratch files written to /local/scratch/users/yhljason/HCHO_hf_aug-cc-pcV5Z.inp20201111142623//
Input Ideriv = 2
Curr. Ideriv = -1
Max.  Ideriv = 2

Checking the input file for inconsistencies... 	...done.

--------------------------------------------------------------
User input:
--------------------------------------------------------------
$molecule
0 1
O1      0.0000  0.0000  1.2050
C2      0.0000  0.0000  0.0000
H3      0.0000  0.9429  -0.5876
H4      0.0000  -0.9429 -0.5876
$end

$rem
jobtype sp
method hf
xc_grid 000099000590
basis aug-cc-pcV5Z
max_scf_cycles 200
thresh 14
scf_convergence 8
scf_algorithm gdm
symmetry false
sym_ignore true
unrestricted True
gen_scfman true
internal_stability_iter 15
internal_stability_davidson_iter 200
mem_total 64000
mem_static 1500
n_frozen_core 0
$end



--------------------------------------------------------------
 ----------------------------------------------------------------
             Standard Nuclear Orientation (Angstroms)
    I     Atom           X                Y                Z
 ----------------------------------------------------------------
    1      O       0.0000000000     0.0000000000     1.2050000000
    2      C       0.0000000000     0.0000000000     0.0000000000
    3      H       0.0000000000     0.9429000000    -0.5876000000
    4      H       0.0000000000    -0.9429000000    -0.5876000000
 ----------------------------------------------------------------
 Nuclear Repulsion Energy =    31.2557350034 hartrees
 There are        8 alpha and        8 beta electrons
 Requested basis set is aug-cc-pCV5Z
 There are 122 shells and 522 basis functions

 Total QAlloc Memory Limit  64000 MB
 Mega-Array Size      1467 MB
 MEM_STATIC part      1500 MB

                       Distance Matrix (Angstroms)
             O (  1)   C (  2)   H (  3)
   C (  2)  1.205000
   H (  3)  2.025457  1.111006
   H (  4)  2.025457  1.111006  1.885800
 
 A cutoff of  1.0D-14 yielded   7264 shell pairs
 There are    134946 function pairs (    252638 Cartesian)
 
 -------------------------------------------------------
 OpenMP Integral Computing Module                       
 Release: version 1.0, May 2013, Q-Chem Inc. Pittsburgh 
 -------------------------------------------------------
 Integral Job Info:
 Integral job number is                      11
 Integral operator is                         1
 short-range coefficients                     0
 long-range coefficients              100000000
 Omega coefficients                           0
 if combine SR and LR in K                    0
 Integral screening is                        0
 Integral computing path is                   2
 max size of driver memory is           6400000
 size of driver memory is               5498286
 size of scratch memory is             29551430
 max col of scratch BK array             194481
 max len of scratch array in speh3         5572
 max len of scratch index in speh4           72
 max int batch size is                      520
 min int batch size is                       52
 fixed nKL is                                30
 max L of basis functions is                  5
 order of int derivative is                   0
 number of shells is                        122
 number of basis is                         712
 number of cartesian basis is               712
 number of contracted shell pairs          7264
 number of primitive shell pairs          12889
 maxK2 (contraction) of shell pair          100
 max number of K2 of shell pair               1
 max number of CS2 of shell pair            770
 max number of PS2 of shell pair            960
 mem total for path MDJ                 1328968
 -------------------------------------------------------
 Smallest overlap matrix eigenvalue = 2.43E-06

 Scale SEOQF with 1.000000e-01/1.000000e-01/1.000000e-01

 Standard Electronic Orientation quadrupole field applied
 Nucleus-field energy     =    -0.0000000012 hartrees
 Guess from superposition of atomic densities
 Warning:  Energy on first SCF cycle will be non-variational
 SAD guess density has 16.000000 electrons

 -----------------------------------------------------------------------
  General SCF calculation program by
  Eric Jon Sundstrom, Paul Horn, Yuezhi Mao, Dmitri Zuev, Alec White,
  David Stuck, Shaama M.S., Shane Yost, Joonho Lee, David Small,
  Daniel Levine, Susi Lehtola, Hugh Burton, Evgeny Epifanovsky
 -----------------------------------------------------------------------
Running Object-Oriented UHF
performing a single roothaan step with Fock from read density so that orbitals are available to all algorithms
 LTot/LBra/LKet=          18           9           9
 LTot/LBra/LKet=          18           9           9
 LTot/LBra/LKet=          18           9           9

 Q-Chem warning:

 in GenH1, ket side, handled with new code


 Q-Chem warning:

 in GenH1, ket side, handled with new code


 Q-Chem warning:

 in GenH1, ket side, handled with new code

 LTot/LBra/LBra=          18           9           9

 Q-Chem warning:

 in GenH1, bra side, handled with new code

energy of the guess density (C=0) -114.093796236434
We will preform up to 15 macro iterations over saddle points until a stable solution is found
Energy prior to optimization (guess energy) = -113.850097353935
Begin Timing: Total SCF Calculation
Begin Timing: SCF Single Stationary Point Calculation
begin iterations for algorithm: GDM          
the SCF tolerance is set to 1.00e-08
    1    -113.8500973539      1.30e-01     00000  Descent step
    2    -113.9126807081      2.75e-02     00000  Normal BFGS step
    3    -113.9219918113      5.85e-03     00000  Normal BFGS step
    4    -113.9225979188      4.52e-03     00000  Normal BFGS step
    5    -113.9227090469      1.39e-03     00000  Normal BFGS step
    6    -113.9227268252      2.58e-04     00000  Normal BFGS step
    7    -113.9227286326      5.07e-05     00000  Normal BFGS step
    8    -113.9227286894      1.37e-05     00000  Normal BFGS step
    9    -113.9227286934      2.55e-06     00000  Normal BFGS step
   10    -113.9227286936      5.28e-07     00000  Normal BFGS step
   11    -113.9227286936      9.07e-08     00000  Normal BFGS step
   12    -113.9227286936      2.69e-08     00000  Normal BFGS step
   13    -113.9227286936      5.09e-09     00000 Convergence criterion met
Timing for Single Stationary Point: 9051.00s (wall), 71960.96s (cpu)
Begin Timing: Stability
===================================================
Beginning Test for Internal Stability
===================================================
generating davidson guess vectors based on koopmans excitations
    1      3.30e+00     00000 Davidson Iteration
    2      2.21e+00     00000 Davidson Iteration
    3      2.41e-01     00000 Davidson Iteration
    4      8.91e-02     00000 Davidson Iteration
    5      1.08e-01     00000 Davidson Iteration
    6      2.25e-02     00000 Davidson Iteration
    7      5.72e-02     00000 Davidson Iteration
    8      3.81e-02     00000 Davidson Iteration
    9      9.28e-03     00000 Davidson Iteration
   10      5.53e-03     00000 Davidson Iteration
   11      6.95e-03     00000 Davidson Iteration
   12      5.54e-03     00000 Davidson Iteration
   13      4.10e-03     00000 Davidson Iteration
   14      4.02e-03     00000 Davidson Iteration
   15      7.29e-04     00000 Davidson Iteration
   16      3.98e-04     00000 Davidson Iteration
   17      1.02e-04     00000 Davidson Iteration
   18      1.23e-05     00000 Davidson Iteration
   19      4.36e-04     00000 Davidson Iteration
   20      1.65e-04     00000 Davidson Iteration
   21      1.04e-04     00000 Davidson Iteration
   22      3.01e-05     00000 Davidson Converged
converged_eigenvalues
   0.0349
   0.2038
Threshold for negative eigenvalues: -1.0e-05
solution was a local minimum (stable)
===================================================
End Test for Internal Stability
===================================================
Our SCF solution is stable!
Timing for Total SCF: 32084.00s (wall), 255184.34s (cpu)
 Total energy in the final basis set =     -113.9227286936
<S^2> =         -0.000000000
    ==================================================
              The end of Object-Oriented SCFman       
    ==================================================
 
 --------------------------------------------------------------
 
                    Orbital Energies (a.u.)
 --------------------------------------------------------------
 
 Alpha MOs
 -- Occupied --
-20.576 -11.343  -1.407  -0.868  -0.693  -0.653  -0.538  -0.443
 -- Virtual --
  0.020   0.033   0.048   0.057   0.096   0.101   0.107   0.120
  0.139   0.146   0.157   0.175   0.182   0.199   0.224   0.230
  0.233   0.258   0.263   0.267   0.274   0.286   0.314   0.323
  0.333   0.352   0.376   0.400   0.449   0.464   0.484   0.507
  0.526   0.536   0.545   0.555   0.565   0.568   0.587   0.601
  0.605   0.613   0.613   0.638   0.646   0.660   0.678   0.691
  0.713   0.715   0.724   0.729   0.778   0.809   0.811   0.817
  0.835   0.849   0.888   0.897   1.038   1.067   1.079   1.108
  1.114   1.141   1.146   1.154   1.186   1.191   1.193   1.207
  1.214   1.231   1.247   1.272   1.316   1.336   1.341   1.358
  1.367   1.403   1.403   1.411   1.427   1.458   1.458   1.460
  1.487   1.513   1.529   1.555   1.564   1.578   1.612   1.633
  1.694   1.715   1.758   1.759   1.769   1.813   1.848   1.916
  1.927   1.934   1.956   2.039   2.043   2.049   2.068   2.134
  2.143   2.208   2.223   2.256   2.269   2.285   2.327   2.338
  2.381   2.419   2.498   2.553   2.584   2.698   2.738   2.751
  2.757   2.765   2.782   2.789   2.865   2.875   2.922   2.945
  2.971   3.008   3.008   3.071   3.082   3.087   3.136   3.141
  3.191   3.213   3.236   3.246   3.263   3.307   3.309   3.342
  3.371   3.377   3.383   3.407   3.438   3.460   3.493   3.495
  3.504   3.518   3.536   3.537   3.578   3.587   3.684   3.703
  3.718   3.766   3.799   3.801   3.846   3.867   3.871   3.932
  3.951   3.970   3.993   4.075   4.128   4.149   4.163   4.173
  4.235   4.256   4.315   4.320   4.461   4.470   4.485   4.514
  4.573   4.675   4.678   4.680   4.719   4.754   4.836   4.850
  4.872   4.953   4.954   4.979   5.144   5.176   5.185   5.238
  5.320   5.354   5.423   5.531   5.540   5.548   5.699   5.717
  5.746   5.865   5.939   5.962   5.969   6.127   6.130   6.188
  6.199   6.201   6.294   6.365   6.409   6.417   6.458   6.468
  6.521   6.596   6.669   6.737   6.873   7.024   7.078   7.186
  7.199   7.208   7.260   7.262   7.277   7.289   7.350   7.368
  7.381   7.434   7.496   7.509   7.520   7.530   7.597   7.637
  7.708   7.753   7.863   7.878   7.883   7.885   8.001   8.026
  8.217   8.217   8.241   8.344   8.424   8.437   8.596   8.597
  8.633   8.706   8.921   9.059   9.138   9.244   9.310   9.400
  9.461   9.476   9.505   9.669   9.843   9.886  10.019  10.038
 10.237  10.287  10.296  10.329  10.459  10.500  10.528  10.592
 10.605  10.613  10.680  11.277  11.323  11.401  11.534  11.538
 11.578  11.648  11.979  12.015  12.016  12.357  12.392  12.400
 12.472  12.932  13.211  13.243  13.268  13.272  13.327  13.432
 13.465  13.526  13.553  13.616  13.791  13.819  13.856  13.861
 13.983  14.011  14.160  14.377  14.422  14.436  14.466  14.594
 14.612  14.625  14.668  14.674  14.698  14.936  14.984  15.014
 15.051  15.098  15.190  15.294  15.309  15.327  15.629  15.777
 15.811  15.874  16.095  16.165  16.330  16.352  16.494  16.522
 16.666  16.680  16.750  16.983  17.095  17.202  17.213  17.482
 17.516  17.626  17.694  17.779  17.902  18.102  18.172  18.332
 18.389  18.722  19.090  19.140  19.207  19.212  19.396  19.421
 19.493  19.650  19.738  19.740  19.802  19.835  19.999  20.172
 20.266  20.371  20.683  21.213  21.256  21.679  21.921  22.114
 22.400  22.679  22.911  23.563  23.781  24.138  24.965  25.825
 31.369  36.466  36.760  36.918  38.088  38.163  38.698  39.177
 40.677  47.263  47.336  47.426  47.586  47.743  47.845  48.495
 51.316  59.823  61.591  61.686  61.822  62.146  62.179  62.354
 62.552  71.897  71.920  72.176  72.240  72.647  72.922  73.191
 83.746 107.811 108.222 108.229 108.469 108.575 109.164 109.407
109.640 130.931 165.660 167.273 167.417 167.461 167.462 167.466
167.466 167.469 167.469 167.479 167.557 167.738 181.571 181.657
181.977 182.111 182.220 188.363 188.395 188.429 188.500 188.566
188.618 188.857 221.335 245.735 245.737 245.740 245.743 245.745
245.750 245.751 245.763 245.766 291.502 291.511 291.615 291.637
291.791 291.893 291.967 298.937 299.276 300.371 329.848 330.006
330.055 330.587 330.671 338.481 465.523 466.956 467.239 556.766
556.824 557.052 557.141 557.216 584.772 837.562 837.834 838.755
*******2076.336
 
 Beta MOs
 -- Occupied --
-20.576 -11.343  -1.407  -0.868  -0.693  -0.653  -0.538  -0.443
 -- Virtual --
  0.020   0.033   0.048   0.057   0.096   0.101   0.107   0.120
  0.139   0.146   0.157   0.175   0.182   0.199   0.224   0.230
  0.233   0.258   0.263   0.267   0.274   0.286   0.314   0.323
  0.333   0.352   0.376   0.400   0.449   0.464   0.484   0.507
  0.526   0.536   0.545   0.555   0.565   0.568   0.587   0.601
  0.605   0.613   0.613   0.638   0.646   0.660   0.678   0.691
  0.713   0.715   0.724   0.729   0.778   0.809   0.811   0.817
  0.835   0.849   0.888   0.897   1.038   1.067   1.079   1.108
  1.114   1.141   1.146   1.154   1.186   1.191   1.193   1.207
  1.214   1.231   1.247   1.272   1.316   1.336   1.341   1.358
  1.367   1.403   1.403   1.411   1.427   1.458   1.458   1.460
  1.487   1.513   1.529   1.555   1.564   1.578   1.612   1.633
  1.694   1.715   1.758   1.759   1.769   1.813   1.848   1.916
  1.927   1.934   1.956   2.039   2.043   2.049   2.068   2.134
  2.143   2.208   2.223   2.256   2.269   2.285   2.327   2.338
  2.381   2.419   2.498   2.553   2.584   2.698   2.738   2.751
  2.757   2.765   2.782   2.789   2.865   2.875   2.922   2.945
  2.971   3.008   3.008   3.071   3.082   3.087   3.136   3.141
  3.191   3.213   3.236   3.246   3.263   3.307   3.309   3.342
  3.371   3.377   3.383   3.407   3.438   3.460   3.493   3.495
  3.504   3.518   3.536   3.537   3.578   3.587   3.684   3.703
  3.718   3.766   3.799   3.801   3.846   3.867   3.871   3.932
  3.951   3.970   3.993   4.075   4.128   4.149   4.163   4.173
  4.235   4.256   4.315   4.320   4.461   4.470   4.485   4.514
  4.573   4.675   4.678   4.680   4.719   4.754   4.836   4.850
  4.872   4.953   4.954   4.979   5.144   5.176   5.185   5.238
  5.320   5.354   5.423   5.531   5.540   5.548   5.699   5.717
  5.746   5.865   5.939   5.962   5.969   6.127   6.130   6.188
  6.199   6.201   6.294   6.365   6.409   6.417   6.458   6.468
  6.521   6.596   6.669   6.737   6.873   7.024   7.078   7.186
  7.199   7.208   7.260   7.262   7.277   7.289   7.350   7.368
  7.381   7.434   7.496   7.509   7.520   7.530   7.597   7.637
  7.708   7.753   7.863   7.878   7.883   7.885   8.001   8.026
  8.217   8.217   8.241   8.344   8.424   8.437   8.596   8.597
  8.633   8.706   8.921   9.059   9.138   9.244   9.310   9.400
  9.461   9.476   9.505   9.669   9.843   9.886  10.019  10.038
 10.237  10.287  10.296  10.329  10.459  10.500  10.528  10.592
 10.605  10.613  10.680  11.277  11.323  11.401  11.534  11.538
 11.578  11.648  11.979  12.015  12.016  12.357  12.392  12.400
 12.472  12.932  13.211  13.243  13.268  13.272  13.327  13.432
 13.465  13.526  13.553  13.616  13.791  13.819  13.856  13.861
 13.983  14.011  14.160  14.377  14.422  14.436  14.466  14.594
 14.612  14.625  14.668  14.674  14.698  14.936  14.984  15.014
 15.051  15.098  15.190  15.294  15.309  15.327  15.629  15.777
 15.811  15.874  16.095  16.165  16.330  16.352  16.494  16.522
 16.666  16.680  16.750  16.983  17.095  17.202  17.213  17.482
 17.516  17.626  17.694  17.779  17.902  18.102  18.172  18.332
 18.389  18.722  19.090  19.140  19.207  19.212  19.396  19.421
 19.493  19.650  19.738  19.740  19.802  19.835  19.999  20.172
 20.266  20.371  20.683  21.213  21.256  21.679  21.921  22.114
 22.400  22.679  22.911  23.563  23.781  24.138  24.965  25.825
 31.369  36.466  36.760  36.918  38.088  38.163  38.698  39.177
 40.677  47.263  47.336  47.426  47.586  47.743  47.845  48.495
 51.316  59.823  61.591  61.686  61.822  62.146  62.179  62.354
 62.552  71.897  71.920  72.176  72.240  72.647  72.922  73.191
 83.746 107.811 108.222 108.229 108.469 108.575 109.164 109.407
109.640 130.931 165.660 167.273 167.417 167.461 167.462 167.466
167.466 167.469 167.469 167.479 167.557 167.738 181.571 181.657
181.977 182.111 182.220 188.363 188.395 188.429 188.500 188.566
188.618 188.857 221.335 245.735 245.737 245.740 245.743 245.745
245.750 245.751 245.763 245.766 291.502 291.511 291.615 291.637
291.791 291.893 291.967 298.937 299.276 300.371 329.848 330.006
330.055 330.587 330.671 338.481 465.523 466.956 467.239 556.766
556.824 557.052 557.141 557.216 584.772 837.562 837.834 838.755
*******2076.336
 --------------------------------------------------------------
 
          Ground-State Mulliken Net Atomic Charges

     Atom                 Charge (a.u.)    Spin (a.u.)
  --------------------------------------------------------
      1 O                    -0.486328      -0.000000
      2 C                     0.065067      -0.000000
      3 H                     0.210630      -0.000000
      4 H                     0.210630       0.000000
  --------------------------------------------------------
  Sum of atomic charges =    -0.000000
  Sum of spin   charges =     0.000000

 -----------------------------------------------------------------
                    Cartesian Multipole Moments
 -----------------------------------------------------------------
    Charge (ESU x 10^10)
                 0.0000
    Dipole Moment (Debye)
         X      -0.0000      Y      -0.0000      Z      -2.8372
       Tot       2.8372
    Quadrupole Moments (Debye-Ang)
        XX     -11.7762     XY       0.0000     YY     -11.4123
        XZ      -0.0000     YZ       0.0000     ZZ     -15.0917
    Octopole Moments (Debye-Ang^2)
       XXX      -0.0000    XXY      -0.0000    XYY       0.0000
       YYY      -0.0000    XXZ      -5.8089    XYZ       0.0000
       YYZ      -6.8979    XZZ      -0.0000    YZZ      -0.0000
       ZZZ     -21.5323
    Hexadecapole Moments (Debye-Ang^3)
      XXXX     -10.6057   XXXY       0.0000   XXYY      -5.0985
      XYYY       0.0000   YYYY     -17.4660   XXXZ      -0.0000
      XXYZ       0.0000   XYYZ      -0.0000   YYYZ       0.0000
      XXZZ     -12.1443   XYZZ       0.0000   YYZZ     -14.0191
      XZZZ      -0.0000   YZZZ      -0.0000   ZZZZ     -67.1271
 -----------------------------------------------------------------
Archival summary:
1\1\n0073.mhg0\SP\HF\BasisUnspecified\112\yhljason\ThuNov1203:57:562020ThuNov1203:57:562020\0\\#,HF,BasisUnspecified,\\0,1\C\H,1,1.11101\H,1,1.11101,2,116.139\O,1,1.205,2,121.93,3,-180,0\\HF=-113.922729\\@

 Total job time:  32863.83s(wall), 261319.41s(cpu) 
 Thu Nov 12 03:57:56 2020

        *************************************************************
        *                                                           *
        *  Thank you very much for using Q-Chem.  Have a nice day.  *
        *                                                           *
        *************************************************************


