                  Welcome to Q-Chem
     A Quantum Leap Into The Future Of Chemistry


 Q-Chem 5.3 (devel), Q-Chem, Inc., Pleasanton, CA (2020)

 Yihan Shao,  Zhengting Gan,  E. Epifanovsky,  A. T. B. Gilbert,  M. Wormit,  
 J. Kussmann,  A. W. Lange,  A. Behn,  Jia Deng,  Xintian Feng,  D. Ghosh,  
 M. Goldey,  P. R. Horn,  L. D. Jacobson,  I. Kaliman,  T. Kus,  A. Landau,  
 Jie Liu,  E. I. Proynov,  R. M. Richard,  R. P. Steele,  E. J. Sundstrom,  
 H. L. Woodcock III,  P. M. Zimmerman,  D. Zuev,  B. Alam,  B. Albrecht,  
 E. Alguire,  S. A. Baeppler,  D. Barton,  Z. Benda,  Y. A. Bernard,  
 E. J. Berquist,  K. B. Bravaya,  H. Burton,  K. Carter-Fenk,  D. Casanova,  
 Chun-Min Chang,  Yunqing Chen,  A. Chien,  K. D. Closser,  M. P. Coons,  
 S. Coriani,  S. Dasgupta,  A. L. Dempwolff,  M. Diedenhofen,  Hainam Do,  
 R. G. Edgar,  Po-Tung Fang,  S. Faraji,  S. Fatehi,  Qingguo Feng,  
 J. Fosso-Tande,  J. Gayvert,  Qinghui Ge,  A. Ghysels,  G. Gidofalvi,  
 J. Gomes,  J. Gonthier,  A. Gunina,  D. Hait,  M. W. D. Hanson-Heine,  
 P. H. P. Harbach,  A. W. Hauser,  M. F. Herbst,  J. E. Herr,  
 E. G. Hohenstein,  Z. C. Holden,  Kerwin Hui,  B. C. Huynh,  T.-C. Jagau,  
 Hyunjun Ji,  B. Kaduk,  K. Khistyaev,  Jaehoon Kim,  P. Klunzinger,  K. Koh,  
 D. Kosenkov,  L. Koulias,  T. Kowalczyk,  C. M. Krauter,  A. Kunitsa,  
 Ka Un Lao,  A. Laurent,  K. V. Lawler,  Joonho Lee,  D. Lefrancois,  
 S. Lehtola,  D. S. Levine,  Yi-Pei Li,  You-Sheng Lin,  Fenglai Liu,  
 Kuan-Yu Liu,  E. Livshits,  M. Loipersberger,  A. Luenser,  P. Manohar,  
 E. Mansoor,  S. F. Manzer,  Shan-Ping Mao,  Yuezhi Mao,  N. Mardirossian,  
 A. V. Marenich,  T. Markovich,  L. A. Martinez-Martinez,  S. A. Maurer,  
 N. J. Mayhall,  S. C. McKenzie,  J.-M. Mewes,  P. Morgante,  A. F. Morrison,  
 J. W. Mullinax,  K. Nanda,  T. S. Nguyen-Beck,  R. Olivares-Amaya,  
 K. J. Oosterbaan,  J. A. Parkhill,  S. K. Paul,  F. Pavosevic,  Zheng Pei,  
 T. M. Perrine,  F. Plasser,  P. Pokhilko,  S. Prager,  A. Prociuk,  
 E. Ramos,  B. Rana,  D. R. Rehn,  F. Rob,  M. Scheurer,  M. Schneider,  
 N. Sergueev,  S. M. Sharada,  S. Sharma,  D. W. Small,  T. Stauch,  
 C. J. Stein,  T. Stein,  Yu-Chuan Su,  S. P. Veccham,  Zhen Tao,  
 A. J. W. Thom,  A. Tkatchenko,  T. Tsuchimochi,  N. M. Tubman,  L. Vogt,  
 M. L. Vidal,  O. Vydrov,  M. A. Watson,  J. Wenzel,  M. de Wergifosse,  
 T. A. Wesolowski,  A. White,  J. Witte,  A. Yamada,  Jun Yang,  K. Yao,  
 S. Yeganeh,  S. R. Yost,  Zhi-Qiang You,  A. Zech,  Igor Ying Zhang,  
 Xing Zhang,  Yan Zhao,  Ying Zhu,  B. R. Brooks,  G. K. L. Chan,  
 C. J. Cramer,  M. S. Gordon,  W. J. Hehre,  A. Klamt,  M. W. Schmidt,  
 C. D. Sherrill,  D. G. Truhlar,  A. Aspuru-Guzik,  R. Baer,  A. T. Bell,  
 N. A. Besley,  Jeng-Da Chai,  A. E. DePrince, III,  R. A. DiStasio Jr.,  
 A. Dreuw,  B. D. Dunietz,  T. R. Furlani,  Chao-Ping Hsu,  Yousung Jung,  
 Jing Kong,  D. S. Lambrecht,  WanZhen Liang,  C. Ochsenfeld,  
 V. A. Rassolov,  L. V. Slipchenko,  J. E. Subotnik,  T. Van Voorhis,  
 J. M. Herbert,  A. I. Krylov,  P. M. W. Gill,  M. Head-Gordon

 Contributors to earlier versions of Q-Chem not listed above: 
 R. D. Adamson,  B. Austin,  J. Baker,  G. J. O. Beran,  K. Brandhorst,  
 S. T. Brown,  E. F. C. Byrd,  A. K. Chakraborty,  C.-L. Cheng,  
 Siu Hung Chien,  D. M. Chipman,  D. L. Crittenden,  H. Dachsel,  
 R. J. Doerksen,  A. D. Dutoi,  L. Fusti-Molnar,  W. A. Goddard III,  
 A. Golubeva-Zadorozhnaya,  S. R. Gwaltney,  G. Hawkins,  A. Heyden,  
 S. Hirata,  G. Kedziora,  F. J. Keil,  C. Kelley,  Jihan Kim,  R. A. King,  
 R. Z. Khaliullin,  P. P. Korambath,  W. Kurlancheek,  A. M. Lee,  M. S. Lee,  
 S. V. Levchenko,  Ching Yeh Lin,  D. Liotard,  R. C. Lochan,  I. Lotan,  
 P. E. Maslen,  N. Nair,  D. P. O'Neill,  D. Neuhauser,  E. Neuscamman,  
 C. M. Oana,  R. Olson,  B. Peters,  R. Peverati,  P. A. Pieniazek,  
 Y. M. Rhee,  J. Ritchie,  M. A. Rohrdanz,  E. Rosta,  N. J. Russ,  
 H. F. Schaefer III,  N. E. Schultz,  N. Shenvi,  A. C. Simmonett,  A. Sodt,  
 D. Stuck,  K. S. Thanthiriwatte,  V. Vanovschi,  Tao Wang,  A. Warshel,  
 C. F. Williams,  Q. Wu,  X. Xu,  W. Zhang

 Please cite Q-Chem as follows:
 Y. Shao et al., Mol. Phys. 113, 184-215 (2015)
 DOI: 10.1080/00268976.2014.952696

 Q-Chem 5.3.0 for Intel X86 EM64T Linux

 Parts of Q-Chem use Armadillo 9.800.1 (Horizon Scraper).
 http://arma.sourceforge.net/

 Q-Chem begins on Mon Nov 16 03:39:54 2020  

n0035.mhg0
Host: 0

     Scratch files written to /local/scratch/users/yhljason/AlH2_PWPB95-D3_aug-cc-pcVTZ.inp20201116033952//
Processing $rem in /clusterfs/mhg/diptarka/qchem_transmom//config/preferences:
Processing $rem in /global/home/users/yhljason/.qchemrc:

Checking the input file for inconsistencies... 	...done.

--------------------------------------------------------------
User input:
--------------------------------------------------------------
$molecule
0 2
Al1     0.0000  0.0000  0.0000
H2      0.0000  1.3700  0.8070
H3      0.0000  -1.3700 0.8070
$end

$rem
jobtype sp
exchange PWPB95-D3
xc_grid 000099000590
basis aug-cc-pcVTZ

max_scf_cycles 200
thresh 14
scf_convergence 8
scf_algorithm gdm
symmetry false
sym_ignore true
unrestricted false
gen_scfman true
internal_stability_iter 15
internal_stability_davidson_iter 200
mem_total 128000
cc_memory 96000
cc_backend xm
mem_static 1500
n_frozen_core 0
$end



--------------------------------------------------------------
 Adding empirical dispersion correction 
 ----------------------------------------------------------------
 Doing -D3(0) with
 s6  =   0.82000
 s8  =   0.70500
 rs6 =   1.55700
 rs8 =   1.00000
 -D3 energy without 3body term =     -0.0000478012 hartrees
 ----------------------------------------------------------------
             Standard Nuclear Orientation (Angstroms)
    I     Atom           X                Y                Z
 ----------------------------------------------------------------
    1      Al      0.0000000000     0.0000000000     0.0000000000
    2      H       0.0000000000     1.3700000000     0.8070000000
    3      H       0.0000000000    -1.3700000000     0.8070000000
 ----------------------------------------------------------------
 Nuclear Repulsion Energy =           8.84621096 hartrees
 There are        8 alpha and        7 beta electrons
 Requested basis set is aug-cc-pCVTZ
 There are 41 shells and 121 basis functions

 Total QAlloc Memory Limit 128000 MB
 Mega-Array Size      1467 MB
 MEM_STATIC part      1500 MB

                       Distance Matrix (Angstroms)
             Al(  1)   H (  2)
   H (  2)  1.590015
   H (  3)  1.590015  2.740000

 A cutoff of  1.0D-14 yielded    861 shell pairs
 There are      7573 function pairs (     10039 Cartesian)
 Smallest overlap matrix eigenvalue = 5.42E-04

 Scale SEOQF with 1.000000e-01/1.000000e-01/1.000000e-01

 Standard Electronic Orientation quadrupole field applied
 Nucleus-field energy     =     0.0000000001 hartrees
 Guess from superposition of atomic densities
 Warning:  Energy on first SCF cycle will be non-variational
 SAD guess density has 15.000000 electrons

 -----------------------------------------------------------------------
  General SCF calculation program by
  Eric Jon Sundstrom, Paul Horn, Yuezhi Mao, Dmitri Zuev, Alec White,
  David Stuck, Shaama M.S., Shane Yost, Joonho Lee, David Small,
  Daniel Levine, Susi Lehtola, Hugh Burton, Evgeny Epifanovsky,
  Bang C. Huynh
 -----------------------------------------------------------------------
 Exchange:     0.5000 Hartree-Fock + 1.0000 PWPB95-D3
 Correlation:  0.7310 PWPB95-D3
 Using Euler-Maclaurin-Lebedev (99,590) quadrature formula
 Dispersion:   Grimme D3
Running Object-Oriented ROKS (ROHF)
 Orthonormalizing orbitals
 using 16 threads for integral computing
 -------------------------------------------------------
 OpenMP Integral computing Module                
 Release: version 2.0, May 2017, Q-Chem Inc. Pleasanton 
 -------------------------------------------------------
We will preform up to 15 macro iterations over saddle points until a stable solution is found
Energy prior to optimization (guess energy) = -243.355239227733
Begin Timing: Total SCF Calculation
Begin Timing: SCF Single Stationary Point Calculation
begin iterations for algorithm: GDM          
the SCF tolerance is set to 1.00e-08
    1    -243.3552392277      1.53e-01     00000  Descent step
    2    -243.4556113528      9.08e-02     00000  Normal BFGS step
    3    -243.4711016724      2.45e-02     00000  Normal BFGS step
    4    -243.4723114288      1.09e-02     00000  Normal BFGS step
    5    -243.4723889025      3.22e-03     00000  Normal BFGS step
    6    -243.4723967931      8.05e-04     00000  Normal BFGS step
    7    -243.4723973638      1.47e-04     00000  Normal BFGS step
    8    -243.4723974090      3.07e-05     00000  Normal BFGS step
    9    -243.4723974102      7.22e-06     00000  Normal BFGS step
   10    -243.4723974102      2.51e-06     00000  Normal BFGS step
   11    -243.4723974102      6.20e-07     00000  Normal BFGS step
   12    -243.4723974102      9.77e-08     00000  Normal BFGS step
   13    -243.4723974102      1.48e-08     00000  Normal BFGS step
   14    -243.4723974102      2.10e-09     00000 Convergence criterion met
Timing for Single Stationary Point: 21.00s (wall), 291.80s (cpu)
Begin Timing: Stability
===================================================
Beginning Test for Internal Stability
===================================================
generating davidson guess vectors based on koopmans-like excitations
    1      3.37e-01     00000 Davidson Iteration
    2      9.23e-02     00000 Davidson Iteration
    3      3.66e-02     00000 Davidson Iteration
    4      7.02e-03     00000 Davidson Iteration
    5      9.95e-04     00000 Davidson Iteration
    6      2.54e-04     00000 Davidson Iteration
    7      3.85e-05     00000 Davidson Iteration
    8      6.50e-03     00000 Davidson Iteration
    9      1.09e-03     00000 Davidson Iteration
   10      3.56e-04     00000 Davidson Iteration
   11      1.85e-03     00000 Davidson Iteration
   12      9.70e-04     00000 Davidson Iteration
   13      2.10e-04     00000 Davidson Iteration
   14      1.01e-04     00000 Davidson Iteration
   15      6.26e-05     00000 Davidson Converged
converged_eigenvalues
   0.1312
   0.3566
   0.3747
Threshold for negative eigenvalues: -1.0e-05
solution was a local minimum (stable)
===================================================
End Test for Internal Stability
===================================================
Timing for Internal Stability: 40.00s (wall), 566.41s (cpu)
Our SCF solution is stable!
The disked orbital energies are calculated using alpha and beta Focks
Timing for Total SCF: 61.00s (wall), 858.22s (cpu)
 Total energy in the final basis set =     -243.4723974102
<S^2> =          0.750000000
    ==================================================
              The end of Object-Oriented SCFman       
    ==================================================

 Components of the MP2 correlation energy:
        aaaa  correlation energy =         0.0000000000 au
        abab  correlation energy =        -0.0885522546 au
        bbbb  correlation energy =         0.0000000000 au
        non-Brillouin singles    =        -0.0003660012 au

 Total  MP2   correlation energy =                    -0.08891826 au
        MP2         total energy =                  -243.56131567 au

 --------------------------------------------------------------

                    Orbital Energies (a.u.)
 --------------------------------------------------------------

 Alpha MOs
 -- Occupied --
-56.9644  -4.4256  -2.8928  -2.8919  -2.8867  -0.4652  -0.3578  -0.2331
 -- Virtual --
 -0.0468   0.0183   0.0214   0.0235   0.0363   0.0569   0.0574   0.0721
  0.0717   0.0723   0.0758   0.0830   0.1559   0.1640   0.1778   0.2215
  0.2285   0.2274   0.2248   0.2486   0.2524   0.2754   0.2876   0.2870
  0.2878   0.2917   0.2931   0.3043   0.3908   0.3925   0.4121   0.4137
  0.4256   0.4355   0.5079   0.5663   0.6141   0.6559   0.7797   0.7846
  0.7983   0.8068   0.8060   0.8297   0.8351   0.8431   0.8833   0.8867
  0.8908   0.9344   0.9496   1.0193   1.0213   1.0500   1.0567   1.1023
  1.1389   1.1366   1.1426   1.1610   1.2594   1.3869   1.4527   1.5040
  1.5935   1.7019   1.7676   2.0138   2.2086   2.3045   2.9606   3.0096
  3.7439   3.7770   3.7830   3.7927   3.7949   3.8214   3.8647   3.8806
  3.9935   4.0433   4.0848   4.1079   4.1416   4.2040   4.6287   4.7004
  4.9026   4.9107   4.9996   5.2087   5.2792   7.1574   9.0403   9.2482
  9.4497  18.5708  18.5715  18.5763  18.5772  18.5809  18.5844  18.5973
 22.2516  22.2565  22.2982  22.4182  22.4321  34.6526  34.8391  35.0502
 43.7028

 Beta MOs
 -- Occupied --
-56.9611  -4.4204  -2.8901  -2.8819  -2.8842  -0.4428  -0.3431
 -- Virtual --
 -0.0385  -0.0275   0.0272   0.0246   0.0290   0.0434   0.0638   0.0724
  0.0762   0.0848   0.0846   0.0797   0.0920   0.1644   0.1884   0.1815
  0.2286   0.2306   0.2344   0.2450   0.2786   0.2784   0.2787   0.2900
  0.2940   0.2964   0.3023   0.3019   0.3175   0.3968   0.3973   0.4213
  0.4277   0.4294   0.4407   0.5177   0.5703   0.6244   0.6633   0.8070
  0.8116   0.8084   0.8217   0.8258   0.8377   0.8439   0.8666   0.8996
  0.9107   0.9124   0.9405   0.9578   1.0321   1.0323   1.0631   1.0701
  1.1143   1.1482   1.1597   1.1517   1.1732   1.2860   1.3997   1.4619
  1.5135   1.6145   1.7138   1.7784   2.0295   2.2298   2.3178   2.9701
  3.0191   3.7498   3.7825   3.7879   3.7989   3.8006   3.8280   3.8694
  3.8867   3.9986   4.0486   4.0922   4.1159   4.1496   4.2133   4.6379
  4.7086   4.9084   4.9167   5.0032   5.2156   5.2880   7.1738   9.0475
  9.2616   9.4559  18.5721  18.5731  18.5776  18.5781  18.5819  18.5858
 18.5989  22.2572  22.2625  22.3006  22.4214  22.4378  34.6558  34.8470
 35.0532  43.7103
 --------------------------------------------------------------

          Ground-State Mulliken Net Atomic Charges

     Atom                 Charge (a.u.)
  ----------------------------------------
      1 Al                    0.201515
      2 H                    -0.100757
      3 H                    -0.100757
  ----------------------------------------
  Sum of atomic charges =     0.000000

 -----------------------------------------------------------------
                    Cartesian Multipole Moments
 -----------------------------------------------------------------
    Charge (ESU x 10^10)
                 0.0000
    Dipole Moment (Debye)
         X      -0.0000      Y       0.0000      Z      -0.4452
       Tot       0.4452
    Quadrupole Moments (Debye-Ang)
        XX     -11.9117     XY      -0.0000     YY     -18.0443
        XZ      -0.0000     YZ       0.0000     ZZ     -17.2203
    Octopole Moments (Debye-Ang^2)
       XXX       0.0000    XXY      -0.0000    XYY       0.0000
       YYY       0.0000    XXZ      -0.8582    XYZ       0.0000
       YYZ      -4.4026    XZZ      -0.0000    YZZ       0.0000
       ZZZ      -2.9768
    Hexadecapole Moments (Debye-Ang^3)
      XXXX     -18.9946   XXXY      -0.0000   XXYY     -13.7228
      XYYY       0.0000   YYYY     -65.4852   XXXZ      -0.0000
      XXYZ      -0.0000   XYYZ      -0.0000   YYYZ       0.0000
      XXZZ     -11.5805   XYZZ       0.0000   YYZZ     -19.9359
      XZZZ      -0.0000   YZZZ       0.0000   ZZZZ     -50.6622
 -----------------------------------------------------------------
Archival summary:
1\1\n0035.mhg0\SP\ROProcedureUnspecified\BasisUnspecified\l12(2)\yhljason\MonNov1603:41:152020MonNov1603:41:152020\0\\#,ROProcedureUnspecified,BasisUnspecified,\\0,2\Al\H,1,1.59002\H,1,1.59002,2,118.999\\\@

 Total job time:  81.32s(wall), 1121.86s(cpu) 
 Mon Nov 16 03:41:15 2020

        *************************************************************
        *                                                           *
        *  Thank you very much for using Q-Chem.  Have a nice day.  *
        *                                                           *
        *************************************************************


 
User input: 2 of 7 
 
                  Welcome to Q-Chem
     A Quantum Leap Into The Future Of Chemistry


 Q-Chem 5.3 (devel), Q-Chem, Inc., Pleasanton, CA (2020)

 Yihan Shao,  Zhengting Gan,  E. Epifanovsky,  A. T. B. Gilbert,  M. Wormit,  
 J. Kussmann,  A. W. Lange,  A. Behn,  Jia Deng,  Xintian Feng,  D. Ghosh,  
 M. Goldey,  P. R. Horn,  L. D. Jacobson,  I. Kaliman,  T. Kus,  A. Landau,  
 Jie Liu,  E. I. Proynov,  R. M. Richard,  R. P. Steele,  E. J. Sundstrom,  
 H. L. Woodcock III,  P. M. Zimmerman,  D. Zuev,  B. Alam,  B. Albrecht,  
 E. Alguire,  S. A. Baeppler,  D. Barton,  Z. Benda,  Y. A. Bernard,  
 E. J. Berquist,  K. B. Bravaya,  H. Burton,  K. Carter-Fenk,  D. Casanova,  
 Chun-Min Chang,  Yunqing Chen,  A. Chien,  K. D. Closser,  M. P. Coons,  
 S. Coriani,  S. Dasgupta,  A. L. Dempwolff,  M. Diedenhofen,  Hainam Do,  
 R. G. Edgar,  Po-Tung Fang,  S. Faraji,  S. Fatehi,  Qingguo Feng,  
 J. Fosso-Tande,  J. Gayvert,  Qinghui Ge,  A. Ghysels,  G. Gidofalvi,  
 J. Gomes,  J. Gonthier,  A. Gunina,  D. Hait,  M. W. D. Hanson-Heine,  
 P. H. P. Harbach,  A. W. Hauser,  M. F. Herbst,  J. E. Herr,  
 E. G. Hohenstein,  Z. C. Holden,  Kerwin Hui,  B. C. Huynh,  T.-C. Jagau,  
 Hyunjun Ji,  B. Kaduk,  K. Khistyaev,  Jaehoon Kim,  P. Klunzinger,  K. Koh,  
 D. Kosenkov,  L. Koulias,  T. Kowalczyk,  C. M. Krauter,  A. Kunitsa,  
 Ka Un Lao,  A. Laurent,  K. V. Lawler,  Joonho Lee,  D. Lefrancois,  
 S. Lehtola,  D. S. Levine,  Yi-Pei Li,  You-Sheng Lin,  Fenglai Liu,  
 Kuan-Yu Liu,  E. Livshits,  M. Loipersberger,  A. Luenser,  P. Manohar,  
 E. Mansoor,  S. F. Manzer,  Shan-Ping Mao,  Yuezhi Mao,  N. Mardirossian,  
 A. V. Marenich,  T. Markovich,  L. A. Martinez-Martinez,  S. A. Maurer,  
 N. J. Mayhall,  S. C. McKenzie,  J.-M. Mewes,  P. Morgante,  A. F. Morrison,  
 J. W. Mullinax,  K. Nanda,  T. S. Nguyen-Beck,  R. Olivares-Amaya,  
 K. J. Oosterbaan,  J. A. Parkhill,  S. K. Paul,  F. Pavosevic,  Zheng Pei,  
 T. M. Perrine,  F. Plasser,  P. Pokhilko,  S. Prager,  A. Prociuk,  
 E. Ramos,  B. Rana,  D. R. Rehn,  F. Rob,  M. Scheurer,  M. Schneider,  
 N. Sergueev,  S. M. Sharada,  S. Sharma,  D. W. Small,  T. Stauch,  
 C. J. Stein,  T. Stein,  Yu-Chuan Su,  S. P. Veccham,  Zhen Tao,  
 A. J. W. Thom,  A. Tkatchenko,  T. Tsuchimochi,  N. M. Tubman,  L. Vogt,  
 M. L. Vidal,  O. Vydrov,  M. A. Watson,  J. Wenzel,  M. de Wergifosse,  
 T. A. Wesolowski,  A. White,  J. Witte,  A. Yamada,  Jun Yang,  K. Yao,  
 S. Yeganeh,  S. R. Yost,  Zhi-Qiang You,  A. Zech,  Igor Ying Zhang,  
 Xing Zhang,  Yan Zhao,  Ying Zhu,  B. R. Brooks,  G. K. L. Chan,  
 C. J. Cramer,  M. S. Gordon,  W. J. Hehre,  A. Klamt,  M. W. Schmidt,  
 C. D. Sherrill,  D. G. Truhlar,  A. Aspuru-Guzik,  R. Baer,  A. T. Bell,  
 N. A. Besley,  Jeng-Da Chai,  A. E. DePrince, III,  R. A. DiStasio Jr.,  
 A. Dreuw,  B. D. Dunietz,  T. R. Furlani,  Chao-Ping Hsu,  Yousung Jung,  
 Jing Kong,  D. S. Lambrecht,  WanZhen Liang,  C. Ochsenfeld,  
 V. A. Rassolov,  L. V. Slipchenko,  J. E. Subotnik,  T. Van Voorhis,  
 J. M. Herbert,  A. I. Krylov,  P. M. W. Gill,  M. Head-Gordon

 Contributors to earlier versions of Q-Chem not listed above: 
 R. D. Adamson,  B. Austin,  J. Baker,  G. J. O. Beran,  K. Brandhorst,  
 S. T. Brown,  E. F. C. Byrd,  A. K. Chakraborty,  C.-L. Cheng,  
 Siu Hung Chien,  D. M. Chipman,  D. L. Crittenden,  H. Dachsel,  
 R. J. Doerksen,  A. D. Dutoi,  L. Fusti-Molnar,  W. A. Goddard III,  
 A. Golubeva-Zadorozhnaya,  S. R. Gwaltney,  G. Hawkins,  A. Heyden,  
 S. Hirata,  G. Kedziora,  F. J. Keil,  C. Kelley,  Jihan Kim,  R. A. King,  
 R. Z. Khaliullin,  P. P. Korambath,  W. Kurlancheek,  A. M. Lee,  M. S. Lee,  
 S. V. Levchenko,  Ching Yeh Lin,  D. Liotard,  R. C. Lochan,  I. Lotan,  
 P. E. Maslen,  N. Nair,  D. P. O'Neill,  D. Neuhauser,  E. Neuscamman,  
 C. M. Oana,  R. Olson,  B. Peters,  R. Peverati,  P. A. Pieniazek,  
 Y. M. Rhee,  J. Ritchie,  M. A. Rohrdanz,  E. Rosta,  N. J. Russ,  
 H. F. Schaefer III,  N. E. Schultz,  N. Shenvi,  A. C. Simmonett,  A. Sodt,  
 D. Stuck,  K. S. Thanthiriwatte,  V. Vanovschi,  Tao Wang,  A. Warshel,  
 C. F. Williams,  Q. Wu,  X. Xu,  W. Zhang

 Please cite Q-Chem as follows:
 Y. Shao et al., Mol. Phys. 113, 184-215 (2015)
 DOI: 10.1080/00268976.2014.952696

 Q-Chem 5.3.0 for Intel X86 EM64T Linux

 Parts of Q-Chem use Armadillo 9.800.1 (Horizon Scraper).
 http://arma.sourceforge.net/

 Q-Chem begins on Mon Nov 16 03:41:15 2020  

n0035.mhg0
Host: 0

     Scratch files written to /local/scratch/users/yhljason/AlH2_PWPB95-D3_aug-cc-pcVTZ.inp20201116033952//
Processing $rem in /clusterfs/mhg/diptarka/qchem_transmom//config/preferences:
Processing $rem in /global/home/users/yhljason/.qchemrc:
The previous job contains 0 fragments, simply inherited here

Checking the input file for inconsistencies... 	...done.

--------------------------------------------------------------
User input:
--------------------------------------------------------------
$molecule
read
$end

$rem
jobtype sp
exchange PWPB95-D3
xc_grid 000099000590
basis aug-cc-pcVTZ

max_scf_cycles 200
thresh 14
scf_convergence 8
mem_total 128000
cc_memory 96000
cc_backend xm
mem_static 1500
symmetry false
sym_ignore true
scf_guess read
unrestricted false
scf_algorithm gdm
n_frozen_core 0
$end



$multipole_field
XX 0.0001
$end


--------------------------------------------------------------
 Adding empirical dispersion correction 
 ----------------------------------------------------------------
 Doing -D3(0) with
 s6  =   0.82000
 s8  =   0.70500
 rs6 =   1.55700
 rs8 =   1.00000
 -D3 energy without 3body term =     -0.0000478012 hartrees
 ----------------------------------------------------------------
             Standard Nuclear Orientation (Angstroms)
    I     Atom           X                Y                Z
 ----------------------------------------------------------------
    1      Al      0.0000000000     0.0000000000     0.0000000000
    2      H       0.0000000000     1.3700000000     0.8070000000
    3      H       0.0000000000    -1.3700000000     0.8070000000
 ----------------------------------------------------------------
 Nuclear Repulsion Energy =           8.84621096 hartrees
 There are        8 alpha and        7 beta electrons
 Requested basis set is aug-cc-pCVTZ
 There are 41 shells and 121 basis functions

 Total QAlloc Memory Limit 128000 MB
 Mega-Array Size      1467 MB
 MEM_STATIC part      1500 MB

                       Distance Matrix (Angstroms)
             Al(  1)   H (  2)
   H (  2)  1.590015
   H (  3)  1.590015  2.740000

 Applying Cartesian multipole field
    Component          Value
    ---------          -----
     (2,0,0)        1.00000E-04
 A cutoff of  1.0D-14 yielded    861 shell pairs
 There are      7573 function pairs (     10039 Cartesian)
 Smallest overlap matrix eigenvalue = 5.42E-04
 Guess MOs from SCF MO coefficient file

 -----------------------------------------------------------------------
  General SCF calculation program by
  Eric Jon Sundstrom, Paul Horn, Yuezhi Mao, Dmitri Zuev, Alec White,
  David Stuck, Shaama M.S., Shane Yost, Joonho Lee, David Small,
  Daniel Levine, Susi Lehtola, Hugh Burton, Evgeny Epifanovsky,
  Bang C. Huynh
 -----------------------------------------------------------------------
 Exchange:     0.5000 Hartree-Fock + 1.0000 PWPB95-D3
 Correlation:  0.7310 PWPB95-D3
 Using Euler-Maclaurin-Lebedev (99,590) quadrature formula
 Dispersion:   Grimme D3
 Orthonormalizing orbitals
 using 16 threads for integral computing
 -------------------------------------------------------
 OpenMP Integral computing Module                
 Release: version 2.0, May 2017, Q-Chem Inc. Pleasanton 
 -------------------------------------------------------
 A restricted open-shell SCF calculation will be
 performed using GDM
 SCF converges when RMS gradient is below 1.0e-08
 ---------------------------------------
  Cycle       Energy        RMS Gradient
 ---------------------------------------
    1    -243.4732830143      5.70e-04   Normal BFGS step
    2    -243.4732838155      3.47e-04   Normal BFGS step
    3    -243.4732839067      7.46e-05   Normal BFGS step
    4    -243.4732839121      2.16e-05   Normal BFGS step
    5    -243.4732839125      6.00e-06   Normal BFGS step
    6    -243.4732839126      1.30e-06   Normal BFGS step
    7    -243.4732839126      4.67e-07   Normal BFGS step
    8    -243.4732839126      8.52e-08   Normal BFGS step
    9    -243.4732839126      1.77e-08   Normal BFGS step
   10    -243.4732839126      5.24e-09  Convergence criterion met
The disked orbital energies are calculated using alpha and beta Focks
 ---------------------------------------
 SCF time:   CPU 264.61s  wall 19.00s 
<S^2> =          0.750000000
 SCF   energy in the final basis set =     -243.4732839126
 Total energy in the final basis set =     -243.4732839126

 Components of the MP2 correlation energy:
        aaaa  correlation energy =         0.0000000000 au
        abab  correlation energy =        -0.0885563707 au
        bbbb  correlation energy =         0.0000000000 au
        non-Brillouin singles    =        -0.0003661999 au

 Total  MP2   correlation energy =                    -0.08892257 au
        MP2         total energy =                  -243.56220648 au

 --------------------------------------------------------------

                    Orbital Energies (a.u.)
 --------------------------------------------------------------

 Alpha MOs
 -- Occupied --
-56.9647  -4.4258  -2.8931  -2.8922  -2.8870  -0.4655  -0.3581  -0.2334
 -- Virtual --
 -0.0481   0.0163   0.0187   0.0208   0.0303   0.0552   0.0566   0.0698
  0.0695   0.0735   0.0709   0.0806   0.1548   0.1630   0.1762   0.2200
  0.2253   0.2273   0.2241   0.2470   0.2509   0.2748   0.2863   0.2861
  0.2868   0.2905   0.2920   0.3036   0.3903   0.3916   0.4116   0.4131
  0.4245   0.4343   0.5071   0.5657   0.6134   0.6552   0.7790   0.7839
  0.7976   0.8063   0.8057   0.8292   0.8344   0.8426   0.8828   0.8860
  0.8902   0.9340   0.9491   1.0188   1.0210   1.0494   1.0564   1.1018
  1.1384   1.1361   1.1424   1.1606   1.2589   1.3864   1.4522   1.5036
  1.5932   1.7015   1.7672   2.0134   2.2083   2.3042   2.9603   3.0093
  3.7436   3.7767   3.7827   3.7924   3.7946   3.8211   3.8643   3.8804
  3.9932   4.0431   4.0845   4.1076   4.1413   4.2037   4.6284   4.7002
  4.9023   4.9105   4.9993   5.2084   5.2789   7.1571   9.0400   9.2479
  9.4494  18.5705  18.5712  18.5761  18.5769  18.5806  18.5842  18.5970
 22.2514  22.2562  22.2979  22.4179  22.4318  34.6523  34.8388  35.0499
 43.7026

 Beta MOs
 -- Occupied --
-56.9614  -4.4207  -2.8904  -2.8822  -2.8845  -0.4431  -0.3434
 -- Virtual --
 -0.0390  -0.0290   0.0249   0.0218   0.0266   0.0376   0.0621   0.0716
  0.0739   0.0826   0.0774   0.0828   0.0901   0.1632   0.1874   0.1798
  0.2271   0.2321   0.2293   0.2442   0.2773   0.2770   0.2780   0.2888
  0.2930   0.2955   0.3012   0.3008   0.3167   0.3963   0.3964   0.4208
  0.4270   0.4283   0.4396   0.5169   0.5697   0.6238   0.6626   0.8063
  0.8109   0.8077   0.8212   0.8255   0.8372   0.8432   0.8661   0.8991
  0.9100   0.9117   0.9402   0.9573   1.0316   1.0320   1.0625   1.0697
  1.1137   1.1477   1.1593   1.1514   1.1728   1.2855   1.3992   1.4615
  1.5132   1.6142   1.7134   1.7781   2.0290   2.2295   2.3175   2.9697
  3.0187   3.7495   3.7822   3.7876   3.7986   3.8003   3.8278   3.8691
  3.8865   3.9983   4.0484   4.0918   4.1156   4.1493   4.2131   4.6376
  4.7083   4.9081   4.9164   5.0029   5.2153   5.2878   7.1735   9.0472
  9.2613   9.4557  18.5719  18.5728  18.5773  18.5779  18.5817  18.5855
 18.5986  22.2569  22.2623  22.3003  22.4211  22.4375  34.6556  34.8467
 35.0529  43.7100
 --------------------------------------------------------------

          Ground-State Mulliken Net Atomic Charges

     Atom                 Charge (a.u.)
  ----------------------------------------
      1 Al                    0.198920
      2 H                    -0.099460
      3 H                    -0.099460
  ----------------------------------------
  Sum of atomic charges =     0.000000

 -----------------------------------------------------------------
                    Cartesian Multipole Moments
 -----------------------------------------------------------------
    Charge (ESU x 10^10)
                -0.0000
    Dipole Moment (Debye)
         X       0.0000      Y       0.0000      Z      -0.4430
       Tot       0.4430
    Quadrupole Moments (Debye-Ang)
        XX     -11.9359     XY      -0.0000     YY     -18.0450
        XZ      -0.0000     YZ       0.0000     ZZ     -17.2243
    Octopole Moments (Debye-Ang^2)
       XXX       0.0000    XXY       0.0000    XYY       0.0000
       YYY       0.0000    XXZ      -0.8457    XYZ       0.0000
       YYZ      -4.3972    XZZ       0.0000    YZZ       0.0000
       ZZZ      -2.9662
    Hexadecapole Moments (Debye-Ang^3)
      XXXX     -19.1317   XXXY      -0.0000   XXYY     -13.7559
      XYYY      -0.0000   YYYY     -65.5082   XXXZ       0.0000
      XXYZ      -0.0000   XYYZ       0.0000   YYYZ      -0.0000
      XXZZ     -11.6257   XYZZ      -0.0000   YYZZ     -19.9496
      XZZZ       0.0000   YZZZ       0.0000   ZZZZ     -50.7324
 -----------------------------------------------------------------
Archival summary:
1\1\n0035.mhg0\SP\ROProcedureUnspecified\BasisUnspecified\l12(2)\yhljason\MonNov1603:41:542020MonNov1603:41:542020\0\\#,ROProcedureUnspecified,BasisUnspecified,\\0,2\Al\H,1,1.59002\H,1,1.59002,2,118.999\\\@

 Total job time:  38.66s(wall), 510.79s(cpu) 
 Mon Nov 16 03:41:54 2020

        *************************************************************
        *                                                           *
        *  Thank you very much for using Q-Chem.  Have a nice day.  *
        *                                                           *
        *************************************************************


 
User input: 3 of 7 
 
                  Welcome to Q-Chem
     A Quantum Leap Into The Future Of Chemistry


 Q-Chem 5.3 (devel), Q-Chem, Inc., Pleasanton, CA (2020)

 Yihan Shao,  Zhengting Gan,  E. Epifanovsky,  A. T. B. Gilbert,  M. Wormit,  
 J. Kussmann,  A. W. Lange,  A. Behn,  Jia Deng,  Xintian Feng,  D. Ghosh,  
 M. Goldey,  P. R. Horn,  L. D. Jacobson,  I. Kaliman,  T. Kus,  A. Landau,  
 Jie Liu,  E. I. Proynov,  R. M. Richard,  R. P. Steele,  E. J. Sundstrom,  
 H. L. Woodcock III,  P. M. Zimmerman,  D. Zuev,  B. Alam,  B. Albrecht,  
 E. Alguire,  S. A. Baeppler,  D. Barton,  Z. Benda,  Y. A. Bernard,  
 E. J. Berquist,  K. B. Bravaya,  H. Burton,  K. Carter-Fenk,  D. Casanova,  
 Chun-Min Chang,  Yunqing Chen,  A. Chien,  K. D. Closser,  M. P. Coons,  
 S. Coriani,  S. Dasgupta,  A. L. Dempwolff,  M. Diedenhofen,  Hainam Do,  
 R. G. Edgar,  Po-Tung Fang,  S. Faraji,  S. Fatehi,  Qingguo Feng,  
 J. Fosso-Tande,  J. Gayvert,  Qinghui Ge,  A. Ghysels,  G. Gidofalvi,  
 J. Gomes,  J. Gonthier,  A. Gunina,  D. Hait,  M. W. D. Hanson-Heine,  
 P. H. P. Harbach,  A. W. Hauser,  M. F. Herbst,  J. E. Herr,  
 E. G. Hohenstein,  Z. C. Holden,  Kerwin Hui,  B. C. Huynh,  T.-C. Jagau,  
 Hyunjun Ji,  B. Kaduk,  K. Khistyaev,  Jaehoon Kim,  P. Klunzinger,  K. Koh,  
 D. Kosenkov,  L. Koulias,  T. Kowalczyk,  C. M. Krauter,  A. Kunitsa,  
 Ka Un Lao,  A. Laurent,  K. V. Lawler,  Joonho Lee,  D. Lefrancois,  
 S. Lehtola,  D. S. Levine,  Yi-Pei Li,  You-Sheng Lin,  Fenglai Liu,  
 Kuan-Yu Liu,  E. Livshits,  M. Loipersberger,  A. Luenser,  P. Manohar,  
 E. Mansoor,  S. F. Manzer,  Shan-Ping Mao,  Yuezhi Mao,  N. Mardirossian,  
 A. V. Marenich,  T. Markovich,  L. A. Martinez-Martinez,  S. A. Maurer,  
 N. J. Mayhall,  S. C. McKenzie,  J.-M. Mewes,  P. Morgante,  A. F. Morrison,  
 J. W. Mullinax,  K. Nanda,  T. S. Nguyen-Beck,  R. Olivares-Amaya,  
 K. J. Oosterbaan,  J. A. Parkhill,  S. K. Paul,  F. Pavosevic,  Zheng Pei,  
 T. M. Perrine,  F. Plasser,  P. Pokhilko,  S. Prager,  A. Prociuk,  
 E. Ramos,  B. Rana,  D. R. Rehn,  F. Rob,  M. Scheurer,  M. Schneider,  
 N. Sergueev,  S. M. Sharada,  S. Sharma,  D. W. Small,  T. Stauch,  
 C. J. Stein,  T. Stein,  Yu-Chuan Su,  S. P. Veccham,  Zhen Tao,  
 A. J. W. Thom,  A. Tkatchenko,  T. Tsuchimochi,  N. M. Tubman,  L. Vogt,  
 M. L. Vidal,  O. Vydrov,  M. A. Watson,  J. Wenzel,  M. de Wergifosse,  
 T. A. Wesolowski,  A. White,  J. Witte,  A. Yamada,  Jun Yang,  K. Yao,  
 S. Yeganeh,  S. R. Yost,  Zhi-Qiang You,  A. Zech,  Igor Ying Zhang,  
 Xing Zhang,  Yan Zhao,  Ying Zhu,  B. R. Brooks,  G. K. L. Chan,  
 C. J. Cramer,  M. S. Gordon,  W. J. Hehre,  A. Klamt,  M. W. Schmidt,  
 C. D. Sherrill,  D. G. Truhlar,  A. Aspuru-Guzik,  R. Baer,  A. T. Bell,  
 N. A. Besley,  Jeng-Da Chai,  A. E. DePrince, III,  R. A. DiStasio Jr.,  
 A. Dreuw,  B. D. Dunietz,  T. R. Furlani,  Chao-Ping Hsu,  Yousung Jung,  
 Jing Kong,  D. S. Lambrecht,  WanZhen Liang,  C. Ochsenfeld,  
 V. A. Rassolov,  L. V. Slipchenko,  J. E. Subotnik,  T. Van Voorhis,  
 J. M. Herbert,  A. I. Krylov,  P. M. W. Gill,  M. Head-Gordon

 Contributors to earlier versions of Q-Chem not listed above: 
 R. D. Adamson,  B. Austin,  J. Baker,  G. J. O. Beran,  K. Brandhorst,  
 S. T. Brown,  E. F. C. Byrd,  A. K. Chakraborty,  C.-L. Cheng,  
 Siu Hung Chien,  D. M. Chipman,  D. L. Crittenden,  H. Dachsel,  
 R. J. Doerksen,  A. D. Dutoi,  L. Fusti-Molnar,  W. A. Goddard III,  
 A. Golubeva-Zadorozhnaya,  S. R. Gwaltney,  G. Hawkins,  A. Heyden,  
 S. Hirata,  G. Kedziora,  F. J. Keil,  C. Kelley,  Jihan Kim,  R. A. King,  
 R. Z. Khaliullin,  P. P. Korambath,  W. Kurlancheek,  A. M. Lee,  M. S. Lee,  
 S. V. Levchenko,  Ching Yeh Lin,  D. Liotard,  R. C. Lochan,  I. Lotan,  
 P. E. Maslen,  N. Nair,  D. P. O'Neill,  D. Neuhauser,  E. Neuscamman,  
 C. M. Oana,  R. Olson,  B. Peters,  R. Peverati,  P. A. Pieniazek,  
 Y. M. Rhee,  J. Ritchie,  M. A. Rohrdanz,  E. Rosta,  N. J. Russ,  
 H. F. Schaefer III,  N. E. Schultz,  N. Shenvi,  A. C. Simmonett,  A. Sodt,  
 D. Stuck,  K. S. Thanthiriwatte,  V. Vanovschi,  Tao Wang,  A. Warshel,  
 C. F. Williams,  Q. Wu,  X. Xu,  W. Zhang

 Please cite Q-Chem as follows:
 Y. Shao et al., Mol. Phys. 113, 184-215 (2015)
 DOI: 10.1080/00268976.2014.952696

 Q-Chem 5.3.0 for Intel X86 EM64T Linux

 Parts of Q-Chem use Armadillo 9.800.1 (Horizon Scraper).
 http://arma.sourceforge.net/

 Q-Chem begins on Mon Nov 16 03:41:54 2020  

n0035.mhg0
Host: 0

     Scratch files written to /local/scratch/users/yhljason/AlH2_PWPB95-D3_aug-cc-pcVTZ.inp20201116033952//
Processing $rem in /clusterfs/mhg/diptarka/qchem_transmom//config/preferences:
Processing $rem in /global/home/users/yhljason/.qchemrc:
The previous job contains 0 fragments, simply inherited here

Checking the input file for inconsistencies... 	...done.

--------------------------------------------------------------
User input:
--------------------------------------------------------------
$molecule
read
$end

$rem
jobtype sp
exchange PWPB95-D3
xc_grid 000099000590
basis aug-cc-pcVTZ

max_scf_cycles 200
thresh 14
scf_convergence 8
mem_total 128000
cc_memory 96000
cc_backend xm
mem_static 1500
symmetry false
sym_ignore true
scf_guess read
unrestricted false
scf_algorithm gdm
n_frozen_core 0
$end



$multipole_field
XX -0.0001
$end


--------------------------------------------------------------
 Adding empirical dispersion correction 
 ----------------------------------------------------------------
 Doing -D3(0) with
 s6  =   0.82000
 s8  =   0.70500
 rs6 =   1.55700
 rs8 =   1.00000
 -D3 energy without 3body term =     -0.0000478012 hartrees
 ----------------------------------------------------------------
             Standard Nuclear Orientation (Angstroms)
    I     Atom           X                Y                Z
 ----------------------------------------------------------------
    1      Al      0.0000000000     0.0000000000     0.0000000000
    2      H       0.0000000000     1.3700000000     0.8070000000
    3      H       0.0000000000    -1.3700000000     0.8070000000
 ----------------------------------------------------------------
 Nuclear Repulsion Energy =           8.84621096 hartrees
 There are        8 alpha and        7 beta electrons
 Requested basis set is aug-cc-pCVTZ
 There are 41 shells and 121 basis functions

 Total QAlloc Memory Limit 128000 MB
 Mega-Array Size      1467 MB
 MEM_STATIC part      1500 MB

                       Distance Matrix (Angstroms)
             Al(  1)   H (  2)
   H (  2)  1.590015
   H (  3)  1.590015  2.740000

 Applying Cartesian multipole field
    Component          Value
    ---------          -----
     (2,0,0)       -1.00000E-04
 A cutoff of  1.0D-14 yielded    861 shell pairs
 There are      7573 function pairs (     10039 Cartesian)
 Smallest overlap matrix eigenvalue = 5.42E-04
 Guess MOs from SCF MO coefficient file

 -----------------------------------------------------------------------
  General SCF calculation program by
  Eric Jon Sundstrom, Paul Horn, Yuezhi Mao, Dmitri Zuev, Alec White,
  David Stuck, Shaama M.S., Shane Yost, Joonho Lee, David Small,
  Daniel Levine, Susi Lehtola, Hugh Burton, Evgeny Epifanovsky,
  Bang C. Huynh
 -----------------------------------------------------------------------
 Exchange:     0.5000 Hartree-Fock + 1.0000 PWPB95-D3
 Correlation:  0.7310 PWPB95-D3
 Using Euler-Maclaurin-Lebedev (99,590) quadrature formula
 Dispersion:   Grimme D3
 Orthonormalizing orbitals
 using 16 threads for integral computing
 -------------------------------------------------------
 OpenMP Integral computing Module                
 Release: version 2.0, May 2017, Q-Chem Inc. Pleasanton 
 -------------------------------------------------------
 A restricted open-shell SCF calculation will be
 performed using GDM
 SCF converges when RMS gradient is below 1.0e-08
 ---------------------------------------
  Cycle       Energy        RMS Gradient
 ---------------------------------------
    1    -243.4715091009      1.11e-03   Normal BFGS step
    2    -243.4715123385      6.49e-04   Normal BFGS step
    3    -243.4715126733      1.34e-04   Normal BFGS step
    4    -243.4715126929      3.59e-05   Normal BFGS step
    5    -243.4715126943      7.76e-06   Normal BFGS step
    6    -243.4715126944      2.52e-06   Normal BFGS step
    7    -243.4715126944      7.18e-07   Normal BFGS step
    8    -243.4715126944      1.21e-07   Normal BFGS step
    9    -243.4715126944      2.29e-08   Normal BFGS step
   10    -243.4715126944      6.96e-09  Convergence criterion met
The disked orbital energies are calculated using alpha and beta Focks
 ---------------------------------------
 SCF time:   CPU 265.52s  wall 19.00s 
<S^2> =          0.750000000
 SCF   energy in the final basis set =     -243.4715126944
 Total energy in the final basis set =     -243.4715126944

 Components of the MP2 correlation energy:
        aaaa  correlation energy =         0.0000000000 au
        abab  correlation energy =        -0.0885481716 au
        bbbb  correlation energy =         0.0000000000 au
        non-Brillouin singles    =        -0.0003658053 au

 Total  MP2   correlation energy =                    -0.08891398 au
        MP2         total energy =                  -243.56042667 au

 --------------------------------------------------------------

                    Orbital Energies (a.u.)
 --------------------------------------------------------------

 Alpha MOs
 -- Occupied --
-56.9641  -4.4253  -2.8925  -2.8916  -2.8865  -0.4649  -0.3575  -0.2328
 -- Virtual --
 -0.0456   0.0202   0.0238   0.0261   0.0423   0.0585   0.0583   0.0744
  0.0739   0.0738   0.0782   0.0853   0.1571   0.1650   0.1794   0.2230
  0.2298   0.2294   0.2256   0.2503   0.2539   0.2759   0.2888   0.2880
  0.2889   0.2928   0.2941   0.3050   0.3914   0.3933   0.4125   0.4143
  0.4268   0.4367   0.5087   0.5670   0.6148   0.6566   0.7804   0.7852
  0.7990   0.8073   0.8063   0.8303   0.8358   0.8437   0.8837   0.8873
  0.8914   0.9347   0.9501   1.0198   1.0217   1.0506   1.0571   1.1029
  1.1394   1.1370   1.1429   1.1614   1.2598   1.3873   1.4531   1.5043
  1.5938   1.7022   1.7680   2.0143   2.2090   2.3048   2.9610   3.0100
  3.7442   3.7773   3.7833   3.7929   3.7952   3.8217   3.8650   3.8809
  3.9937   4.0436   4.0852   4.1083   4.1419   4.2043   4.6290   4.7007
  4.9029   4.9110   4.9998   5.2090   5.2795   7.1577   9.0406   9.2485
  9.4499  18.5711  18.5718  18.5766  18.5774  18.5812  18.5847  18.5976
 22.2519  22.2568  22.2984  22.4185  22.4323  34.6529  34.8393  35.0505
 43.7031

 Beta MOs
 -- Occupied --
-56.9609  -4.4202  -2.8898  -2.8816  -2.8840  -0.4425  -0.3429
 -- Virtual --
 -0.0380  -0.0260   0.0292   0.0273   0.0315   0.0493   0.0655   0.0731
  0.0784   0.0865   0.0870   0.0820   0.0940   0.1655   0.1893   0.1831
  0.2301   0.2318   0.2367   0.2457   0.2799   0.2798   0.2794   0.2912
  0.2949   0.2973   0.3034   0.3031   0.3183   0.3974   0.3981   0.4217
  0.4283   0.4305   0.4419   0.5185   0.5709   0.6251   0.6640   0.8076
  0.8122   0.8091   0.8221   0.8261   0.8383   0.8446   0.8671   0.9001
  0.9113   0.9130   0.9408   0.9583   1.0326   1.0327   1.0636   1.0705
  1.1148   1.1487   1.1602   1.1519   1.1736   1.2865   1.4002   1.4623
  1.5138   1.6148   1.7141   1.7788   2.0299   2.2301   2.3181   2.9704
  3.0194   3.7501   3.7828   3.7883   3.7992   3.8009   3.8283   3.8698
  3.8870   3.9989   4.0489   4.0925   4.1162   4.1499   4.2136   4.6381
  4.7089   4.9087   4.9170   5.0035   5.2159   5.2883   7.1741   9.0478
  9.2619   9.4562  18.5724  18.5733  18.5779  18.5784  18.5822  18.5861
 18.5991  22.2575  22.2628  22.3008  22.4216  22.4381  34.6561  34.8473
 35.0535  43.7105
 --------------------------------------------------------------

          Ground-State Mulliken Net Atomic Charges

     Atom                 Charge (a.u.)
  ----------------------------------------
      1 Al                    0.204091
      2 H                    -0.102045
      3 H                    -0.102045
  ----------------------------------------
  Sum of atomic charges =     0.000000

 -----------------------------------------------------------------
                    Cartesian Multipole Moments
 -----------------------------------------------------------------
    Charge (ESU x 10^10)
                 0.0000
    Dipole Moment (Debye)
         X      -0.0000      Y       0.0000      Z      -0.4472
       Tot       0.4472
    Quadrupole Moments (Debye-Ang)
        XX     -11.8879     XY       0.0000     YY     -18.0436
        XZ       0.0000     YZ      -0.0000     ZZ     -17.2165
    Octopole Moments (Debye-Ang^2)
       XXX      -0.0000    XXY      -0.0000    XYY      -0.0000
       YYY      -0.0000    XXZ      -0.8703    XYZ      -0.0000
       YYZ      -4.4079    XZZ      -0.0000    YZZ      -0.0000
       ZZZ      -2.9870
    Hexadecapole Moments (Debye-Ang^3)
      XXXX     -18.8616   XXXY       0.0000   XXYY     -13.6903
      XYYY       0.0000   YYYY     -65.4627   XXXZ       0.0000
      XXYZ       0.0000   XYYZ       0.0000   YYYZ      -0.0000
      XXZZ     -11.5364   XYZZ       0.0000   YYZZ     -19.9226
      XZZZ       0.0000   YZZZ      -0.0000   ZZZZ     -50.5940
 -----------------------------------------------------------------
Archival summary:
1\1\n0035.mhg0\SP\ROProcedureUnspecified\BasisUnspecified\l12(2)\yhljason\MonNov1603:42:342020MonNov1603:42:342020\0\\#,ROProcedureUnspecified,BasisUnspecified,\\0,2\Al\H,1,1.59002\H,1,1.59002,2,118.999\\\@

 Total job time:  40.53s(wall), 537.08s(cpu) 
 Mon Nov 16 03:42:34 2020

        *************************************************************
        *                                                           *
        *  Thank you very much for using Q-Chem.  Have a nice day.  *
        *                                                           *
        *************************************************************


 
User input: 4 of 7 
 
                  Welcome to Q-Chem
     A Quantum Leap Into The Future Of Chemistry


 Q-Chem 5.3 (devel), Q-Chem, Inc., Pleasanton, CA (2020)

 Yihan Shao,  Zhengting Gan,  E. Epifanovsky,  A. T. B. Gilbert,  M. Wormit,  
 J. Kussmann,  A. W. Lange,  A. Behn,  Jia Deng,  Xintian Feng,  D. Ghosh,  
 M. Goldey,  P. R. Horn,  L. D. Jacobson,  I. Kaliman,  T. Kus,  A. Landau,  
 Jie Liu,  E. I. Proynov,  R. M. Richard,  R. P. Steele,  E. J. Sundstrom,  
 H. L. Woodcock III,  P. M. Zimmerman,  D. Zuev,  B. Alam,  B. Albrecht,  
 E. Alguire,  S. A. Baeppler,  D. Barton,  Z. Benda,  Y. A. Bernard,  
 E. J. Berquist,  K. B. Bravaya,  H. Burton,  K. Carter-Fenk,  D. Casanova,  
 Chun-Min Chang,  Yunqing Chen,  A. Chien,  K. D. Closser,  M. P. Coons,  
 S. Coriani,  S. Dasgupta,  A. L. Dempwolff,  M. Diedenhofen,  Hainam Do,  
 R. G. Edgar,  Po-Tung Fang,  S. Faraji,  S. Fatehi,  Qingguo Feng,  
 J. Fosso-Tande,  J. Gayvert,  Qinghui Ge,  A. Ghysels,  G. Gidofalvi,  
 J. Gomes,  J. Gonthier,  A. Gunina,  D. Hait,  M. W. D. Hanson-Heine,  
 P. H. P. Harbach,  A. W. Hauser,  M. F. Herbst,  J. E. Herr,  
 E. G. Hohenstein,  Z. C. Holden,  Kerwin Hui,  B. C. Huynh,  T.-C. Jagau,  
 Hyunjun Ji,  B. Kaduk,  K. Khistyaev,  Jaehoon Kim,  P. Klunzinger,  K. Koh,  
 D. Kosenkov,  L. Koulias,  T. Kowalczyk,  C. M. Krauter,  A. Kunitsa,  
 Ka Un Lao,  A. Laurent,  K. V. Lawler,  Joonho Lee,  D. Lefrancois,  
 S. Lehtola,  D. S. Levine,  Yi-Pei Li,  You-Sheng Lin,  Fenglai Liu,  
 Kuan-Yu Liu,  E. Livshits,  M. Loipersberger,  A. Luenser,  P. Manohar,  
 E. Mansoor,  S. F. Manzer,  Shan-Ping Mao,  Yuezhi Mao,  N. Mardirossian,  
 A. V. Marenich,  T. Markovich,  L. A. Martinez-Martinez,  S. A. Maurer,  
 N. J. Mayhall,  S. C. McKenzie,  J.-M. Mewes,  P. Morgante,  A. F. Morrison,  
 J. W. Mullinax,  K. Nanda,  T. S. Nguyen-Beck,  R. Olivares-Amaya,  
 K. J. Oosterbaan,  J. A. Parkhill,  S. K. Paul,  F. Pavosevic,  Zheng Pei,  
 T. M. Perrine,  F. Plasser,  P. Pokhilko,  S. Prager,  A. Prociuk,  
 E. Ramos,  B. Rana,  D. R. Rehn,  F. Rob,  M. Scheurer,  M. Schneider,  
 N. Sergueev,  S. M. Sharada,  S. Sharma,  D. W. Small,  T. Stauch,  
 C. J. Stein,  T. Stein,  Yu-Chuan Su,  S. P. Veccham,  Zhen Tao,  
 A. J. W. Thom,  A. Tkatchenko,  T. Tsuchimochi,  N. M. Tubman,  L. Vogt,  
 M. L. Vidal,  O. Vydrov,  M. A. Watson,  J. Wenzel,  M. de Wergifosse,  
 T. A. Wesolowski,  A. White,  J. Witte,  A. Yamada,  Jun Yang,  K. Yao,  
 S. Yeganeh,  S. R. Yost,  Zhi-Qiang You,  A. Zech,  Igor Ying Zhang,  
 Xing Zhang,  Yan Zhao,  Ying Zhu,  B. R. Brooks,  G. K. L. Chan,  
 C. J. Cramer,  M. S. Gordon,  W. J. Hehre,  A. Klamt,  M. W. Schmidt,  
 C. D. Sherrill,  D. G. Truhlar,  A. Aspuru-Guzik,  R. Baer,  A. T. Bell,  
 N. A. Besley,  Jeng-Da Chai,  A. E. DePrince, III,  R. A. DiStasio Jr.,  
 A. Dreuw,  B. D. Dunietz,  T. R. Furlani,  Chao-Ping Hsu,  Yousung Jung,  
 Jing Kong,  D. S. Lambrecht,  WanZhen Liang,  C. Ochsenfeld,  
 V. A. Rassolov,  L. V. Slipchenko,  J. E. Subotnik,  T. Van Voorhis,  
 J. M. Herbert,  A. I. Krylov,  P. M. W. Gill,  M. Head-Gordon

 Contributors to earlier versions of Q-Chem not listed above: 
 R. D. Adamson,  B. Austin,  J. Baker,  G. J. O. Beran,  K. Brandhorst,  
 S. T. Brown,  E. F. C. Byrd,  A. K. Chakraborty,  C.-L. Cheng,  
 Siu Hung Chien,  D. M. Chipman,  D. L. Crittenden,  H. Dachsel,  
 R. J. Doerksen,  A. D. Dutoi,  L. Fusti-Molnar,  W. A. Goddard III,  
 A. Golubeva-Zadorozhnaya,  S. R. Gwaltney,  G. Hawkins,  A. Heyden,  
 S. Hirata,  G. Kedziora,  F. J. Keil,  C. Kelley,  Jihan Kim,  R. A. King,  
 R. Z. Khaliullin,  P. P. Korambath,  W. Kurlancheek,  A. M. Lee,  M. S. Lee,  
 S. V. Levchenko,  Ching Yeh Lin,  D. Liotard,  R. C. Lochan,  I. Lotan,  
 P. E. Maslen,  N. Nair,  D. P. O'Neill,  D. Neuhauser,  E. Neuscamman,  
 C. M. Oana,  R. Olson,  B. Peters,  R. Peverati,  P. A. Pieniazek,  
 Y. M. Rhee,  J. Ritchie,  M. A. Rohrdanz,  E. Rosta,  N. J. Russ,  
 H. F. Schaefer III,  N. E. Schultz,  N. Shenvi,  A. C. Simmonett,  A. Sodt,  
 D. Stuck,  K. S. Thanthiriwatte,  V. Vanovschi,  Tao Wang,  A. Warshel,  
 C. F. Williams,  Q. Wu,  X. Xu,  W. Zhang

 Please cite Q-Chem as follows:
 Y. Shao et al., Mol. Phys. 113, 184-215 (2015)
 DOI: 10.1080/00268976.2014.952696

 Q-Chem 5.3.0 for Intel X86 EM64T Linux

 Parts of Q-Chem use Armadillo 9.800.1 (Horizon Scraper).
 http://arma.sourceforge.net/

 Q-Chem begins on Mon Nov 16 03:42:35 2020  

n0035.mhg0
Host: 0

     Scratch files written to /local/scratch/users/yhljason/AlH2_PWPB95-D3_aug-cc-pcVTZ.inp20201116033952//
Processing $rem in /clusterfs/mhg/diptarka/qchem_transmom//config/preferences:
Processing $rem in /global/home/users/yhljason/.qchemrc:
The previous job contains 0 fragments, simply inherited here

Checking the input file for inconsistencies... 	...done.

--------------------------------------------------------------
User input:
--------------------------------------------------------------
$molecule
read
$end

$rem
jobtype sp
exchange PWPB95-D3
xc_grid 000099000590
basis aug-cc-pcVTZ

max_scf_cycles 200
thresh 14
scf_convergence 8
mem_total 128000
cc_memory 96000
cc_backend xm
mem_static 1500
symmetry false
sym_ignore true
scf_guess read
unrestricted false
scf_algorithm gdm
n_frozen_core 0
$end



$multipole_field
YY 0.0001
$end


--------------------------------------------------------------
 Adding empirical dispersion correction 
 ----------------------------------------------------------------
 Doing -D3(0) with
 s6  =   0.82000
 s8  =   0.70500
 rs6 =   1.55700
 rs8 =   1.00000
 -D3 energy without 3body term =     -0.0000478012 hartrees
 ----------------------------------------------------------------
             Standard Nuclear Orientation (Angstroms)
    I     Atom           X                Y                Z
 ----------------------------------------------------------------
    1      Al      0.0000000000     0.0000000000     0.0000000000
    2      H       0.0000000000     1.3700000000     0.8070000000
    3      H       0.0000000000    -1.3700000000     0.8070000000
 ----------------------------------------------------------------
 Nuclear Repulsion Energy =           8.84621096 hartrees
 There are        8 alpha and        7 beta electrons
 Requested basis set is aug-cc-pCVTZ
 There are 41 shells and 121 basis functions

 Total QAlloc Memory Limit 128000 MB
 Mega-Array Size      1467 MB
 MEM_STATIC part      1500 MB

                       Distance Matrix (Angstroms)
             Al(  1)   H (  2)
   H (  2)  1.590015
   H (  3)  1.590015  2.740000

 Applying Cartesian multipole field
    Component          Value
    ---------          -----
     (0,2,0)        1.00000E-04
 Nucleus-field energy     =     0.0013405063 hartrees
 A cutoff of  1.0D-14 yielded    861 shell pairs
 There are      7573 function pairs (     10039 Cartesian)
 Smallest overlap matrix eigenvalue = 5.42E-04
 Guess MOs from SCF MO coefficient file

 -----------------------------------------------------------------------
  General SCF calculation program by
  Eric Jon Sundstrom, Paul Horn, Yuezhi Mao, Dmitri Zuev, Alec White,
  David Stuck, Shaama M.S., Shane Yost, Joonho Lee, David Small,
  Daniel Levine, Susi Lehtola, Hugh Burton, Evgeny Epifanovsky,
  Bang C. Huynh
 -----------------------------------------------------------------------
 Exchange:     0.5000 Hartree-Fock + 1.0000 PWPB95-D3
 Correlation:  0.7310 PWPB95-D3
 Using Euler-Maclaurin-Lebedev (99,590) quadrature formula
 Dispersion:   Grimme D3
 Orthonormalizing orbitals
 using 16 threads for integral computing
 -------------------------------------------------------
 OpenMP Integral computing Module                
 Release: version 2.0, May 2017, Q-Chem Inc. Pleasanton 
 -------------------------------------------------------
 A restricted open-shell SCF calculation will be
 performed using GDM
 SCF converges when RMS gradient is below 1.0e-08
 ---------------------------------------
  Cycle       Energy        RMS Gradient
 ---------------------------------------
    1    -243.4737380259      9.23e-04   Normal BFGS step
    2    -243.4737408395      4.55e-04   Normal BFGS step
    3    -243.4737411876      1.39e-04   Normal BFGS step
    4    -243.4737412026      5.17e-05   Normal BFGS step
    5    -243.4737412044      1.16e-05   Normal BFGS step
    6    -243.4737412045      1.63e-06   Normal BFGS step
    7    -243.4737412045      3.54e-07   Normal BFGS step
    8    -243.4737412045      1.70e-07   Normal BFGS step
    9    -243.4737412045      2.38e-08   Normal BFGS step
   10    -243.4737412045      7.14e-09  Convergence criterion met
The disked orbital energies are calculated using alpha and beta Focks
 ---------------------------------------
 SCF time:   CPU 290.23s  wall 22.00s 
<S^2> =          0.750000000
 SCF   energy in the final basis set =     -243.4737412045
 Total energy in the final basis set =     -243.4737412045

 Components of the MP2 correlation energy:
        aaaa  correlation energy =         0.0000000000 au
        abab  correlation energy =        -0.0885453322 au
        bbbb  correlation energy =         0.0000000000 au
        non-Brillouin singles    =        -0.0003658211 au

 Total  MP2   correlation energy =                    -0.08891115 au
        MP2         total energy =                  -243.56265236 au

 --------------------------------------------------------------

                    Orbital Energies (a.u.)
 --------------------------------------------------------------

 Alpha MOs
 -- Occupied --
-56.9651  -4.4262  -2.8934  -2.8925  -2.8874  -0.4659  -0.3586  -0.2336
 -- Virtual --
 -0.0474   0.0143   0.0158   0.0217   0.0342   0.0546   0.0552   0.0694
  0.0700   0.0709   0.0714   0.0798   0.1537   0.1617   0.1757   0.2200
  0.2249   0.2266   0.2238   0.2479   0.2515   0.2737   0.2863   0.2860
  0.2866   0.2912   0.2925   0.3025   0.3888   0.3905   0.4103   0.4122
  0.4240   0.4343   0.5065   0.5640   0.6130   0.6549   0.7792   0.7840
  0.7975   0.8059   0.8050   0.8289   0.8341   0.8422   0.8822   0.8861
  0.8902   0.9332   0.9481   1.0182   1.0200   1.0490   1.0557   1.1012
  1.1378   1.1356   1.1412   1.1597   1.2585   1.3860   1.4517   1.5028
  1.5926   1.7007   1.7663   2.0132   2.2080   2.3037   2.9598   3.0088
  3.7431   3.7761   3.7821   3.7918   3.7940   3.8205   3.8638   3.8797
  3.9926   4.0424   4.0840   4.1071   4.1408   4.2032   4.6278   4.6995
  4.9020   4.9101   4.9989   5.2081   5.2785   7.1567   9.0397   9.2476
  9.4490  18.5702  18.5709  18.5757  18.5765  18.5803  18.5838  18.5967
 22.2510  22.2559  22.2975  22.4175  22.4314  34.6520  34.8384  35.0495
 43.7022

 Beta MOs
 -- Occupied --
-56.9618  -4.4211  -2.8907  -2.8826  -2.8849  -0.4435  -0.3440
 -- Virtual --
 -0.0391  -0.0281   0.0170   0.0247   0.0267   0.0414   0.0620   0.0699
  0.0737   0.0740   0.0840   0.0836   0.0891   0.1620   0.1862   0.1793
  0.2270   0.2270   0.2335   0.2440   0.2780   0.2778   0.2769   0.2886
  0.2929   0.2953   0.3019   0.3015   0.3156   0.3948   0.3952   0.4197
  0.4262   0.4278   0.4395   0.5164   0.5680   0.6233   0.6623   0.8064
  0.8110   0.8076   0.8208   0.8248   0.8369   0.8430   0.8657   0.8986
  0.9101   0.9117   0.9393   0.9563   1.0309   1.0309   1.0622   1.0692
  1.1132   1.1471   1.1588   1.1503   1.1720   1.2852   1.3988   1.4609
  1.5124   1.6136   1.7127   1.7772   2.0288   2.2291   2.3170   2.9692
  3.0182   3.7490   3.7817   3.7870   3.7980   3.7998   3.8271   3.8685
  3.8859   3.9977   4.0477   4.0913   4.1151   4.1488   4.2125   4.6369
  4.7077   4.9078   4.9161   5.0026   5.2149   5.2874   7.1732   9.0469
  9.2610   9.4553  18.5715  18.5724  18.5770  18.5775  18.5813  18.5852
 18.5982  22.2566  22.2619  22.2999  22.4207  22.4372  34.6552  34.8463
 35.0526  43.7096
 --------------------------------------------------------------

          Ground-State Mulliken Net Atomic Charges

     Atom                 Charge (a.u.)
  ----------------------------------------
      1 Al                    0.202761
      2 H                    -0.101380
      3 H                    -0.101380
  ----------------------------------------
  Sum of atomic charges =     0.000000

 -----------------------------------------------------------------
                    Cartesian Multipole Moments
 -----------------------------------------------------------------
    Charge (ESU x 10^10)
                 0.0000
    Dipole Moment (Debye)
         X       0.0000      Y       0.0000      Z      -0.4490
       Tot       0.4490
    Quadrupole Moments (Debye-Ang)
        XX     -11.9124     XY       0.0000     YY     -18.1048
        XZ       0.0000     YZ      -0.0000     ZZ     -17.2235
    Octopole Moments (Debye-Ang^2)
       XXX       0.0000    XXY       0.0000    XYY       0.0000
       YYY       0.0000    XXZ      -0.8609    XYZ      -0.0000
       YYZ      -4.4400    XZZ       0.0000    YZZ       0.0000
       ZZZ      -2.9895
    Hexadecapole Moments (Debye-Ang^3)
      XXXX     -19.0037   XXXY       0.0000   XXYY     -13.7680
      XYYY       0.0000   YYYY     -65.9205   XXXZ       0.0000
      XXYZ      -0.0000   XYYZ       0.0000   YYYZ      -0.0000
      XXZZ     -11.5875   XYZZ      -0.0000   YYZZ     -20.0247
      XZZZ       0.0000   YZZZ      -0.0000   ZZZZ     -50.7000
 -----------------------------------------------------------------
Archival summary:
1\1\n0035.mhg0\SP\ROProcedureUnspecified\BasisUnspecified\l12(2)\yhljason\MonNov1603:43:152020MonNov1603:43:152020\0\\#,ROProcedureUnspecified,BasisUnspecified,\\0,2\Al\H,1,1.59002\H,1,1.59002,2,118.999\\\@

 Total job time:  40.73s(wall), 535.96s(cpu) 
 Mon Nov 16 03:43:15 2020

        *************************************************************
        *                                                           *
        *  Thank you very much for using Q-Chem.  Have a nice day.  *
        *                                                           *
        *************************************************************


 
User input: 5 of 7 
 
                  Welcome to Q-Chem
     A Quantum Leap Into The Future Of Chemistry


 Q-Chem 5.3 (devel), Q-Chem, Inc., Pleasanton, CA (2020)

 Yihan Shao,  Zhengting Gan,  E. Epifanovsky,  A. T. B. Gilbert,  M. Wormit,  
 J. Kussmann,  A. W. Lange,  A. Behn,  Jia Deng,  Xintian Feng,  D. Ghosh,  
 M. Goldey,  P. R. Horn,  L. D. Jacobson,  I. Kaliman,  T. Kus,  A. Landau,  
 Jie Liu,  E. I. Proynov,  R. M. Richard,  R. P. Steele,  E. J. Sundstrom,  
 H. L. Woodcock III,  P. M. Zimmerman,  D. Zuev,  B. Alam,  B. Albrecht,  
 E. Alguire,  S. A. Baeppler,  D. Barton,  Z. Benda,  Y. A. Bernard,  
 E. J. Berquist,  K. B. Bravaya,  H. Burton,  K. Carter-Fenk,  D. Casanova,  
 Chun-Min Chang,  Yunqing Chen,  A. Chien,  K. D. Closser,  M. P. Coons,  
 S. Coriani,  S. Dasgupta,  A. L. Dempwolff,  M. Diedenhofen,  Hainam Do,  
 R. G. Edgar,  Po-Tung Fang,  S. Faraji,  S. Fatehi,  Qingguo Feng,  
 J. Fosso-Tande,  J. Gayvert,  Qinghui Ge,  A. Ghysels,  G. Gidofalvi,  
 J. Gomes,  J. Gonthier,  A. Gunina,  D. Hait,  M. W. D. Hanson-Heine,  
 P. H. P. Harbach,  A. W. Hauser,  M. F. Herbst,  J. E. Herr,  
 E. G. Hohenstein,  Z. C. Holden,  Kerwin Hui,  B. C. Huynh,  T.-C. Jagau,  
 Hyunjun Ji,  B. Kaduk,  K. Khistyaev,  Jaehoon Kim,  P. Klunzinger,  K. Koh,  
 D. Kosenkov,  L. Koulias,  T. Kowalczyk,  C. M. Krauter,  A. Kunitsa,  
 Ka Un Lao,  A. Laurent,  K. V. Lawler,  Joonho Lee,  D. Lefrancois,  
 S. Lehtola,  D. S. Levine,  Yi-Pei Li,  You-Sheng Lin,  Fenglai Liu,  
 Kuan-Yu Liu,  E. Livshits,  M. Loipersberger,  A. Luenser,  P. Manohar,  
 E. Mansoor,  S. F. Manzer,  Shan-Ping Mao,  Yuezhi Mao,  N. Mardirossian,  
 A. V. Marenich,  T. Markovich,  L. A. Martinez-Martinez,  S. A. Maurer,  
 N. J. Mayhall,  S. C. McKenzie,  J.-M. Mewes,  P. Morgante,  A. F. Morrison,  
 J. W. Mullinax,  K. Nanda,  T. S. Nguyen-Beck,  R. Olivares-Amaya,  
 K. J. Oosterbaan,  J. A. Parkhill,  S. K. Paul,  F. Pavosevic,  Zheng Pei,  
 T. M. Perrine,  F. Plasser,  P. Pokhilko,  S. Prager,  A. Prociuk,  
 E. Ramos,  B. Rana,  D. R. Rehn,  F. Rob,  M. Scheurer,  M. Schneider,  
 N. Sergueev,  S. M. Sharada,  S. Sharma,  D. W. Small,  T. Stauch,  
 C. J. Stein,  T. Stein,  Yu-Chuan Su,  S. P. Veccham,  Zhen Tao,  
 A. J. W. Thom,  A. Tkatchenko,  T. Tsuchimochi,  N. M. Tubman,  L. Vogt,  
 M. L. Vidal,  O. Vydrov,  M. A. Watson,  J. Wenzel,  M. de Wergifosse,  
 T. A. Wesolowski,  A. White,  J. Witte,  A. Yamada,  Jun Yang,  K. Yao,  
 S. Yeganeh,  S. R. Yost,  Zhi-Qiang You,  A. Zech,  Igor Ying Zhang,  
 Xing Zhang,  Yan Zhao,  Ying Zhu,  B. R. Brooks,  G. K. L. Chan,  
 C. J. Cramer,  M. S. Gordon,  W. J. Hehre,  A. Klamt,  M. W. Schmidt,  
 C. D. Sherrill,  D. G. Truhlar,  A. Aspuru-Guzik,  R. Baer,  A. T. Bell,  
 N. A. Besley,  Jeng-Da Chai,  A. E. DePrince, III,  R. A. DiStasio Jr.,  
 A. Dreuw,  B. D. Dunietz,  T. R. Furlani,  Chao-Ping Hsu,  Yousung Jung,  
 Jing Kong,  D. S. Lambrecht,  WanZhen Liang,  C. Ochsenfeld,  
 V. A. Rassolov,  L. V. Slipchenko,  J. E. Subotnik,  T. Van Voorhis,  
 J. M. Herbert,  A. I. Krylov,  P. M. W. Gill,  M. Head-Gordon

 Contributors to earlier versions of Q-Chem not listed above: 
 R. D. Adamson,  B. Austin,  J. Baker,  G. J. O. Beran,  K. Brandhorst,  
 S. T. Brown,  E. F. C. Byrd,  A. K. Chakraborty,  C.-L. Cheng,  
 Siu Hung Chien,  D. M. Chipman,  D. L. Crittenden,  H. Dachsel,  
 R. J. Doerksen,  A. D. Dutoi,  L. Fusti-Molnar,  W. A. Goddard III,  
 A. Golubeva-Zadorozhnaya,  S. R. Gwaltney,  G. Hawkins,  A. Heyden,  
 S. Hirata,  G. Kedziora,  F. J. Keil,  C. Kelley,  Jihan Kim,  R. A. King,  
 R. Z. Khaliullin,  P. P. Korambath,  W. Kurlancheek,  A. M. Lee,  M. S. Lee,  
 S. V. Levchenko,  Ching Yeh Lin,  D. Liotard,  R. C. Lochan,  I. Lotan,  
 P. E. Maslen,  N. Nair,  D. P. O'Neill,  D. Neuhauser,  E. Neuscamman,  
 C. M. Oana,  R. Olson,  B. Peters,  R. Peverati,  P. A. Pieniazek,  
 Y. M. Rhee,  J. Ritchie,  M. A. Rohrdanz,  E. Rosta,  N. J. Russ,  
 H. F. Schaefer III,  N. E. Schultz,  N. Shenvi,  A. C. Simmonett,  A. Sodt,  
 D. Stuck,  K. S. Thanthiriwatte,  V. Vanovschi,  Tao Wang,  A. Warshel,  
 C. F. Williams,  Q. Wu,  X. Xu,  W. Zhang

 Please cite Q-Chem as follows:
 Y. Shao et al., Mol. Phys. 113, 184-215 (2015)
 DOI: 10.1080/00268976.2014.952696

 Q-Chem 5.3.0 for Intel X86 EM64T Linux

 Parts of Q-Chem use Armadillo 9.800.1 (Horizon Scraper).
 http://arma.sourceforge.net/

 Q-Chem begins on Mon Nov 16 03:43:15 2020  

n0035.mhg0
Host: 0

     Scratch files written to /local/scratch/users/yhljason/AlH2_PWPB95-D3_aug-cc-pcVTZ.inp20201116033952//
Processing $rem in /clusterfs/mhg/diptarka/qchem_transmom//config/preferences:
Processing $rem in /global/home/users/yhljason/.qchemrc:
The previous job contains 0 fragments, simply inherited here

Checking the input file for inconsistencies... 	...done.

--------------------------------------------------------------
User input:
--------------------------------------------------------------
$molecule
read
$end

$rem
jobtype sp
exchange PWPB95-D3
xc_grid 000099000590
basis aug-cc-pcVTZ

max_scf_cycles 200
thresh 14
scf_convergence 8
mem_total 128000
cc_memory 96000
cc_backend xm
mem_static 1500
symmetry false
sym_ignore true
scf_guess read
unrestricted false
scf_algorithm gdm
n_frozen_core 0
$end



$multipole_field
YY -0.0001
$end


--------------------------------------------------------------
 Adding empirical dispersion correction 
 ----------------------------------------------------------------
 Doing -D3(0) with
 s6  =   0.82000
 s8  =   0.70500
 rs6 =   1.55700
 rs8 =   1.00000
 -D3 energy without 3body term =     -0.0000478012 hartrees
 ----------------------------------------------------------------
             Standard Nuclear Orientation (Angstroms)
    I     Atom           X                Y                Z
 ----------------------------------------------------------------
    1      Al      0.0000000000     0.0000000000     0.0000000000
    2      H       0.0000000000     1.3700000000     0.8070000000
    3      H       0.0000000000    -1.3700000000     0.8070000000
 ----------------------------------------------------------------
 Nuclear Repulsion Energy =           8.84621096 hartrees
 There are        8 alpha and        7 beta electrons
 Requested basis set is aug-cc-pCVTZ
 There are 41 shells and 121 basis functions

 Total QAlloc Memory Limit 128000 MB
 Mega-Array Size      1467 MB
 MEM_STATIC part      1500 MB

                       Distance Matrix (Angstroms)
             Al(  1)   H (  2)
   H (  2)  1.590015
   H (  3)  1.590015  2.740000

 Applying Cartesian multipole field
    Component          Value
    ---------          -----
     (0,2,0)       -1.00000E-04
 Nucleus-field energy     =    -0.0013405063 hartrees
 A cutoff of  1.0D-14 yielded    861 shell pairs
 There are      7573 function pairs (     10039 Cartesian)
 Smallest overlap matrix eigenvalue = 5.42E-04
 Guess MOs from SCF MO coefficient file

 -----------------------------------------------------------------------
  General SCF calculation program by
  Eric Jon Sundstrom, Paul Horn, Yuezhi Mao, Dmitri Zuev, Alec White,
  David Stuck, Shaama M.S., Shane Yost, Joonho Lee, David Small,
  Daniel Levine, Susi Lehtola, Hugh Burton, Evgeny Epifanovsky,
  Bang C. Huynh
 -----------------------------------------------------------------------
 Exchange:     0.5000 Hartree-Fock + 1.0000 PWPB95-D3
 Correlation:  0.7310 PWPB95-D3
 Using Euler-Maclaurin-Lebedev (99,590) quadrature formula
 Dispersion:   Grimme D3
 Orthonormalizing orbitals
 using 16 threads for integral computing
 -------------------------------------------------------
 OpenMP Integral computing Module                
 Release: version 2.0, May 2017, Q-Chem Inc. Pleasanton 
 -------------------------------------------------------
 A restricted open-shell SCF calculation will be
 performed using GDM
 SCF converges when RMS gradient is below 1.0e-08
 ---------------------------------------
  Cycle       Energy        RMS Gradient
 ---------------------------------------
    1    -243.4710491125      1.71e-03   Normal BFGS step
    2    -243.4710574436      5.65e-04   Normal BFGS step
    3    -243.4710580489      2.21e-04   Normal BFGS step
    4    -243.4710580849      7.11e-05   Normal BFGS step
    5    -243.4710580880      1.75e-05   Normal BFGS step
    6    -243.4710580882      3.61e-06   Normal BFGS step
    7    -243.4710580883      6.08e-07   Normal BFGS step
    8    -243.4710580883      1.50e-07   Normal BFGS step
    9    -243.4710580883      3.51e-08   Normal BFGS step
   10    -243.4710580883      1.52e-08   Normal BFGS step
   11    -243.4710580883      2.36e-09  Convergence criterion met
The disked orbital energies are calculated using alpha and beta Focks
 ---------------------------------------
 SCF time:   CPU 280.28s  wall 20.00s 
<S^2> =          0.750000000
 SCF   energy in the final basis set =     -243.4710580883
 Total energy in the final basis set =     -243.4710580883

 Components of the MP2 correlation energy:
        aaaa  correlation energy =         0.0000000000 au
        abab  correlation energy =        -0.0885591989 au
        bbbb  correlation energy =         0.0000000000 au
        non-Brillouin singles    =        -0.0003661838 au

 Total  MP2   correlation energy =                    -0.08892538 au
        MP2         total energy =                  -243.55998347 au

 --------------------------------------------------------------

                    Orbital Energies (a.u.)
 --------------------------------------------------------------

 Alpha MOs
 -- Occupied --
-56.9637  -4.4249  -2.8922  -2.8913  -2.8861  -0.4645  -0.3569  -0.2326
 -- Virtual --
 -0.0462   0.0207   0.0252   0.0279   0.0383   0.0591   0.0598   0.0743
  0.0724   0.0733   0.0824   0.0861   0.1582   0.1664   0.1799   0.2230
  0.2282   0.2259   0.2323   0.2494   0.2532   0.2771   0.2887   0.2880
  0.2890   0.2921   0.2937   0.3061   0.3929   0.3945   0.4138   0.4152
  0.4273   0.4367   0.5093   0.5686   0.6152   0.6568   0.7802   0.7851
  0.7991   0.8076   0.8070   0.8306   0.8360   0.8440   0.8843   0.8872
  0.8914   0.9355   0.9511   1.0205   1.0227   1.0509   1.0577   1.1035
  1.1400   1.1375   1.1440   1.1623   1.2602   1.3877   1.4536   1.5051
  1.5945   1.7030   1.7689   2.0145   2.2093   2.3053   2.9615   3.0105
  3.7447   3.7778   3.7839   3.7935   3.7957   3.8224   3.8656   3.8815
  3.9944   4.0443   4.0857   4.1087   4.1424   4.2049   4.6296   4.7014
  4.9032   4.9114   5.0002   5.2094   5.2798   7.1580   9.0409   9.2488
  9.4503  18.5714  18.5721  18.5770  18.5778  18.5815  18.5851  18.5980
 22.2523  22.2572  22.2988  22.4188  22.4327  34.6533  34.8397  35.0508
 43.7035

 Beta MOs
 -- Occupied --
-56.9605  -4.4198  -2.8895  -2.8813  -2.8836  -0.4421  -0.3423
 -- Virtual --
 -0.0379  -0.0268   0.0292   0.0317   0.0318   0.0454   0.0658   0.0747
  0.0783   0.0856   0.0856   0.0860   0.0950   0.1667   0.1905   0.1837
  0.2301   0.2353   0.2459   0.2342   0.2793   0.2790   0.2805   0.2914
  0.2950   0.2976   0.3027   0.3023   0.3194   0.3989   0.3994   0.4229
  0.4291   0.4310   0.4419   0.5191   0.5726   0.6255   0.6642   0.8075
  0.8121   0.8092   0.8225   0.8268   0.8386   0.8449   0.8675   0.9007
  0.9113   0.9130   0.9417   0.9592   1.0333   1.0337   1.0640   1.0711
  1.1154   1.1493   1.1607   1.1531   1.1744   1.2868   1.4006   1.4628
  1.5147   1.6155   1.7149   1.7797   2.0301   2.2305   2.3186   2.9709
  3.0199   3.7506   3.7834   3.7888   3.7997   3.8015   3.8290   3.8703
  3.8876   3.9995   4.0496   4.0930   4.1167   4.1504   4.2142   4.6388
  4.7095   4.9090   4.9173   5.0039   5.2162   5.2887   7.1744   9.0481
  9.2623   9.4566  18.5728  18.5737  18.5782  18.5788  18.5826  18.5865
 18.5995  22.2579  22.2632  22.3012  22.4220  22.4385  34.6565  34.8476
 35.0539  43.7109
 --------------------------------------------------------------

          Ground-State Mulliken Net Atomic Charges

     Atom                 Charge (a.u.)
  ----------------------------------------
      1 Al                    0.200346
      2 H                    -0.100173
      3 H                    -0.100173
  ----------------------------------------
  Sum of atomic charges =     0.000000

 -----------------------------------------------------------------
                    Cartesian Multipole Moments
 -----------------------------------------------------------------
    Charge (ESU x 10^10)
                 0.0000
    Dipole Moment (Debye)
         X      -0.0000      Y       0.0000      Z      -0.4414
       Tot       0.4414
    Quadrupole Moments (Debye-Ang)
        XX     -11.9110     XY      -0.0000     YY     -17.9845
        XZ      -0.0000     YZ      -0.0000     ZZ     -17.2173
    Octopole Moments (Debye-Ang^2)
       XXX       0.0000    XXY      -0.0000    XYY      -0.0000
       YYY       0.0000    XXZ      -0.8557    XYZ      -0.0000
       YYZ      -4.3657    XZZ       0.0000    YZZ       0.0000
       ZZZ      -2.9643
    Hexadecapole Moments (Debye-Ang^3)
      XXXX     -18.9860   XXXY      -0.0000   XXYY     -13.6784
      XYYY      -0.0000   YYYY     -65.0572   XXXZ      -0.0000
      XXYZ      -0.0000   XYYZ      -0.0000   YYYZ       0.0000
      XXZZ     -11.5738   XYZZ      -0.0000   YYZZ     -19.8485
      XZZZ      -0.0000   YZZZ      -0.0000   ZZZZ     -50.6257
 -----------------------------------------------------------------
Archival summary:
1\1\n0035.mhg0\SP\ROProcedureUnspecified\BasisUnspecified\l12(2)\yhljason\MonNov1603:43:552020MonNov1603:43:552020\0\\#,ROProcedureUnspecified,BasisUnspecified,\\0,2\Al\H,1,1.59002\H,1,1.59002,2,118.999\\\@

 Total job time:  39.59s(wall), 523.12s(cpu) 
 Mon Nov 16 03:43:55 2020

        *************************************************************
        *                                                           *
        *  Thank you very much for using Q-Chem.  Have a nice day.  *
        *                                                           *
        *************************************************************


 
User input: 6 of 7 
 
                  Welcome to Q-Chem
     A Quantum Leap Into The Future Of Chemistry


 Q-Chem 5.3 (devel), Q-Chem, Inc., Pleasanton, CA (2020)

 Yihan Shao,  Zhengting Gan,  E. Epifanovsky,  A. T. B. Gilbert,  M. Wormit,  
 J. Kussmann,  A. W. Lange,  A. Behn,  Jia Deng,  Xintian Feng,  D. Ghosh,  
 M. Goldey,  P. R. Horn,  L. D. Jacobson,  I. Kaliman,  T. Kus,  A. Landau,  
 Jie Liu,  E. I. Proynov,  R. M. Richard,  R. P. Steele,  E. J. Sundstrom,  
 H. L. Woodcock III,  P. M. Zimmerman,  D. Zuev,  B. Alam,  B. Albrecht,  
 E. Alguire,  S. A. Baeppler,  D. Barton,  Z. Benda,  Y. A. Bernard,  
 E. J. Berquist,  K. B. Bravaya,  H. Burton,  K. Carter-Fenk,  D. Casanova,  
 Chun-Min Chang,  Yunqing Chen,  A. Chien,  K. D. Closser,  M. P. Coons,  
 S. Coriani,  S. Dasgupta,  A. L. Dempwolff,  M. Diedenhofen,  Hainam Do,  
 R. G. Edgar,  Po-Tung Fang,  S. Faraji,  S. Fatehi,  Qingguo Feng,  
 J. Fosso-Tande,  J. Gayvert,  Qinghui Ge,  A. Ghysels,  G. Gidofalvi,  
 J. Gomes,  J. Gonthier,  A. Gunina,  D. Hait,  M. W. D. Hanson-Heine,  
 P. H. P. Harbach,  A. W. Hauser,  M. F. Herbst,  J. E. Herr,  
 E. G. Hohenstein,  Z. C. Holden,  Kerwin Hui,  B. C. Huynh,  T.-C. Jagau,  
 Hyunjun Ji,  B. Kaduk,  K. Khistyaev,  Jaehoon Kim,  P. Klunzinger,  K. Koh,  
 D. Kosenkov,  L. Koulias,  T. Kowalczyk,  C. M. Krauter,  A. Kunitsa,  
 Ka Un Lao,  A. Laurent,  K. V. Lawler,  Joonho Lee,  D. Lefrancois,  
 S. Lehtola,  D. S. Levine,  Yi-Pei Li,  You-Sheng Lin,  Fenglai Liu,  
 Kuan-Yu Liu,  E. Livshits,  M. Loipersberger,  A. Luenser,  P. Manohar,  
 E. Mansoor,  S. F. Manzer,  Shan-Ping Mao,  Yuezhi Mao,  N. Mardirossian,  
 A. V. Marenich,  T. Markovich,  L. A. Martinez-Martinez,  S. A. Maurer,  
 N. J. Mayhall,  S. C. McKenzie,  J.-M. Mewes,  P. Morgante,  A. F. Morrison,  
 J. W. Mullinax,  K. Nanda,  T. S. Nguyen-Beck,  R. Olivares-Amaya,  
 K. J. Oosterbaan,  J. A. Parkhill,  S. K. Paul,  F. Pavosevic,  Zheng Pei,  
 T. M. Perrine,  F. Plasser,  P. Pokhilko,  S. Prager,  A. Prociuk,  
 E. Ramos,  B. Rana,  D. R. Rehn,  F. Rob,  M. Scheurer,  M. Schneider,  
 N. Sergueev,  S. M. Sharada,  S. Sharma,  D. W. Small,  T. Stauch,  
 C. J. Stein,  T. Stein,  Yu-Chuan Su,  S. P. Veccham,  Zhen Tao,  
 A. J. W. Thom,  A. Tkatchenko,  T. Tsuchimochi,  N. M. Tubman,  L. Vogt,  
 M. L. Vidal,  O. Vydrov,  M. A. Watson,  J. Wenzel,  M. de Wergifosse,  
 T. A. Wesolowski,  A. White,  J. Witte,  A. Yamada,  Jun Yang,  K. Yao,  
 S. Yeganeh,  S. R. Yost,  Zhi-Qiang You,  A. Zech,  Igor Ying Zhang,  
 Xing Zhang,  Yan Zhao,  Ying Zhu,  B. R. Brooks,  G. K. L. Chan,  
 C. J. Cramer,  M. S. Gordon,  W. J. Hehre,  A. Klamt,  M. W. Schmidt,  
 C. D. Sherrill,  D. G. Truhlar,  A. Aspuru-Guzik,  R. Baer,  A. T. Bell,  
 N. A. Besley,  Jeng-Da Chai,  A. E. DePrince, III,  R. A. DiStasio Jr.,  
 A. Dreuw,  B. D. Dunietz,  T. R. Furlani,  Chao-Ping Hsu,  Yousung Jung,  
 Jing Kong,  D. S. Lambrecht,  WanZhen Liang,  C. Ochsenfeld,  
 V. A. Rassolov,  L. V. Slipchenko,  J. E. Subotnik,  T. Van Voorhis,  
 J. M. Herbert,  A. I. Krylov,  P. M. W. Gill,  M. Head-Gordon

 Contributors to earlier versions of Q-Chem not listed above: 
 R. D. Adamson,  B. Austin,  J. Baker,  G. J. O. Beran,  K. Brandhorst,  
 S. T. Brown,  E. F. C. Byrd,  A. K. Chakraborty,  C.-L. Cheng,  
 Siu Hung Chien,  D. M. Chipman,  D. L. Crittenden,  H. Dachsel,  
 R. J. Doerksen,  A. D. Dutoi,  L. Fusti-Molnar,  W. A. Goddard III,  
 A. Golubeva-Zadorozhnaya,  S. R. Gwaltney,  G. Hawkins,  A. Heyden,  
 S. Hirata,  G. Kedziora,  F. J. Keil,  C. Kelley,  Jihan Kim,  R. A. King,  
 R. Z. Khaliullin,  P. P. Korambath,  W. Kurlancheek,  A. M. Lee,  M. S. Lee,  
 S. V. Levchenko,  Ching Yeh Lin,  D. Liotard,  R. C. Lochan,  I. Lotan,  
 P. E. Maslen,  N. Nair,  D. P. O'Neill,  D. Neuhauser,  E. Neuscamman,  
 C. M. Oana,  R. Olson,  B. Peters,  R. Peverati,  P. A. Pieniazek,  
 Y. M. Rhee,  J. Ritchie,  M. A. Rohrdanz,  E. Rosta,  N. J. Russ,  
 H. F. Schaefer III,  N. E. Schultz,  N. Shenvi,  A. C. Simmonett,  A. Sodt,  
 D. Stuck,  K. S. Thanthiriwatte,  V. Vanovschi,  Tao Wang,  A. Warshel,  
 C. F. Williams,  Q. Wu,  X. Xu,  W. Zhang

 Please cite Q-Chem as follows:
 Y. Shao et al., Mol. Phys. 113, 184-215 (2015)
 DOI: 10.1080/00268976.2014.952696

 Q-Chem 5.3.0 for Intel X86 EM64T Linux

 Parts of Q-Chem use Armadillo 9.800.1 (Horizon Scraper).
 http://arma.sourceforge.net/

 Q-Chem begins on Mon Nov 16 03:43:55 2020  

n0035.mhg0
Host: 0

     Scratch files written to /local/scratch/users/yhljason/AlH2_PWPB95-D3_aug-cc-pcVTZ.inp20201116033952//
Processing $rem in /clusterfs/mhg/diptarka/qchem_transmom//config/preferences:
Processing $rem in /global/home/users/yhljason/.qchemrc:
The previous job contains 0 fragments, simply inherited here

Checking the input file for inconsistencies... 	...done.

--------------------------------------------------------------
User input:
--------------------------------------------------------------
$molecule
read
$end

$rem
jobtype sp
exchange PWPB95-D3
xc_grid 000099000590
basis aug-cc-pcVTZ

max_scf_cycles 200
thresh 14
scf_convergence 8
mem_total 128000
cc_memory 96000
cc_backend xm
mem_static 1500
symmetry false
sym_ignore true
scf_guess read
unrestricted false
scf_algorithm gdm
n_frozen_core 0
$end



$multipole_field
ZZ 0.0001
$end


--------------------------------------------------------------
 Adding empirical dispersion correction 
 ----------------------------------------------------------------
 Doing -D3(0) with
 s6  =   0.82000
 s8  =   0.70500
 rs6 =   1.55700
 rs8 =   1.00000
 -D3 energy without 3body term =     -0.0000478012 hartrees
 ----------------------------------------------------------------
             Standard Nuclear Orientation (Angstroms)
    I     Atom           X                Y                Z
 ----------------------------------------------------------------
    1      Al      0.0000000000     0.0000000000     0.0000000000
    2      H       0.0000000000     1.3700000000     0.8070000000
    3      H       0.0000000000    -1.3700000000     0.8070000000
 ----------------------------------------------------------------
 Nuclear Repulsion Energy =           8.84621096 hartrees
 There are        8 alpha and        7 beta electrons
 Requested basis set is aug-cc-pCVTZ
 There are 41 shells and 121 basis functions

 Total QAlloc Memory Limit 128000 MB
 Mega-Array Size      1467 MB
 MEM_STATIC part      1500 MB

                       Distance Matrix (Angstroms)
             Al(  1)   H (  2)
   H (  2)  1.590015
   H (  3)  1.590015  2.740000

 Applying Cartesian multipole field
    Component          Value
    ---------          -----
     (0,0,2)        1.00000E-04
 Nucleus-field energy     =     0.0004651305 hartrees
 A cutoff of  1.0D-14 yielded    861 shell pairs
 There are      7573 function pairs (     10039 Cartesian)
 Smallest overlap matrix eigenvalue = 5.42E-04
 Guess MOs from SCF MO coefficient file

 -----------------------------------------------------------------------
  General SCF calculation program by
  Eric Jon Sundstrom, Paul Horn, Yuezhi Mao, Dmitri Zuev, Alec White,
  David Stuck, Shaama M.S., Shane Yost, Joonho Lee, David Small,
  Daniel Levine, Susi Lehtola, Hugh Burton, Evgeny Epifanovsky,
  Bang C. Huynh
 -----------------------------------------------------------------------
 Exchange:     0.5000 Hartree-Fock + 1.0000 PWPB95-D3
 Correlation:  0.7310 PWPB95-D3
 Using Euler-Maclaurin-Lebedev (99,590) quadrature formula
 Dispersion:   Grimme D3
 Orthonormalizing orbitals
 using 16 threads for integral computing
 -------------------------------------------------------
 OpenMP Integral computing Module                
 Release: version 2.0, May 2017, Q-Chem Inc. Pleasanton 
[...]
    3    -243.4736799440      2.23e-04   Normal BFGS step
    4    -243.4736799721      1.02e-04   Normal BFGS step
    5    -243.4736799792      8.32e-06   Normal BFGS step
    6    -243.4736799793      3.68e-06   Normal BFGS step
    7    -243.4736799793      3.67e-07   Normal BFGS step
    8    -243.4736799793      1.61e-07   Normal BFGS step
    9    -243.4736799793      3.55e-08   Normal BFGS step
   10    -243.4736799793      1.10e-08   Normal BFGS step
   11    -243.4736799793      6.21e-10  Convergence criterion met
The disked orbital energies are calculated using alpha and beta Focks
 ---------------------------------------
 SCF time:   CPU 280.44s  wall 20.00s 
<S^2> =          0.750000000
 SCF   energy in the final basis set =     -243.4736799793
 Total energy in the final basis set =     -243.4736799793

 Components of the MP2 correlation energy:
        aaaa  correlation energy =         0.0000000000 au
        abab  correlation energy =        -0.0885463701 au
        bbbb  correlation energy =         0.0000000000 au
        non-Brillouin singles    =        -0.0003649740 au

 Total  MP2   correlation energy =                    -0.08891134 au
        MP2         total energy =                  -243.56259132 au

 --------------------------------------------------------------

                    Orbital Energies (a.u.)
 --------------------------------------------------------------

 Alpha MOs
 -- Occupied --
-56.9650  -4.4261  -2.8934  -2.8925  -2.8873  -0.4657  -0.3583  -0.2338
 -- Virtual --
 -0.0474   0.0147   0.0177   0.0188   0.0342   0.0557   0.0556   0.0713
  0.0698   0.0695   0.0730   0.0780   0.1545   0.1622   0.1755   0.2208
  0.2268   0.2261   0.2228   0.2476   0.2511   0.2744   0.2870   0.2860
  0.2869   0.2902   0.2917   0.3027   0.3897   0.3914   0.4107   0.4118
  0.4249   0.4346   0.5065   0.5653   0.6133   0.6551   0.7789   0.7837
  0.7978   0.8060   0.8051   0.8291   0.8346   0.8424   0.8826   0.8859
  0.8900   0.9336   0.9489   1.0186   1.0203   1.0492   1.0559   1.1017
  1.1384   1.1357   1.1418   1.1603   1.2586   1.3863   1.4521   1.5033
  1.5927   1.7011   1.7669   2.0133   2.2080   2.3040   2.9600   3.0090
  3.7433   3.7764   3.7824   3.7921   3.7943   3.8208   3.8641   3.8800
  3.9928   4.0428   4.0843   4.1074   4.1410   4.2034   4.6281   4.6999
  4.9021   4.9102   4.9990   5.2081   5.2786   7.1568   9.0398   9.2476
  9.4491  18.5702  18.5709  18.5757  18.5766  18.5803  18.5838  18.5967
 22.2510  22.2559  22.2976  22.4176  22.4315  34.6520  34.8384  35.0496
 43.7022

 Beta MOs
 -- Occupied --
-56.9618  -4.4210  -2.8907  -2.8825  -2.8848  -0.4434  -0.3437
 -- Virtual --
 -0.0394  -0.0281   0.0240   0.0229   0.0220   0.0414   0.0624   0.0701
  0.0754   0.0818   0.0826   0.0773   0.0877   0.1630   0.1867   0.1793
  0.2279   0.2288   0.2333   0.2429   0.2776   0.2773   0.2778   0.2896
  0.2930   0.2953   0.3008   0.3005   0.3160   0.3957   0.3963   0.4199
  0.4259   0.4287   0.4398   0.5164   0.5693   0.6236   0.6625   0.8062
  0.8107   0.8078   0.8209   0.8249   0.8370   0.8434   0.8659   0.8989
  0.9099   0.9116   0.9397   0.9571   1.0313   1.0313   1.0623   1.0693
  1.1136   1.1477   1.1589   1.1508   1.1725   1.2852   1.3991   1.4613
  1.5129   1.6137   1.7130   1.7777   2.0289   2.2291   2.3172   2.9694
  3.0184   3.7492   3.7819   3.7874   3.7983   3.8001   3.8274   3.8689
  3.8861   3.9980   4.0481   4.0916   4.1153   4.1490   4.2127   4.6372
  4.7080   4.9078   4.9161   5.0027   5.2150   5.2874   7.1732   9.0469
  9.2610   9.4554  18.5715  18.5725  18.5770  18.5775  18.5813  18.5852
 18.5983  22.2566  22.2619  22.3000  22.4208  22.4372  34.6552  34.8464
 35.0526  43.7096
 --------------------------------------------------------------

          Ground-State Mulliken Net Atomic Charges

     Atom                 Charge (a.u.)
  ----------------------------------------
      1 Al                    0.200436
      2 H                    -0.100218
      3 H                    -0.100218
  ----------------------------------------
  Sum of atomic charges =     0.000000

 -----------------------------------------------------------------
                    Cartesian Multipole Moments
 -----------------------------------------------------------------
    Charge (ESU x 10^10)
                -0.0000
    Dipole Moment (Debye)
         X      -0.0000      Y       0.0000      Z      -0.4423
       Tot       0.4423
    Quadrupole Moments (Debye-Ang)
        XX     -11.9157     XY      -0.0000     YY     -18.0475
        XZ       0.0000     YZ       0.0000     ZZ     -17.2819
    Octopole Moments (Debye-Ang^2)
       XXX      -0.0000    XXY      -0.0000    XYY      -0.0000
       YYY      -0.0000    XXZ      -0.8490    XYZ      -0.0000
       YYZ      -4.4037    XZZ      -0.0000    YZZ       0.0000
       ZZZ      -2.9220
    Hexadecapole Moments (Debye-Ang^3)
      XXXX     -19.0330   XXXY      -0.0000   XXYY     -13.7391
      XYYY      -0.0000   YYYY     -65.5288   XXXZ       0.0000
      XXYZ      -0.0000   XYYZ       0.0000   YYYZ      -0.0000
      XXZZ     -11.6609   XYZZ      -0.0000   YYZZ     -20.0407
      XZZZ       0.0000   YZZZ      -0.0000   ZZZZ     -51.1819
 -----------------------------------------------------------------
Archival summary:
1\1\n0035.mhg0\SP\ROProcedureUnspecified\BasisUnspecified\l12(2)\yhljason\MonNov1603:44:352020MonNov1603:44:352020\0\\#,ROProcedureUnspecified,BasisUnspecified,\\0,2\Al\H,1,1.59002\H,1,1.59002,2,118.999\\\@

 Total job time:  39.69s(wall), 528.38s(cpu) 
 Mon Nov 16 03:44:35 2020

        *************************************************************
        *                                                           *
        *  Thank you very much for using Q-Chem.  Have a nice day.  *
        *                                                           *
        *************************************************************


 
User input: 7 of 7 
 
                  Welcome to Q-Chem
     A Quantum Leap Into The Future Of Chemistry


 Q-Chem 5.3 (devel), Q-Chem, Inc., Pleasanton, CA (2020)

 Yihan Shao,  Zhengting Gan,  E. Epifanovsky,  A. T. B. Gilbert,  M. Wormit,  
 J. Kussmann,  A. W. Lange,  A. Behn,  Jia Deng,  Xintian Feng,  D. Ghosh,  
 M. Goldey,  P. R. Horn,  L. D. Jacobson,  I. Kaliman,  T. Kus,  A. Landau,  
 Jie Liu,  E. I. Proynov,  R. M. Richard,  R. P. Steele,  E. J. Sundstrom,  
 H. L. Woodcock III,  P. M. Zimmerman,  D. Zuev,  B. Alam,  B. Albrecht,  
 E. Alguire,  S. A. Baeppler,  D. Barton,  Z. Benda,  Y. A. Bernard,  
 E. J. Berquist,  K. B. Bravaya,  H. Burton,  K. Carter-Fenk,  D. Casanova,  
 Chun-Min Chang,  Yunqing Chen,  A. Chien,  K. D. Closser,  M. P. Coons,  
 S. Coriani,  S. Dasgupta,  A. L. Dempwolff,  M. Diedenhofen,  Hainam Do,  
 R. G. Edgar,  Po-Tung Fang,  S. Faraji,  S. Fatehi,  Qingguo Feng,  
 J. Fosso-Tande,  J. Gayvert,  Qinghui Ge,  A. Ghysels,  G. Gidofalvi,  
 J. Gomes,  J. Gonthier,  A. Gunina,  D. Hait,  M. W. D. Hanson-Heine,  
 P. H. P. Harbach,  A. W. Hauser,  M. F. Herbst,  J. E. Herr,  
 E. G. Hohenstein,  Z. C. Holden,  Kerwin Hui,  B. C. Huynh,  T.-C. Jagau,  
 Hyunjun Ji,  B. Kaduk,  K. Khistyaev,  Jaehoon Kim,  P. Klunzinger,  K. Koh,  
 D. Kosenkov,  L. Koulias,  T. Kowalczyk,  C. M. Krauter,  A. Kunitsa,  
 Ka Un Lao,  A. Laurent,  K. V. Lawler,  Joonho Lee,  D. Lefrancois,  
 S. Lehtola,  D. S. Levine,  Yi-Pei Li,  You-Sheng Lin,  Fenglai Liu,  
 Kuan-Yu Liu,  E. Livshits,  M. Loipersberger,  A. Luenser,  P. Manohar,  
 E. Mansoor,  S. F. Manzer,  Shan-Ping Mao,  Yuezhi Mao,  N. Mardirossian,  
 A. V. Marenich,  T. Markovich,  L. A. Martinez-Martinez,  S. A. Maurer,  
 N. J. Mayhall,  S. C. McKenzie,  J.-M. Mewes,  P. Morgante,  A. F. Morrison,  
 J. W. Mullinax,  K. Nanda,  T. S. Nguyen-Beck,  R. Olivares-Amaya,  
 K. J. Oosterbaan,  J. A. Parkhill,  S. K. Paul,  F. Pavosevic,  Zheng Pei,  
 T. M. Perrine,  F. Plasser,  P. Pokhilko,  S. Prager,  A. Prociuk,  
 E. Ramos,  B. Rana,  D. R. Rehn,  F. Rob,  M. Scheurer,  M. Schneider,  
 N. Sergueev,  S. M. Sharada,  S. Sharma,  D. W. Small,  T. Stauch,  
 C. J. Stein,  T. Stein,  Yu-Chuan Su,  S. P. Veccham,  Zhen Tao,  
 A. J. W. Thom,  A. Tkatchenko,  T. Tsuchimochi,  N. M. Tubman,  L. Vogt,  
 M. L. Vidal,  O. Vydrov,  M. A. Watson,  J. Wenzel,  M. de Wergifosse,  
 T. A. Wesolowski,  A. White,  J. Witte,  A. Yamada,  Jun Yang,  K. Yao,  
 S. Yeganeh,  S. R. Yost,  Zhi-Qiang You,  A. Zech,  Igor Ying Zhang,  
 Xing Zhang,  Yan Zhao,  Ying Zhu,  B. R. Brooks,  G. K. L. Chan,  
 C. J. Cramer,  M. S. Gordon,  W. J. Hehre,  A. Klamt,  M. W. Schmidt,  
 C. D. Sherrill,  D. G. Truhlar,  A. Aspuru-Guzik,  R. Baer,  A. T. Bell,  
 N. A. Besley,  Jeng-Da Chai,  A. E. DePrince, III,  R. A. DiStasio Jr.,  
 A. Dreuw,  B. D. Dunietz,  T. R. Furlani,  Chao-Ping Hsu,  Yousung Jung,  
 Jing Kong,  D. S. Lambrecht,  WanZhen Liang,  C. Ochsenfeld,  
 V. A. Rassolov,  L. V. Slipchenko,  J. E. Subotnik,  T. Van Voorhis,  
 J. M. Herbert,  A. I. Krylov,  P. M. W. Gill,  M. Head-Gordon

 Contributors to earlier versions of Q-Chem not listed above: 
 R. D. Adamson,  B. Austin,  J. Baker,  G. J. O. Beran,  K. Brandhorst,  
 S. T. Brown,  E. F. C. Byrd,  A. K. Chakraborty,  C.-L. Cheng,  
 Siu Hung Chien,  D. M. Chipman,  D. L. Crittenden,  H. Dachsel,  
 R. J. Doerksen,  A. D. Dutoi,  L. Fusti-Molnar,  W. A. Goddard III,  
 A. Golubeva-Zadorozhnaya,  S. R. Gwaltney,  G. Hawkins,  A. Heyden,  
 S. Hirata,  G. Kedziora,  F. J. Keil,  C. Kelley,  Jihan Kim,  R. A. King,  
 R. Z. Khaliullin,  P. P. Korambath,  W. Kurlancheek,  A. M. Lee,  M. S. Lee,  
 S. V. Levchenko,  Ching Yeh Lin,  D. Liotard,  R. C. Lochan,  I. Lotan,  
 P. E. Maslen,  N. Nair,  D. P. O'Neill,  D. Neuhauser,  E. Neuscamman,  
 C. M. Oana,  R. Olson,  B. Peters,  R. Peverati,  P. A. Pieniazek,  
 Y. M. Rhee,  J. Ritchie,  M. A. Rohrdanz,  E. Rosta,  N. J. Russ,  
 H. F. Schaefer III,  N. E. Schultz,  N. Shenvi,  A. C. Simmonett,  A. Sodt,  
 D. Stuck,  K. S. Thanthiriwatte,  V. Vanovschi,  Tao Wang,  A. Warshel,  
 C. F. Williams,  Q. Wu,  X. Xu,  W. Zhang

 Please cite Q-Chem as follows:
 Y. Shao et al., Mol. Phys. 113, 184-215 (2015)
 DOI: 10.1080/00268976.2014.952696

 Q-Chem 5.3.0 for Intel X86 EM64T Linux

 Parts of Q-Chem use Armadillo 9.800.1 (Horizon Scraper).
 http://arma.sourceforge.net/

 Q-Chem begins on Mon Nov 16 03:44:35 2020  

n0035.mhg0
Host: 0

     Scratch files written to /local/scratch/users/yhljason/AlH2_PWPB95-D3_aug-cc-pcVTZ.inp20201116033952//
Processing $rem in /clusterfs/mhg/diptarka/qchem_transmom//config/preferences:
Processing $rem in /global/home/users/yhljason/.qchemrc:
The previous job contains 0 fragments, simply inherited here

Checking the input file for inconsistencies... 	...done.

--------------------------------------------------------------
User input:
--------------------------------------------------------------
$molecule
read
$end

$rem
jobtype sp
exchange PWPB95-D3
xc_grid 000099000590
basis aug-cc-pcVTZ

max_scf_cycles 200
thresh 14
scf_convergence 8
mem_total 128000
cc_memory 96000
cc_backend xm
mem_static 1500
symmetry false
sym_ignore true
scf_guess read
unrestricted false
scf_algorithm gdm
n_frozen_core 0
$end



$multipole_field
ZZ -0.0001
$end


--------------------------------------------------------------
 Adding empirical dispersion correction 
 ----------------------------------------------------------------
 Doing -D3(0) with
 s6  =   0.82000
 s8  =   0.70500
 rs6 =   1.55700
 rs8 =   1.00000
 -D3 energy without 3body term =     -0.0000478012 hartrees
 ----------------------------------------------------------------
             Standard Nuclear Orientation (Angstroms)
    I     Atom           X                Y                Z
 ----------------------------------------------------------------
    1      Al      0.0000000000     0.0000000000     0.0000000000
    2      H       0.0000000000     1.3700000000     0.8070000000
    3      H       0.0000000000    -1.3700000000     0.8070000000
 ----------------------------------------------------------------
 Nuclear Repulsion Energy =           8.84621096 hartrees
 There are        8 alpha and        7 beta electrons
 Requested basis set is aug-cc-pCVTZ
 There are 41 shells and 121 basis functions

 Total QAlloc Memory Limit 128000 MB
 Mega-Array Size      1467 MB
 MEM_STATIC part      1500 MB

                       Distance Matrix (Angstroms)
             Al(  1)   H (  2)
   H (  2)  1.590015
   H (  3)  1.590015  2.740000

 Applying Cartesian multipole field
    Component          Value
    ---------          -----
     (0,0,2)       -1.00000E-04
 Nucleus-field energy     =    -0.0004651305 hartrees
 A cutoff of  1.0D-14 yielded    861 shell pairs
 There are      7573 function pairs (     10039 Cartesian)
 Smallest overlap matrix eigenvalue = 5.42E-04
 Guess MOs from SCF MO coefficient file

 -----------------------------------------------------------------------
  General SCF calculation program by
  Eric Jon Sundstrom, Paul Horn, Yuezhi Mao, Dmitri Zuev, Alec White,
  David Stuck, Shaama M.S., Shane Yost, Joonho Lee, David Small,
  Daniel Levine, Susi Lehtola, Hugh Burton, Evgeny Epifanovsky,
  Bang C. Huynh
 -----------------------------------------------------------------------
 Exchange:     0.5000 Hartree-Fock + 1.0000 PWPB95-D3
 Correlation:  0.7310 PWPB95-D3
 Using Euler-Maclaurin-Lebedev (99,590) quadrature formula
 Dispersion:   Grimme D3
 Orthonormalizing orbitals
 using 16 threads for integral computing
 -------------------------------------------------------
 OpenMP Integral computing Module                
 Release: version 2.0, May 2017, Q-Chem Inc. Pleasanton 
 -------------------------------------------------------
 A restricted open-shell SCF calculation will be
 performed using GDM
 SCF converges when RMS gradient is below 1.0e-08
 ---------------------------------------
  Cycle       Energy        RMS Gradient
 ---------------------------------------
    1    -243.4711102452      2.73e-03   Normal BFGS step
    2    -243.4711180177      1.69e-03   Normal BFGS step
    3    -243.4711193063      2.61e-04   Normal BFGS step
    4    -243.4711193556      1.04e-04   Normal BFGS step
    5    -243.4711193617      9.50e-06   Normal BFGS step
    6    -243.4711193618      2.98e-06   Normal BFGS step
    7    -243.4711193618      3.69e-07   Normal BFGS step
    8    -243.4711193618      1.49e-07   Normal BFGS step
    9    -243.4711193618      2.93e-08   Normal BFGS step
   10    -243.4711193618      9.63e-09  Convergence criterion met
The disked orbital energies are calculated using alpha and beta Focks
 ---------------------------------------
 SCF time:   CPU 253.91s  wall 18.00s 
<S^2> =          0.750000000
 SCF   energy in the final basis set =     -243.4711193618
 Total energy in the final basis set =     -243.4711193618

 Components of the MP2 correlation energy:
        aaaa  correlation energy =         0.0000000000 au
        abab  correlation energy =        -0.0885581419 au
        bbbb  correlation energy =         0.0000000000 au
        non-Brillouin singles    =        -0.0003670239 au

 Total  MP2   correlation energy =                    -0.08892517 au
        MP2         total energy =                  -243.56004453 au

 --------------------------------------------------------------

                    Orbital Energies (a.u.)
 --------------------------------------------------------------

 Alpha MOs
 -- Occupied --
-56.9638  -4.4250  -2.8922  -2.8913  -2.8861  -0.4647  -0.3573  -0.2323
 -- Virtual --
 -0.0463   0.0207   0.0237   0.0300   0.0384   0.0581   0.0593   0.0729
  0.0739   0.0749   0.0787   0.0881   0.1574   0.1658   0.1801   0.2222
  0.2286   0.2303   0.2269   0.2496   0.2536   0.2763   0.2881   0.2880
  0.2888   0.2931   0.2944   0.3059   0.3920   0.3936   0.4134   0.4155
  0.4263   0.4364   0.5092   0.5674   0.6149   0.6566   0.7805   0.7854
  0.7988   0.8075   0.8069   0.8304   0.8355   0.8438   0.8839   0.8875
  0.8916   0.9351   0.9503   1.0201   1.0224   1.0507   1.0576   1.1030
  1.1395   1.1374   1.1435   1.1617   1.2601   1.3874   1.4532   1.5046
  1.5943   1.7026   1.7683   2.0144   2.2093   2.3051   2.9612   3.0102
  3.7445   3.7776   3.7835   3.7932   3.7954   3.8220   3.8652   3.8812
  3.9941   4.0439   4.0854   4.1085   4.1422   4.2046   4.6293   4.7010
  4.9032   4.9113   5.0001   5.2093   5.2798   7.1580   9.0409   9.2488
  9.4502  18.5714  18.5721  18.5769  18.5778  18.5815  18.5850  18.5979
 22.2522  22.2571  22.2988  22.4188  22.4327  34.6532  34.8397  35.0508
 43.7034

 Beta MOs
 -- Occupied --
-56.9605  -4.4198  -2.8895  -2.8813  -2.8836  -0.4423  -0.3426
 -- Virtual --
 -0.0376  -0.0268   0.0287   0.0271   0.0363   0.0454   0.0655   0.0746
  0.0769   0.0870   0.0876   0.0821   0.0964   0.1658   0.1900   0.1836
  0.2292   0.2355   0.2323   0.2471   0.2797   0.2795   0.2795   0.2904
  0.2949   0.2975   0.3038   0.3034   0.3191   0.3980   0.3982   0.4227
  0.4294   0.4301   0.4416   0.5191   0.5713   0.6252   0.6640   0.8077
  0.8124   0.8089   0.8225   0.8267   0.8384   0.8444   0.8673   0.9003
  0.9115   0.9131   0.9413   0.9585   1.0329   1.0334   1.0638   1.0710
  1.1149   1.1488   1.1606   1.1525   1.1740   1.2868   1.4003   1.4625
  1.5142   1.6153   1.7146   1.7791   2.0300   2.2305   2.3184   2.9707
  3.0197   3.7504   3.7831   3.7885   3.7994   3.8012   3.8286   3.8700
  3.8874   3.9992   4.0492   4.0927   4.1165   4.1502   4.2139   4.6385
  4.7092   4.9090   4.9173   5.0038   5.2162   5.2886   7.1744   9.0481
  9.2622   9.4565  18.5727  18.5736  18.5782  18.5787  18.5825  18.5864
 18.5995  22.2578  22.2631  22.3011  22.4220  22.4384  34.6564  34.8476
 35.0538  43.7109
 --------------------------------------------------------------

          Ground-State Mulliken Net Atomic Charges

     Atom                 Charge (a.u.)
  ----------------------------------------
      1 Al                    0.202625
      2 H                    -0.101312
      3 H                    -0.101312
  ----------------------------------------
  Sum of atomic charges =     0.000000

 -----------------------------------------------------------------
                    Cartesian Multipole Moments
 -----------------------------------------------------------------
    Charge (ESU x 10^10)
                 0.0000
    Dipole Moment (Debye)
         X       0.0000      Y       0.0000      Z      -0.4478
       Tot       0.4478
    Quadrupole Moments (Debye-Ang)
        XX     -11.9079     XY      -0.0000     YY     -18.0413
        XZ      -0.0000     YZ      -0.0000     ZZ     -17.1603
    Octopole Moments (Debye-Ang^2)
       XXX       0.0000    XXY       0.0000    XYY       0.0000
       YYY       0.0000    XXZ      -0.8668    XYZ      -0.0000
       YYZ      -4.4009    XZZ       0.0000    YZZ       0.0000
       ZZZ      -3.0280
    Hexadecapole Moments (Debye-Ang^3)
      XXXX     -18.9598   XXXY      -0.0000   XXYY     -13.7076
      XYYY      -0.0000   YYYY     -65.4441   XXXZ      -0.0000
      XXYZ      -0.0000   XYYZ       0.0000   YYYZ       0.0000
      XXZZ     -11.5043   XYZZ      -0.0000   YYZZ     -19.8350
      XZZZ      -0.0000   YZZZ      -0.0000   ZZZZ     -50.1660
 -----------------------------------------------------------------
Archival summary:
1\1\n0035.mhg0\SP\ROProcedureUnspecified\BasisUnspecified\l12(2)\yhljason\MonNov1603:45:122020MonNov1603:45:122020\0\\#,ROProcedureUnspecified,BasisUnspecified,\\0,2\Al\H,1,1.59002\H,1,1.59002,2,118.999\\\@

 Total job time:  37.49s(wall), 499.99s(cpu) 
 Mon Nov 16 03:45:12 2020

        *************************************************************
        *                                                           *
        *  Thank you very much for using Q-Chem.  Have a nice day.  *
        *                                                           *
        *************************************************************


