Q-Chem Developer Version!
                  Welcome to Q-Chem
     A Quantum Leap Into The Future Of Chemistry


 Q-Chem 5.1, Q-Chem, Inc., Pleasanton, CA (2018)

 Yihan Shao,  Zhengting Gan,  E. Epifanovsky,  A. T. B. Gilbert,  M. Wormit,  
 J. Kussmann,  A. W. Lange,  A. Behn,  Jia Deng,  Xintian Feng,  D. Ghosh,  
 M. Goldey,  P. R. Horn,  L. D. Jacobson,  I. Kaliman,  T. Kus,  A. Landau,  
 Jie Liu,  E. I. Proynov,  R. M. Richard,  R. P. Steele,  E. J. Sundstrom,  
 H. L. Woodcock III,  P. M. Zimmerman,  D. Zuev,  B. Albrecht,  E. Alguire,  
 S. A. Baeppler,  D. Barton,  Z. Benda,  Y. A. Bernard,  E. J. Berquist,  
 K. B. Bravaya,  H. Burton,  D. Casanova,  Chun-Min Chang,  Yunqing Chen,  
 A. Chien,  K. D. Closser,  M. P. Coons,  S. Coriani,  S. Dasgupta,  
 A. L. Dempwolff,  M. Diedenhofen,  Hainam Do,  R. G. Edgar,  Po-Tung Fang,  
 S. Faraji,  S. Fatehi,  Qingguo Feng,  K. D. Fenk,  J. Fosso-Tande,  
 Qinghui Ge,  A. Ghysels,  G. Gidofalvi,  J. Gomes,  J. Gonthier,  A. Gunina,  
 D. Hait,  M. W. D. Hanson-Heine,  P. H. P. Harbach,  A. W. Hauser,  
 J. E. Herr,  E. G. Hohenstein,  Z. C. Holden,  Kerwin Hui,  B. C. Huynh,  
 T.-C. Jagau,  Hyunjun Ji,  B. Kaduk,  K. Khistyaev,  Jaehoon Kim,  
 P. Klunzinger,  K. Koh,  D. Kosenkov,  L. Koulias,  T. Kowalczyk,  
 C. M. Krauter,  A. Kunitsa,  Ka Un Lao,  A. Laurent,  K. V. Lawler,  
 Joonho Lee,  D. Lefrancois,  S. Lehtola,  D. S. Levine,  Yi-Pei Li,  
 You-Sheng Lin,  Fenglai Liu,  E. Livshits,  A. Luenser,  P. Manohar,  
 E. Mansoor,  S. F. Manzer,  Shan-Ping Mao,  Yuezhi Mao,  N. Mardirossian,  
 A. V. Marenich,  T. Markovich,  L. A. Martinez-Martinez,  S. A. Maurer,  
 N. J. Mayhall,  S. C. McKenzie,  J.-M. Mewes,  A. F. Morrison,  
 J. W. Mullinax,  K. Nanda,  T. S. Nguyen-Beck,  R. Olivares-Amaya,  
 J. A. Parkhill,  T. M. Perrine,  F. Plasser,  P. Pokhilko,  S. Prager,  
 A. Prociuk,  E. Ramos,  D. R. Rehn,  F. Rob,  M. Schneider,  N. Sergueev,  
 S. M. Sharada,  S. Sharma,  D. W. Small,  T. Stauch,  T. Stein,  
 Yu-Chuan Su,  A. J. W. Thom,  A. Tkatchenko,  T. Tsuchimochi,  N. M. Tubman,  
 L. Vogt,  M. L. Vidal,  O. Vydrov,  M. A. Watson,  J. Wenzel,  
 M. de Wergifosse,  T. A. Wesolowski,  A. White,  J. Witte,  A. Yamada,  
 Jun Yang,  K. Yao,  S. Yeganeh,  S. R. Yost,  Zhi-Qiang You,  A. Zech,  
 Igor Ying Zhang,  Xing Zhang,  Yan Zhao,  Ying Zhu,  B. R. Brooks,  
 G. K. L. Chan,  C. J. Cramer,  M. S. Gordon,  W. J. Hehre,  A. Klamt,  
 M. W. Schmidt,  C. D. Sherrill,  D. G. Truhlar,  A. Aspuru-Guzik,  R. Baer,  
 A. T. Bell,  N. A. Besley,  Jeng-Da Chai,  A. E. DePrince, III,  
 R. A. DiStasio Jr.,  A. Dreuw,  B. D. Dunietz,  T. R. Furlani,  
 Chao-Ping Hsu,  Yousung Jung,  Jing Kong,  D. S. Lambrecht,  WanZhen Liang,  
 C. Ochsenfeld,  V. A. Rassolov,  L. V. Slipchenko,  J. E. Subotnik,  
 T. Van Voorhis,  J. M. Herbert,  A. I. Krylov,  P. M. W. Gill,  M. Head-Gordon

 Contributors to earlier versions of Q-Chem not listed above: 
 R. D. Adamson,  B. Austin,  J. Baker,  G. J. O. Beran,  K. Brandhorst,  
 S. T. Brown,  E. F. C. Byrd,  A. K. Chakraborty,  C.-L. Cheng,  
 Siu Hung Chien,  D. M. Chipman,  D. L. Crittenden,  H. Dachsel,  
 R. J. Doerksen,  A. D. Dutoi,  L. Fusti-Molnar,  W. A. Goddard III,  
 A. Golubeva-Zadorozhnaya,  S. R. Gwaltney,  G. Hawkins,  A. Heyden,  
 S. Hirata,  G. Kedziora,  F. J. Keil,  C. Kelley,  Jihan Kim,  R. A. King,  
 R. Z. Khaliullin,  P. P. Korambath,  W. Kurlancheek,  A. M. Lee,  M. S. Lee,  
 S. V. Levchenko,  Ching Yeh Lin,  D. Liotard,  R. C. Lochan,  I. Lotan,  
 P. E. Maslen,  N. Nair,  D. P. O'Neill,  D. Neuhauser,  E. Neuscamman,  
 C. M. Oana,  R. Olson,  B. Peters,  R. Peverati,  P. A. Pieniazek,  
 Y. M. Rhee,  J. Ritchie,  M. A. Rohrdanz,  E. Rosta,  N. J. Russ,  
 H. F. Schaefer III,  N. E. Schultz,  N. Shenvi,  A. C. Simmonett,  A. Sodt,  
 D. Stuck,  K. S. Thanthiriwatte,  V. Vanovschi,  Tao Wang,  A. Warshel,  
 C. F. Williams,  Q. Wu,  X. Xu,  W. Zhang

 Please cite Q-Chem as follows:
 Y. Shao et al., Mol. Phys. 113, 184-215 (2015)
 DOI: 10.1080/00268976.2014.952696

 Q-Chem 5.1.1 for Intel X86 EM64T Linux

 Parts of Q-Chem use Armadillo 8.300.2 (Tropical Shenanigans).
 http://arma.sourceforge.net/

 Q-Chem begins on Wed Nov 11 14:04:03 2020  

Host: n0078.mhg0
0

     Scratch files written to /local/scratch/users/yhljason/BH2Cl_PTPSS-D3_aug-cc-pcVQZ.inp20201111140400//
Input Ideriv = 0
Curr. Ideriv = -1
Max.  Ideriv = 0
Analytic post-HF gradients are not available with non-HF exchange
Input Ideriv = 0
Curr. Ideriv = 0
Max.  Ideriv = 0

Checking the input file for inconsistencies... 	...done.

--------------------------------------------------------------
User input:
--------------------------------------------------------------
$molecule
0 1
B        0.0000000000      0.0000000000      0.0000000000
Cl       0.0000000000      0.0000000000      1.7353000000
H        0.0000000000      1.0532000000     -0.5574000000
H        0.0000000000     -1.0532000000     -0.5574000000
$end

$rem
jobtype sp
exchange PTPSS-D3
xc_grid 000099000590
basis aug-cc-pcVQZ

max_scf_cycles 200
thresh 14
scf_convergence 8
scf_algorithm gdm
symmetry false
sym_ignore true
unrestricted false
gen_scfman true
internal_stability_iter 15
internal_stability_davidson_iter 200
mem_total 128000
cc_memory 96000
cc_backend xm
mem_static 1500
n_frozen_core 0
$end



--------------------------------------------------------------
 Adding empirical dispersion correction 
 ----------------------------------------------------------------
 Doing -D3(0) with
 s6  =   0.75000
 s8  =   0.87900
 rs6 =   1.54100
 rs8 =   1.00000
 -D3 energy without 3body term =     -0.0005066876 hartrees
 ----------------------------------------------------------------
             Standard Nuclear Orientation (Angstroms)
    I     Atom           X                Y                Z
 ----------------------------------------------------------------
    1      B       0.0000000000     0.0000000000     0.0000000000
    2      Cl      0.0000000000     0.0000000000     1.7353000000
    3      H       0.0000000000     1.0532000000    -0.5574000000
    4      H       0.0000000000    -1.0532000000    -0.5574000000
 ----------------------------------------------------------------
 Nuclear Repulsion Energy =    37.7433222074 hartrees
 There are       12 alpha and       12 beta electrons
 Requested basis set is aug-cc-pCVQZ
 There are 91 shells and 335 basis functions

 Total QAlloc Memory Limit 128000 MB
 Mega-Array Size      1467 MB
 MEM_STATIC part      1500 MB

                       Distance Matrix (Angstroms)
             B (  1)   Cl(  2)   H (  3)
   Cl(  2)  1.735300
   H (  3)  1.191606  2.523035
   H (  4)  1.191606  2.523035  2.106400
 
 A cutoff of  1.0D-14 yielded   4038 shell pairs
 There are     55162 function pairs (     88401 Cartesian)
 
 -------------------------------------------------------
 OpenMP Integral Computing Module                       
 Release: version 1.0, May 2013, Q-Chem Inc. Pittsburgh 
 -------------------------------------------------------
 Integral Job Info:
 Integral job number is                      11
 Integral operator is                         1
 short-range coefficients                     0
 long-range coefficients              100000000
 Omega coefficients                           0
 if combine SR and LR in K                    0
 Integral screening is                        0
 Integral computing path is                   2
 max size of driver memory is           3200000
 size of driver memory is               1704330
 size of scratch memory is             29435624
 max col of scratch BK array              50625
 max len of scratch array in speh3         2114
 max len of scratch index in speh4           50
 max int batch size is                      520
 min int batch size is                       52
 fixed nKL is                                22
 max L of basis functions is                  4
 order of int derivative is                   0
 number of shells is                         91
 number of basis is                         423
 number of cartesian basis is               423
 number of contracted shell pairs          4038
 number of primitive shell pairs          11450
 maxK2 (contraction) of shell pair          169
 max number of K2 of shell pair               1
 max number of CS2 of shell pair            488
 max number of PS2 of shell pair           1014
 mem total for path MDJ                  781840
 -------------------------------------------------------
 Smallest overlap matrix eigenvalue = 2.45E-05

 Scale SEOQF with 1.000000e-01/1.000000e-01/1.000000e-01

 Standard Electronic Orientation quadrupole field applied
 Nucleus-field energy     =    -0.0000000054 hartrees
 Guess from superposition of atomic densities
 Warning:  Energy on first SCF cycle will be non-variational
 SAD guess density has 24.000000 electrons

 -----------------------------------------------------------------------
  General SCF calculation program by
  Eric Jon Sundstrom, Paul Horn, Yuezhi Mao, Dmitri Zuev, Alec White,
  David Stuck, Shaama M.S., Shane Yost, Joonho Lee, David Small,
  Daniel Levine, Susi Lehtola, Hugh Burton, Evgeny Epifanovsky
 -----------------------------------------------------------------------
 Exchange:     0.5000 Hartree-Fock + 0.5000 PTPSS-D3
 Correlation:  0.6250 PTPSS-D3
 Using Euler-Maclaurin-Lebedev (99,590) quadrature formula
 Dispersion:   Grimme D3
Running Object-Oriented RKS (RHF)
We will preform up to 15 macro iterations over saddle points until a stable solution is found
Energy prior to optimization (guess energy) = -485.999691723560
Begin Timing: Total SCF Calculation
Begin Timing: SCF Single Stationary Point Calculation
begin iterations for algorithm: GDM          
the SCF tolerance is set to 1.00e-08
    1    -485.9996917236      1.99e-02     00000  Normal BFGS step
    2    -486.0045006006      1.81e-02     00000  Normal BFGS step
    3    -486.0054125705      3.58e-03     00000  Normal BFGS step
    4    -486.0054997706      4.63e-04     00000  Normal BFGS step
    5    -486.0055025712      2.22e-04     00000  Normal BFGS step
    6    -486.0055032238      2.56e-05     00000  Normal BFGS step
    7    -486.0055032304      7.80e-06     00000  Normal BFGS step
    8    -486.0055032308      1.16e-06     00000  Normal BFGS step
    9    -486.0055032308      2.40e-07     00000  Normal BFGS step
   10    -486.0055032308      1.56e-08     00000  Normal BFGS step
   11    -486.0055032308      3.42e-09     00000 Convergence criterion met
Timing for Single Stationary Point: 705.00s (wall), 5585.73s (cpu)
Begin Timing: Stability
===================================================
Beginning Test for Internal Stability
===================================================
generating davidson guess vectors based on koopmans excitations
    1      2.32e+00     00000 Davidson Iteration
    2      6.55e-01     00000 Davidson Iteration
    3      4.78e-02     00000 Davidson Iteration
    4      1.56e-02     00000 Davidson Iteration
    5      5.36e-03     00000 Davidson Iteration
    6      2.38e-03     00000 Davidson Iteration
    7      5.43e-04     00000 Davidson Iteration
    8      1.58e-04     00000 Davidson Iteration
    9      4.07e-05     00000 Davidson Iteration
   10      1.14e-03     00000 Davidson Iteration
   11      7.03e-04     00000 Davidson Iteration
   12      6.35e-03     00000 Davidson Iteration
   13      6.19e-04     00000 Davidson Iteration
   14      1.89e-04     00000 Davidson Iteration
   15      7.67e-05     00000 Davidson Converged
converged_eigenvalues
   0.8173
   1.2106
Threshold for negative eigenvalues: -1.0e-05
solution was a local minimum (stable)
===================================================
End Test for Internal Stability
===================================================
Our SCF solution is stable!
Timing for Total SCF: 2033.00s (wall), 16131.32s (cpu)
 Total energy in the final basis set =     -486.0055032308
    ==================================================
              The end of Object-Oriented SCFman       
    ==================================================
 
 Components of the MP2 correlation energy:
        aaaa  correlation energy =         0.0000000000 au
        abab  correlation energy =        -0.2484717872 au
        bbbb  correlation energy =         0.0000000000 au
        non-Brillouin singles    =        -0.0000000000 au

 Total  MP2   correlation energy =                    -0.24847179 au
        MP2         total energy =                  -486.25397502 au
 
 --------------------------------------------------------------
 
                    Orbital Energies (a.u.)
 --------------------------------------------------------------
 
 Alpha MOs
 -- Occupied --
*******  -9.914  -7.533  -7.531  -7.530  -7.147  -0.960  -0.598
 -0.473  -0.459  -0.413  -0.360
 -- Virtual --
 -0.023   0.018   0.028   0.029   0.039   0.066   0.069   0.084
  0.100   0.101   0.104   0.106   0.110   0.144   0.158   0.168
  0.192   0.193   0.199   0.220   0.220   0.239   0.244   0.248
  0.253   0.258   0.261   0.268   0.316   0.320   0.332   0.405
  0.410   0.411   0.421   0.428   0.440   0.457   0.475   0.486
  0.487   0.506   0.509   0.519   0.525   0.525   0.538   0.604
  0.613   0.626   0.670   0.683   0.686   0.725   0.736   0.748
  0.753   0.756   0.820   0.822   0.828   0.844   0.848   0.860
  0.868   0.880   0.907   0.923   0.973   0.975   0.988   1.022
  1.038   1.049   1.077   1.081   1.097   1.112   1.187   1.217
  1.226   1.362   1.378   1.391   1.401   1.403   1.427   1.451
  1.470   1.496   1.505   1.527   1.541   1.543   1.589   1.594
  1.608   1.612   1.633   1.686   1.709   1.744   1.745   1.765
  1.778   1.782   1.802   1.816   1.869   1.872   1.926   1.932
  1.946   1.974   1.986   2.000   2.016   2.019   2.026   2.061
  2.090   2.115   2.120   2.127   2.137   2.178   2.192   2.212
  2.234   2.252   2.264   2.276   2.286   2.358   2.420   2.422
  2.488   2.513   2.617   2.618   2.686   2.780   2.788   2.851
  2.860   2.992   3.047   3.088   3.158   3.178   3.214   3.219
  3.275   3.282   3.319   3.370   3.513   3.539   3.625   3.717
  3.788   3.807   3.863   3.899   3.908   3.980   4.034   4.046
  4.053   4.056   4.108   4.163   4.181   4.205   4.235   4.248
  4.251   4.289   4.374   4.431   4.495   4.528   4.545   4.555
  4.593   4.598   4.619   4.701   4.711   4.732   4.751   4.827
  4.843   4.914   5.009   5.049   5.083   5.140   5.179   5.211
  5.338   5.361   5.506   5.523   5.644   5.811   5.905   5.995
  6.173   6.609   6.651   6.660   6.690   6.968   7.218   7.339
  7.381   7.496   7.518   7.635   7.651   7.722   7.772   7.939
  8.038   8.312   8.397   8.708   8.710   8.895   8.944   8.990
  9.075   9.080   9.265   9.271   9.289   9.498   9.581   9.745
  9.981  10.264  11.014  11.422  11.817  11.858  12.049  12.321
 12.556  12.719  14.105  14.193  17.832  18.050  18.778  19.587
 19.636  19.847  20.520  20.633  21.236  21.239  21.293  21.307
 21.314  21.367  21.463  25.354  33.770  37.323  37.346  37.492
 37.652  37.868  44.564  45.570  45.624  51.593  51.759  52.387
 64.933  64.934  64.935  64.935  64.936  64.937  64.937  64.939
 64.939  75.301  75.302  75.331  75.336  75.340  75.359  75.368
 75.399  75.422  75.422  75.428  75.430  75.459  75.461  83.553
 85.589  85.621  85.764  86.116  86.173  97.791 110.163 110.179
110.286 110.400 110.550 151.594 152.404 152.462 165.816 165.914
166.296 348.991 456.076
 --------------------------------------------------------------
 
          Ground-State Mulliken Net Atomic Charges

     Atom                 Charge (a.u.)
  ----------------------------------------
      1 B                     0.195235
      2 Cl                   -0.031515
      3 H                    -0.081860
      4 H                    -0.081860
  ----------------------------------------
  Sum of atomic charges =     0.000000

 -----------------------------------------------------------------
                    Cartesian Multipole Moments
 -----------------------------------------------------------------
    Charge (ESU x 10^10)
                 0.0000
    Dipole Moment (Debye)
         X      -0.0000      Y      -0.0000      Z      -0.7112
       Tot       0.7112
    Quadrupole Moments (Debye-Ang)
        XX     -19.0243     XY       0.0000     YY     -20.6012
        XZ      -0.0000     YZ      -0.0000     ZZ     -21.1408
    Octopole Moments (Debye-Ang^2)
       XXX      -0.0000    XXY      -0.0000    XYY       0.0000
       YYY      -0.0000    XXZ     -20.9643    XYZ       0.0000
       YYZ     -21.5374    XZZ      -0.0000    YZZ       0.0000
       ZZZ     -60.9107
    Hexadecapole Moments (Debye-Ang^3)
      XXXX     -21.6436   XXXY       0.0000   XXYY     -10.0859
      XYYY       0.0000   YYYY     -36.6310   XXXZ      -0.0000
      XXYZ      -0.0000   XYYZ      -0.0000   YYYZ      -0.0000
      XXZZ     -46.2013   XYZZ       0.0000   YYZZ     -50.1723
      XZZZ      -0.0000   YZZZ       0.0000   ZZZZ    -243.5190
 -----------------------------------------------------------------
Archival summary:
1\1\n0078.mhg0\SP\ProcedureUnspecified\BasisUnspecified\l112\yhljason\WedNov1114:51:292020WedNov1114:51:292020\0\\#,ProcedureUnspecified,BasisUnspecified,\\0,1\Cl\B,1,1.7353\H,2,1.19161,1,117.89\H,2,1.19161,1,117.89,3,-180,0\\\@

 Total job time:  2846.36s(wall), 22519.32s(cpu) 
 Wed Nov 11 14:51:29 2020

        *************************************************************
        *                                                           *
        *  Thank you very much for using Q-Chem.  Have a nice day.  *
        *                                                           *
        *************************************************************


 
User input: 2 of 7 
 
Q-Chem Developer Version!
                  Welcome to Q-Chem
     A Quantum Leap Into The Future Of Chemistry


 Q-Chem 5.1, Q-Chem, Inc., Pleasanton, CA (2018)

 Yihan Shao,  Zhengting Gan,  E. Epifanovsky,  A. T. B. Gilbert,  M. Wormit,  
 J. Kussmann,  A. W. Lange,  A. Behn,  Jia Deng,  Xintian Feng,  D. Ghosh,  
 M. Goldey,  P. R. Horn,  L. D. Jacobson,  I. Kaliman,  T. Kus,  A. Landau,  
 Jie Liu,  E. I. Proynov,  R. M. Richard,  R. P. Steele,  E. J. Sundstrom,  
 H. L. Woodcock III,  P. M. Zimmerman,  D. Zuev,  B. Albrecht,  E. Alguire,  
 S. A. Baeppler,  D. Barton,  Z. Benda,  Y. A. Bernard,  E. J. Berquist,  
 K. B. Bravaya,  H. Burton,  D. Casanova,  Chun-Min Chang,  Yunqing Chen,  
 A. Chien,  K. D. Closser,  M. P. Coons,  S. Coriani,  S. Dasgupta,  
 A. L. Dempwolff,  M. Diedenhofen,  Hainam Do,  R. G. Edgar,  Po-Tung Fang,  
 S. Faraji,  S. Fatehi,  Qingguo Feng,  K. D. Fenk,  J. Fosso-Tande,  
 Qinghui Ge,  A. Ghysels,  G. Gidofalvi,  J. Gomes,  J. Gonthier,  A. Gunina,  
 D. Hait,  M. W. D. Hanson-Heine,  P. H. P. Harbach,  A. W. Hauser,  
 J. E. Herr,  E. G. Hohenstein,  Z. C. Holden,  Kerwin Hui,  B. C. Huynh,  
 T.-C. Jagau,  Hyunjun Ji,  B. Kaduk,  K. Khistyaev,  Jaehoon Kim,  
 P. Klunzinger,  K. Koh,  D. Kosenkov,  L. Koulias,  T. Kowalczyk,  
 C. M. Krauter,  A. Kunitsa,  Ka Un Lao,  A. Laurent,  K. V. Lawler,  
 Joonho Lee,  D. Lefrancois,  S. Lehtola,  D. S. Levine,  Yi-Pei Li,  
 You-Sheng Lin,  Fenglai Liu,  E. Livshits,  A. Luenser,  P. Manohar,  
 E. Mansoor,  S. F. Manzer,  Shan-Ping Mao,  Yuezhi Mao,  N. Mardirossian,  
 A. V. Marenich,  T. Markovich,  L. A. Martinez-Martinez,  S. A. Maurer,  
 N. J. Mayhall,  S. C. McKenzie,  J.-M. Mewes,  A. F. Morrison,  
 J. W. Mullinax,  K. Nanda,  T. S. Nguyen-Beck,  R. Olivares-Amaya,  
 J. A. Parkhill,  T. M. Perrine,  F. Plasser,  P. Pokhilko,  S. Prager,  
 A. Prociuk,  E. Ramos,  D. R. Rehn,  F. Rob,  M. Schneider,  N. Sergueev,  
 S. M. Sharada,  S. Sharma,  D. W. Small,  T. Stauch,  T. Stein,  
 Yu-Chuan Su,  A. J. W. Thom,  A. Tkatchenko,  T. Tsuchimochi,  N. M. Tubman,  
 L. Vogt,  M. L. Vidal,  O. Vydrov,  M. A. Watson,  J. Wenzel,  
 M. de Wergifosse,  T. A. Wesolowski,  A. White,  J. Witte,  A. Yamada,  
 Jun Yang,  K. Yao,  S. Yeganeh,  S. R. Yost,  Zhi-Qiang You,  A. Zech,  
 Igor Ying Zhang,  Xing Zhang,  Yan Zhao,  Ying Zhu,  B. R. Brooks,  
 G. K. L. Chan,  C. J. Cramer,  M. S. Gordon,  W. J. Hehre,  A. Klamt,  
 M. W. Schmidt,  C. D. Sherrill,  D. G. Truhlar,  A. Aspuru-Guzik,  R. Baer,  
 A. T. Bell,  N. A. Besley,  Jeng-Da Chai,  A. E. DePrince, III,  
 R. A. DiStasio Jr.,  A. Dreuw,  B. D. Dunietz,  T. R. Furlani,  
 Chao-Ping Hsu,  Yousung Jung,  Jing Kong,  D. S. Lambrecht,  WanZhen Liang,  
 C. Ochsenfeld,  V. A. Rassolov,  L. V. Slipchenko,  J. E. Subotnik,  
 T. Van Voorhis,  J. M. Herbert,  A. I. Krylov,  P. M. W. Gill,  M. Head-Gordon

 Contributors to earlier versions of Q-Chem not listed above: 
 R. D. Adamson,  B. Austin,  J. Baker,  G. J. O. Beran,  K. Brandhorst,  
 S. T. Brown,  E. F. C. Byrd,  A. K. Chakraborty,  C.-L. Cheng,  
 Siu Hung Chien,  D. M. Chipman,  D. L. Crittenden,  H. Dachsel,  
 R. J. Doerksen,  A. D. Dutoi,  L. Fusti-Molnar,  W. A. Goddard III,  
 A. Golubeva-Zadorozhnaya,  S. R. Gwaltney,  G. Hawkins,  A. Heyden,  
 S. Hirata,  G. Kedziora,  F. J. Keil,  C. Kelley,  Jihan Kim,  R. A. King,  
 R. Z. Khaliullin,  P. P. Korambath,  W. Kurlancheek,  A. M. Lee,  M. S. Lee,  
 S. V. Levchenko,  Ching Yeh Lin,  D. Liotard,  R. C. Lochan,  I. Lotan,  
 P. E. Maslen,  N. Nair,  D. P. O'Neill,  D. Neuhauser,  E. Neuscamman,  
 C. M. Oana,  R. Olson,  B. Peters,  R. Peverati,  P. A. Pieniazek,  
 Y. M. Rhee,  J. Ritchie,  M. A. Rohrdanz,  E. Rosta,  N. J. Russ,  
 H. F. Schaefer III,  N. E. Schultz,  N. Shenvi,  A. C. Simmonett,  A. Sodt,  
 D. Stuck,  K. S. Thanthiriwatte,  V. Vanovschi,  Tao Wang,  A. Warshel,  
 C. F. Williams,  Q. Wu,  X. Xu,  W. Zhang

 Please cite Q-Chem as follows:
 Y. Shao et al., Mol. Phys. 113, 184-215 (2015)
 DOI: 10.1080/00268976.2014.952696

 Q-Chem 5.1.1 for Intel X86 EM64T Linux

 Parts of Q-Chem use Armadillo 8.300.2 (Tropical Shenanigans).
 http://arma.sourceforge.net/

 Q-Chem begins on Wed Nov 11 14:51:30 2020  

Host: n0078.mhg0
0

     Scratch files written to /local/scratch/users/yhljason/BH2Cl_PTPSS-D3_aug-cc-pcVQZ.inp20201111140400//
The previous job contains 0 fragments, simply inherited here
Input Ideriv = 0
Curr. Ideriv = -1
Max.  Ideriv = 0
Analytic post-HF gradients are not available with non-HF exchange
Input Ideriv = 0
Curr. Ideriv = 0
Max.  Ideriv = 0

Checking the input file for inconsistencies... 	...done.

--------------------------------------------------------------
User input:
--------------------------------------------------------------
$molecule
read
$end

$rem
jobtype sp
exchange PTPSS-D3
xc_grid 000099000590
basis aug-cc-pcVQZ

max_scf_cycles 200
thresh 14
scf_convergence 8
mem_total 128000
cc_memory 96000
cc_backend xm
mem_static 1500
symmetry false
sym_ignore true
scf_guess read
unrestricted false
scf_algorithm gdm
n_frozen_core 0
$end



$multipole_field
XX 0.0001
$end


--------------------------------------------------------------
 Adding empirical dispersion correction 
 ----------------------------------------------------------------
 Doing -D3(0) with
 s6  =   0.75000
 s8  =   0.87900
 rs6 =   1.54100
 rs8 =   1.00000
 -D3 energy without 3body term =     -0.0005066876 hartrees
 ----------------------------------------------------------------
             Standard Nuclear Orientation (Angstroms)
    I     Atom           X                Y                Z
 ----------------------------------------------------------------
    1      B       0.0000000000     0.0000000000     0.0000000000
    2      Cl      0.0000000000     0.0000000000     1.7353000000
    3      H       0.0000000000     1.0532000000    -0.5574000000
    4      H       0.0000000000    -1.0532000000    -0.5574000000
 ----------------------------------------------------------------
 Nuclear Repulsion Energy =    37.7433222074 hartrees
 There are       12 alpha and       12 beta electrons
 Requested basis set is aug-cc-pCVQZ
 There are 91 shells and 335 basis functions

 Total QAlloc Memory Limit 128000 MB
 Mega-Array Size      1467 MB
 MEM_STATIC part      1500 MB

                       Distance Matrix (Angstroms)
             B (  1)   Cl(  2)   H (  3)
   Cl(  2)  1.735300
   H (  3)  1.191606  2.523035
   H (  4)  1.191606  2.523035  2.106400
 
 Applying Cartesian multipole field
    Component          Value
    ---------          -----
     (2,0,0)        1.00000E-04
 A cutoff of  1.0D-14 yielded   4038 shell pairs
 There are     55162 function pairs (     88401 Cartesian)
 
 -------------------------------------------------------
 OpenMP Integral Computing Module                       
 Release: version 1.0, May 2013, Q-Chem Inc. Pittsburgh 
 -------------------------------------------------------
 Integral Job Info:
 Integral job number is                      11
 Integral operator is                         1
 short-range coefficients                     0
 long-range coefficients              100000000
 Omega coefficients                           0
 if combine SR and LR in K                    0
 Integral screening is                        0
 Integral computing path is                   2
 max size of driver memory is           3200000
 size of driver memory is               1704330
 size of scratch memory is             29435624
 max col of scratch BK array              50625
 max len of scratch array in speh3         2114
 max len of scratch index in speh4           50
 max int batch size is                      520
 min int batch size is                       52
 fixed nKL is                                22
 max L of basis functions is                  4
 order of int derivative is                   0
 number of shells is                         91
 number of basis is                         423
 number of cartesian basis is               423
 number of contracted shell pairs          4038
 number of primitive shell pairs          11450
 maxK2 (contraction) of shell pair          169
 max number of K2 of shell pair               1
 max number of CS2 of shell pair            488
 max number of PS2 of shell pair           1014
 mem total for path MDJ                  781840
 -------------------------------------------------------
 Smallest overlap matrix eigenvalue = 2.45E-05
 Guess MOs from SCF MO coefficient file

 -----------------------------------------------------------------------
  General SCF calculation program by
  Eric Jon Sundstrom, Paul Horn, Yuezhi Mao, Dmitri Zuev, Alec White,
  David Stuck, Shaama M.S., Shane Yost, Joonho Lee, David Small,
  Daniel Levine, Susi Lehtola, Hugh Burton, Evgeny Epifanovsky
 -----------------------------------------------------------------------
 Exchange:     0.5000 Hartree-Fock + 0.5000 PTPSS-D3
 Correlation:  0.6250 PTPSS-D3
 Using Euler-Maclaurin-Lebedev (99,590) quadrature formula
 Dispersion:   Grimme D3
 using 8 threads for integral computing
 -------------------------------------------------------
 OpenMP Integral computing Module                
 Release: version 2.0, May 2017, Q-Chem Inc. Pleasanton 
 -------------------------------------------------------
 -------------------------------------------------------
 OpenMP BLAS3 based DFT computing Module                
 Release: version 1.0, May 2013, Q-Chem Inc. Pittsburgh 
 -------------------------------------------------------
 A restricted SCF calculation will be
 performed using GDM
 SCF converges when RMS gradient is below 1.0e-08
 ---------------------------------------
  Cycle       Energy        RMS Gradient
 ---------------------------------------
    1    -486.0069176437      2.67e-04   Normal BFGS step
    2    -486.0069181021      6.21e-05   Normal BFGS step
    3    -486.0069181315      2.74e-05   Normal BFGS step
    4    -486.0069181358      4.59e-06   Normal BFGS step
    5    -486.0069181359      3.04e-06   Normal BFGS step
    6    -486.0069181359      2.52e-07   Normal BFGS step
    7    -486.0069181359      7.61e-08   Normal BFGS step
    8    -486.0069181359      3.02e-08   Normal BFGS step
    9    -486.0069181359      5.97e-09  Convergence criterion met
 ---------------------------------------
 SCF time:   CPU 4920.09s  wall 621.00s 
 SCF   energy in the final basis set =     -486.0069181359
 Total energy in the final basis set =     -486.0069181359
 
 Components of the MP2 correlation energy:
        aaaa  correlation energy =         0.0000000000 au
        abab  correlation energy =        -0.2484716590 au
        bbbb  correlation energy =         0.0000000000 au
        non-Brillouin singles    =        -0.0000000000 au

 Total  MP2   correlation energy =                    -0.24847166 au
        MP2         total energy =                  -486.25538979 au
 
 --------------------------------------------------------------
 
                    Orbital Energies (a.u.)
 --------------------------------------------------------------
 
 Alpha MOs
 -- Occupied --
*******  -9.914  -7.534  -7.532  -7.530  -7.147  -0.960  -0.598
 -0.473  -0.459  -0.413  -0.360
 -- Virtual --
 -0.024   0.016   0.027   0.027   0.034   0.064   0.067   0.083
  0.097   0.099   0.102   0.104   0.108   0.142   0.157   0.167
  0.191   0.192   0.198   0.218   0.219   0.238   0.243   0.247
  0.251   0.257   0.260   0.266   0.315   0.319   0.332   0.405
  0.409   0.409   0.420   0.427   0.439   0.456   0.475   0.485
  0.485   0.505   0.508   0.518   0.524   0.524   0.537   0.603
  0.612   0.625   0.669   0.682   0.685   0.725   0.736   0.747
  0.752   0.756   0.819   0.822   0.828   0.843   0.847   0.859
  0.868   0.879   0.906   0.923   0.972   0.974   0.988   1.021
  1.038   1.049   1.076   1.080   1.097   1.112   1.186   1.216
  1.226   1.362   1.378   1.390   1.401   1.402   1.427   1.450
  1.469   1.496   1.505   1.526   1.541   1.543   1.589   1.594
  1.608   1.612   1.632   1.686   1.709   1.743   1.745   1.764
  1.777   1.782   1.801   1.816   1.869   1.872   1.926   1.931
  1.946   1.973   1.986   1.999   2.015   2.019   2.026   2.061
  2.090   2.114   2.120   2.127   2.137   2.177   2.192   2.211
  2.234   2.252   2.263   2.276   2.285   2.358   2.420   2.421
  2.488   2.512   2.616   2.618   2.685   2.780   2.787   2.850
  2.859   2.992   3.046   3.088   3.158   3.178   3.214   3.218
  3.274   3.282   3.318   3.370   3.513   3.539   3.625   3.717
  3.788   3.807   3.863   3.898   3.908   3.980   4.033   4.046
  4.053   4.056   4.108   4.163   4.181   4.205   4.235   4.248
  4.251   4.288   4.374   4.431   4.495   4.527   4.545   4.555
  4.592   4.598   4.618   4.700   4.711   4.732   4.751   4.826
  4.843   4.914   5.008   5.049   5.082   5.139   5.179   5.210
  5.338   5.361   5.505   5.523   5.644   5.811   5.905   5.994
  6.173   6.609   6.651   6.660   6.690   6.968   7.217   7.339
  7.381   7.496   7.518   7.635   7.651   7.721   7.772   7.939
  8.038   8.311   8.397   8.708   8.710   8.895   8.944   8.990
  9.075   9.080   9.265   9.271   9.289   9.498   9.581   9.745
  9.981  10.263  11.014  11.422  11.817  11.857  12.049  12.320
 12.556  12.719  14.105  14.193  17.831  18.050  18.778  19.586
 19.636  19.847  20.520  20.633  21.236  21.239  21.292  21.306
 21.313  21.367  21.463  25.354  33.770  37.323  37.346  37.492
 37.652  37.868  44.563  45.570  45.624  51.592  51.759  52.387
 64.933  64.934  64.934  64.935  64.936  64.937  64.937  64.938
 64.938  75.300  75.302  75.330  75.336  75.339  75.359  75.368
 75.399  75.422  75.422  75.428  75.430  75.459  75.461  83.553
 85.588  85.621  85.763  86.116  86.173  97.791 110.162 110.179
110.285 110.400 110.550 151.593 152.404 152.462 165.816 165.914
166.296 348.991 456.075
 --------------------------------------------------------------
 
          Ground-State Mulliken Net Atomic Charges

     Atom                 Charge (a.u.)
  ----------------------------------------
      1 B                     0.192257
      2 Cl                   -0.031699
      3 H                    -0.080279
      4 H                    -0.080279
  ----------------------------------------
  Sum of atomic charges =     0.000000

 -----------------------------------------------------------------
                    Cartesian Multipole Moments
 -----------------------------------------------------------------
    Charge (ESU x 10^10)
                 0.0000
    Dipole Moment (Debye)
         X      -0.0000      Y       0.0000      Z      -0.7113
       Tot       0.7113
    Quadrupole Moments (Debye-Ang)
        XX     -19.0376     XY       0.0000     YY     -20.6029
        XZ       0.0000     YZ      -0.0000     ZZ     -21.1416
    Octopole Moments (Debye-Ang^2)
       XXX      -0.0000    XXY       0.0000    XYY      -0.0000
       YYY       0.0000    XXZ     -20.9774    XYZ       0.0000
       YYZ     -21.5400    XZZ      -0.0000    YZZ       0.0000
       ZZZ     -60.9136
    Hexadecapole Moments (Debye-Ang^3)
      XXXX     -21.6981   XXXY       0.0000   XXYY     -10.0986
      XYYY       0.0000   YYYY     -36.6415   XXXZ       0.0000
      XXYZ      -0.0000   XYYZ       0.0000   YYYZ      -0.0000
      XXZZ     -46.2353   XYZZ       0.0000   YYZZ     -50.1791
      XZZZ       0.0000   YZZZ      -0.0000   ZZZZ    -243.5372
 -----------------------------------------------------------------
Archival summary:
1\1\n0078.mhg0\SP\ProcedureUnspecified\BasisUnspecified\l112\yhljason\WedNov1115:14:032020WedNov1115:14:032020\0\\#,ProcedureUnspecified,BasisUnspecified,\\0,1\Cl\B,1,1.7353\H,2,1.19161,1,117.89\H,2,1.19161,1,117.89,3,-180,0\\\@

 Total job time:  1353.24s(wall), 10700.07s(cpu) 
 Wed Nov 11 15:14:03 2020

        *************************************************************
        *                                                           *
        *  Thank you very much for using Q-Chem.  Have a nice day.  *
        *                                                           *
        *************************************************************


 
User input: 3 of 7 
 
Q-Chem Developer Version!
                  Welcome to Q-Chem
     A Quantum Leap Into The Future Of Chemistry


 Q-Chem 5.1, Q-Chem, Inc., Pleasanton, CA (2018)

 Yihan Shao,  Zhengting Gan,  E. Epifanovsky,  A. T. B. Gilbert,  M. Wormit,  
 J. Kussmann,  A. W. Lange,  A. Behn,  Jia Deng,  Xintian Feng,  D. Ghosh,  
 M. Goldey,  P. R. Horn,  L. D. Jacobson,  I. Kaliman,  T. Kus,  A. Landau,  
 Jie Liu,  E. I. Proynov,  R. M. Richard,  R. P. Steele,  E. J. Sundstrom,  
 H. L. Woodcock III,  P. M. Zimmerman,  D. Zuev,  B. Albrecht,  E. Alguire,  
 S. A. Baeppler,  D. Barton,  Z. Benda,  Y. A. Bernard,  E. J. Berquist,  
 K. B. Bravaya,  H. Burton,  D. Casanova,  Chun-Min Chang,  Yunqing Chen,  
 A. Chien,  K. D. Closser,  M. P. Coons,  S. Coriani,  S. Dasgupta,  
 A. L. Dempwolff,  M. Diedenhofen,  Hainam Do,  R. G. Edgar,  Po-Tung Fang,  
 S. Faraji,  S. Fatehi,  Qingguo Feng,  K. D. Fenk,  J. Fosso-Tande,  
 Qinghui Ge,  A. Ghysels,  G. Gidofalvi,  J. Gomes,  J. Gonthier,  A. Gunina,  
 D. Hait,  M. W. D. Hanson-Heine,  P. H. P. Harbach,  A. W. Hauser,  
 J. E. Herr,  E. G. Hohenstein,  Z. C. Holden,  Kerwin Hui,  B. C. Huynh,  
 T.-C. Jagau,  Hyunjun Ji,  B. Kaduk,  K. Khistyaev,  Jaehoon Kim,  
 P. Klunzinger,  K. Koh,  D. Kosenkov,  L. Koulias,  T. Kowalczyk,  
 C. M. Krauter,  A. Kunitsa,  Ka Un Lao,  A. Laurent,  K. V. Lawler,  
 Joonho Lee,  D. Lefrancois,  S. Lehtola,  D. S. Levine,  Yi-Pei Li,  
 You-Sheng Lin,  Fenglai Liu,  E. Livshits,  A. Luenser,  P. Manohar,  
 E. Mansoor,  S. F. Manzer,  Shan-Ping Mao,  Yuezhi Mao,  N. Mardirossian,  
 A. V. Marenich,  T. Markovich,  L. A. Martinez-Martinez,  S. A. Maurer,  
 N. J. Mayhall,  S. C. McKenzie,  J.-M. Mewes,  A. F. Morrison,  
 J. W. Mullinax,  K. Nanda,  T. S. Nguyen-Beck,  R. Olivares-Amaya,  
 J. A. Parkhill,  T. M. Perrine,  F. Plasser,  P. Pokhilko,  S. Prager,  
 A. Prociuk,  E. Ramos,  D. R. Rehn,  F. Rob,  M. Schneider,  N. Sergueev,  
 S. M. Sharada,  S. Sharma,  D. W. Small,  T. Stauch,  T. Stein,  
 Yu-Chuan Su,  A. J. W. Thom,  A. Tkatchenko,  T. Tsuchimochi,  N. M. Tubman,  
 L. Vogt,  M. L. Vidal,  O. Vydrov,  M. A. Watson,  J. Wenzel,  
 M. de Wergifosse,  T. A. Wesolowski,  A. White,  J. Witte,  A. Yamada,  
 Jun Yang,  K. Yao,  S. Yeganeh,  S. R. Yost,  Zhi-Qiang You,  A. Zech,  
 Igor Ying Zhang,  Xing Zhang,  Yan Zhao,  Ying Zhu,  B. R. Brooks,  
 G. K. L. Chan,  C. J. Cramer,  M. S. Gordon,  W. J. Hehre,  A. Klamt,  
 M. W. Schmidt,  C. D. Sherrill,  D. G. Truhlar,  A. Aspuru-Guzik,  R. Baer,  
 A. T. Bell,  N. A. Besley,  Jeng-Da Chai,  A. E. DePrince, III,  
 R. A. DiStasio Jr.,  A. Dreuw,  B. D. Dunietz,  T. R. Furlani,  
 Chao-Ping Hsu,  Yousung Jung,  Jing Kong,  D. S. Lambrecht,  WanZhen Liang,  
 C. Ochsenfeld,  V. A. Rassolov,  L. V. Slipchenko,  J. E. Subotnik,  
 T. Van Voorhis,  J. M. Herbert,  A. I. Krylov,  P. M. W. Gill,  M. Head-Gordon

 Contributors to earlier versions of Q-Chem not listed above: 
 R. D. Adamson,  B. Austin,  J. Baker,  G. J. O. Beran,  K. Brandhorst,  
 S. T. Brown,  E. F. C. Byrd,  A. K. Chakraborty,  C.-L. Cheng,  
 Siu Hung Chien,  D. M. Chipman,  D. L. Crittenden,  H. Dachsel,  
 R. J. Doerksen,  A. D. Dutoi,  L. Fusti-Molnar,  W. A. Goddard III,  
 A. Golubeva-Zadorozhnaya,  S. R. Gwaltney,  G. Hawkins,  A. Heyden,  
 S. Hirata,  G. Kedziora,  F. J. Keil,  C. Kelley,  Jihan Kim,  R. A. King,  
 R. Z. Khaliullin,  P. P. Korambath,  W. Kurlancheek,  A. M. Lee,  M. S. Lee,  
 S. V. Levchenko,  Ching Yeh Lin,  D. Liotard,  R. C. Lochan,  I. Lotan,  
 P. E. Maslen,  N. Nair,  D. P. O'Neill,  D. Neuhauser,  E. Neuscamman,  
 C. M. Oana,  R. Olson,  B. Peters,  R. Peverati,  P. A. Pieniazek,  
 Y. M. Rhee,  J. Ritchie,  M. A. Rohrdanz,  E. Rosta,  N. J. Russ,  
 H. F. Schaefer III,  N. E. Schultz,  N. Shenvi,  A. C. Simmonett,  A. Sodt,  
 D. Stuck,  K. S. Thanthiriwatte,  V. Vanovschi,  Tao Wang,  A. Warshel,  
 C. F. Williams,  Q. Wu,  X. Xu,  W. Zhang

 Please cite Q-Chem as follows:
 Y. Shao et al., Mol. Phys. 113, 184-215 (2015)
 DOI: 10.1080/00268976.2014.952696

 Q-Chem 5.1.1 for Intel X86 EM64T Linux

 Parts of Q-Chem use Armadillo 8.300.2 (Tropical Shenanigans).
 http://arma.sourceforge.net/

 Q-Chem begins on Wed Nov 11 15:14:03 2020  

Host: n0078.mhg0
0

     Scratch files written to /local/scratch/users/yhljason/BH2Cl_PTPSS-D3_aug-cc-pcVQZ.inp20201111140400//
The previous job contains 0 fragments, simply inherited here
Input Ideriv = 0
Curr. Ideriv = -1
Max.  Ideriv = 0
Analytic post-HF gradients are not available with non-HF exchange
Input Ideriv = 0
Curr. Ideriv = 0
Max.  Ideriv = 0

Checking the input file for inconsistencies... 	...done.

--------------------------------------------------------------
User input:
--------------------------------------------------------------
$molecule
read
$end

$rem
jobtype sp
exchange PTPSS-D3
xc_grid 000099000590
basis aug-cc-pcVQZ

max_scf_cycles 200
thresh 14
scf_convergence 8
mem_total 128000
cc_memory 96000
cc_backend xm
mem_static 1500
symmetry false
sym_ignore true
scf_guess read
unrestricted false
scf_algorithm gdm
n_frozen_core 0
$end



$multipole_field
XX -0.0001
$end


--------------------------------------------------------------
 Adding empirical dispersion correction 
 ----------------------------------------------------------------
 Doing -D3(0) with
 s6  =   0.75000
 s8  =   0.87900
 rs6 =   1.54100
 rs8 =   1.00000
 -D3 energy without 3body term =     -0.0005066876 hartrees
 ----------------------------------------------------------------
             Standard Nuclear Orientation (Angstroms)
    I     Atom           X                Y                Z
 ----------------------------------------------------------------
    1      B       0.0000000000     0.0000000000     0.0000000000
    2      Cl      0.0000000000     0.0000000000     1.7353000000
    3      H       0.0000000000     1.0532000000    -0.5574000000
    4      H       0.0000000000    -1.0532000000    -0.5574000000
 ----------------------------------------------------------------
 Nuclear Repulsion Energy =    37.7433222074 hartrees
 There are       12 alpha and       12 beta electrons
 Requested basis set is aug-cc-pCVQZ
 There are 91 shells and 335 basis functions

 Total QAlloc Memory Limit 128000 MB
 Mega-Array Size      1467 MB
 MEM_STATIC part      1500 MB

                       Distance Matrix (Angstroms)
             B (  1)   Cl(  2)   H (  3)
   Cl(  2)  1.735300
   H (  3)  1.191606  2.523035
   H (  4)  1.191606  2.523035  2.106400
 
 Applying Cartesian multipole field
    Component          Value
    ---------          -----
     (2,0,0)       -1.00000E-04
 A cutoff of  1.0D-14 yielded   4038 shell pairs
 There are     55162 function pairs (     88401 Cartesian)
 
 -------------------------------------------------------
 OpenMP Integral Computing Module                       
 Release: version 1.0, May 2013, Q-Chem Inc. Pittsburgh 
 -------------------------------------------------------
 Integral Job Info:
 Integral job number is                      11
 Integral operator is                         1
 short-range coefficients                     0
 long-range coefficients              100000000
 Omega coefficients                           0
 if combine SR and LR in K                    0
 Integral screening is                        0
 Integral computing path is                   2
 max size of driver memory is           3200000
 size of driver memory is               1704330
 size of scratch memory is             29435624
 max col of scratch BK array              50625
 max len of scratch array in speh3         2114
 max len of scratch index in speh4           50
 max int batch size is                      520
 min int batch size is                       52
 fixed nKL is                                22
 max L of basis functions is                  4
 order of int derivative is                   0
 number of shells is                         91
 number of basis is                         423
 number of cartesian basis is               423
 number of contracted shell pairs          4038
 number of primitive shell pairs          11450
 maxK2 (contraction) of shell pair          169
 max number of K2 of shell pair               1
 max number of CS2 of shell pair            488
 max number of PS2 of shell pair           1014
 mem total for path MDJ                  781840
 -------------------------------------------------------
 Smallest overlap matrix eigenvalue = 2.45E-05
 Guess MOs from SCF MO coefficient file

 -----------------------------------------------------------------------
  General SCF calculation program by
  Eric Jon Sundstrom, Paul Horn, Yuezhi Mao, Dmitri Zuev, Alec White,
  David Stuck, Shaama M.S., Shane Yost, Joonho Lee, David Small,
  Daniel Levine, Susi Lehtola, Hugh Burton, Evgeny Epifanovsky
 -----------------------------------------------------------------------
 Exchange:     0.5000 Hartree-Fock + 0.5000 PTPSS-D3
 Correlation:  0.6250 PTPSS-D3
 Using Euler-Maclaurin-Lebedev (99,590) quadrature formula
 Dispersion:   Grimme D3
 using 8 threads for integral computing
 -------------------------------------------------------
 OpenMP Integral computing Module                
 Release: version 2.0, May 2017, Q-Chem Inc. Pleasanton 
 -------------------------------------------------------
 -------------------------------------------------------
 OpenMP BLAS3 based DFT computing Module                
 Release: version 1.0, May 2013, Q-Chem Inc. Pittsburgh 
 -------------------------------------------------------
 A restricted SCF calculation will be
 performed using GDM
 SCF converges when RMS gradient is below 1.0e-08
 ---------------------------------------
  Cycle       Energy        RMS Gradient
 ---------------------------------------
    1    -486.0040873392      5.19e-04   Normal BFGS step
    2    -486.0040891734      1.24e-04   Normal BFGS step
    3    -486.0040892905      5.53e-05   Normal BFGS step
    4    -486.0040893074      1.02e-05   Normal BFGS step
    5    -486.0040893079      6.14e-06   Normal BFGS step
    6    -486.0040893081      5.04e-07   Normal BFGS step
    7    -486.0040893081      1.52e-07   Normal BFGS step
    8    -486.0040893081      6.10e-08   Normal BFGS step
    9    -486.0040893081      1.20e-08   Normal BFGS step
   10    -486.0040893081      5.57e-10  Convergence criterion met
 ---------------------------------------
 SCF time:   CPU 5463.32s  wall 689.00s 
 SCF   energy in the final basis set =     -486.0040893081
 Total energy in the final basis set =     -486.0040893081
 
 Components of the MP2 correlation energy:
        aaaa  correlation energy =         0.0000000000 au
        abab  correlation energy =        -0.2484719344 au
        bbbb  correlation energy =         0.0000000000 au
        non-Brillouin singles    =        -0.0000000000 au

 Total  MP2   correlation energy =                    -0.24847193 au
        MP2         total energy =                  -486.25256124 au
 
 --------------------------------------------------------------
 
                    Orbital Energies (a.u.)
 --------------------------------------------------------------
 
 Alpha MOs
 -- Occupied --
*******  -9.913  -7.533  -7.531  -7.529  -7.147  -0.959  -0.598
 -0.473  -0.459  -0.413  -0.360
 -- Virtual --
 -0.022   0.020   0.030   0.031   0.044   0.067   0.070   0.086
  0.103   0.104   0.106   0.107   0.111   0.147   0.159   0.169
  0.193   0.194   0.201   0.221   0.222   0.240   0.245   0.250
  0.255   0.259   0.262   0.269   0.317   0.321   0.333   0.406
  0.411   0.412   0.422   0.429   0.441   0.458   0.476   0.487
  0.488   0.507   0.510   0.520   0.526   0.527   0.539   0.605
  0.614   0.626   0.671   0.683   0.687   0.726   0.737   0.749
  0.753   0.757   0.821   0.823   0.828   0.845   0.848   0.860
  0.869   0.881   0.907   0.924   0.973   0.976   0.989   1.022
  1.039   1.050   1.077   1.082   1.098   1.113   1.188   1.217
  1.227   1.362   1.379   1.391   1.401   1.403   1.428   1.451
  1.470   1.496   1.506   1.527   1.541   1.544   1.590   1.594
  1.609   1.613   1.633   1.687   1.710   1.744   1.745   1.765
  1.778   1.783   1.802   1.817   1.870   1.873   1.927   1.932
  1.947   1.974   1.986   2.000   2.016   2.020   2.027   2.062
  2.091   2.115   2.121   2.127   2.138   2.178   2.192   2.212
  2.234   2.252   2.264   2.277   2.286   2.359   2.420   2.422
  2.489   2.513   2.617   2.618   2.686   2.781   2.788   2.851
  2.860   2.992   3.047   3.089   3.158   3.179   3.214   3.219
  3.275   3.283   3.319   3.370   3.513   3.539   3.625   3.717
  3.789   3.807   3.863   3.899   3.909   3.980   4.034   4.046
  4.053   4.056   4.108   4.163   4.181   4.205   4.236   4.248
  4.252   4.289   4.374   4.432   4.495   4.528   4.545   4.556
  4.593   4.598   4.619   4.701   4.711   4.732   4.752   4.827
  4.844   4.914   5.009   5.049   5.083   5.140   5.179   5.211
  5.338   5.361   5.506   5.523   5.644   5.811   5.905   5.995
  6.173   6.609   6.651   6.660   6.691   6.968   7.218   7.339
  7.381   7.496   7.518   7.635   7.651   7.722   7.772   7.939
  8.038   8.312   8.397   8.708   8.710   8.895   8.944   8.991
  9.075   9.080   9.265   9.271   9.289   9.498   9.581   9.746
  9.981  10.264  11.014  11.422  11.818  11.858  12.050  12.321
 12.557  12.719  14.105  14.194  17.832  18.050  18.779  19.587
 19.636  19.848  20.520  20.633  21.237  21.239  21.293  21.307
 21.314  21.367  21.464  25.354  33.770  37.323  37.347  37.492
 37.652  37.868  44.564  45.571  45.625  51.593  51.760  52.388
 64.934  64.934  64.935  64.935  64.936  64.937  64.937  64.939
 64.939  75.301  75.302  75.331  75.337  75.340  75.359  75.369
 75.399  75.423  75.423  75.428  75.431  75.460  75.462  83.553
 85.589  85.621  85.764  86.116  86.173  97.792 110.163 110.179
110.286 110.400 110.551 151.594 152.405 152.462 165.817 165.914
166.296 348.991 456.076
 --------------------------------------------------------------
 
          Ground-State Mulliken Net Atomic Charges

     Atom                 Charge (a.u.)
  ----------------------------------------
      1 B                     0.198182
      2 Cl                   -0.031320
      3 H                    -0.083431
      4 H                    -0.083431
  ----------------------------------------
  Sum of atomic charges =     0.000000

 -----------------------------------------------------------------
                    Cartesian Multipole Moments
 -----------------------------------------------------------------
    Charge (ESU x 10^10)
                 0.0000
    Dipole Moment (Debye)
         X      -0.0000      Y       0.0000      Z      -0.7110
       Tot       0.7110
    Quadrupole Moments (Debye-Ang)
        XX     -19.0112     XY      -0.0000     YY     -20.5996
        XZ      -0.0000     YZ       0.0000     ZZ     -21.1400
    Octopole Moments (Debye-Ang^2)
       XXX      -0.0000    XXY       0.0000    XYY      -0.0000
       YYY       0.0000    XXZ     -20.9512    XYZ       0.0000
       YYZ     -21.5348    XZZ      -0.0000    YZZ      -0.0000
       ZZZ     -60.9078
    Hexadecapole Moments (Debye-Ang^3)
      XXXX     -21.5897   XXXY       0.0000   XXYY     -10.0733
      XYYY      -0.0000   YYYY     -36.6206   XXXZ      -0.0000
      XXYZ       0.0000   XYYZ      -0.0000   YYYZ      -0.0000
      XXZZ     -46.1675   XYZZ      -0.0000   YYZZ     -50.1656
      XZZZ      -0.0000   YZZZ      -0.0000   ZZZZ    -243.5008
 -----------------------------------------------------------------
Archival summary:
1\1\n0078.mhg0\SP\ProcedureUnspecified\BasisUnspecified\l112\yhljason\WedNov1115:37:392020WedNov1115:37:392020\0\\#,ProcedureUnspecified,BasisUnspecified,\\0,1\Cl\B,1,1.7353\H,2,1.19161,1,117.89\H,2,1.19161,1,117.89,3,-180,0\\\@

 Total job time:  1415.56s(wall), 11191.01s(cpu) 
 Wed Nov 11 15:37:39 2020

        *************************************************************
        *                                                           *
        *  Thank you very much for using Q-Chem.  Have a nice day.  *
        *                                                           *
        *************************************************************


 
User input: 4 of 7 
 
Q-Chem Developer Version!
                  Welcome to Q-Chem
     A Quantum Leap Into The Future Of Chemistry


 Q-Chem 5.1, Q-Chem, Inc., Pleasanton, CA (2018)

 Yihan Shao,  Zhengting Gan,  E. Epifanovsky,  A. T. B. Gilbert,  M. Wormit,  
 J. Kussmann,  A. W. Lange,  A. Behn,  Jia Deng,  Xintian Feng,  D. Ghosh,  
 M. Goldey,  P. R. Horn,  L. D. Jacobson,  I. Kaliman,  T. Kus,  A. Landau,  
 Jie Liu,  E. I. Proynov,  R. M. Richard,  R. P. Steele,  E. J. Sundstrom,  
 H. L. Woodcock III,  P. M. Zimmerman,  D. Zuev,  B. Albrecht,  E. Alguire,  
 S. A. Baeppler,  D. Barton,  Z. Benda,  Y. A. Bernard,  E. J. Berquist,  
 K. B. Bravaya,  H. Burton,  D. Casanova,  Chun-Min Chang,  Yunqing Chen,  
 A. Chien,  K. D. Closser,  M. P. Coons,  S. Coriani,  S. Dasgupta,  
 A. L. Dempwolff,  M. Diedenhofen,  Hainam Do,  R. G. Edgar,  Po-Tung Fang,  
 S. Faraji,  S. Fatehi,  Qingguo Feng,  K. D. Fenk,  J. Fosso-Tande,  
 Qinghui Ge,  A. Ghysels,  G. Gidofalvi,  J. Gomes,  J. Gonthier,  A. Gunina,  
 D. Hait,  M. W. D. Hanson-Heine,  P. H. P. Harbach,  A. W. Hauser,  
 J. E. Herr,  E. G. Hohenstein,  Z. C. Holden,  Kerwin Hui,  B. C. Huynh,  
 T.-C. Jagau,  Hyunjun Ji,  B. Kaduk,  K. Khistyaev,  Jaehoon Kim,  
 P. Klunzinger,  K. Koh,  D. Kosenkov,  L. Koulias,  T. Kowalczyk,  
 C. M. Krauter,  A. Kunitsa,  Ka Un Lao,  A. Laurent,  K. V. Lawler,  
 Joonho Lee,  D. Lefrancois,  S. Lehtola,  D. S. Levine,  Yi-Pei Li,  
 You-Sheng Lin,  Fenglai Liu,  E. Livshits,  A. Luenser,  P. Manohar,  
 E. Mansoor,  S. F. Manzer,  Shan-Ping Mao,  Yuezhi Mao,  N. Mardirossian,  
 A. V. Marenich,  T. Markovich,  L. A. Martinez-Martinez,  S. A. Maurer,  
 N. J. Mayhall,  S. C. McKenzie,  J.-M. Mewes,  A. F. Morrison,  
 J. W. Mullinax,  K. Nanda,  T. S. Nguyen-Beck,  R. Olivares-Amaya,  
 J. A. Parkhill,  T. M. Perrine,  F. Plasser,  P. Pokhilko,  S. Prager,  
 A. Prociuk,  E. Ramos,  D. R. Rehn,  F. Rob,  M. Schneider,  N. Sergueev,  
 S. M. Sharada,  S. Sharma,  D. W. Small,  T. Stauch,  T. Stein,  
 Yu-Chuan Su,  A. J. W. Thom,  A. Tkatchenko,  T. Tsuchimochi,  N. M. Tubman,  
 L. Vogt,  M. L. Vidal,  O. Vydrov,  M. A. Watson,  J. Wenzel,  
 M. de Wergifosse,  T. A. Wesolowski,  A. White,  J. Witte,  A. Yamada,  
 Jun Yang,  K. Yao,  S. Yeganeh,  S. R. Yost,  Zhi-Qiang You,  A. Zech,  
 Igor Ying Zhang,  Xing Zhang,  Yan Zhao,  Ying Zhu,  B. R. Brooks,  
 G. K. L. Chan,  C. J. Cramer,  M. S. Gordon,  W. J. Hehre,  A. Klamt,  
 M. W. Schmidt,  C. D. Sherrill,  D. G. Truhlar,  A. Aspuru-Guzik,  R. Baer,  
 A. T. Bell,  N. A. Besley,  Jeng-Da Chai,  A. E. DePrince, III,  
 R. A. DiStasio Jr.,  A. Dreuw,  B. D. Dunietz,  T. R. Furlani,  
 Chao-Ping Hsu,  Yousung Jung,  Jing Kong,  D. S. Lambrecht,  WanZhen Liang,  
 C. Ochsenfeld,  V. A. Rassolov,  L. V. Slipchenko,  J. E. Subotnik,  
 T. Van Voorhis,  J. M. Herbert,  A. I. Krylov,  P. M. W. Gill,  M. Head-Gordon

 Contributors to earlier versions of Q-Chem not listed above: 
 R. D. Adamson,  B. Austin,  J. Baker,  G. J. O. Beran,  K. Brandhorst,  
 S. T. Brown,  E. F. C. Byrd,  A. K. Chakraborty,  C.-L. Cheng,  
 Siu Hung Chien,  D. M. Chipman,  D. L. Crittenden,  H. Dachsel,  
 R. J. Doerksen,  A. D. Dutoi,  L. Fusti-Molnar,  W. A. Goddard III,  
 A. Golubeva-Zadorozhnaya,  S. R. Gwaltney,  G. Hawkins,  A. Heyden,  
 S. Hirata,  G. Kedziora,  F. J. Keil,  C. Kelley,  Jihan Kim,  R. A. King,  
 R. Z. Khaliullin,  P. P. Korambath,  W. Kurlancheek,  A. M. Lee,  M. S. Lee,  
 S. V. Levchenko,  Ching Yeh Lin,  D. Liotard,  R. C. Lochan,  I. Lotan,  
 P. E. Maslen,  N. Nair,  D. P. O'Neill,  D. Neuhauser,  E. Neuscamman,  
 C. M. Oana,  R. Olson,  B. Peters,  R. Peverati,  P. A. Pieniazek,  
 Y. M. Rhee,  J. Ritchie,  M. A. Rohrdanz,  E. Rosta,  N. J. Russ,  
 H. F. Schaefer III,  N. E. Schultz,  N. Shenvi,  A. C. Simmonett,  A. Sodt,  
 D. Stuck,  K. S. Thanthiriwatte,  V. Vanovschi,  Tao Wang,  A. Warshel,  
 C. F. Williams,  Q. Wu,  X. Xu,  W. Zhang

 Please cite Q-Chem as follows:
 Y. Shao et al., Mol. Phys. 113, 184-215 (2015)
 DOI: 10.1080/00268976.2014.952696

 Q-Chem 5.1.1 for Intel X86 EM64T Linux

 Parts of Q-Chem use Armadillo 8.300.2 (Tropical Shenanigans).
 http://arma.sourceforge.net/

 Q-Chem begins on Wed Nov 11 15:37:39 2020  

Host: n0078.mhg0
0

     Scratch files written to /local/scratch/users/yhljason/BH2Cl_PTPSS-D3_aug-cc-pcVQZ.inp20201111140400//
The previous job contains 0 fragments, simply inherited here
Input Ideriv = 0
Curr. Ideriv = -1
Max.  Ideriv = 0
Analytic post-HF gradients are not available with non-HF exchange
Input Ideriv = 0
Curr. Ideriv = 0
Max.  Ideriv = 0

Checking the input file for inconsistencies... 	...done.

--------------------------------------------------------------
User input:
--------------------------------------------------------------
$molecule
read
$end

$rem
jobtype sp
exchange PTPSS-D3
xc_grid 000099000590
basis aug-cc-pcVQZ

max_scf_cycles 200
thresh 14
scf_convergence 8
mem_total 128000
cc_memory 96000
cc_backend xm
mem_static 1500
symmetry false
sym_ignore true
scf_guess read
unrestricted false
scf_algorithm gdm
n_frozen_core 0
$end



$multipole_field
YY 0.0001
$end


--------------------------------------------------------------
 Adding empirical dispersion correction 
 ----------------------------------------------------------------
 Doing -D3(0) with
 s6  =   0.75000
 s8  =   0.87900
 rs6 =   1.54100
 rs8 =   1.00000
 -D3 energy without 3body term =     -0.0005066876 hartrees
 ----------------------------------------------------------------
             Standard Nuclear Orientation (Angstroms)
    I     Atom           X                Y                Z
 ----------------------------------------------------------------
    1      B       0.0000000000     0.0000000000     0.0000000000
    2      Cl      0.0000000000     0.0000000000     1.7353000000
    3      H       0.0000000000     1.0532000000    -0.5574000000
    4      H       0.0000000000    -1.0532000000    -0.5574000000
 ----------------------------------------------------------------
 Nuclear Repulsion Energy =    37.7433222074 hartrees
 There are       12 alpha and       12 beta electrons
 Requested basis set is aug-cc-pCVQZ
 There are 91 shells and 335 basis functions

 Total QAlloc Memory Limit 128000 MB
 Mega-Array Size      1467 MB
 MEM_STATIC part      1500 MB

                       Distance Matrix (Angstroms)
             B (  1)   Cl(  2)   H (  3)
   Cl(  2)  1.735300
   H (  3)  1.191606  2.523035
   H (  4)  1.191606  2.523035  2.106400
 
 Applying Cartesian multipole field
    Component          Value
    ---------          -----
     (0,2,0)        1.00000E-04
 Nucleus-field energy     =     0.0007922266 hartrees
 A cutoff of  1.0D-14 yielded   4038 shell pairs
 There are     55162 function pairs (     88401 Cartesian)
 
 -------------------------------------------------------
 OpenMP Integral Computing Module                       
 Release: version 1.0, May 2013, Q-Chem Inc. Pittsburgh 
 -------------------------------------------------------
 Integral Job Info:
 Integral job number is                      11
 Integral operator is                         1
 short-range coefficients                     0
 long-range coefficients              100000000
 Omega coefficients                           0
 if combine SR and LR in K                    0
 Integral screening is                        0
 Integral computing path is                   2
 max size of driver memory is           3200000
 size of driver memory is               1704330
 size of scratch memory is             29435624
 max col of scratch BK array              50625
 max len of scratch array in speh3         2114
 max len of scratch index in speh4           50
 max int batch size is                      520
 min int batch size is                       52
 fixed nKL is                                22
 max L of basis functions is                  4
 order of int derivative is                   0
 number of shells is                         91
 number of basis is                         423
 number of cartesian basis is               423
 number of contracted shell pairs          4038
 number of primitive shell pairs          11450
 maxK2 (contraction) of shell pair          169
 max number of K2 of shell pair               1
 max number of CS2 of shell pair            488
 max number of PS2 of shell pair           1014
 mem total for path MDJ                  781840
 -------------------------------------------------------
 Smallest overlap matrix eigenvalue = 2.45E-05
 Guess MOs from SCF MO coefficient file

 -----------------------------------------------------------------------
  General SCF calculation program by
  Eric Jon Sundstrom, Paul Horn, Yuezhi Mao, Dmitri Zuev, Alec White,
  David Stuck, Shaama M.S., Shane Yost, Joonho Lee, David Small,
  Daniel Levine, Susi Lehtola, Hugh Burton, Evgeny Epifanovsky
 -----------------------------------------------------------------------
 Exchange:     0.5000 Hartree-Fock + 0.5000 PTPSS-D3
 Correlation:  0.6250 PTPSS-D3
 Using Euler-Maclaurin-Lebedev (99,590) quadrature formula
 Dispersion:   Grimme D3
 using 8 threads for integral computing
 -------------------------------------------------------
 OpenMP Integral computing Module                
 Release: version 2.0, May 2017, Q-Chem Inc. Pleasanton 
 -------------------------------------------------------
 -------------------------------------------------------
 OpenMP BLAS3 based DFT computing Module                
 Release: version 1.0, May 2013, Q-Chem Inc. Pittsburgh 
 -------------------------------------------------------
 A restricted SCF calculation will be
 performed using GDM
 SCF converges when RMS gradient is below 1.0e-08
 ---------------------------------------
  Cycle       Energy        RMS Gradient
 ---------------------------------------
    1    -486.0070342714      3.53e-04   Normal BFGS step
    2    -486.0070356759      1.16e-04   Normal BFGS step
    3    -486.0070358171      2.26e-05   Normal BFGS step
    4    -486.0070358228      5.42e-06   Normal BFGS step
    5    -486.0070358233      5.28e-07   Normal BFGS step
    6    -486.0070358233      1.24e-07   Normal BFGS step
    7    -486.0070358233      8.71e-08   Normal BFGS step
    8    -486.0070358233      3.13e-08   Normal BFGS step
    9    -486.0070358233      2.13e-09  Convergence criterion met
 ---------------------------------------
 SCF time:   CPU 4860.80s  wall 613.00s 
 SCF   energy in the final basis set =     -486.0070358233
 Total energy in the final basis set =     -486.0070358233
 
 Components of the MP2 correlation energy:
        aaaa  correlation energy =         0.0000000000 au
        abab  correlation energy =        -0.2484700269 au
        bbbb  correlation energy =         0.0000000000 au
        non-Brillouin singles    =        -0.0000000000 au

 Total  MP2   correlation energy =                    -0.24847003 au
        MP2         total energy =                  -486.25550585 au
 
 --------------------------------------------------------------
 
                    Orbital Energies (a.u.)
 --------------------------------------------------------------
 
 Alpha MOs
 -- Occupied --
*******  -9.914  -7.534  -7.532  -7.530  -7.148  -0.960  -0.598
 -0.473  -0.459  -0.413  -0.361
 -- Virtual --
 -0.024   0.014   0.023   0.027   0.037   0.061   0.065   0.083
  0.099   0.099   0.101   0.102   0.108   0.143   0.155   0.167
  0.190   0.191   0.198   0.219   0.219   0.238   0.243   0.248
  0.252   0.256   0.259   0.266   0.315   0.318   0.331   0.405
  0.409   0.410   0.419   0.427   0.438   0.457   0.474   0.484
  0.486   0.505   0.508   0.518   0.524   0.524   0.538   0.603
  0.612   0.624   0.669   0.682   0.685   0.724   0.735   0.748
  0.752   0.755   0.819   0.821   0.827   0.843   0.846   0.859
  0.867   0.879   0.906   0.922   0.971   0.975   0.988   1.021
  1.038   1.048   1.076   1.080   1.096   1.112   1.186   1.216
  1.226   1.361   1.378   1.390   1.400   1.402   1.427   1.450
  1.469   1.496   1.505   1.526   1.540   1.543   1.589   1.593
  1.607   1.612   1.632   1.686   1.709   1.743   1.744   1.764
  1.777   1.782   1.801   1.816   1.868   1.872   1.926   1.931
  1.946   1.973   1.985   1.999   2.015   2.019   2.025   2.061
  2.090   2.114   2.120   2.126   2.137   2.177   2.191   2.211
  2.233   2.251   2.263   2.276   2.285   2.358   2.419   2.421
  2.488   2.512   2.616   2.618   2.685   2.780   2.787   2.850
  2.859   2.992   3.046   3.088   3.157   3.178   3.213   3.218
  3.274   3.282   3.318   3.370   3.512   3.538   3.624   3.716
  3.788   3.807   3.863   3.898   3.908   3.980   4.033   4.045
  4.053   4.056   4.107   4.163   4.180   4.205   4.235   4.247
  4.251   4.288   4.373   4.431   4.495   4.527   4.545   4.555
  4.592   4.598   4.618   4.700   4.711   4.732   4.751   4.826
  4.843   4.914   5.008   5.049   5.082   5.139   5.179   5.210
  5.338   5.360   5.505   5.522   5.644   5.811   5.905   5.994
  6.173   6.608   6.650   6.659   6.690   6.967   7.217   7.339
  7.381   7.496   7.517   7.634   7.650   7.721   7.772   7.938
  8.038   8.311   8.397   8.707   8.710   8.894   8.944   8.990
  9.074   9.079   9.264   9.270   9.288   9.498   9.581   9.745
  9.980  10.263  11.014  11.422  11.817  11.857  12.049  12.320
 12.556  12.719  14.104  14.193  17.831  18.049  18.778  19.586
 19.635  19.847  20.519  20.632  21.236  21.238  21.292  21.306
 21.313  21.367  21.463  25.354  33.770  37.323  37.346  37.492
 37.652  37.868  44.563  45.570  45.624  51.592  51.759  52.387
 64.933  64.934  64.934  64.935  64.935  64.936  64.937  64.938
 64.938  75.300  75.302  75.330  75.336  75.339  75.359  75.368
 75.399  75.422  75.422  75.428  75.430  75.459  75.461  83.552
 85.588  85.621  85.763  86.115  86.173  97.791 110.162 110.179
110.285 110.400 110.550 151.593 152.404 152.461 165.816 165.914
166.296 348.990 456.075
 --------------------------------------------------------------
 
          Ground-State Mulliken Net Atomic Charges

     Atom                 Charge (a.u.)
  ----------------------------------------
      1 B                     0.197236
      2 Cl                   -0.031944
      3 H                    -0.082646
      4 H                    -0.082646
  ----------------------------------------
  Sum of atomic charges =     0.000000

 -----------------------------------------------------------------
                    Cartesian Multipole Moments
 -----------------------------------------------------------------
    Charge (ESU x 10^10)
                 0.0000
    Dipole Moment (Debye)
         X       0.0000      Y       0.0000      Z      -0.7090
       Tot       0.7090
    Quadrupole Moments (Debye-Ang)
        XX     -19.0260     XY      -0.0000     YY     -20.6266
        XZ       0.0000     YZ       0.0000     ZZ     -21.1400
    Octopole Moments (Debye-Ang^2)
       XXX       0.0000    XXY       0.0000    XYY       0.0000
       YYY       0.0000    XXZ     -20.9649    XYZ       0.0000
       YYZ     -21.5415    XZZ       0.0000    YZZ       0.0000
       ZZZ     -60.9042
    Hexadecapole Moments (Debye-Ang^3)
      XXXX     -21.6512   XXXY      -0.0000   XXYY     -10.1021
      XYYY      -0.0000   YYYY     -36.7528   XXXZ       0.0000
      XXYZ      -0.0000   XYYZ       0.0000   YYYZ      -0.0000
      XXZZ     -46.2060   XYZZ      -0.0000   YYZZ     -50.2177
      XZZZ       0.0000   YZZZ      -0.0000   ZZZZ    -243.5209
 -----------------------------------------------------------------
Archival summary:
1\1\n0078.mhg0\SP\ProcedureUnspecified\BasisUnspecified\l112\yhljason\WedNov1115:59:492020WedNov1115:59:492020\0\\#,ProcedureUnspecified,BasisUnspecified,\\0,1\Cl\B,1,1.7353\H,2,1.19161,1,117.89\H,2,1.19161,1,117.89,3,-180,0\\\@

 Total job time:  1330.32s(wall), 10510.89s(cpu) 
 Wed Nov 11 15:59:49 2020

        *************************************************************
        *                                                           *
        *  Thank you very much for using Q-Chem.  Have a nice day.  *
        *                                                           *
        *************************************************************


 
User input: 5 of 7 
 
Q-Chem Developer Version!
                  Welcome to Q-Chem
     A Quantum Leap Into The Future Of Chemistry


 Q-Chem 5.1, Q-Chem, Inc., Pleasanton, CA (2018)

 Yihan Shao,  Zhengting Gan,  E. Epifanovsky,  A. T. B. Gilbert,  M. Wormit,  
 J. Kussmann,  A. W. Lange,  A. Behn,  Jia Deng,  Xintian Feng,  D. Ghosh,  
 M. Goldey,  P. R. Horn,  L. D. Jacobson,  I. Kaliman,  T. Kus,  A. Landau,  
 Jie Liu,  E. I. Proynov,  R. M. Richard,  R. P. Steele,  E. J. Sundstrom,  
 H. L. Woodcock III,  P. M. Zimmerman,  D. Zuev,  B. Albrecht,  E. Alguire,  
 S. A. Baeppler,  D. Barton,  Z. Benda,  Y. A. Bernard,  E. J. Berquist,  
 K. B. Bravaya,  H. Burton,  D. Casanova,  Chun-Min Chang,  Yunqing Chen,  
 A. Chien,  K. D. Closser,  M. P. Coons,  S. Coriani,  S. Dasgupta,  
 A. L. Dempwolff,  M. Diedenhofen,  Hainam Do,  R. G. Edgar,  Po-Tung Fang,  
 S. Faraji,  S. Fatehi,  Qingguo Feng,  K. D. Fenk,  J. Fosso-Tande,  
 Qinghui Ge,  A. Ghysels,  G. Gidofalvi,  J. Gomes,  J. Gonthier,  A. Gunina,  
 D. Hait,  M. W. D. Hanson-Heine,  P. H. P. Harbach,  A. W. Hauser,  
 J. E. Herr,  E. G. Hohenstein,  Z. C. Holden,  Kerwin Hui,  B. C. Huynh,  
 T.-C. Jagau,  Hyunjun Ji,  B. Kaduk,  K. Khistyaev,  Jaehoon Kim,  
 P. Klunzinger,  K. Koh,  D. Kosenkov,  L. Koulias,  T. Kowalczyk,  
 C. M. Krauter,  A. Kunitsa,  Ka Un Lao,  A. Laurent,  K. V. Lawler,  
 Joonho Lee,  D. Lefrancois,  S. Lehtola,  D. S. Levine,  Yi-Pei Li,  
 You-Sheng Lin,  Fenglai Liu,  E. Livshits,  A. Luenser,  P. Manohar,  
 E. Mansoor,  S. F. Manzer,  Shan-Ping Mao,  Yuezhi Mao,  N. Mardirossian,  
 A. V. Marenich,  T. Markovich,  L. A. Martinez-Martinez,  S. A. Maurer,  
 N. J. Mayhall,  S. C. McKenzie,  J.-M. Mewes,  A. F. Morrison,  
 J. W. Mullinax,  K. Nanda,  T. S. Nguyen-Beck,  R. Olivares-Amaya,  
 J. A. Parkhill,  T. M. Perrine,  F. Plasser,  P. Pokhilko,  S. Prager,  
 A. Prociuk,  E. Ramos,  D. R. Rehn,  F. Rob,  M. Schneider,  N. Sergueev,  
 S. M. Sharada,  S. Sharma,  D. W. Small,  T. Stauch,  T. Stein,  
 Yu-Chuan Su,  A. J. W. Thom,  A. Tkatchenko,  T. Tsuchimochi,  N. M. Tubman,  
 L. Vogt,  M. L. Vidal,  O. Vydrov,  M. A. Watson,  J. Wenzel,  
 M. de Wergifosse,  T. A. Wesolowski,  A. White,  J. Witte,  A. Yamada,  
 Jun Yang,  K. Yao,  S. Yeganeh,  S. R. Yost,  Zhi-Qiang You,  A. Zech,  
 Igor Ying Zhang,  Xing Zhang,  Yan Zhao,  Ying Zhu,  B. R. Brooks,  
 G. K. L. Chan,  C. J. Cramer,  M. S. Gordon,  W. J. Hehre,  A. Klamt,  
 M. W. Schmidt,  C. D. Sherrill,  D. G. Truhlar,  A. Aspuru-Guzik,  R. Baer,  
 A. T. Bell,  N. A. Besley,  Jeng-Da Chai,  A. E. DePrince, III,  
 R. A. DiStasio Jr.,  A. Dreuw,  B. D. Dunietz,  T. R. Furlani,  
 Chao-Ping Hsu,  Yousung Jung,  Jing Kong,  D. S. Lambrecht,  WanZhen Liang,  
 C. Ochsenfeld,  V. A. Rassolov,  L. V. Slipchenko,  J. E. Subotnik,  
 T. Van Voorhis,  J. M. Herbert,  A. I. Krylov,  P. M. W. Gill,  M. Head-Gordon

 Contributors to earlier versions of Q-Chem not listed above: 
 R. D. Adamson,  B. Austin,  J. Baker,  G. J. O. Beran,  K. Brandhorst,  
 S. T. Brown,  E. F. C. Byrd,  A. K. Chakraborty,  C.-L. Cheng,  
 Siu Hung Chien,  D. M. Chipman,  D. L. Crittenden,  H. Dachsel,  
 R. J. Doerksen,  A. D. Dutoi,  L. Fusti-Molnar,  W. A. Goddard III,  
 A. Golubeva-Zadorozhnaya,  S. R. Gwaltney,  G. Hawkins,  A. Heyden,  
 S. Hirata,  G. Kedziora,  F. J. Keil,  C. Kelley,  Jihan Kim,  R. A. King,  
 R. Z. Khaliullin,  P. P. Korambath,  W. Kurlancheek,  A. M. Lee,  M. S. Lee,  
 S. V. Levchenko,  Ching Yeh Lin,  D. Liotard,  R. C. Lochan,  I. Lotan,  
 P. E. Maslen,  N. Nair,  D. P. O'Neill,  D. Neuhauser,  E. Neuscamman,  
 C. M. Oana,  R. Olson,  B. Peters,  R. Peverati,  P. A. Pieniazek,  
 Y. M. Rhee,  J. Ritchie,  M. A. Rohrdanz,  E. Rosta,  N. J. Russ,  
 H. F. Schaefer III,  N. E. Schultz,  N. Shenvi,  A. C. Simmonett,  A. Sodt,  
 D. Stuck,  K. S. Thanthiriwatte,  V. Vanovschi,  Tao Wang,  A. Warshel,  
 C. F. Williams,  Q. Wu,  X. Xu,  W. Zhang

 Please cite Q-Chem as follows:
 Y. Shao et al., Mol. Phys. 113, 184-215 (2015)
 DOI: 10.1080/00268976.2014.952696

 Q-Chem 5.1.1 for Intel X86 EM64T Linux

 Parts of Q-Chem use Armadillo 8.300.2 (Tropical Shenanigans).
 http://arma.sourceforge.net/

 Q-Chem begins on Wed Nov 11 15:59:49 2020  

Host: n0078.mhg0
0

     Scratch files written to /local/scratch/users/yhljason/BH2Cl_PTPSS-D3_aug-cc-pcVQZ.inp20201111140400//
The previous job contains 0 fragments, simply inherited here
Input Ideriv = 0
Curr. Ideriv = -1
Max.  Ideriv = 0
Analytic post-HF gradients are not available with non-HF exchange
Input Ideriv = 0
Curr. Ideriv = 0
Max.  Ideriv = 0

Checking the input file for inconsistencies... 	...done.

--------------------------------------------------------------
User input:
--------------------------------------------------------------
$molecule
read
$end

$rem
jobtype sp
exchange PTPSS-D3
xc_grid 000099000590
basis aug-cc-pcVQZ

max_scf_cycles 200
thresh 14
scf_convergence 8
mem_total 128000
cc_memory 96000
cc_backend xm
mem_static 1500
symmetry false
sym_ignore true
scf_guess read
unrestricted false
scf_algorithm gdm
n_frozen_core 0
$end



$multipole_field
YY -0.0001
$end


--------------------------------------------------------------
 Adding empirical dispersion correction 
 ----------------------------------------------------------------
 Doing -D3(0) with
 s6  =   0.75000
 s8  =   0.87900
 rs6 =   1.54100
 rs8 =   1.00000
 -D3 energy without 3body term =     -0.0005066876 hartrees
 ----------------------------------------------------------------
             Standard Nuclear Orientation (Angstroms)
    I     Atom           X                Y                Z
 ----------------------------------------------------------------
    1      B       0.0000000000     0.0000000000     0.0000000000
    2      Cl      0.0000000000     0.0000000000     1.7353000000
    3      H       0.0000000000     1.0532000000    -0.5574000000
    4      H       0.0000000000    -1.0532000000    -0.5574000000
 ----------------------------------------------------------------
 Nuclear Repulsion Energy =    37.7433222074 hartrees
 There are       12 alpha and       12 beta electrons
 Requested basis set is aug-cc-pCVQZ
 There are 91 shells and 335 basis functions

 Total QAlloc Memory Limit 128000 MB
 Mega-Array Size      1467 MB
 MEM_STATIC part      1500 MB

                       Distance Matrix (Angstroms)
             B (  1)   Cl(  2)   H (  3)
   Cl(  2)  1.735300
   H (  3)  1.191606  2.523035
   H (  4)  1.191606  2.523035  2.106400
 
 Applying Cartesian multipole field
    Component          Value
    ---------          -----
     (0,2,0)       -1.00000E-04
 Nucleus-field energy     =    -0.0007922266 hartrees
 A cutoff of  1.0D-14 yielded   4038 shell pairs
 There are     55162 function pairs (     88401 Cartesian)
 
 -------------------------------------------------------
 OpenMP Integral Computing Module                       
 Release: version 1.0, May 2013, Q-Chem Inc. Pittsburgh 
 -------------------------------------------------------
 Integral Job Info:
 Integral job number is                      11
 Integral operator is                         1
 short-range coefficients                     0
 long-range coefficients              100000000
 Omega coefficients                           0
 if combine SR and LR in K                    0
 Integral screening is                        0
 Integral computing path is                   2
 max size of driver memory is           3200000
 size of driver memory is               1704330
 size of scratch memory is             29435624
 max col of scratch BK array              50625
 max len of scratch array in speh3         2114
 max len of scratch index in speh4           50
 max int batch size is                      520
 min int batch size is                       52
 fixed nKL is                                22
 max L of basis functions is                  4
 order of int derivative is                   0
 number of shells is                         91
 number of basis is                         423
 number of cartesian basis is               423
 number of contracted shell pairs          4038
 number of primitive shell pairs          11450
 maxK2 (contraction) of shell pair          169
 max number of K2 of shell pair               1
 max number of CS2 of shell pair            488
 max number of PS2 of shell pair           1014
 mem total for path MDJ                  781840
 -------------------------------------------------------
 Smallest overlap matrix eigenvalue = 2.45E-05
 Guess MOs from SCF MO coefficient file

 -----------------------------------------------------------------------
  General SCF calculation program by
  Eric Jon Sundstrom, Paul Horn, Yuezhi Mao, Dmitri Zuev, Alec White,
  David Stuck, Shaama M.S., Shane Yost, Joonho Lee, David Small,
  Daniel Levine, Susi Lehtola, Hugh Burton, Evgeny Epifanovsky
 -----------------------------------------------------------------------
 Exchange:     0.5000 Hartree-Fock + 0.5000 PTPSS-D3
 Correlation:  0.6250 PTPSS-D3
 Using Euler-Maclaurin-Lebedev (99,590) quadrature formula
 Dispersion:   Grimme D3
 using 8 threads for integral computing
 -------------------------------------------------------
 OpenMP Integral computing Module                
 Release: version 2.0, May 2017, Q-Chem Inc. Pleasanton 
 -------------------------------------------------------
 -------------------------------------------------------
 OpenMP BLAS3 based DFT computing Module                
 Release: version 1.0, May 2013, Q-Chem Inc. Pittsburgh 
 -------------------------------------------------------
 A restricted SCF calculation will be
 performed using GDM
 SCF converges when RMS gradient is below 1.0e-08
 ---------------------------------------
  Cycle       Energy        RMS Gradient
 ---------------------------------------
    1    -486.0039687542      5.19e-04   Normal BFGS step
    2    -486.0039722312      1.24e-04   Normal BFGS step
    3    -486.0039724967      3.41e-05   Normal BFGS step
    4    -486.0039725129      1.34e-05   Normal BFGS step
    5    -486.0039725145      6.55e-06   Normal BFGS step
    6    -486.0039725147      1.73e-06   Normal BFGS step
    7    -486.0039725147      1.52e-07   Normal BFGS step
    8    -486.0039725147      5.21e-08   Normal BFGS step
    9    -486.0039725147      1.46e-08   Normal BFGS step
   10    -486.0039725147      1.62e-09  Convergence criterion met
 ---------------------------------------
 SCF time:   CPU 5424.63s  wall 684.00s 
 SCF   energy in the final basis set =     -486.0039725147
 Total energy in the final basis set =     -486.0039725147
 
 Components of the MP2 correlation energy:
        aaaa  correlation energy =         0.0000000000 au
        abab  correlation energy =        -0.2484735782 au
        bbbb  correlation energy =         0.0000000000 au
        non-Brillouin singles    =        -0.0000000000 au

 Total  MP2   correlation energy =                    -0.24847358 au
        MP2         total energy =                  -486.25244609 au
 
 --------------------------------------------------------------
 
                    Orbital Energies (a.u.)
 --------------------------------------------------------------
 
 Alpha MOs
 -- Occupied --
*******  -9.913  -7.533  -7.531  -7.529  -7.147  -0.959  -0.597
 -0.472  -0.458  -0.413  -0.360
 -- Virtual --
 -0.023   0.021   0.030   0.035   0.041   0.070   0.073   0.086
  0.102   0.103   0.107   0.110   0.112   0.145   0.161   0.170
  0.193   0.197   0.200   0.221   0.222   0.241   0.245   0.249
  0.254   0.261   0.263   0.269   0.317   0.322   0.334   0.406
  0.411   0.411   0.423   0.429   0.442   0.458   0.477   0.487
  0.487   0.507   0.510   0.520   0.526   0.527   0.539   0.605
  0.613   0.627   0.671   0.684   0.687   0.727   0.737   0.749
  0.754   0.757   0.821   0.823   0.830   0.845   0.849   0.860
  0.869   0.881   0.907   0.924   0.974   0.976   0.989   1.023
  1.039   1.050   1.077   1.082   1.098   1.113   1.188   1.217
  1.227   1.363   1.379   1.391   1.402   1.403   1.428   1.451
  1.471   1.496   1.506   1.527   1.542   1.544   1.590   1.595
  1.609   1.613   1.633   1.687   1.710   1.744   1.746   1.765
  1.778   1.783   1.802   1.817   1.870   1.873   1.927   1.932
  1.947   1.974   1.987   2.000   2.016   2.020   2.027   2.062
  2.091   2.115   2.121   2.128   2.138   2.178   2.193   2.212
  2.235   2.253   2.264   2.277   2.286   2.359   2.421   2.422
  2.489   2.513   2.617   2.618   2.686   2.781   2.788   2.851
  2.860   2.992   3.047   3.089   3.159   3.179   3.215   3.219
  3.275   3.283   3.319   3.371   3.513   3.540   3.626   3.718
  3.789   3.808   3.864   3.899   3.909   3.981   4.034   4.046
  4.053   4.056   4.108   4.164   4.181   4.205   4.236   4.248
  4.252   4.289   4.374   4.432   4.495   4.528   4.545   4.556
  4.593   4.598   4.619   4.701   4.711   4.733   4.752   4.827
  4.844   4.914   5.009   5.050   5.083   5.140   5.180   5.211
  5.338   5.362   5.506   5.523   5.645   5.812   5.905   5.995
  6.174   6.609   6.651   6.660   6.691   6.968   7.218   7.339
  7.382   7.497   7.518   7.635   7.651   7.722   7.773   7.939
  8.039   8.312   8.398   8.708   8.711   8.895   8.945   8.991
  9.075   9.080   9.265   9.272   9.290   9.499   9.582   9.746
  9.982  10.264  11.015  11.423  11.818  11.858  12.050  12.321
 12.557  12.720  14.105  14.194  17.832  18.050  18.779  19.587
 19.636  19.848  20.520  20.633  21.237  21.239  21.293  21.307
 21.314  21.368  21.464  25.355  33.770  37.323  37.347  37.492
[...]
  2.859   2.991   3.046   3.087   3.157   3.178   3.214   3.218
  3.274   3.282   3.318   3.369   3.512   3.538   3.624   3.716
  3.787   3.806   3.862   3.898   3.908   3.979   4.033   4.045
  4.052   4.055   4.107   4.162   4.180   4.204   4.234   4.247
  4.251   4.288   4.373   4.430   4.494   4.526   4.544   4.554
  4.592   4.597   4.618   4.699   4.710   4.731   4.750   4.826
  4.842   4.913   5.008   5.048   5.082   5.139   5.178   5.210
  5.337   5.360   5.505   5.522   5.643   5.810   5.904   5.994
  6.172   6.608   6.650   6.659   6.690   6.967   7.217   7.338
  7.380   7.495   7.517   7.634   7.650   7.721   7.771   7.938
  8.037   8.311   8.397   8.707   8.710   8.894   8.943   8.990
  9.074   9.079   9.264   9.270   9.288   9.498   9.580   9.745
  9.980  10.263  11.013  11.421  11.816  11.857  12.048  12.319
 12.555  12.718  14.104  14.192  17.831  18.049  18.777  19.586
 19.635  19.847  20.519  20.632  21.235  21.238  21.292  21.305
 21.312  21.366  21.462  25.353  33.769  37.322  37.345  37.491
 37.651  37.867  44.563  45.569  45.624  51.592  51.758  52.386
 64.932  64.933  64.933  64.934  64.935  64.936  64.936  64.937
 64.938  75.300  75.301  75.330  75.335  75.339  75.358  75.367
 75.398  75.422  75.422  75.427  75.429  75.458  75.460  83.552
 85.588  85.620  85.763  86.115  86.172  97.790 110.161 110.178
110.284 110.399 110.549 151.593 152.404 152.461 165.815 165.913
166.295 348.990 456.074
 --------------------------------------------------------------
 
          Ground-State Mulliken Net Atomic Charges

     Atom                 Charge (a.u.)
  ----------------------------------------
      1 B                     0.195906
      2 Cl                   -0.033524
      3 H                    -0.081191
      4 H                    -0.081191
  ----------------------------------------
  Sum of atomic charges =     0.000000

 -----------------------------------------------------------------
                    Cartesian Multipole Moments
 -----------------------------------------------------------------
    Charge (ESU x 10^10)
                 0.0000
    Dipole Moment (Debye)
         X      -0.0000      Y      -0.0000      Z      -0.7401
       Tot       0.7401
    Quadrupole Moments (Debye-Ang)
        XX     -19.0252     XY       0.0000     YY     -20.6005
        XZ      -0.0000     YZ       0.0000     ZZ     -21.2444
    Octopole Moments (Debye-Ang^2)
       XXX      -0.0000    XXY      -0.0000    XYY      -0.0000
       YYY      -0.0000    XXZ     -20.9865    XYZ       0.0000
       YYZ     -21.5607    XZZ      -0.0000    YZZ      -0.0000
       ZZZ     -61.2164
    Hexadecapole Moments (Debye-Ang^3)
      XXXX     -21.6467   XXXY       0.0000   XXYY     -10.0872
      XYYY       0.0000   YYYY     -36.6306   XXXZ      -0.0000
      XXYZ       0.0000   XYYZ      -0.0000   YYYZ       0.0000
      XXZZ     -46.2772   XYZZ       0.0000   YYZZ     -50.2537
      XZZZ      -0.0000   YZZZ       0.0000   ZZZZ    -244.5118
 -----------------------------------------------------------------
Archival summary:
1\1\n0078.mhg0\SP\ProcedureUnspecified\BasisUnspecified\l112\yhljason\WedNov1116:46:032020WedNov1116:46:032020\0\\#,ProcedureUnspecified,BasisUnspecified,\\0,1\Cl\B,1,1.7353\H,2,1.19161,1,117.89\H,2,1.19161,1,117.89,3,-180,0\\\@

 Total job time:  1355.92s(wall), 10713.81s(cpu) 
 Wed Nov 11 16:46:03 2020

        *************************************************************
        *                                                           *
        *  Thank you very much for using Q-Chem.  Have a nice day.  *
        *                                                           *
        *************************************************************


 
User input: 7 of 7 
 
Q-Chem Developer Version!
                  Welcome to Q-Chem
     A Quantum Leap Into The Future Of Chemistry


 Q-Chem 5.1, Q-Chem, Inc., Pleasanton, CA (2018)

 Yihan Shao,  Zhengting Gan,  E. Epifanovsky,  A. T. B. Gilbert,  M. Wormit,  
 J. Kussmann,  A. W. Lange,  A. Behn,  Jia Deng,  Xintian Feng,  D. Ghosh,  
 M. Goldey,  P. R. Horn,  L. D. Jacobson,  I. Kaliman,  T. Kus,  A. Landau,  
 Jie Liu,  E. I. Proynov,  R. M. Richard,  R. P. Steele,  E. J. Sundstrom,  
 H. L. Woodcock III,  P. M. Zimmerman,  D. Zuev,  B. Albrecht,  E. Alguire,  
 S. A. Baeppler,  D. Barton,  Z. Benda,  Y. A. Bernard,  E. J. Berquist,  
 K. B. Bravaya,  H. Burton,  D. Casanova,  Chun-Min Chang,  Yunqing Chen,  
 A. Chien,  K. D. Closser,  M. P. Coons,  S. Coriani,  S. Dasgupta,  
 A. L. Dempwolff,  M. Diedenhofen,  Hainam Do,  R. G. Edgar,  Po-Tung Fang,  
 S. Faraji,  S. Fatehi,  Qingguo Feng,  K. D. Fenk,  J. Fosso-Tande,  
 Qinghui Ge,  A. Ghysels,  G. Gidofalvi,  J. Gomes,  J. Gonthier,  A. Gunina,  
 D. Hait,  M. W. D. Hanson-Heine,  P. H. P. Harbach,  A. W. Hauser,  
 J. E. Herr,  E. G. Hohenstein,  Z. C. Holden,  Kerwin Hui,  B. C. Huynh,  
 T.-C. Jagau,  Hyunjun Ji,  B. Kaduk,  K. Khistyaev,  Jaehoon Kim,  
 P. Klunzinger,  K. Koh,  D. Kosenkov,  L. Koulias,  T. Kowalczyk,  
 C. M. Krauter,  A. Kunitsa,  Ka Un Lao,  A. Laurent,  K. V. Lawler,  
 Joonho Lee,  D. Lefrancois,  S. Lehtola,  D. S. Levine,  Yi-Pei Li,  
 You-Sheng Lin,  Fenglai Liu,  E. Livshits,  A. Luenser,  P. Manohar,  
 E. Mansoor,  S. F. Manzer,  Shan-Ping Mao,  Yuezhi Mao,  N. Mardirossian,  
 A. V. Marenich,  T. Markovich,  L. A. Martinez-Martinez,  S. A. Maurer,  
 N. J. Mayhall,  S. C. McKenzie,  J.-M. Mewes,  A. F. Morrison,  
 J. W. Mullinax,  K. Nanda,  T. S. Nguyen-Beck,  R. Olivares-Amaya,  
 J. A. Parkhill,  T. M. Perrine,  F. Plasser,  P. Pokhilko,  S. Prager,  
 A. Prociuk,  E. Ramos,  D. R. Rehn,  F. Rob,  M. Schneider,  N. Sergueev,  
 S. M. Sharada,  S. Sharma,  D. W. Small,  T. Stauch,  T. Stein,  
 Yu-Chuan Su,  A. J. W. Thom,  A. Tkatchenko,  T. Tsuchimochi,  N. M. Tubman,  
 L. Vogt,  M. L. Vidal,  O. Vydrov,  M. A. Watson,  J. Wenzel,  
 M. de Wergifosse,  T. A. Wesolowski,  A. White,  J. Witte,  A. Yamada,  
 Jun Yang,  K. Yao,  S. Yeganeh,  S. R. Yost,  Zhi-Qiang You,  A. Zech,  
 Igor Ying Zhang,  Xing Zhang,  Yan Zhao,  Ying Zhu,  B. R. Brooks,  
 G. K. L. Chan,  C. J. Cramer,  M. S. Gordon,  W. J. Hehre,  A. Klamt,  
 M. W. Schmidt,  C. D. Sherrill,  D. G. Truhlar,  A. Aspuru-Guzik,  R. Baer,  
 A. T. Bell,  N. A. Besley,  Jeng-Da Chai,  A. E. DePrince, III,  
 R. A. DiStasio Jr.,  A. Dreuw,  B. D. Dunietz,  T. R. Furlani,  
 Chao-Ping Hsu,  Yousung Jung,  Jing Kong,  D. S. Lambrecht,  WanZhen Liang,  
 C. Ochsenfeld,  V. A. Rassolov,  L. V. Slipchenko,  J. E. Subotnik,  
 T. Van Voorhis,  J. M. Herbert,  A. I. Krylov,  P. M. W. Gill,  M. Head-Gordon

 Contributors to earlier versions of Q-Chem not listed above: 
 R. D. Adamson,  B. Austin,  J. Baker,  G. J. O. Beran,  K. Brandhorst,  
 S. T. Brown,  E. F. C. Byrd,  A. K. Chakraborty,  C.-L. Cheng,  
 Siu Hung Chien,  D. M. Chipman,  D. L. Crittenden,  H. Dachsel,  
 R. J. Doerksen,  A. D. Dutoi,  L. Fusti-Molnar,  W. A. Goddard III,  
 A. Golubeva-Zadorozhnaya,  S. R. Gwaltney,  G. Hawkins,  A. Heyden,  
 S. Hirata,  G. Kedziora,  F. J. Keil,  C. Kelley,  Jihan Kim,  R. A. King,  
 R. Z. Khaliullin,  P. P. Korambath,  W. Kurlancheek,  A. M. Lee,  M. S. Lee,  
 S. V. Levchenko,  Ching Yeh Lin,  D. Liotard,  R. C. Lochan,  I. Lotan,  
 P. E. Maslen,  N. Nair,  D. P. O'Neill,  D. Neuhauser,  E. Neuscamman,  
 C. M. Oana,  R. Olson,  B. Peters,  R. Peverati,  P. A. Pieniazek,  
 Y. M. Rhee,  J. Ritchie,  M. A. Rohrdanz,  E. Rosta,  N. J. Russ,  
 H. F. Schaefer III,  N. E. Schultz,  N. Shenvi,  A. C. Simmonett,  A. Sodt,  
 D. Stuck,  K. S. Thanthiriwatte,  V. Vanovschi,  Tao Wang,  A. Warshel,  
 C. F. Williams,  Q. Wu,  X. Xu,  W. Zhang

 Please cite Q-Chem as follows:
 Y. Shao et al., Mol. Phys. 113, 184-215 (2015)
 DOI: 10.1080/00268976.2014.952696

 Q-Chem 5.1.1 for Intel X86 EM64T Linux

 Parts of Q-Chem use Armadillo 8.300.2 (Tropical Shenanigans).
 http://arma.sourceforge.net/

 Q-Chem begins on Wed Nov 11 16:46:03 2020  

Host: n0078.mhg0
0

     Scratch files written to /local/scratch/users/yhljason/BH2Cl_PTPSS-D3_aug-cc-pcVQZ.inp20201111140400//
The previous job contains 0 fragments, simply inherited here
Input Ideriv = 0
Curr. Ideriv = -1
Max.  Ideriv = 0
Analytic post-HF gradients are not available with non-HF exchange
Input Ideriv = 0
Curr. Ideriv = 0
Max.  Ideriv = 0

Checking the input file for inconsistencies... 	...done.

--------------------------------------------------------------
User input:
--------------------------------------------------------------
$molecule
read
$end

$rem
jobtype sp
exchange PTPSS-D3
xc_grid 000099000590
basis aug-cc-pcVQZ

max_scf_cycles 200
thresh 14
scf_convergence 8
mem_total 128000
cc_memory 96000
cc_backend xm
mem_static 1500
symmetry false
sym_ignore true
scf_guess read
unrestricted false
scf_algorithm gdm
n_frozen_core 0
$end



$multipole_field
ZZ -0.0001
$end

--------------------------------------------------------------
 Adding empirical dispersion correction 
 ----------------------------------------------------------------
 Doing -D3(0) with
 s6  =   0.75000
 s8  =   0.87900
 rs6 =   1.54100
 rs8 =   1.00000
 -D3 energy without 3body term =     -0.0005066876 hartrees
 ----------------------------------------------------------------
             Standard Nuclear Orientation (Angstroms)
    I     Atom           X                Y                Z
 ----------------------------------------------------------------
    1      B       0.0000000000     0.0000000000     0.0000000000
    2      Cl      0.0000000000     0.0000000000     1.7353000000
    3      H       0.0000000000     1.0532000000    -0.5574000000
    4      H       0.0000000000    -1.0532000000    -0.5574000000
 ----------------------------------------------------------------
 Nuclear Repulsion Energy =    37.7433222074 hartrees
 There are       12 alpha and       12 beta electrons
 Requested basis set is aug-cc-pCVQZ
 There are 91 shells and 335 basis functions

 Total QAlloc Memory Limit 128000 MB
 Mega-Array Size      1467 MB
 MEM_STATIC part      1500 MB

                       Distance Matrix (Angstroms)
             B (  1)   Cl(  2)   H (  3)
   Cl(  2)  1.735300
   H (  3)  1.191606  2.523035
   H (  4)  1.191606  2.523035  2.106400
 
 Applying Cartesian multipole field
    Component          Value
    ---------          -----
     (0,0,2)       -1.00000E-04
 Nucleus-field energy     =    -0.0185027271 hartrees
 A cutoff of  1.0D-14 yielded   4038 shell pairs
 There are     55162 function pairs (     88401 Cartesian)
 
 -------------------------------------------------------
 OpenMP Integral Computing Module                       
 Release: version 1.0, May 2013, Q-Chem Inc. Pittsburgh 
 -------------------------------------------------------
 Integral Job Info:
 Integral job number is                      11
 Integral operator is                         1
 short-range coefficients                     0
 long-range coefficients              100000000
 Omega coefficients                           0
 if combine SR and LR in K                    0
 Integral screening is                        0
 Integral computing path is                   2
 max size of driver memory is           3200000
 size of driver memory is               1704330
 size of scratch memory is             29435624
 max col of scratch BK array              50625
 max len of scratch array in speh3         2114
 max len of scratch index in speh4           50
 max int batch size is                      520
 min int batch size is                       52
 fixed nKL is                                22
 max L of basis functions is                  4
 order of int derivative is                   0
 number of shells is                         91
 number of basis is                         423
 number of cartesian basis is               423
 number of contracted shell pairs          4038
 number of primitive shell pairs          11450
 maxK2 (contraction) of shell pair          169
 max number of K2 of shell pair               1
 max number of CS2 of shell pair            488
 max number of PS2 of shell pair           1014
 mem total for path MDJ                  781840
 -------------------------------------------------------
 Smallest overlap matrix eigenvalue = 2.45E-05
 Guess MOs from SCF MO coefficient file

 -----------------------------------------------------------------------
  General SCF calculation program by
  Eric Jon Sundstrom, Paul Horn, Yuezhi Mao, Dmitri Zuev, Alec White,
  David Stuck, Shaama M.S., Shane Yost, Joonho Lee, David Small,
  Daniel Levine, Susi Lehtola, Hugh Burton, Evgeny Epifanovsky
 -----------------------------------------------------------------------
 Exchange:     0.5000 Hartree-Fock + 0.5000 PTPSS-D3
 Correlation:  0.6250 PTPSS-D3
 Using Euler-Maclaurin-Lebedev (99,590) quadrature formula
 Dispersion:   Grimme D3
 using 8 threads for integral computing
 -------------------------------------------------------
 OpenMP Integral computing Module                
 Release: version 2.0, May 2017, Q-Chem Inc. Pleasanton 
 -------------------------------------------------------
 -------------------------------------------------------
 OpenMP BLAS3 based DFT computing Module                
 Release: version 1.0, May 2013, Q-Chem Inc. Pittsburgh 
 -------------------------------------------------------
 A restricted SCF calculation will be
 performed using GDM
 SCF converges when RMS gradient is below 1.0e-08
 ---------------------------------------
  Cycle       Energy        RMS Gradient
 ---------------------------------------
    1    -486.0039199137      1.74e-03   Normal BFGS step
    2    -486.0039307408      8.42e-04   Normal BFGS step
    3    -486.0039351817      1.27e-04   Normal BFGS step
    4    -486.0039352738      4.07e-05   Normal BFGS step
    5    -486.0039352902      9.26e-06   Normal BFGS step
    6    -486.0039352908      1.64e-06   Normal BFGS step
    7    -486.0039352908      5.97e-07   Normal BFGS step
    8    -486.0039352908      9.05e-08   Normal BFGS step
    9    -486.0039352908      9.40e-09  Convergence criterion met
 ---------------------------------------
 SCF time:   CPU 4710.49s  wall 594.00s 
 SCF   energy in the final basis set =     -486.0039352908
 Total energy in the final basis set =     -486.0039352908
 
 Components of the MP2 correlation energy:
        aaaa  correlation energy =         0.0000000000 au
        abab  correlation energy =        -0.2484926780 au
        bbbb  correlation energy =         0.0000000000 au
        non-Brillouin singles    =        -0.0000000000 au

 Total  MP2   correlation energy =                    -0.24849268 au
        MP2         total energy =                  -486.25242797 au
 
 --------------------------------------------------------------
 
                    Orbital Energies (a.u.)
 --------------------------------------------------------------
 
 Alpha MOs
 -- Occupied --
*******  -9.913  -7.532  -7.530  -7.528  -7.146  -0.959  -0.597
 -0.472  -0.458  -0.412  -0.359
 -- Virtual --
 -0.022   0.020   0.031   0.033   0.041   0.069   0.072   0.088
  0.101   0.104   0.106   0.108   0.113   0.146   0.160   0.172
  0.195   0.196   0.201   0.222   0.222   0.241   0.245   0.251
  0.254   0.260   0.263   0.269   0.318   0.322   0.334   0.409
  0.412   0.412   0.423   0.430   0.441   0.459   0.477   0.487
  0.488   0.509   0.511   0.520   0.526   0.527   0.540   0.605
  0.614   0.627   0.671   0.684   0.687   0.726   0.737   0.749
  0.754   0.757   0.821   0.824   0.829   0.845   0.849   0.861
  0.869   0.881   0.908   0.924   0.974   0.977   0.990   1.023
  1.040   1.051   1.078   1.082   1.099   1.114   1.188   1.218
  1.228   1.363   1.380   1.392   1.402   1.404   1.428   1.451
  1.471   1.497   1.506   1.528   1.542   1.545   1.590   1.595
  1.609   1.613   1.634   1.687   1.710   1.745   1.746   1.766
  1.779   1.783   1.802   1.817   1.870   1.873   1.927   1.933
  1.948   1.974   1.987   2.001   2.017   2.021   2.027   2.062
  2.092   2.116   2.121   2.128   2.138   2.179   2.193   2.213
  2.235   2.253   2.265   2.277   2.287   2.360   2.421   2.423
  2.490   2.514   2.618   2.619   2.687   2.781   2.789   2.852
  2.860   2.993   3.047   3.089   3.159   3.179   3.215   3.219
  3.275   3.283   3.319   3.371   3.514   3.540   3.626   3.718
  3.789   3.808   3.864   3.900   3.909   3.981   4.035   4.047
  4.054   4.057   4.109   4.164   4.182   4.206   4.236   4.249
  4.252   4.289   4.375   4.432   4.496   4.529   4.546   4.557
  4.594   4.599   4.620   4.702   4.712   4.733   4.753   4.828
  4.844   4.915   5.010   5.050   5.083   5.140   5.180   5.211
  5.339   5.362   5.507   5.524   5.645   5.812   5.906   5.996
  6.174   6.609   6.651   6.661   6.691   6.969   7.219   7.340
  7.382   7.497   7.519   7.636   7.652   7.722   7.773   7.939
  8.039   8.312   8.398   8.709   8.711   8.895   8.945   8.991
  9.076   9.080   9.266   9.272   9.290   9.499   9.582   9.746
  9.982  10.265  11.015  11.423  11.818  11.859  12.050  12.322
 12.557  12.720  14.106  14.194  17.833  18.051  18.780  19.587
 19.637  19.848  20.521  20.634  21.237  21.240  21.294  21.308
 21.315  21.368  21.465  25.355  33.771  37.324  37.348  37.493
 37.653  37.869  44.565  45.571  45.625  51.594  51.760  52.388
 64.934  64.935  64.936  64.936  64.937  64.938  64.938  64.940
 64.940  75.302  75.303  75.332  75.337  75.341  75.360  75.369
 75.400  75.423  75.423  75.429  75.431  75.460  75.462  83.554
 85.589  85.622  85.764  86.117  86.174  97.793 110.164 110.180
110.287 110.401 110.551 151.595 152.405 152.463 165.817 165.915
166.297 348.992 456.077
 --------------------------------------------------------------
 
          Ground-State Mulliken Net Atomic Charges

     Atom                 Charge (a.u.)
  ----------------------------------------
      1 B                     0.194514
      2 Cl                   -0.029495
      3 H                    -0.082510
      4 H                    -0.082510
  ----------------------------------------
  Sum of atomic charges =     0.000000

 -----------------------------------------------------------------
                    Cartesian Multipole Moments
 -----------------------------------------------------------------
    Charge (ESU x 10^10)
                 0.0000
    Dipole Moment (Debye)
         X      -0.0000      Y      -0.0000      Z      -0.6823
       Tot       0.6823
    Quadrupole Moments (Debye-Ang)
        XX     -19.0236     XY      -0.0000     YY     -20.6021
        XZ       0.0000     YZ       0.0000     ZZ     -21.0379
    Octopole Moments (Debye-Ang^2)
       XXX       0.0000    XXY      -0.0000    XYY       0.0000
       YYY      -0.0000    XXZ     -20.9422    XYZ       0.0000
       YYZ     -21.5144    XZZ       0.0000    YZZ      -0.0000
       ZZZ     -60.6074
    Hexadecapole Moments (Debye-Ang^3)
      XXXX     -21.6408   XXXY       0.0000   XXYY     -10.0847
      XYYY      -0.0000   YYYY     -36.6318   XXXZ       0.0000
      XXYZ      -0.0000   XYYZ       0.0000   YYYZ       0.0000
      XXZZ     -46.1262   XYZZ       0.0000   YYZZ     -50.0918
      XZZZ       0.0000   YZZZ      -0.0000   ZZZZ    -242.5358
 -----------------------------------------------------------------
Archival summary:
1\1\n0078.mhg0\SP\ProcedureUnspecified\BasisUnspecified\l112\yhljason\WedNov1117:08:082020WedNov1117:08:082020\0\\#,ProcedureUnspecified,BasisUnspecified,\\0,1\Cl\B,1,1.7353\H,2,1.19161,1,117.89\H,2,1.19161,1,117.89,3,-180,0\\\@

 Total job time:  1324.80s(wall), 10475.16s(cpu) 
 Wed Nov 11 17:08:08 2020

        *************************************************************
        *                                                           *
        *  Thank you very much for using Q-Chem.  Have a nice day.  *
        *                                                           *
        *************************************************************


