Q-Chem Developer Version!
                  Welcome to Q-Chem
     A Quantum Leap Into The Future Of Chemistry


 Q-Chem 5.1, Q-Chem, Inc., Pleasanton, CA (2018)

 Yihan Shao,  Zhengting Gan,  E. Epifanovsky,  A. T. B. Gilbert,  M. Wormit,  
 J. Kussmann,  A. W. Lange,  A. Behn,  Jia Deng,  Xintian Feng,  D. Ghosh,  
 M. Goldey,  P. R. Horn,  L. D. Jacobson,  I. Kaliman,  T. Kus,  A. Landau,  
 Jie Liu,  E. I. Proynov,  R. M. Richard,  R. P. Steele,  E. J. Sundstrom,  
 H. L. Woodcock III,  P. M. Zimmerman,  D. Zuev,  B. Albrecht,  E. Alguire,  
 S. A. Baeppler,  D. Barton,  Z. Benda,  Y. A. Bernard,  E. J. Berquist,  
 K. B. Bravaya,  H. Burton,  D. Casanova,  Chun-Min Chang,  Yunqing Chen,  
 A. Chien,  K. D. Closser,  M. P. Coons,  S. Coriani,  S. Dasgupta,  
 A. L. Dempwolff,  M. Diedenhofen,  Hainam Do,  R. G. Edgar,  Po-Tung Fang,  
 S. Faraji,  S. Fatehi,  Qingguo Feng,  K. D. Fenk,  J. Fosso-Tande,  
 Qinghui Ge,  A. Ghysels,  G. Gidofalvi,  J. Gomes,  J. Gonthier,  A. Gunina,  
 D. Hait,  M. W. D. Hanson-Heine,  P. H. P. Harbach,  A. W. Hauser,  
 J. E. Herr,  E. G. Hohenstein,  Z. C. Holden,  Kerwin Hui,  B. C. Huynh,  
 T.-C. Jagau,  Hyunjun Ji,  B. Kaduk,  K. Khistyaev,  Jaehoon Kim,  
 P. Klunzinger,  K. Koh,  D. Kosenkov,  L. Koulias,  T. Kowalczyk,  
 C. M. Krauter,  A. Kunitsa,  Ka Un Lao,  A. Laurent,  K. V. Lawler,  
 Joonho Lee,  D. Lefrancois,  S. Lehtola,  D. S. Levine,  Yi-Pei Li,  
 You-Sheng Lin,  Fenglai Liu,  E. Livshits,  A. Luenser,  P. Manohar,  
 E. Mansoor,  S. F. Manzer,  Shan-Ping Mao,  Yuezhi Mao,  N. Mardirossian,  
 A. V. Marenich,  T. Markovich,  L. A. Martinez-Martinez,  S. A. Maurer,  
 N. J. Mayhall,  S. C. McKenzie,  J.-M. Mewes,  A. F. Morrison,  
 J. W. Mullinax,  K. Nanda,  T. S. Nguyen-Beck,  R. Olivares-Amaya,  
 J. A. Parkhill,  T. M. Perrine,  F. Plasser,  P. Pokhilko,  S. Prager,  
 A. Prociuk,  E. Ramos,  D. R. Rehn,  F. Rob,  M. Schneider,  N. Sergueev,  
 S. M. Sharada,  S. Sharma,  D. W. Small,  T. Stauch,  T. Stein,  
 Yu-Chuan Su,  A. J. W. Thom,  A. Tkatchenko,  T. Tsuchimochi,  N. M. Tubman,  
 L. Vogt,  M. L. Vidal,  O. Vydrov,  M. A. Watson,  J. Wenzel,  
 M. de Wergifosse,  T. A. Wesolowski,  A. White,  J. Witte,  A. Yamada,  
 Jun Yang,  K. Yao,  S. Yeganeh,  S. R. Yost,  Zhi-Qiang You,  A. Zech,  
 Igor Ying Zhang,  Xing Zhang,  Yan Zhao,  Ying Zhu,  B. R. Brooks,  
 G. K. L. Chan,  C. J. Cramer,  M. S. Gordon,  W. J. Hehre,  A. Klamt,  
 M. W. Schmidt,  C. D. Sherrill,  D. G. Truhlar,  A. Aspuru-Guzik,  R. Baer,  
 A. T. Bell,  N. A. Besley,  Jeng-Da Chai,  A. E. DePrince, III,  
 R. A. DiStasio Jr.,  A. Dreuw,  B. D. Dunietz,  T. R. Furlani,  
 Chao-Ping Hsu,  Yousung Jung,  Jing Kong,  D. S. Lambrecht,  WanZhen Liang,  
 C. Ochsenfeld,  V. A. Rassolov,  L. V. Slipchenko,  J. E. Subotnik,  
 T. Van Voorhis,  J. M. Herbert,  A. I. Krylov,  P. M. W. Gill,  M. Head-Gordon

 Contributors to earlier versions of Q-Chem not listed above: 
 R. D. Adamson,  B. Austin,  J. Baker,  G. J. O. Beran,  K. Brandhorst,  
 S. T. Brown,  E. F. C. Byrd,  A. K. Chakraborty,  C.-L. Cheng,  
 Siu Hung Chien,  D. M. Chipman,  D. L. Crittenden,  H. Dachsel,  
 R. J. Doerksen,  A. D. Dutoi,  L. Fusti-Molnar,  W. A. Goddard III,  
 A. Golubeva-Zadorozhnaya,  S. R. Gwaltney,  G. Hawkins,  A. Heyden,  
 S. Hirata,  G. Kedziora,  F. J. Keil,  C. Kelley,  Jihan Kim,  R. A. King,  
 R. Z. Khaliullin,  P. P. Korambath,  W. Kurlancheek,  A. M. Lee,  M. S. Lee,  
 S. V. Levchenko,  Ching Yeh Lin,  D. Liotard,  R. C. Lochan,  I. Lotan,  
 P. E. Maslen,  N. Nair,  D. P. O'Neill,  D. Neuhauser,  E. Neuscamman,  
 C. M. Oana,  R. Olson,  B. Peters,  R. Peverati,  P. A. Pieniazek,  
 Y. M. Rhee,  J. Ritchie,  M. A. Rohrdanz,  E. Rosta,  N. J. Russ,  
 H. F. Schaefer III,  N. E. Schultz,  N. Shenvi,  A. C. Simmonett,  A. Sodt,  
 D. Stuck,  K. S. Thanthiriwatte,  V. Vanovschi,  Tao Wang,  A. Warshel,  
 C. F. Williams,  Q. Wu,  X. Xu,  W. Zhang

 Please cite Q-Chem as follows:
 Y. Shao et al., Mol. Phys. 113, 184-215 (2015)
 DOI: 10.1080/00268976.2014.952696

 Q-Chem 5.1.1 for Intel X86 EM64T Linux

 Parts of Q-Chem use Armadillo 8.300.2 (Tropical Shenanigans).
 http://arma.sourceforge.net/

 Q-Chem begins on Wed Nov 11 14:04:20 2020  

Host: n0101.mhg0
0

     Scratch files written to /local/scratch/users/yhljason/CH3Li_DSD-PBEPBE-D3_aug-cc-pcVTZ.inp20201111140416//
Input Ideriv = 0
Curr. Ideriv = -1
Max.  Ideriv = 0
Analytic post-HF gradients are not available with non-HF exchange
Input Ideriv = 0
Curr. Ideriv = 0
Max.  Ideriv = 0

Checking the input file for inconsistencies... 	...done.

--------------------------------------------------------------
User input:
--------------------------------------------------------------
$molecule
0 1
C1 -0.0000000000 0.0000000000 1.9851000000
H2 -0.8744257046 0.5050292293 2.4086001236
H3 0.8745747704 0.5047710498 2.4086001158
H4 -0.0001490540 -1.0098003255 2.4086001425
Li5 0.0000000000 0.0000000000 0.0000000000
$end
$rem
jobtype sp
exchange DSD-PBEPBE-D3
xc_grid 000099000590
basis aug-cc-pcVTZ

max_scf_cycles 200
thresh 14
scf_convergence 8
scf_algorithm gdm
symmetry false
sym_ignore true
unrestricted false
gen_scfman true
internal_stability_iter 15
internal_stability_davidson_iter 200
mem_total 128000
cc_memory 96000
cc_backend xm
mem_static 1500
n_frozen_core 0
$end



--------------------------------------------------------------
 Adding empirical dispersion correction 
 ----------------------------------------------------------------
 Doing -D3(BJ) with
 s6 =   0.78000
 s8 =   0.00000
 a1 =   0.00000
 a2 =   6.10000
 -D3 energy without 3body term =     -0.0014851895 hartrees
 ----------------------------------------------------------------
             Standard Nuclear Orientation (Angstroms)
    I     Atom           X                Y                Z
 ----------------------------------------------------------------
    1      C       0.0000000000     0.0000000000     1.9851000000
    2      H      -0.8744257046     0.5050292293     2.4086001236
    3      H       0.8745747704     0.5047710498     2.4086001158
    4      H      -0.0001490540    -1.0098003255     2.4086001425
    5      Li      0.0000000000     0.0000000000     0.0000000000
 ----------------------------------------------------------------
 Nuclear Repulsion Energy =    16.2268525195 hartrees
 There are        6 alpha and        6 beta electrons
 Requested basis set is aug-cc-pCVTZ
 There are 65 shells and 187 basis functions

 Total QAlloc Memory Limit 128000 MB
 Mega-Array Size      1467 MB
 MEM_STATIC part      1500 MB

                       Distance Matrix (Angstroms)
             C (  1)   H (  2)   H (  3)   H (  4)
   H (  2)  1.095001
   H (  3)  1.095001  1.749000
   H (  4)  1.095011  1.749019  1.749019
   Li(  5)  1.985100  2.611710  2.611710  2.611714
 
 A cutoff of  1.0D-14 yielded   2136 shell pairs
 There are     17766 function pairs (     23124 Cartesian)
 
 -------------------------------------------------------
 OpenMP Integral Computing Module                       
 Release: version 1.0, May 2013, Q-Chem Inc. Pittsburgh 
 -------------------------------------------------------
 Integral Job Info:
 Integral job number is                      11
 Integral operator is                         1
 short-range coefficients                     0
 long-range coefficients              100000000
 Omega coefficients                           0
 if combine SR and LR in K                    0
 Integral screening is                        0
 Integral computing path is                   2
 max size of driver memory is            800000
 size of driver memory is                776718
 size of scratch memory is              9449352
 max col of scratch BK array              10000
 max len of scratch array in speh3          662
 max len of scratch index in speh4           32
 max int batch size is                      520
 min int batch size is                       52
 fixed nKL is                                52
 max L of basis functions is                  3
 order of int derivative is                   0
 number of shells is                         65
 number of basis is                         213
 number of cartesian basis is               213
 number of contracted shell pairs          2136
 number of primitive shell pairs           5185
 maxK2 (contraction) of shell pair           81
 max number of K2 of shell pair               1
 max number of CS2 of shell pair            365
 max number of PS2 of shell pair            365
 mem total for path MDJ                  570992
 -------------------------------------------------------
 Smallest overlap matrix eigenvalue = 5.76E-05

 Scale SEOQF with 1.000000e-01/1.000000e-01/1.000000e-01

 Standard Electronic Orientation quadrupole field applied
 Nucleus-field energy     =    -0.0000000042 hartrees
 Guess from superposition of atomic densities
 Warning:  Energy on first SCF cycle will be non-variational
 SAD guess density has 12.000000 electrons

 -----------------------------------------------------------------------
  General SCF calculation program by
  Eric Jon Sundstrom, Paul Horn, Yuezhi Mao, Dmitri Zuev, Alec White,
  David Stuck, Shaama M.S., Shane Yost, Joonho Lee, David Small,
  Daniel Levine, Susi Lehtola, Hugh Burton, Evgeny Epifanovsky
 -----------------------------------------------------------------------
 Exchange:     0.6800 Hartree-Fock + 0.3200 PBE
 Correlation:  0.4900 PBE
 Using Euler-Maclaurin-Lebedev (99,590) quadrature formula
 Dispersion:   Grimme D3
Running Object-Oriented RKS (RHF)
We will preform up to 15 macro iterations over saddle points until a stable solution is found
Energy prior to optimization (guess energy) = -47.120777855671
Begin Timing: Total SCF Calculation
Begin Timing: SCF Single Stationary Point Calculation
begin iterations for algorithm: GDM          
the SCF tolerance is set to 1.00e-08
    1     -47.1207778557      1.09e-01     00000  Descent step
    2     -47.1438067911      8.91e-02     00000  Normal BFGS step
    3     -47.1872382284      6.09e-03     00000  Normal BFGS step
    4     -47.1875716141      1.27e-03     00000  Normal BFGS step
    5     -47.1875887896      2.73e-04     00000  Normal BFGS step
    6     -47.1875893574      7.90e-05     00000  Normal BFGS step
    7     -47.1875893951      1.07e-05     00000  Normal BFGS step
    8     -47.1875893963      4.44e-06     00000  Normal BFGS step
    9     -47.1875893964      1.11e-06     00000  Normal BFGS step
   10     -47.1875893964      2.66e-07     00000  Normal BFGS step
   11     -47.1875893964      4.11e-08     00000  Normal BFGS step
   12     -47.1875893964      9.41e-09     00000 Convergence criterion met
Timing for Single Stationary Point: 47.00s (wall), 377.56s (cpu)
Begin Timing: Stability
===================================================
Beginning Test for Internal Stability
===================================================
generating davidson guess vectors based on koopmans excitations
    1      6.12e-01     00000 Davidson Iteration
    2      2.60e-01     00000 Davidson Iteration
    3      1.30e-01     00000 Davidson Iteration
    4      3.26e-02     00000 Davidson Iteration
    5      3.58e-03     00000 Davidson Iteration
    6      8.74e-04     00000 Davidson Iteration
    7      4.63e-04     00000 Davidson Iteration
    8      7.63e-05     00000 Davidson Iteration
    9      9.32e-05     00000 Davidson Converged
converged_eigenvalues
   0.5113
   0.6750
Threshold for negative eigenvalues: -1.0e-05
solution was a local minimum (stable)
===================================================
End Test for Internal Stability
===================================================
Our SCF solution is stable!
Timing for Total SCF: 105.00s (wall), 835.70s (cpu)
 Total energy in the final basis set =      -47.1875893964
    ==================================================
              The end of Object-Oriented SCFman       
    ==================================================
 
 Components of the MP2 correlation energy:
        aaaa  correlation energy =        -0.0035559212 au
        abab  correlation energy =        -0.1506843496 au
        bbbb  correlation energy =        -0.0035559212 au
        non-Brillouin singles    =        -0.0000000000 au

 Total  MP2   correlation energy =                    -0.15779619 au
        MP2         total energy =                   -47.34538559 au
 
 --------------------------------------------------------------
 
                    Orbital Energies (a.u.)
 --------------------------------------------------------------
 
 Alpha MOs
 -- Occupied --
-10.687  -2.247  -0.734  -0.399  -0.399  -0.243
 -- Virtual --
 -0.017   0.012   0.012   0.018   0.020   0.044   0.044   0.057
  0.067   0.067   0.067   0.093   0.093   0.105   0.118   0.118
  0.131   0.131   0.135   0.156   0.162   0.162   0.181   0.229
  0.229   0.287   0.290   0.290   0.298   0.302   0.309   0.309
  0.328   0.328   0.339   0.349   0.349   0.353   0.359   0.359
  0.372   0.387   0.388   0.388   0.393   0.440   0.465   0.465
  0.477   0.477   0.504   0.528   0.528   0.580   0.641   0.641
  0.737   0.737   0.785   0.785   0.803   0.808   0.817   0.817
  0.859   0.875   0.878   0.878   0.908   0.920   0.920   0.936
  0.963   0.963   0.987   1.043   1.043   1.058   1.074   1.074
  1.093   1.119   1.163   1.169   1.169   1.211   1.211   1.257
  1.257   1.295   1.339   1.339   1.349   1.592   1.592   1.595
  1.622   1.666   1.676   1.676   1.741   1.741   1.857   1.912
  1.912   1.930   2.066   2.066   2.083   2.210   2.210   2.242
  2.893   3.105   3.169   3.169   3.479   3.479   3.494   3.494
  3.536   3.619   3.619   3.658   3.796   3.796   3.821   3.850
  3.945   3.945   4.027   4.027   4.054   4.069   4.069   4.102
  4.364   4.395   4.395   4.500   4.567   4.693   4.693   4.828
  4.855   4.865   4.865   5.034   5.034   5.122   5.416   5.542
  5.542   5.704   6.026   6.026   6.440   6.543   6.543  14.644
 14.644  14.663  14.663  14.716  15.898  15.982  16.525  16.525
 17.553  18.289  18.289  18.693  41.299  41.299  41.359  41.555
 41.555  81.081  81.511  81.511  87.099
 --------------------------------------------------------------
 
          Ground-State Mulliken Net Atomic Charges

     Atom                 Charge (a.u.)
  ----------------------------------------
      1 C                    -1.050128
      2 H                     0.253859
      3 H                     0.253859
      4 H                     0.253854
      5 Li                    0.288557
  ----------------------------------------
  Sum of atomic charges =    -0.000000

 -----------------------------------------------------------------
                    Cartesian Multipole Moments
 -----------------------------------------------------------------
    Charge (ESU x 10^10)
                -0.0000
    Dipole Moment (Debye)
         X       0.0000      Y       0.0000      Z      -5.8816
       Tot       5.8816
    Quadrupole Moments (Debye-Ang)
        XX     -11.6525     XY      -0.0000     YY     -11.6524
        XZ       0.0000     YZ       0.0000     ZZ     -20.0641
    Octopole Moments (Debye-Ang^2)
       XXX       0.0001    XXY       0.2445    XYY      -0.0001
       YYY      -0.2445    XXZ     -20.5886    XYZ      -0.0000
       YYZ     -20.5885    XZZ       0.0000    YZZ       0.0001
       ZZZ     -80.6204
    Hexadecapole Moments (Debye-Ang^3)
      XXXX     -24.9167   XXXY      -0.0000   XXYY      -8.3056
      XYYY      -0.0000   YYYY     -24.9169   XXXZ       0.0004
      XXYZ       0.8202   XYYZ      -0.0004   YYYZ      -0.8201
      XXZZ     -48.0807   XYZZ      -0.0000   YYZZ     -48.0806
      XZZZ      -0.0000   YZZZ       0.0005   ZZZZ    -320.5032
 -----------------------------------------------------------------
Archival summary:
1\1\n0101.mhg0\SP\ProcedureUnspecified\BasisUnspecified\1i13\yhljason\WedNov1114:06:432020WedNov1114:06:432020\0\\#,ProcedureUnspecified,BasisUnspecified,\\0,1\C\H,1,1.095\H,1,1.095,2,105.999\H,1,1.09501,2,106,3,-112.365,0\Li,1,1.9851,2,112.753,3,123.817,0\\\@

 Total job time:  143.07s(wall), 1134.04s(cpu) 
 Wed Nov 11 14:06:43 2020

        *************************************************************
        *                                                           *
        *  Thank you very much for using Q-Chem.  Have a nice day.  *
        *                                                           *
        *************************************************************


 
User input: 2 of 7 
 
Q-Chem Developer Version!
                  Welcome to Q-Chem
     A Quantum Leap Into The Future Of Chemistry


 Q-Chem 5.1, Q-Chem, Inc., Pleasanton, CA (2018)

 Yihan Shao,  Zhengting Gan,  E. Epifanovsky,  A. T. B. Gilbert,  M. Wormit,  
 J. Kussmann,  A. W. Lange,  A. Behn,  Jia Deng,  Xintian Feng,  D. Ghosh,  
 M. Goldey,  P. R. Horn,  L. D. Jacobson,  I. Kaliman,  T. Kus,  A. Landau,  
 Jie Liu,  E. I. Proynov,  R. M. Richard,  R. P. Steele,  E. J. Sundstrom,  
 H. L. Woodcock III,  P. M. Zimmerman,  D. Zuev,  B. Albrecht,  E. Alguire,  
 S. A. Baeppler,  D. Barton,  Z. Benda,  Y. A. Bernard,  E. J. Berquist,  
 K. B. Bravaya,  H. Burton,  D. Casanova,  Chun-Min Chang,  Yunqing Chen,  
 A. Chien,  K. D. Closser,  M. P. Coons,  S. Coriani,  S. Dasgupta,  
 A. L. Dempwolff,  M. Diedenhofen,  Hainam Do,  R. G. Edgar,  Po-Tung Fang,  
 S. Faraji,  S. Fatehi,  Qingguo Feng,  K. D. Fenk,  J. Fosso-Tande,  
 Qinghui Ge,  A. Ghysels,  G. Gidofalvi,  J. Gomes,  J. Gonthier,  A. Gunina,  
 D. Hait,  M. W. D. Hanson-Heine,  P. H. P. Harbach,  A. W. Hauser,  
 J. E. Herr,  E. G. Hohenstein,  Z. C. Holden,  Kerwin Hui,  B. C. Huynh,  
 T.-C. Jagau,  Hyunjun Ji,  B. Kaduk,  K. Khistyaev,  Jaehoon Kim,  
 P. Klunzinger,  K. Koh,  D. Kosenkov,  L. Koulias,  T. Kowalczyk,  
 C. M. Krauter,  A. Kunitsa,  Ka Un Lao,  A. Laurent,  K. V. Lawler,  
 Joonho Lee,  D. Lefrancois,  S. Lehtola,  D. S. Levine,  Yi-Pei Li,  
 You-Sheng Lin,  Fenglai Liu,  E. Livshits,  A. Luenser,  P. Manohar,  
 E. Mansoor,  S. F. Manzer,  Shan-Ping Mao,  Yuezhi Mao,  N. Mardirossian,  
 A. V. Marenich,  T. Markovich,  L. A. Martinez-Martinez,  S. A. Maurer,  
 N. J. Mayhall,  S. C. McKenzie,  J.-M. Mewes,  A. F. Morrison,  
 J. W. Mullinax,  K. Nanda,  T. S. Nguyen-Beck,  R. Olivares-Amaya,  
 J. A. Parkhill,  T. M. Perrine,  F. Plasser,  P. Pokhilko,  S. Prager,  
 A. Prociuk,  E. Ramos,  D. R. Rehn,  F. Rob,  M. Schneider,  N. Sergueev,  
 S. M. Sharada,  S. Sharma,  D. W. Small,  T. Stauch,  T. Stein,  
 Yu-Chuan Su,  A. J. W. Thom,  A. Tkatchenko,  T. Tsuchimochi,  N. M. Tubman,  
 L. Vogt,  M. L. Vidal,  O. Vydrov,  M. A. Watson,  J. Wenzel,  
 M. de Wergifosse,  T. A. Wesolowski,  A. White,  J. Witte,  A. Yamada,  
 Jun Yang,  K. Yao,  S. Yeganeh,  S. R. Yost,  Zhi-Qiang You,  A. Zech,  
 Igor Ying Zhang,  Xing Zhang,  Yan Zhao,  Ying Zhu,  B. R. Brooks,  
 G. K. L. Chan,  C. J. Cramer,  M. S. Gordon,  W. J. Hehre,  A. Klamt,  
 M. W. Schmidt,  C. D. Sherrill,  D. G. Truhlar,  A. Aspuru-Guzik,  R. Baer,  
 A. T. Bell,  N. A. Besley,  Jeng-Da Chai,  A. E. DePrince, III,  
 R. A. DiStasio Jr.,  A. Dreuw,  B. D. Dunietz,  T. R. Furlani,  
 Chao-Ping Hsu,  Yousung Jung,  Jing Kong,  D. S. Lambrecht,  WanZhen Liang,  
 C. Ochsenfeld,  V. A. Rassolov,  L. V. Slipchenko,  J. E. Subotnik,  
 T. Van Voorhis,  J. M. Herbert,  A. I. Krylov,  P. M. W. Gill,  M. Head-Gordon

 Contributors to earlier versions of Q-Chem not listed above: 
 R. D. Adamson,  B. Austin,  J. Baker,  G. J. O. Beran,  K. Brandhorst,  
 S. T. Brown,  E. F. C. Byrd,  A. K. Chakraborty,  C.-L. Cheng,  
 Siu Hung Chien,  D. M. Chipman,  D. L. Crittenden,  H. Dachsel,  
 R. J. Doerksen,  A. D. Dutoi,  L. Fusti-Molnar,  W. A. Goddard III,  
 A. Golubeva-Zadorozhnaya,  S. R. Gwaltney,  G. Hawkins,  A. Heyden,  
 S. Hirata,  G. Kedziora,  F. J. Keil,  C. Kelley,  Jihan Kim,  R. A. King,  
 R. Z. Khaliullin,  P. P. Korambath,  W. Kurlancheek,  A. M. Lee,  M. S. Lee,  
 S. V. Levchenko,  Ching Yeh Lin,  D. Liotard,  R. C. Lochan,  I. Lotan,  
 P. E. Maslen,  N. Nair,  D. P. O'Neill,  D. Neuhauser,  E. Neuscamman,  
 C. M. Oana,  R. Olson,  B. Peters,  R. Peverati,  P. A. Pieniazek,  
 Y. M. Rhee,  J. Ritchie,  M. A. Rohrdanz,  E. Rosta,  N. J. Russ,  
 H. F. Schaefer III,  N. E. Schultz,  N. Shenvi,  A. C. Simmonett,  A. Sodt,  
 D. Stuck,  K. S. Thanthiriwatte,  V. Vanovschi,  Tao Wang,  A. Warshel,  
 C. F. Williams,  Q. Wu,  X. Xu,  W. Zhang

 Please cite Q-Chem as follows:
 Y. Shao et al., Mol. Phys. 113, 184-215 (2015)
 DOI: 10.1080/00268976.2014.952696

 Q-Chem 5.1.1 for Intel X86 EM64T Linux

 Parts of Q-Chem use Armadillo 8.300.2 (Tropical Shenanigans).
 http://arma.sourceforge.net/

 Q-Chem begins on Wed Nov 11 14:06:44 2020  

Host: n0101.mhg0
0

     Scratch files written to /local/scratch/users/yhljason/CH3Li_DSD-PBEPBE-D3_aug-cc-pcVTZ.inp20201111140416//
The previous job contains 0 fragments, simply inherited here
Input Ideriv = 0
Curr. Ideriv = -1
Max.  Ideriv = 0
Analytic post-HF gradients are not available with non-HF exchange
Input Ideriv = 0
Curr. Ideriv = 0
Max.  Ideriv = 0

Checking the input file for inconsistencies... 	...done.

--------------------------------------------------------------
User input:
--------------------------------------------------------------
$molecule
read
$end

$rem
jobtype sp
exchange DSD-PBEPBE-D3
xc_grid 000099000590
basis aug-cc-pcVTZ

max_scf_cycles 200
thresh 14
scf_convergence 8
mem_total 128000
cc_memory 96000
cc_backend xm
mem_static 1500
symmetry false
sym_ignore true
scf_guess read
unrestricted false
scf_algorithm gdm
n_frozen_core 0
$end



$multipole_field
XX 0.0001
$end


--------------------------------------------------------------
 Adding empirical dispersion correction 
 ----------------------------------------------------------------
 Doing -D3(BJ) with
 s6 =   0.78000
 s8 =   0.00000
 a1 =   0.00000
 a2 =   6.10000
 -D3 energy without 3body term =     -0.0014851895 hartrees
 ----------------------------------------------------------------
             Standard Nuclear Orientation (Angstroms)
    I     Atom           X                Y                Z
 ----------------------------------------------------------------
    1      C       0.0000000000     0.0000000000     1.9851000000
    2      H      -0.8744257046     0.5050292293     2.4086001236
    3      H       0.8745747704     0.5047710498     2.4086001158
    4      H      -0.0001490540    -1.0098003255     2.4086001425
    5      Li      0.0000000000     0.0000000000     0.0000000000
 ----------------------------------------------------------------
 Nuclear Repulsion Energy =    16.2268525195 hartrees
 There are        6 alpha and        6 beta electrons
 Requested basis set is aug-cc-pCVTZ
 There are 65 shells and 187 basis functions

 Total QAlloc Memory Limit 128000 MB
 Mega-Array Size      1467 MB
 MEM_STATIC part      1500 MB

                       Distance Matrix (Angstroms)
             C (  1)   H (  2)   H (  3)   H (  4)
   H (  2)  1.095001
   H (  3)  1.095001  1.749000
   H (  4)  1.095011  1.749019  1.749019
   Li(  5)  1.985100  2.611710  2.611710  2.611714
 
 Applying Cartesian multipole field
    Component          Value
    ---------          -----
     (2,0,0)        1.00000E-04
 Nucleus-field energy     =     0.0005461949 hartrees
 A cutoff of  1.0D-14 yielded   2136 shell pairs
 There are     17766 function pairs (     23124 Cartesian)
 
 -------------------------------------------------------
 OpenMP Integral Computing Module                       
 Release: version 1.0, May 2013, Q-Chem Inc. Pittsburgh 
 -------------------------------------------------------
 Integral Job Info:
 Integral job number is                      11
 Integral operator is                         1
 short-range coefficients                     0
 long-range coefficients              100000000
 Omega coefficients                           0
 if combine SR and LR in K                    0
 Integral screening is                        0
 Integral computing path is                   2
 max size of driver memory is            800000
 size of driver memory is                776718
 size of scratch memory is              9449352
 max col of scratch BK array              10000
 max len of scratch array in speh3          662
 max len of scratch index in speh4           32
 max int batch size is                      520
 min int batch size is                       52
 fixed nKL is                                52
 max L of basis functions is                  3
 order of int derivative is                   0
 number of shells is                         65
 number of basis is                         213
 number of cartesian basis is               213
 number of contracted shell pairs          2136
 number of primitive shell pairs           5185
 maxK2 (contraction) of shell pair           81
 max number of K2 of shell pair               1
 max number of CS2 of shell pair            365
 max number of PS2 of shell pair            365
 mem total for path MDJ                  570992
 -------------------------------------------------------
 Smallest overlap matrix eigenvalue = 5.76E-05
 Guess MOs from SCF MO coefficient file

 -----------------------------------------------------------------------
  General SCF calculation program by
  Eric Jon Sundstrom, Paul Horn, Yuezhi Mao, Dmitri Zuev, Alec White,
  David Stuck, Shaama M.S., Shane Yost, Joonho Lee, David Small,
  Daniel Levine, Susi Lehtola, Hugh Burton, Evgeny Epifanovsky
 -----------------------------------------------------------------------
 Exchange:     0.6800 Hartree-Fock + 0.3200 PBE
 Correlation:  0.4900 PBE
 Using Euler-Maclaurin-Lebedev (99,590) quadrature formula
 Dispersion:   Grimme D3
 using 8 threads for integral computing
 -------------------------------------------------------
 OpenMP Integral computing Module                
 Release: version 2.0, May 2017, Q-Chem Inc. Pleasanton 
 -------------------------------------------------------
 -------------------------------------------------------
 OpenMP BLAS3 based DFT computing Module                
 Release: version 1.0, May 2013, Q-Chem Inc. Pittsburgh 
 -------------------------------------------------------
 A restricted SCF calculation will be
 performed using GDM
 SCF converges when RMS gradient is below 1.0e-08
 ---------------------------------------
  Cycle       Energy        RMS Gradient
 ---------------------------------------
    1     -47.1884557279      2.62e-04   Normal BFGS step
    2     -47.1884565002      1.43e-04   Normal BFGS step
    3     -47.1884566267      3.16e-05   Normal BFGS step
    4     -47.1884566391      7.95e-06   Normal BFGS step
    5     -47.1884566394      3.13e-06   Normal BFGS step
    6     -47.1884566394      3.61e-07   Normal BFGS step
    7     -47.1884566394      1.17e-07   Normal BFGS step
    8     -47.1884566394      2.27e-08   Normal BFGS step
    9     -47.1884566394      5.79e-09  Convergence criterion met
 ---------------------------------------
 SCF time:   CPU 321.60s  wall 41.00s 
 SCF   energy in the final basis set =      -47.1884566394
 Total energy in the final basis set =      -47.1884566394
 
 Components of the MP2 correlation energy:
        aaaa  correlation energy =        -0.0035565699 au
        abab  correlation energy =        -0.1506963607 au
        bbbb  correlation energy =        -0.0035565699 au
        non-Brillouin singles    =        -0.0000000000 au

 Total  MP2   correlation energy =                    -0.15780950 au
        MP2         total energy =                   -47.34626614 au
 
 --------------------------------------------------------------
 
                    Orbital Energies (a.u.)
 --------------------------------------------------------------
 
 Alpha MOs
 -- Occupied --
-10.688  -2.247  -0.735  -0.399  -0.399  -0.243
 -- Virtual --
 -0.019   0.002   0.009   0.013   0.015   0.037   0.041   0.054
  0.062   0.063   0.065   0.090   0.091   0.103   0.113   0.116
  0.128   0.130   0.133   0.155   0.159   0.160   0.178   0.227
  0.227   0.285   0.289   0.289   0.297   0.301   0.308   0.309
  0.327   0.328   0.338   0.347   0.348   0.352   0.357   0.358
  0.371   0.386   0.386   0.387   0.392   0.438   0.464   0.464
  0.475   0.476   0.503   0.526   0.527   0.579   0.640   0.640
  0.736   0.736   0.785   0.785   0.802   0.808   0.817   0.817
  0.858   0.875   0.877   0.877   0.907   0.919   0.919   0.935
  0.962   0.962   0.986   1.042   1.042   1.058   1.073   1.073
  1.093   1.119   1.163   1.168   1.168   1.210   1.210   1.256
  1.256   1.295   1.339   1.339   1.348   1.591   1.591   1.595
  1.621   1.666   1.675   1.675   1.741   1.741   1.856   1.911
  1.911   1.930   2.065   2.065   2.082   2.209   2.209   2.242
  2.893   3.104   3.169   3.169   3.478   3.479   3.494   3.494
  3.535   3.618   3.618   3.657   3.795   3.795   3.821   3.850
  3.945   3.945   4.027   4.027   4.054   4.068   4.069   4.101
  4.364   4.395   4.395   4.499   4.567   4.692   4.692   4.827
  4.855   4.864   4.864   5.034   5.034   5.122   5.416   5.542
  5.542   5.704   6.025   6.025   6.440   6.542   6.542  14.644
 14.644  14.663  14.663  14.715  15.898  15.981  16.525  16.525
 17.553  18.289  18.289  18.693  41.298  41.298  41.358  41.554
 41.554  81.080  81.510  81.510  87.098
 --------------------------------------------------------------
 
          Ground-State Mulliken Net Atomic Charges

     Atom                 Charge (a.u.)
  ----------------------------------------
      1 C                    -1.048707
      2 H                     0.253561
      3 H                     0.253561
      4 H                     0.254315
      5 Li                    0.287270
  ----------------------------------------
  Sum of atomic charges =     0.000000

 -----------------------------------------------------------------
                    Cartesian Multipole Moments
 -----------------------------------------------------------------
    Charge (ESU x 10^10)
                 0.0000
    Dipole Moment (Debye)
         X      -0.0000      Y      -0.0015      Z      -5.8785
       Tot       5.8785
    Quadrupole Moments (Debye-Ang)
        XX     -11.6770     XY      -0.0000     YY     -11.6545
        XZ      -0.0000     YZ      -0.0037     ZZ     -20.0607
    Octopole Moments (Debye-Ang^2)
       XXX       0.0001    XXY       0.2396    XYY      -0.0001
       YYY      -0.2487    XXZ     -20.6226    XYZ      -0.0000
       YYZ     -20.5873    XZZ      -0.0000    YZZ      -0.0101
       ZZZ     -80.6159
    Hexadecapole Moments (Debye-Ang^3)
      XXXX     -25.0652   XXXY      -0.0000   XXYY      -8.3330
      XYYY       0.0000   YYYY     -24.9311   XXXZ       0.0004
      XXYZ       0.8083   XYYZ      -0.0004   YYYZ      -0.8307
      XXZZ     -48.1754   XYZZ      -0.0000   YYZZ     -48.0822
      XZZZ      -0.0000   YZZZ      -0.0294   ZZZZ    -320.5290
 -----------------------------------------------------------------
Archival summary:
1\1\n0101.mhg0\SP\ProcedureUnspecified\BasisUnspecified\1i13\yhljason\WedNov1114:07:562020WedNov1114:07:562020\0\\#,ProcedureUnspecified,BasisUnspecified,\\0,1\C\H,1,1.095\H,1,1.095,2,105.999\H,1,1.09501,2,106,3,-112.365,0\Li,1,1.9851,2,112.753,3,123.817,0\\\@

 Total job time:  72.52s(wall), 574.51s(cpu) 
 Wed Nov 11 14:07:56 2020

        *************************************************************
        *                                                           *
        *  Thank you very much for using Q-Chem.  Have a nice day.  *
        *                                                           *
        *************************************************************


 
User input: 3 of 7 
 
Q-Chem Developer Version!
                  Welcome to Q-Chem
     A Quantum Leap Into The Future Of Chemistry


 Q-Chem 5.1, Q-Chem, Inc., Pleasanton, CA (2018)

 Yihan Shao,  Zhengting Gan,  E. Epifanovsky,  A. T. B. Gilbert,  M. Wormit,  
 J. Kussmann,  A. W. Lange,  A. Behn,  Jia Deng,  Xintian Feng,  D. Ghosh,  
 M. Goldey,  P. R. Horn,  L. D. Jacobson,  I. Kaliman,  T. Kus,  A. Landau,  
 Jie Liu,  E. I. Proynov,  R. M. Richard,  R. P. Steele,  E. J. Sundstrom,  
 H. L. Woodcock III,  P. M. Zimmerman,  D. Zuev,  B. Albrecht,  E. Alguire,  
 S. A. Baeppler,  D. Barton,  Z. Benda,  Y. A. Bernard,  E. J. Berquist,  
 K. B. Bravaya,  H. Burton,  D. Casanova,  Chun-Min Chang,  Yunqing Chen,  
 A. Chien,  K. D. Closser,  M. P. Coons,  S. Coriani,  S. Dasgupta,  
 A. L. Dempwolff,  M. Diedenhofen,  Hainam Do,  R. G. Edgar,  Po-Tung Fang,  
 S. Faraji,  S. Fatehi,  Qingguo Feng,  K. D. Fenk,  J. Fosso-Tande,  
 Qinghui Ge,  A. Ghysels,  G. Gidofalvi,  J. Gomes,  J. Gonthier,  A. Gunina,  
 D. Hait,  M. W. D. Hanson-Heine,  P. H. P. Harbach,  A. W. Hauser,  
 J. E. Herr,  E. G. Hohenstein,  Z. C. Holden,  Kerwin Hui,  B. C. Huynh,  
 T.-C. Jagau,  Hyunjun Ji,  B. Kaduk,  K. Khistyaev,  Jaehoon Kim,  
 P. Klunzinger,  K. Koh,  D. Kosenkov,  L. Koulias,  T. Kowalczyk,  
 C. M. Krauter,  A. Kunitsa,  Ka Un Lao,  A. Laurent,  K. V. Lawler,  
 Joonho Lee,  D. Lefrancois,  S. Lehtola,  D. S. Levine,  Yi-Pei Li,  
 You-Sheng Lin,  Fenglai Liu,  E. Livshits,  A. Luenser,  P. Manohar,  
 E. Mansoor,  S. F. Manzer,  Shan-Ping Mao,  Yuezhi Mao,  N. Mardirossian,  
 A. V. Marenich,  T. Markovich,  L. A. Martinez-Martinez,  S. A. Maurer,  
 N. J. Mayhall,  S. C. McKenzie,  J.-M. Mewes,  A. F. Morrison,  
 J. W. Mullinax,  K. Nanda,  T. S. Nguyen-Beck,  R. Olivares-Amaya,  
 J. A. Parkhill,  T. M. Perrine,  F. Plasser,  P. Pokhilko,  S. Prager,  
 A. Prociuk,  E. Ramos,  D. R. Rehn,  F. Rob,  M. Schneider,  N. Sergueev,  
 S. M. Sharada,  S. Sharma,  D. W. Small,  T. Stauch,  T. Stein,  
 Yu-Chuan Su,  A. J. W. Thom,  A. Tkatchenko,  T. Tsuchimochi,  N. M. Tubman,  
 L. Vogt,  M. L. Vidal,  O. Vydrov,  M. A. Watson,  J. Wenzel,  
 M. de Wergifosse,  T. A. Wesolowski,  A. White,  J. Witte,  A. Yamada,  
 Jun Yang,  K. Yao,  S. Yeganeh,  S. R. Yost,  Zhi-Qiang You,  A. Zech,  
 Igor Ying Zhang,  Xing Zhang,  Yan Zhao,  Ying Zhu,  B. R. Brooks,  
 G. K. L. Chan,  C. J. Cramer,  M. S. Gordon,  W. J. Hehre,  A. Klamt,  
 M. W. Schmidt,  C. D. Sherrill,  D. G. Truhlar,  A. Aspuru-Guzik,  R. Baer,  
 A. T. Bell,  N. A. Besley,  Jeng-Da Chai,  A. E. DePrince, III,  
 R. A. DiStasio Jr.,  A. Dreuw,  B. D. Dunietz,  T. R. Furlani,  
 Chao-Ping Hsu,  Yousung Jung,  Jing Kong,  D. S. Lambrecht,  WanZhen Liang,  
 C. Ochsenfeld,  V. A. Rassolov,  L. V. Slipchenko,  J. E. Subotnik,  
 T. Van Voorhis,  J. M. Herbert,  A. I. Krylov,  P. M. W. Gill,  M. Head-Gordon

 Contributors to earlier versions of Q-Chem not listed above: 
 R. D. Adamson,  B. Austin,  J. Baker,  G. J. O. Beran,  K. Brandhorst,  
 S. T. Brown,  E. F. C. Byrd,  A. K. Chakraborty,  C.-L. Cheng,  
 Siu Hung Chien,  D. M. Chipman,  D. L. Crittenden,  H. Dachsel,  
 R. J. Doerksen,  A. D. Dutoi,  L. Fusti-Molnar,  W. A. Goddard III,  
 A. Golubeva-Zadorozhnaya,  S. R. Gwaltney,  G. Hawkins,  A. Heyden,  
 S. Hirata,  G. Kedziora,  F. J. Keil,  C. Kelley,  Jihan Kim,  R. A. King,  
 R. Z. Khaliullin,  P. P. Korambath,  W. Kurlancheek,  A. M. Lee,  M. S. Lee,  
 S. V. Levchenko,  Ching Yeh Lin,  D. Liotard,  R. C. Lochan,  I. Lotan,  
 P. E. Maslen,  N. Nair,  D. P. O'Neill,  D. Neuhauser,  E. Neuscamman,  
 C. M. Oana,  R. Olson,  B. Peters,  R. Peverati,  P. A. Pieniazek,  
 Y. M. Rhee,  J. Ritchie,  M. A. Rohrdanz,  E. Rosta,  N. J. Russ,  
 H. F. Schaefer III,  N. E. Schultz,  N. Shenvi,  A. C. Simmonett,  A. Sodt,  
 D. Stuck,  K. S. Thanthiriwatte,  V. Vanovschi,  Tao Wang,  A. Warshel,  
 C. F. Williams,  Q. Wu,  X. Xu,  W. Zhang

 Please cite Q-Chem as follows:
 Y. Shao et al., Mol. Phys. 113, 184-215 (2015)
 DOI: 10.1080/00268976.2014.952696

 Q-Chem 5.1.1 for Intel X86 EM64T Linux

 Parts of Q-Chem use Armadillo 8.300.2 (Tropical Shenanigans).
 http://arma.sourceforge.net/

 Q-Chem begins on Wed Nov 11 14:07:56 2020  

Host: n0101.mhg0
0

     Scratch files written to /local/scratch/users/yhljason/CH3Li_DSD-PBEPBE-D3_aug-cc-pcVTZ.inp20201111140416//
The previous job contains 0 fragments, simply inherited here
Input Ideriv = 0
Curr. Ideriv = -1
Max.  Ideriv = 0
Analytic post-HF gradients are not available with non-HF exchange
Input Ideriv = 0
Curr. Ideriv = 0
Max.  Ideriv = 0

Checking the input file for inconsistencies... 	...done.

--------------------------------------------------------------
User input:
--------------------------------------------------------------
$molecule
read
$end

$rem
jobtype sp
exchange DSD-PBEPBE-D3
xc_grid 000099000590
basis aug-cc-pcVTZ

max_scf_cycles 200
thresh 14
scf_convergence 8
mem_total 128000
cc_memory 96000
cc_backend xm
mem_static 1500
symmetry false
sym_ignore true
scf_guess read
unrestricted false
scf_algorithm gdm
n_frozen_core 0
$end



$multipole_field
XX -0.0001
$end


--------------------------------------------------------------
 Adding empirical dispersion correction 
 ----------------------------------------------------------------
 Doing -D3(BJ) with
 s6 =   0.78000
 s8 =   0.00000
 a1 =   0.00000
 a2 =   6.10000
 -D3 energy without 3body term =     -0.0014851895 hartrees
 ----------------------------------------------------------------
             Standard Nuclear Orientation (Angstroms)
    I     Atom           X                Y                Z
 ----------------------------------------------------------------
    1      C       0.0000000000     0.0000000000     1.9851000000
    2      H      -0.8744257046     0.5050292293     2.4086001236
    3      H       0.8745747704     0.5047710498     2.4086001158
    4      H      -0.0001490540    -1.0098003255     2.4086001425
    5      Li      0.0000000000     0.0000000000     0.0000000000
 ----------------------------------------------------------------
 Nuclear Repulsion Energy =    16.2268525195 hartrees
 There are        6 alpha and        6 beta electrons
 Requested basis set is aug-cc-pCVTZ
 There are 65 shells and 187 basis functions

 Total QAlloc Memory Limit 128000 MB
 Mega-Array Size      1467 MB
 MEM_STATIC part      1500 MB

                       Distance Matrix (Angstroms)
             C (  1)   H (  2)   H (  3)   H (  4)
   H (  2)  1.095001
   H (  3)  1.095001  1.749000
   H (  4)  1.095011  1.749019  1.749019
   Li(  5)  1.985100  2.611710  2.611710  2.611714
 
 Applying Cartesian multipole field
    Component          Value
    ---------          -----
     (2,0,0)       -1.00000E-04
 Nucleus-field energy     =    -0.0005461949 hartrees
 A cutoff of  1.0D-14 yielded   2136 shell pairs
 There are     17766 function pairs (     23124 Cartesian)
 
 -------------------------------------------------------
 OpenMP Integral Computing Module                       
 Release: version 1.0, May 2013, Q-Chem Inc. Pittsburgh 
 -------------------------------------------------------
 Integral Job Info:
 Integral job number is                      11
 Integral operator is                         1
 short-range coefficients                     0
 long-range coefficients              100000000
 Omega coefficients                           0
 if combine SR and LR in K                    0
 Integral screening is                        0
 Integral computing path is                   2
 max size of driver memory is            800000
 size of driver memory is                776718
 size of scratch memory is              9449352
 max col of scratch BK array              10000
 max len of scratch array in speh3          662
 max len of scratch index in speh4           32
 max int batch size is                      520
 min int batch size is                       52
 fixed nKL is                                52
 max L of basis functions is                  3
 order of int derivative is                   0
 number of shells is                         65
 number of basis is                         213
 number of cartesian basis is               213
 number of contracted shell pairs          2136
 number of primitive shell pairs           5185
 maxK2 (contraction) of shell pair           81
 max number of K2 of shell pair               1
 max number of CS2 of shell pair            365
 max number of PS2 of shell pair            365
 mem total for path MDJ                  570992
 -------------------------------------------------------
 Smallest overlap matrix eigenvalue = 5.76E-05
 Guess MOs from SCF MO coefficient file

 -----------------------------------------------------------------------
  General SCF calculation program by
  Eric Jon Sundstrom, Paul Horn, Yuezhi Mao, Dmitri Zuev, Alec White,
  David Stuck, Shaama M.S., Shane Yost, Joonho Lee, David Small,
  Daniel Levine, Susi Lehtola, Hugh Burton, Evgeny Epifanovsky
 -----------------------------------------------------------------------
 Exchange:     0.6800 Hartree-Fock + 0.3200 PBE
 Correlation:  0.4900 PBE
 Using Euler-Maclaurin-Lebedev (99,590) quadrature formula
 Dispersion:   Grimme D3
 using 8 threads for integral computing
 -------------------------------------------------------
 OpenMP Integral computing Module                
 Release: version 2.0, May 2017, Q-Chem Inc. Pleasanton 
 -------------------------------------------------------
 -------------------------------------------------------
 OpenMP BLAS3 based DFT computing Module                
 Release: version 1.0, May 2013, Q-Chem Inc. Pittsburgh 
 -------------------------------------------------------
 A restricted SCF calculation will be
 performed using GDM
 SCF converges when RMS gradient is below 1.0e-08
 ---------------------------------------
  Cycle       Energy        RMS Gradient
 ---------------------------------------
    1     -47.1867203209      5.20e-04   Normal BFGS step
    2     -47.1867234146      2.86e-04   Normal BFGS step
    3     -47.1867239160      6.38e-05   Normal BFGS step
    4     -47.1867239659      1.58e-05   Normal BFGS step
    5     -47.1867239670      6.31e-06   Normal BFGS step
    6     -47.1867239672      7.79e-07   Normal BFGS step
    7     -47.1867239672      2.10e-07   Normal BFGS step
    8     -47.1867239672      4.06e-08   Normal BFGS step
    9     -47.1867239672      1.06e-08   Normal BFGS step
   10     -47.1867239672      1.71e-09  Convergence criterion met
 ---------------------------------------
 SCF time:   CPU 354.87s  wall 44.00s 
 SCF   energy in the final basis set =      -47.1867239672
 Total energy in the final basis set =      -47.1867239672
 
 Components of the MP2 correlation energy:
        aaaa  correlation energy =        -0.0035552833 au
        abab  correlation energy =        -0.1506725386 au
        bbbb  correlation energy =        -0.0035552833 au
        non-Brillouin singles    =        -0.0000000000 au

 Total  MP2   correlation energy =                    -0.15778311 au
        MP2         total energy =                   -47.34450707 au
 
 --------------------------------------------------------------
 
                    Orbital Energies (a.u.)
 --------------------------------------------------------------
 
 Alpha MOs
 -- Occupied --
-10.687  -2.247  -0.734  -0.398  -0.398  -0.243
 -- Virtual --
 -0.016   0.015   0.021   0.022   0.026   0.046   0.051   0.059
  0.069   0.071   0.072   0.095   0.095   0.108   0.119   0.123
  0.132   0.134   0.136   0.158   0.163   0.165   0.184   0.230
  0.231   0.288   0.292   0.292   0.300   0.304   0.310   0.311
  0.329   0.330   0.340   0.350   0.351   0.354   0.360   0.361
  0.374   0.389   0.389   0.389   0.395   0.442   0.466   0.466
  0.478   0.478   0.505   0.529   0.529   0.580   0.641   0.642
  0.738   0.738   0.786   0.786   0.803   0.809   0.818   0.818
  0.860   0.876   0.879   0.879   0.908   0.920   0.921   0.937
  0.963   0.963   0.988   1.043   1.044   1.059   1.074   1.075
  1.094   1.120   1.164   1.170   1.170   1.212   1.212   1.257
  1.257   1.296   1.340   1.340   1.350   1.592   1.592   1.596
  1.623   1.667   1.676   1.676   1.742   1.742   1.857   1.912
  1.912   1.931   2.066   2.067   2.083   2.210   2.210   2.243
  2.894   3.105   3.170   3.170   3.479   3.479   3.495   3.495
  3.536   3.619   3.619   3.658   3.796   3.796   3.822   3.850
  3.946   3.946   4.028   4.028   4.054   4.069   4.070   4.102
  4.365   4.396   4.396   4.500   4.568   4.693   4.693   4.828
  4.856   4.865   4.865   5.035   5.035   5.123   5.417   5.543
  5.543   5.705   6.026   6.026   6.441   6.543   6.543  14.645
 14.645  14.663  14.663  14.716  15.899  15.982  16.526  16.526
 17.554  18.289  18.289  18.693  41.299  41.299  41.359  41.555
 41.555  81.081  81.512  81.512  87.099
 --------------------------------------------------------------
 
          Ground-State Mulliken Net Atomic Charges

     Atom                 Charge (a.u.)
  ----------------------------------------
      1 C                    -1.051485
      2 H                     0.254175
      3 H                     0.254176
      4 H                     0.253416
      5 Li                    0.289718
  ----------------------------------------
  Sum of atomic charges =     0.000000

 -----------------------------------------------------------------
                    Cartesian Multipole Moments
 -----------------------------------------------------------------
    Charge (ESU x 10^10)
                 0.0000
    Dipole Moment (Debye)
         X       0.0000      Y       0.0015      Z      -5.8846
       Tot       5.8846
    Quadrupole Moments (Debye-Ang)
        XX     -11.6283     XY      -0.0000     YY     -11.6504
        XZ       0.0000     YZ       0.0038     ZZ     -20.0674
    Octopole Moments (Debye-Ang^2)
       XXX       0.0001    XXY       0.2494    XYY      -0.0001
       YYY      -0.2403    XXZ     -20.5546    XYZ      -0.0000
       YYZ     -20.5896    XZZ       0.0000    YZZ       0.0104
       ZZZ     -80.6245
    Hexadecapole Moments (Debye-Ang^3)
      XXXX     -24.7723   XXXY       0.0000   XXYY      -8.2789
      XYYY      -0.0000   YYYY     -24.9031   XXXZ       0.0004
      XXYZ       0.8321   XYYZ      -0.0004   YYYZ      -0.8096
      XXZZ     -47.9869   XYZZ      -0.0000   YYZZ     -48.0790
      XZZZ       0.0000   YZZZ       0.0301   ZZZZ    -320.4764
 -----------------------------------------------------------------
Archival summary:
1\1\n0101.mhg0\SP\ProcedureUnspecified\BasisUnspecified\1i13\yhljason\WedNov1114:09:132020WedNov1114:09:132020\0\\#,ProcedureUnspecified,BasisUnspecified,\\0,1\C\H,1,1.095\H,1,1.095,2,105.999\H,1,1.09501,2,106,3,-112.365,0\Li,1,1.9851,2,112.753,3,123.817,0\\\@

 Total job time:  77.01s(wall), 610.76s(cpu) 
 Wed Nov 11 14:09:13 2020

        *************************************************************
        *                                                           *
        *  Thank you very much for using Q-Chem.  Have a nice day.  *
        *                                                           *
        *************************************************************


 
User input: 4 of 7 
 
Q-Chem Developer Version!
                  Welcome to Q-Chem
     A Quantum Leap Into The Future Of Chemistry


 Q-Chem 5.1, Q-Chem, Inc., Pleasanton, CA (2018)

 Yihan Shao,  Zhengting Gan,  E. Epifanovsky,  A. T. B. Gilbert,  M. Wormit,  
 J. Kussmann,  A. W. Lange,  A. Behn,  Jia Deng,  Xintian Feng,  D. Ghosh,  
 M. Goldey,  P. R. Horn,  L. D. Jacobson,  I. Kaliman,  T. Kus,  A. Landau,  
 Jie Liu,  E. I. Proynov,  R. M. Richard,  R. P. Steele,  E. J. Sundstrom,  
 H. L. Woodcock III,  P. M. Zimmerman,  D. Zuev,  B. Albrecht,  E. Alguire,  
 S. A. Baeppler,  D. Barton,  Z. Benda,  Y. A. Bernard,  E. J. Berquist,  
 K. B. Bravaya,  H. Burton,  D. Casanova,  Chun-Min Chang,  Yunqing Chen,  
 A. Chien,  K. D. Closser,  M. P. Coons,  S. Coriani,  S. Dasgupta,  
 A. L. Dempwolff,  M. Diedenhofen,  Hainam Do,  R. G. Edgar,  Po-Tung Fang,  
 S. Faraji,  S. Fatehi,  Qingguo Feng,  K. D. Fenk,  J. Fosso-Tande,  
 Qinghui Ge,  A. Ghysels,  G. Gidofalvi,  J. Gomes,  J. Gonthier,  A. Gunina,  
 D. Hait,  M. W. D. Hanson-Heine,  P. H. P. Harbach,  A. W. Hauser,  
 J. E. Herr,  E. G. Hohenstein,  Z. C. Holden,  Kerwin Hui,  B. C. Huynh,  
 T.-C. Jagau,  Hyunjun Ji,  B. Kaduk,  K. Khistyaev,  Jaehoon Kim,  
 P. Klunzinger,  K. Koh,  D. Kosenkov,  L. Koulias,  T. Kowalczyk,  
 C. M. Krauter,  A. Kunitsa,  Ka Un Lao,  A. Laurent,  K. V. Lawler,  
 Joonho Lee,  D. Lefrancois,  S. Lehtola,  D. S. Levine,  Yi-Pei Li,  
 You-Sheng Lin,  Fenglai Liu,  E. Livshits,  A. Luenser,  P. Manohar,  
 E. Mansoor,  S. F. Manzer,  Shan-Ping Mao,  Yuezhi Mao,  N. Mardirossian,  
 A. V. Marenich,  T. Markovich,  L. A. Martinez-Martinez,  S. A. Maurer,  
 N. J. Mayhall,  S. C. McKenzie,  J.-M. Mewes,  A. F. Morrison,  
 J. W. Mullinax,  K. Nanda,  T. S. Nguyen-Beck,  R. Olivares-Amaya,  
 J. A. Parkhill,  T. M. Perrine,  F. Plasser,  P. Pokhilko,  S. Prager,  
 A. Prociuk,  E. Ramos,  D. R. Rehn,  F. Rob,  M. Schneider,  N. Sergueev,  
 S. M. Sharada,  S. Sharma,  D. W. Small,  T. Stauch,  T. Stein,  
 Yu-Chuan Su,  A. J. W. Thom,  A. Tkatchenko,  T. Tsuchimochi,  N. M. Tubman,  
 L. Vogt,  M. L. Vidal,  O. Vydrov,  M. A. Watson,  J. Wenzel,  
 M. de Wergifosse,  T. A. Wesolowski,  A. White,  J. Witte,  A. Yamada,  
 Jun Yang,  K. Yao,  S. Yeganeh,  S. R. Yost,  Zhi-Qiang You,  A. Zech,  
 Igor Ying Zhang,  Xing Zhang,  Yan Zhao,  Ying Zhu,  B. R. Brooks,  
 G. K. L. Chan,  C. J. Cramer,  M. S. Gordon,  W. J. Hehre,  A. Klamt,  
 M. W. Schmidt,  C. D. Sherrill,  D. G. Truhlar,  A. Aspuru-Guzik,  R. Baer,  
 A. T. Bell,  N. A. Besley,  Jeng-Da Chai,  A. E. DePrince, III,  
 R. A. DiStasio Jr.,  A. Dreuw,  B. D. Dunietz,  T. R. Furlani,  
 Chao-Ping Hsu,  Yousung Jung,  Jing Kong,  D. S. Lambrecht,  WanZhen Liang,  
 C. Ochsenfeld,  V. A. Rassolov,  L. V. Slipchenko,  J. E. Subotnik,  
 T. Van Voorhis,  J. M. Herbert,  A. I. Krylov,  P. M. W. Gill,  M. Head-Gordon

 Contributors to earlier versions of Q-Chem not listed above: 
 R. D. Adamson,  B. Austin,  J. Baker,  G. J. O. Beran,  K. Brandhorst,  
 S. T. Brown,  E. F. C. Byrd,  A. K. Chakraborty,  C.-L. Cheng,  
 Siu Hung Chien,  D. M. Chipman,  D. L. Crittenden,  H. Dachsel,  
 R. J. Doerksen,  A. D. Dutoi,  L. Fusti-Molnar,  W. A. Goddard III,  
 A. Golubeva-Zadorozhnaya,  S. R. Gwaltney,  G. Hawkins,  A. Heyden,  
 S. Hirata,  G. Kedziora,  F. J. Keil,  C. Kelley,  Jihan Kim,  R. A. King,  
 R. Z. Khaliullin,  P. P. Korambath,  W. Kurlancheek,  A. M. Lee,  M. S. Lee,  
 S. V. Levchenko,  Ching Yeh Lin,  D. Liotard,  R. C. Lochan,  I. Lotan,  
 P. E. Maslen,  N. Nair,  D. P. O'Neill,  D. Neuhauser,  E. Neuscamman,  
 C. M. Oana,  R. Olson,  B. Peters,  R. Peverati,  P. A. Pieniazek,  
 Y. M. Rhee,  J. Ritchie,  M. A. Rohrdanz,  E. Rosta,  N. J. Russ,  
 H. F. Schaefer III,  N. E. Schultz,  N. Shenvi,  A. C. Simmonett,  A. Sodt,  
 D. Stuck,  K. S. Thanthiriwatte,  V. Vanovschi,  Tao Wang,  A. Warshel,  
 C. F. Williams,  Q. Wu,  X. Xu,  W. Zhang

 Please cite Q-Chem as follows:
 Y. Shao et al., Mol. Phys. 113, 184-215 (2015)
 DOI: 10.1080/00268976.2014.952696

 Q-Chem 5.1.1 for Intel X86 EM64T Linux

 Parts of Q-Chem use Armadillo 8.300.2 (Tropical Shenanigans).
 http://arma.sourceforge.net/

 Q-Chem begins on Wed Nov 11 14:09:13 2020  

Host: n0101.mhg0
0

     Scratch files written to /local/scratch/users/yhljason/CH3Li_DSD-PBEPBE-D3_aug-cc-pcVTZ.inp20201111140416//
The previous job contains 0 fragments, simply inherited here
Input Ideriv = 0
Curr. Ideriv = -1
Max.  Ideriv = 0
Analytic post-HF gradients are not available with non-HF exchange
Input Ideriv = 0
Curr. Ideriv = 0
Max.  Ideriv = 0

Checking the input file for inconsistencies... 	...done.

--------------------------------------------------------------
User input:
--------------------------------------------------------------
$molecule
read
$end

$rem
jobtype sp
exchange DSD-PBEPBE-D3
xc_grid 000099000590
basis aug-cc-pcVTZ

max_scf_cycles 200
thresh 14
scf_convergence 8
mem_total 128000
cc_memory 96000
cc_backend xm
mem_static 1500
symmetry false
sym_ignore true
scf_guess read
unrestricted false
scf_algorithm gdm
n_frozen_core 0
$end



$multipole_field
YY 0.0001
$end


--------------------------------------------------------------
 Adding empirical dispersion correction 
 ----------------------------------------------------------------
 Doing -D3(BJ) with
 s6 =   0.78000
 s8 =   0.00000
 a1 =   0.00000
 a2 =   6.10000
 -D3 energy without 3body term =     -0.0014851895 hartrees
 ----------------------------------------------------------------
             Standard Nuclear Orientation (Angstroms)
    I     Atom           X                Y                Z
 ----------------------------------------------------------------
    1      C       0.0000000000     0.0000000000     1.9851000000
    2      H      -0.8744257046     0.5050292293     2.4086001236
    3      H       0.8745747704     0.5047710498     2.4086001158
    4      H      -0.0001490540    -1.0098003255     2.4086001425
    5      Li      0.0000000000     0.0000000000     0.0000000000
 ----------------------------------------------------------------
 Nuclear Repulsion Energy =    16.2268525195 hartrees
 There are        6 alpha and        6 beta electrons
 Requested basis set is aug-cc-pCVTZ
 There are 65 shells and 187 basis functions

 Total QAlloc Memory Limit 128000 MB
 Mega-Array Size      1467 MB
 MEM_STATIC part      1500 MB

                       Distance Matrix (Angstroms)
             C (  1)   H (  2)   H (  3)   H (  4)
   H (  2)  1.095001
   H (  3)  1.095001  1.749000
   H (  4)  1.095011  1.749019  1.749019
   Li(  5)  1.985100  2.611710  2.611710  2.611714
 
 Applying Cartesian multipole field
    Component          Value
    ---------          -----
     (0,2,0)        1.00000E-04
 Nucleus-field energy     =     0.0005462104 hartrees
 A cutoff of  1.0D-14 yielded   2136 shell pairs
 There are     17766 function pairs (     23124 Cartesian)
 
 -------------------------------------------------------
 OpenMP Integral Computing Module                       
 Release: version 1.0, May 2013, Q-Chem Inc. Pittsburgh 
 -------------------------------------------------------
 Integral Job Info:
 Integral job number is                      11
 Integral operator is                         1
 short-range coefficients                     0
 long-range coefficients              100000000
 Omega coefficients                           0
 if combine SR and LR in K                    0
 Integral screening is                        0
 Integral computing path is                   2
 max size of driver memory is            800000
 size of driver memory is                776718
 size of scratch memory is              9449352
 max col of scratch BK array              10000
 max len of scratch array in speh3          662
 max len of scratch index in speh4           32
 max int batch size is                      520
 min int batch size is                       52
 fixed nKL is                                52
 max L of basis functions is                  3
 order of int derivative is                   0
 number of shells is                         65
 number of basis is                         213
 number of cartesian basis is               213
 number of contracted shell pairs          2136
 number of primitive shell pairs           5185
 maxK2 (contraction) of shell pair           81
 max number of K2 of shell pair               1
 max number of CS2 of shell pair            365
 max number of PS2 of shell pair            365
 mem total for path MDJ                  570992
 -------------------------------------------------------
 Smallest overlap matrix eigenvalue = 5.76E-05
 Guess MOs from SCF MO coefficient file

 -----------------------------------------------------------------------
  General SCF calculation program by
  Eric Jon Sundstrom, Paul Horn, Yuezhi Mao, Dmitri Zuev, Alec White,
  David Stuck, Shaama M.S., Shane Yost, Joonho Lee, David Small,
  Daniel Levine, Susi Lehtola, Hugh Burton, Evgeny Epifanovsky
 -----------------------------------------------------------------------
 Exchange:     0.6800 Hartree-Fock + 0.3200 PBE
 Correlation:  0.4900 PBE
 Using Euler-Maclaurin-Lebedev (99,590) quadrature formula
 Dispersion:   Grimme D3
 using 8 threads for integral computing
 -------------------------------------------------------
 OpenMP Integral computing Module                
 Release: version 2.0, May 2017, Q-Chem Inc. Pleasanton 
 -------------------------------------------------------
 -------------------------------------------------------
 OpenMP BLAS3 based DFT computing Module                
 Release: version 1.0, May 2013, Q-Chem Inc. Pittsburgh 
 -------------------------------------------------------
 A restricted SCF calculation will be
 performed using GDM
 SCF converges when RMS gradient is below 1.0e-08
 ---------------------------------------
  Cycle       Energy        RMS Gradient
 ---------------------------------------
    1     -47.1884546776      5.14e-04   Normal BFGS step
    2     -47.1884561991      2.86e-04   Normal BFGS step
    3     -47.1884566245      3.30e-05   Normal BFGS step
    4     -47.1884566358      1.78e-05   Normal BFGS step
    5     -47.1884566367      5.33e-06   Normal BFGS step
    6     -47.1884566368      6.96e-07   Normal BFGS step
    7     -47.1884566368      1.96e-07   Normal BFGS step
    8     -47.1884566368      5.19e-08   Normal BFGS step
    9     -47.1884566368      1.06e-08   Normal BFGS step
   10     -47.1884566368      1.86e-09  Convergence criterion met
 ---------------------------------------
 SCF time:   CPU 351.96s  wall 44.00s 
 SCF   energy in the final basis set =      -47.1884566368
 Total energy in the final basis set =      -47.1884566368
 
 Components of the MP2 correlation energy:
        aaaa  correlation energy =        -0.0035565698 au
        abab  correlation energy =        -0.1506963607 au
        bbbb  correlation energy =        -0.0035565698 au
        non-Brillouin singles    =        -0.0000000000 au

 Total  MP2   correlation energy =                    -0.15780950 au
        MP2         total energy =                   -47.34626614 au
 
 --------------------------------------------------------------
 
                    Orbital Energies (a.u.)
 --------------------------------------------------------------
 
 Alpha MOs
 -- Occupied --
-10.688  -2.247  -0.735  -0.399  -0.399  -0.243
 -- Virtual --
 -0.019   0.002   0.009   0.013   0.015   0.037   0.041   0.054
  0.062   0.063   0.065   0.090   0.091   0.103   0.113   0.116
  0.128   0.130   0.133   0.155   0.159   0.160   0.178   0.227
  0.227   0.285   0.289   0.289   0.297   0.301   0.308   0.309
  0.327   0.328   0.338   0.347   0.348   0.352   0.357   0.358
  0.371   0.386   0.386   0.387   0.392   0.438   0.464   0.464
  0.475   0.476   0.503   0.526   0.527   0.579   0.640   0.640
  0.736   0.736   0.785   0.785   0.802   0.808   0.817   0.817
  0.858   0.875   0.877   0.877   0.907   0.919   0.919   0.935
  0.962   0.962   0.986   1.042   1.042   1.058   1.073   1.073
  1.093   1.119   1.163   1.168   1.169   1.210   1.210   1.256
  1.256   1.295   1.339   1.339   1.348   1.591   1.591   1.595
  1.621   1.666   1.675   1.675   1.741   1.741   1.856   1.911
  1.911   1.930   2.065   2.065   2.082   2.209   2.209   2.242
  2.893   3.104   3.169   3.169   3.478   3.479   3.494   3.494
  3.535   3.618   3.618   3.657   3.795   3.795   3.821   3.850
  3.945   3.945   4.027   4.027   4.054   4.068   4.069   4.101
  4.364   4.395   4.395   4.499   4.567   4.692   4.692   4.827
  4.855   4.864   4.865   5.034   5.034   5.122   5.416   5.542
  5.542   5.704   6.025   6.025   6.440   6.542   6.542  14.644
 14.644  14.663  14.663  14.715  15.898  15.981  16.525  16.525
 17.553  18.289  18.289  18.693  41.298  41.298  41.358  41.554
 41.554  81.080  81.510  81.511  87.098
 --------------------------------------------------------------
 
          Ground-State Mulliken Net Atomic Charges

     Atom                 Charge (a.u.)
  ----------------------------------------
      1 C                    -1.048707
      2 H                     0.254063
      3 H                     0.254063
      4 H                     0.253312
      5 Li                    0.287270
  ----------------------------------------
  Sum of atomic charges =     0.000000

 -----------------------------------------------------------------
                    Cartesian Multipole Moments
 -----------------------------------------------------------------
    Charge (ESU x 10^10)
                 0.0000
    Dipole Moment (Debye)
         X       0.0000      Y       0.0015      Z      -5.8785
       Tot       5.8785
    Quadrupole Moments (Debye-Ang)
        XX     -11.6545     XY      -0.0000     YY     -11.6770
        XZ       0.0000     YZ       0.0038     ZZ     -20.0607
    Octopole Moments (Debye-Ang^2)
       XXX       0.0001    XXY       0.2442    XYY      -0.0001
       YYY      -0.2350    XXZ     -20.5873    XYZ      -0.0000
       YYZ     -20.6226    XZZ       0.0000    YZZ       0.0104
       ZZZ     -80.6159
    Hexadecapole Moments (Debye-Ang^3)
      XXXX     -24.9314   XXXY       0.0000   XXYY      -8.3325
      XYYY      -0.0000   YYYY     -25.0659   XXXZ       0.0004
      XXYZ       0.8196   XYYZ      -0.0004   YYYZ      -0.7968
      XXZZ     -48.0823   XYZZ      -0.0000   YYZZ     -48.1752
      XZZZ       0.0000   YZZZ       0.0304   ZZZZ    -320.5290
 -----------------------------------------------------------------
Archival summary:
1\1\n0101.mhg0\SP\ProcedureUnspecified\BasisUnspecified\1i13\yhljason\WedNov1114:10:302020WedNov1114:10:302020\0\\#,ProcedureUnspecified,BasisUnspecified,\\0,1\C\H,1,1.095\H,1,1.095,2,105.999\H,1,1.09501,2,106,3,-112.365,0\Li,1,1.9851,2,112.753,3,123.817,0\\\@

 Total job time:  76.80s(wall), 608.32s(cpu) 
 Wed Nov 11 14:10:30 2020

        *************************************************************
        *                                                           *
        *  Thank you very much for using Q-Chem.  Have a nice day.  *
        *                                                           *
        *************************************************************


 
User input: 5 of 7 
 
Q-Chem Developer Version!
                  Welcome to Q-Chem
     A Quantum Leap Into The Future Of Chemistry


 Q-Chem 5.1, Q-Chem, Inc., Pleasanton, CA (2018)

 Yihan Shao,  Zhengting Gan,  E. Epifanovsky,  A. T. B. Gilbert,  M. Wormit,  
 J. Kussmann,  A. W. Lange,  A. Behn,  Jia Deng,  Xintian Feng,  D. Ghosh,  
 M. Goldey,  P. R. Horn,  L. D. Jacobson,  I. Kaliman,  T. Kus,  A. Landau,  
 Jie Liu,  E. I. Proynov,  R. M. Richard,  R. P. Steele,  E. J. Sundstrom,  
 H. L. Woodcock III,  P. M. Zimmerman,  D. Zuev,  B. Albrecht,  E. Alguire,  
 S. A. Baeppler,  D. Barton,  Z. Benda,  Y. A. Bernard,  E. J. Berquist,  
 K. B. Bravaya,  H. Burton,  D. Casanova,  Chun-Min Chang,  Yunqing Chen,  
 A. Chien,  K. D. Closser,  M. P. Coons,  S. Coriani,  S. Dasgupta,  
 A. L. Dempwolff,  M. Diedenhofen,  Hainam Do,  R. G. Edgar,  Po-Tung Fang,  
 S. Faraji,  S. Fatehi,  Qingguo Feng,  K. D. Fenk,  J. Fosso-Tande,  
 Qinghui Ge,  A. Ghysels,  G. Gidofalvi,  J. Gomes,  J. Gonthier,  A. Gunina,  
 D. Hait,  M. W. D. Hanson-Heine,  P. H. P. Harbach,  A. W. Hauser,  
 J. E. Herr,  E. G. Hohenstein,  Z. C. Holden,  Kerwin Hui,  B. C. Huynh,  
 T.-C. Jagau,  Hyunjun Ji,  B. Kaduk,  K. Khistyaev,  Jaehoon Kim,  
 P. Klunzinger,  K. Koh,  D. Kosenkov,  L. Koulias,  T. Kowalczyk,  
 C. M. Krauter,  A. Kunitsa,  Ka Un Lao,  A. Laurent,  K. V. Lawler,  
 Joonho Lee,  D. Lefrancois,  S. Lehtola,  D. S. Levine,  Yi-Pei Li,  
 You-Sheng Lin,  Fenglai Liu,  E. Livshits,  A. Luenser,  P. Manohar,  
 E. Mansoor,  S. F. Manzer,  Shan-Ping Mao,  Yuezhi Mao,  N. Mardirossian,  
 A. V. Marenich,  T. Markovich,  L. A. Martinez-Martinez,  S. A. Maurer,  
 N. J. Mayhall,  S. C. McKenzie,  J.-M. Mewes,  A. F. Morrison,  
 J. W. Mullinax,  K. Nanda,  T. S. Nguyen-Beck,  R. Olivares-Amaya,  
 J. A. Parkhill,  T. M. Perrine,  F. Plasser,  P. Pokhilko,  S. Prager,  
 A. Prociuk,  E. Ramos,  D. R. Rehn,  F. Rob,  M. Schneider,  N. Sergueev,  
 S. M. Sharada,  S. Sharma,  D. W. Small,  T. Stauch,  T. Stein,  
 Yu-Chuan Su,  A. J. W. Thom,  A. Tkatchenko,  T. Tsuchimochi,  N. M. Tubman,  
 L. Vogt,  M. L. Vidal,  O. Vydrov,  M. A. Watson,  J. Wenzel,  
 M. de Wergifosse,  T. A. Wesolowski,  A. White,  J. Witte,  A. Yamada,  
 Jun Yang,  K. Yao,  S. Yeganeh,  S. R. Yost,  Zhi-Qiang You,  A. Zech,  
 Igor Ying Zhang,  Xing Zhang,  Yan Zhao,  Ying Zhu,  B. R. Brooks,  
 G. K. L. Chan,  C. J. Cramer,  M. S. Gordon,  W. J. Hehre,  A. Klamt,  
 M. W. Schmidt,  C. D. Sherrill,  D. G. Truhlar,  A. Aspuru-Guzik,  R. Baer,  
 A. T. Bell,  N. A. Besley,  Jeng-Da Chai,  A. E. DePrince, III,  
 R. A. DiStasio Jr.,  A. Dreuw,  B. D. Dunietz,  T. R. Furlani,  
 Chao-Ping Hsu,  Yousung Jung,  Jing Kong,  D. S. Lambrecht,  WanZhen Liang,  
 C. Ochsenfeld,  V. A. Rassolov,  L. V. Slipchenko,  J. E. Subotnik,  
 T. Van Voorhis,  J. M. Herbert,  A. I. Krylov,  P. M. W. Gill,  M. Head-Gordon

 Contributors to earlier versions of Q-Chem not listed above: 
 R. D. Adamson,  B. Austin,  J. Baker,  G. J. O. Beran,  K. Brandhorst,  
 S. T. Brown,  E. F. C. Byrd,  A. K. Chakraborty,  C.-L. Cheng,  
 Siu Hung Chien,  D. M. Chipman,  D. L. Crittenden,  H. Dachsel,  
 R. J. Doerksen,  A. D. Dutoi,  L. Fusti-Molnar,  W. A. Goddard III,  
 A. Golubeva-Zadorozhnaya,  S. R. Gwaltney,  G. Hawkins,  A. Heyden,  
 S. Hirata,  G. Kedziora,  F. J. Keil,  C. Kelley,  Jihan Kim,  R. A. King,  
 R. Z. Khaliullin,  P. P. Korambath,  W. Kurlancheek,  A. M. Lee,  M. S. Lee,  
 S. V. Levchenko,  Ching Yeh Lin,  D. Liotard,  R. C. Lochan,  I. Lotan,  
 P. E. Maslen,  N. Nair,  D. P. O'Neill,  D. Neuhauser,  E. Neuscamman,  
 C. M. Oana,  R. Olson,  B. Peters,  R. Peverati,  P. A. Pieniazek,  
 Y. M. Rhee,  J. Ritchie,  M. A. Rohrdanz,  E. Rosta,  N. J. Russ,  
 H. F. Schaefer III,  N. E. Schultz,  N. Shenvi,  A. C. Simmonett,  A. Sodt,  
 D. Stuck,  K. S. Thanthiriwatte,  V. Vanovschi,  Tao Wang,  A. Warshel,  
 C. F. Williams,  Q. Wu,  X. Xu,  W. Zhang

 Please cite Q-Chem as follows:
 Y. Shao et al., Mol. Phys. 113, 184-215 (2015)
 DOI: 10.1080/00268976.2014.952696

 Q-Chem 5.1.1 for Intel X86 EM64T Linux

 Parts of Q-Chem use Armadillo 8.300.2 (Tropical Shenanigans).
 http://arma.sourceforge.net/

 Q-Chem begins on Wed Nov 11 14:10:30 2020  

Host: n0101.mhg0
0

     Scratch files written to /local/scratch/users/yhljason/CH3Li_DSD-PBEPBE-D3_aug-cc-pcVTZ.inp20201111140416//
The previous job contains 0 fragments, simply inherited here
Input Ideriv = 0
Curr. Ideriv = -1
Max.  Ideriv = 0
Analytic post-HF gradients are not available with non-HF exchange
Input Ideriv = 0
Curr. Ideriv = 0
Max.  Ideriv = 0

Checking the input file for inconsistencies... 	...done.

--------------------------------------------------------------
User input:
--------------------------------------------------------------
$molecule
read
$end

$rem
jobtype sp
exchange DSD-PBEPBE-D3
xc_grid 000099000590
basis aug-cc-pcVTZ

max_scf_cycles 200
thresh 14
scf_convergence 8
mem_total 128000
cc_memory 96000
cc_backend xm
mem_static 1500
symmetry false
sym_ignore true
scf_guess read
unrestricted false
scf_algorithm gdm
n_frozen_core 0
$end



$multipole_field
YY -0.0001
$end


--------------------------------------------------------------
 Adding empirical dispersion correction 
 ----------------------------------------------------------------
 Doing -D3(BJ) with
 s6 =   0.78000
 s8 =   0.00000
 a1 =   0.00000
 a2 =   6.10000
 -D3 energy without 3body term =     -0.0014851895 hartrees
 ----------------------------------------------------------------
             Standard Nuclear Orientation (Angstroms)
    I     Atom           X                Y                Z
 ----------------------------------------------------------------
    1      C       0.0000000000     0.0000000000     1.9851000000
    2      H      -0.8744257046     0.5050292293     2.4086001236
    3      H       0.8745747704     0.5047710498     2.4086001158
    4      H      -0.0001490540    -1.0098003255     2.4086001425
    5      Li      0.0000000000     0.0000000000     0.0000000000
 ----------------------------------------------------------------
 Nuclear Repulsion Energy =    16.2268525195 hartrees
 There are        6 alpha and        6 beta electrons
 Requested basis set is aug-cc-pCVTZ
 There are 65 shells and 187 basis functions

 Total QAlloc Memory Limit 128000 MB
 Mega-Array Size      1467 MB
 MEM_STATIC part      1500 MB

                       Distance Matrix (Angstroms)
             C (  1)   H (  2)   H (  3)   H (  4)
   H (  2)  1.095001
   H (  3)  1.095001  1.749000
   H (  4)  1.095011  1.749019  1.749019
   Li(  5)  1.985100  2.611710  2.611710  2.611714
 
 Applying Cartesian multipole field
    Component          Value
    ---------          -----
     (0,2,0)       -1.00000E-04
 Nucleus-field energy     =    -0.0005462104 hartrees
 A cutoff of  1.0D-14 yielded   2136 shell pairs
 There are     17766 function pairs (     23124 Cartesian)
 
 -------------------------------------------------------
 OpenMP Integral Computing Module                       
 Release: version 1.0, May 2013, Q-Chem Inc. Pittsburgh 
 -------------------------------------------------------
 Integral Job Info:
 Integral job number is                      11
 Integral operator is                         1
 short-range coefficients                     0
 long-range coefficients              100000000
 Omega coefficients                           0
 if combine SR and LR in K                    0
 Integral screening is                        0
 Integral computing path is                   2
 max size of driver memory is            800000
 size of driver memory is                776718
 size of scratch memory is              9449352
 max col of scratch BK array              10000
 max len of scratch array in speh3          662
 max len of scratch index in speh4           32
 max int batch size is                      520
 min int batch size is                       52
 fixed nKL is                                52
 max L of basis functions is                  3
 order of int derivative is                   0
 number of shells is                         65
 number of basis is                         213
 number of cartesian basis is               213
 number of contracted shell pairs          2136
 number of primitive shell pairs           5185
 maxK2 (contraction) of shell pair           81
 max number of K2 of shell pair               1
 max number of CS2 of shell pair            365
 max number of PS2 of shell pair            365
 mem total for path MDJ                  570992
 -------------------------------------------------------
 Smallest overlap matrix eigenvalue = 5.76E-05
 Guess MOs from SCF MO coefficient file

 -----------------------------------------------------------------------
  General SCF calculation program by
  Eric Jon Sundstrom, Paul Horn, Yuezhi Mao, Dmitri Zuev, Alec White,
  David Stuck, Shaama M.S., Shane Yost, Joonho Lee, David Small,
  Daniel Levine, Susi Lehtola, Hugh Burton, Evgeny Epifanovsky
 -----------------------------------------------------------------------
 Exchange:     0.6800 Hartree-Fock + 0.3200 PBE
 Correlation:  0.4900 PBE
 Using Euler-Maclaurin-Lebedev (99,590) quadrature formula
 Dispersion:   Grimme D3
 using 8 threads for integral computing
 -------------------------------------------------------
 OpenMP Integral computing Module                
 Release: version 2.0, May 2017, Q-Chem Inc. Pleasanton 
 -------------------------------------------------------
 -------------------------------------------------------
 OpenMP BLAS3 based DFT computing Module                
 Release: version 1.0, May 2013, Q-Chem Inc. Pittsburgh 
 -------------------------------------------------------
 A restricted SCF calculation will be
 performed using GDM
 SCF converges when RMS gradient is below 1.0e-08
 ---------------------------------------
  Cycle       Energy        RMS Gradient
 ---------------------------------------
    1     -47.1867203235      5.20e-04   Normal BFGS step
    2     -47.1867234172      2.86e-04   Normal BFGS step
    3     -47.1867239186      6.38e-05   Normal BFGS step
    4     -47.1867239685      1.58e-05   Normal BFGS step
    5     -47.1867239696      6.31e-06   Normal BFGS step
    6     -47.1867239698      7.79e-07   Normal BFGS step
    7     -47.1867239698      2.09e-07   Normal BFGS step
    8     -47.1867239698      4.00e-08   Normal BFGS step
    9     -47.1867239698      1.06e-08   Normal BFGS step
   10     -47.1867239698      1.71e-09  Convergence criterion met
 ---------------------------------------
 SCF time:   CPU 353.95s  wall 44.00s 
 SCF   energy in the final basis set =      -47.1867239698
 Total energy in the final basis set =      -47.1867239698
 
 Components of the MP2 correlation energy:
        aaaa  correlation energy =        -0.0035552833 au
        abab  correlation energy =        -0.1506725386 au
        bbbb  correlation energy =        -0.0035552833 au
        non-Brillouin singles    =        -0.0000000000 au

 Total  MP2   correlation energy =                    -0.15778311 au
        MP2         total energy =                   -47.34450707 au
 
 --------------------------------------------------------------
 
                    Orbital Energies (a.u.)
 --------------------------------------------------------------
 
 Alpha MOs
 -- Occupied --
-10.687  -2.247  -0.734  -0.398  -0.398  -0.243
 -- Virtual --
 -0.016   0.015   0.021   0.022   0.026   0.046   0.051   0.059
  0.069   0.071   0.072   0.095   0.095   0.108   0.119   0.123
  0.132   0.134   0.136   0.158   0.163   0.165   0.184   0.230
  0.231   0.288   0.292   0.292   0.300   0.304   0.310   0.311
  0.329   0.330   0.340   0.350   0.351   0.354   0.360   0.361
  0.374   0.389   0.389   0.389   0.395   0.442   0.466   0.466
  0.478   0.478   0.505   0.529   0.529   0.580   0.641   0.642
  0.738   0.738   0.786   0.786   0.803   0.809   0.818   0.818
  0.860   0.876   0.879   0.879   0.908   0.920   0.921   0.937
  0.963   0.963   0.988   1.043   1.044   1.059   1.074   1.075
  1.094   1.120   1.164   1.170   1.170   1.212   1.212   1.257
  1.257   1.296   1.340   1.340   1.350   1.592   1.592   1.596
  1.623   1.667   1.676   1.676   1.742   1.742   1.857   1.912
  1.912   1.931   2.066   2.067   2.083   2.210   2.210   2.243
  2.894   3.105   3.170   3.170   3.479   3.479   3.495   3.495
  3.536   3.619   3.619   3.658   3.796   3.796   3.822   3.850
  3.946   3.946   4.028   4.028   4.054   4.069   4.070   4.102
  4.365   4.396   4.396   4.500   4.568   4.693   4.693   4.828
  4.856   4.865   4.865   5.035   5.035   5.123   5.417   5.543
  5.543   5.705   6.026   6.026   6.441   6.543   6.543  14.645
 14.645  14.663  14.663  14.716  15.899  15.982  16.526  16.526
 17.554  18.289  18.289  18.693  41.299  41.299  41.359  41.555
 41.555  81.081  81.512  81.512  87.099
 --------------------------------------------------------------
 
          Ground-State Mulliken Net Atomic Charges

     Atom                 Charge (a.u.)
  ----------------------------------------
      1 C                    -1.051485
      2 H                     0.253669
      3 H                     0.253668
      4 H                     0.254430
      5 Li                    0.289718
  ----------------------------------------
  Sum of atomic charges =     0.000000

 -----------------------------------------------------------------
                    Cartesian Multipole Moments
 -----------------------------------------------------------------
    Charge (ESU x 10^10)
                 0.0000
    Dipole Moment (Debye)
         X      -0.0000      Y      -0.0015      Z      -5.8846
       Tot       5.8846
    Quadrupole Moments (Debye-Ang)
        XX     -11.6504     XY      -0.0000     YY     -11.6282
        XZ      -0.0000     YZ      -0.0037     ZZ     -20.0674
    Octopole Moments (Debye-Ang^2)
       XXX       0.0001    XXY       0.2449    XYY      -0.0001
       YYY      -0.2538    XXZ     -20.5897    XYZ      -0.0000
       YYZ     -20.5546    XZZ      -0.0000    YZZ      -0.0101
       ZZZ     -80.6245
    Hexadecapole Moments (Debye-Ang^3)
      XXXX     -24.9024   XXXY      -0.0000   XXYY      -8.2794
      XYYY       0.0000   YYYY     -24.7720   XXXZ       0.0004
      XXYZ       0.8209   XYYZ      -0.0004   YYYZ      -0.8431
      XXZZ     -48.0791   XYZZ      -0.0000   YYZZ     -47.9868
      XZZZ      -0.0000   YZZZ      -0.0291   ZZZZ    -320.4764
 -----------------------------------------------------------------
Archival summary:
1\1\n0101.mhg0\SP\ProcedureUnspecified\BasisUnspecified\1i13\yhljason\WedNov1114:11:472020WedNov1114:11:472020\0\\#,ProcedureUnspecified,BasisUnspecified,\\0,1\C\H,1,1.095\H,1,1.095,2,105.999\H,1,1.09501,2,106,3,-112.365,0\Li,1,1.9851,2,112.753,3,123.817,0\\\@

 Total job time:  76.59s(wall), 607.23s(cpu) 
 Wed Nov 11 14:11:47 2020

        *************************************************************
        *                                                           *
        *  Thank you very much for using Q-Chem.  Have a nice day.  *
        *                                                           *
        *************************************************************


 
User input: 6 of 7 
 
Q-Chem Developer Version!
                  Welcome to Q-Chem
     A Quantum Leap Into The Future Of Chemistry


 Q-Chem 5.1, Q-Chem, Inc., Pleasanton, CA (2018)

 Yihan Shao,  Zhengting Gan,  E. Epifanovsky,  A. T. B. Gilbert,  M. Wormit,  
 J. Kussmann,  A. W. Lange,  A. Behn,  Jia Deng,  Xintian Feng,  D. Ghosh,  
 M. Goldey,  P. R. Horn,  L. D. Jacobson,  I. Kaliman,  T. Kus,  A. Landau,  
 Jie Liu,  E. I. Proynov,  R. M. Richard,  R. P. Steele,  E. J. Sundstrom,  
 H. L. Woodcock III,  P. M. Zimmerman,  D. Zuev,  B. Albrecht,  E. Alguire,  
 S. A. Baeppler,  D. Barton,  Z. Benda,  Y. A. Bernard,  E. J. Berquist,  
 K. B. Bravaya,  H. Burton,  D. Casanova,  Chun-Min Chang,  Yunqing Chen,  
 A. Chien,  K. D. Closser,  M. P. Coons,  S. Coriani,  S. Dasgupta,  
 A. L. Dempwolff,  M. Diedenhofen,  Hainam Do,  R. G. Edgar,  Po-Tung Fang,  
 S. Faraji,  S. Fatehi,  Qingguo Feng,  K. D. Fenk,  J. Fosso-Tande,  
 Qinghui Ge,  A. Ghysels,  G. Gidofalvi,  J. Gomes,  J. Gonthier,  A. Gunina,  
 D. Hait,  M. W. D. Hanson-Heine,  P. H. P. Harbach,  A. W. Hauser,  
 J. E. Herr,  E. G. Hohenstein,  Z. C. Holden,  Kerwin Hui,  B. C. Huynh,  
 T.-C. Jagau,  Hyunjun Ji,  B. Kaduk,  K. Khistyaev,  Jaehoon Kim,  
 P. Klunzinger,  K. Koh,  D. Kosenkov,  L. Koulias,  T. Kowalczyk,  
 C. M. Krauter,  A. Kunitsa,  Ka Un Lao,  A. Laurent,  K. V. Lawler,  
 Joonho Lee,  D. Lefrancois,  S. Lehtola,  D. S. Levine,  Yi-Pei Li,  
 You-Sheng Lin,  Fenglai Liu,  E. Livshits,  A. Luenser,  P. Manohar,  
 E. Mansoor,  S. F. Manzer,  Shan-Ping Mao,  Yuezhi Mao,  N. Mardirossian,  
 A. V. Marenich,  T. Markovich,  L. A. Martinez-Martinez,  S. A. Maurer,  
 N. J. Mayhall,  S. C. McKenzie,  J.-M. Mewes,  A. F. Morrison,  
 J. W. Mullinax,  K. Nanda,  T. S. Nguyen-Beck,  R. Olivares-Amaya,  
 J. A. Parkhill,  T. M. Perrine,  F. Plasser,  P. Pokhilko,  S. Prager,  
 A. Prociuk,  E. Ramos,  D. R. Rehn,  F. Rob,  M. Schneider,  N. Sergueev,  
 S. M. Sharada,  S. Sharma,  D. W. Small,  T. Stauch,  T. Stein,  
 Yu-Chuan Su,  A. J. W. Thom,  A. Tkatchenko,  T. Tsuchimochi,  N. M. Tubman,  
 L. Vogt,  M. L. Vidal,  O. Vydrov,  M. A. Watson,  J. Wenzel,  
 M. de Wergifosse,  T. A. Wesolowski,  A. White,  J. Witte,  A. Yamada,  
 Jun Yang,  K. Yao,  S. Yeganeh,  S. R. Yost,  Zhi-Qiang You,  A. Zech,  
[...]
 ---------------------------------------
 SCF time:   CPU 359.47s  wall 45.00s 
 SCF   energy in the final basis set =      -47.1890903475
 Total energy in the final basis set =      -47.1890903475
 
 Components of the MP2 correlation energy:
        aaaa  correlation energy =        -0.0035563515 au
        abab  correlation energy =        -0.1506761181 au
        bbbb  correlation energy =        -0.0035563515 au
        non-Brillouin singles    =        -0.0000000000 au

 Total  MP2   correlation energy =                    -0.15778882 au
        MP2         total energy =                   -47.34687917 au
 
 --------------------------------------------------------------
 
                    Orbital Energies (a.u.)
 --------------------------------------------------------------
 
 Alpha MOs
 -- Occupied --
-10.689  -2.248  -0.736  -0.400  -0.400  -0.245
 -- Virtual --
 -0.020   0.007   0.009   0.009   0.015   0.041   0.041   0.049
  0.060   0.062   0.062   0.092   0.092   0.102   0.115   0.115
  0.129   0.129   0.130   0.150   0.158   0.158   0.176   0.226
  0.226   0.285   0.289   0.289   0.298   0.301   0.307   0.307
  0.326   0.326   0.337   0.347   0.347   0.349   0.357   0.357
  0.369   0.385   0.385   0.385   0.390   0.437   0.462   0.462
  0.474   0.474   0.501   0.525   0.525   0.578   0.639   0.639
  0.735   0.735   0.784   0.784   0.801   0.805   0.816   0.816
  0.857   0.874   0.876   0.876   0.907   0.918   0.918   0.934
  0.961   0.961   0.985   1.040   1.040   1.056   1.071   1.071
  1.091   1.117   1.162   1.167   1.167   1.209   1.209   1.254
  1.254   1.294   1.337   1.337   1.347   1.590   1.590   1.593
  1.620   1.664   1.674   1.674   1.739   1.739   1.855   1.910
  1.910   1.928   2.064   2.064   2.081   2.208   2.208   2.240
  2.891   3.103   3.168   3.168   3.477   3.477   3.493   3.493
  3.534   3.617   3.617   3.656   3.794   3.794   3.820   3.849
  3.943   3.943   4.026   4.026   4.052   4.067   4.067   4.100
  4.363   4.394   4.394   4.498   4.565   4.691   4.691   4.826
  4.853   4.863   4.863   5.033   5.033   5.121   5.414   5.540
  5.540   5.703   6.024   6.024   6.439   6.541   6.541  14.643
 14.643  14.662  14.662  14.715  15.897  15.981  16.524  16.524
 17.551  18.288  18.288  18.692  41.297  41.297  41.357  41.553
 41.553  81.079  81.509  81.509  87.097
 --------------------------------------------------------------
 
          Ground-State Mulliken Net Atomic Charges

     Atom                 Charge (a.u.)
  ----------------------------------------
      1 C                    -1.054833
      2 H                     0.254512
      3 H                     0.254512
      4 H                     0.254508
      5 Li                    0.291301
  ----------------------------------------
  Sum of atomic charges =     0.000000

 -----------------------------------------------------------------
                    Cartesian Multipole Moments
 -----------------------------------------------------------------
    Charge (ESU x 10^10)
                 0.0000
    Dipole Moment (Debye)
         X       0.0000      Y       0.0000      Z      -5.9434
       Tot       5.9434
    Quadrupole Moments (Debye-Ang)
        XX     -11.6494     XY      -0.0000     YY     -11.6493
        XZ       0.0000     YZ       0.0000     ZZ     -20.3134
    Octopole Moments (Debye-Ang^2)
       XXX       0.0001    XXY       0.2411    XYY      -0.0001
       YYY      -0.2410    XXZ     -20.6588    XYZ      -0.0000
       YYZ     -20.6587    XZZ       0.0000    YZZ       0.0001
       ZZZ     -81.6006
    Hexadecapole Moments (Debye-Ang^3)
      XXXX     -24.8942   XXXY      -0.0000   XXYY      -8.2981
      XYYY      -0.0000   YYYY     -24.8944   XXXZ       0.0004
      XXYZ       0.8077   XYYZ      -0.0004   YYYZ      -0.8076
      XXZZ     -48.3585   XYZZ      -0.0000   YYZZ     -48.3584
      XZZZ      -0.0000   YZZZ       0.0005   ZZZZ    -324.3313
 -----------------------------------------------------------------
Archival summary:
1\1\n0101.mhg0\SP\ProcedureUnspecified\BasisUnspecified\1i13\yhljason\WedNov1114:13:042020WedNov1114:13:042020\0\\#,ProcedureUnspecified,BasisUnspecified,\\0,1\C\H,1,1.095\H,1,1.095,2,105.999\H,1,1.09501,2,106,3,-112.365,0\Li,1,1.9851,2,112.753,3,123.817,0\\\@

 Total job time:  77.29s(wall), 613.40s(cpu) 
 Wed Nov 11 14:13:04 2020

        *************************************************************
        *                                                           *
        *  Thank you very much for using Q-Chem.  Have a nice day.  *
        *                                                           *
        *************************************************************


 
User input: 7 of 7 
 
Q-Chem Developer Version!
                  Welcome to Q-Chem
     A Quantum Leap Into The Future Of Chemistry


 Q-Chem 5.1, Q-Chem, Inc., Pleasanton, CA (2018)

 Yihan Shao,  Zhengting Gan,  E. Epifanovsky,  A. T. B. Gilbert,  M. Wormit,  
 J. Kussmann,  A. W. Lange,  A. Behn,  Jia Deng,  Xintian Feng,  D. Ghosh,  
 M. Goldey,  P. R. Horn,  L. D. Jacobson,  I. Kaliman,  T. Kus,  A. Landau,  
 Jie Liu,  E. I. Proynov,  R. M. Richard,  R. P. Steele,  E. J. Sundstrom,  
 H. L. Woodcock III,  P. M. Zimmerman,  D. Zuev,  B. Albrecht,  E. Alguire,  
 S. A. Baeppler,  D. Barton,  Z. Benda,  Y. A. Bernard,  E. J. Berquist,  
 K. B. Bravaya,  H. Burton,  D. Casanova,  Chun-Min Chang,  Yunqing Chen,  
 A. Chien,  K. D. Closser,  M. P. Coons,  S. Coriani,  S. Dasgupta,  
 A. L. Dempwolff,  M. Diedenhofen,  Hainam Do,  R. G. Edgar,  Po-Tung Fang,  
 S. Faraji,  S. Fatehi,  Qingguo Feng,  K. D. Fenk,  J. Fosso-Tande,  
 Qinghui Ge,  A. Ghysels,  G. Gidofalvi,  J. Gomes,  J. Gonthier,  A. Gunina,  
 D. Hait,  M. W. D. Hanson-Heine,  P. H. P. Harbach,  A. W. Hauser,  
 J. E. Herr,  E. G. Hohenstein,  Z. C. Holden,  Kerwin Hui,  B. C. Huynh,  
 T.-C. Jagau,  Hyunjun Ji,  B. Kaduk,  K. Khistyaev,  Jaehoon Kim,  
 P. Klunzinger,  K. Koh,  D. Kosenkov,  L. Koulias,  T. Kowalczyk,  
 C. M. Krauter,  A. Kunitsa,  Ka Un Lao,  A. Laurent,  K. V. Lawler,  
 Joonho Lee,  D. Lefrancois,  S. Lehtola,  D. S. Levine,  Yi-Pei Li,  
 You-Sheng Lin,  Fenglai Liu,  E. Livshits,  A. Luenser,  P. Manohar,  
 E. Mansoor,  S. F. Manzer,  Shan-Ping Mao,  Yuezhi Mao,  N. Mardirossian,  
 A. V. Marenich,  T. Markovich,  L. A. Martinez-Martinez,  S. A. Maurer,  
 N. J. Mayhall,  S. C. McKenzie,  J.-M. Mewes,  A. F. Morrison,  
 J. W. Mullinax,  K. Nanda,  T. S. Nguyen-Beck,  R. Olivares-Amaya,  
 J. A. Parkhill,  T. M. Perrine,  F. Plasser,  P. Pokhilko,  S. Prager,  
 A. Prociuk,  E. Ramos,  D. R. Rehn,  F. Rob,  M. Schneider,  N. Sergueev,  
 S. M. Sharada,  S. Sharma,  D. W. Small,  T. Stauch,  T. Stein,  
 Yu-Chuan Su,  A. J. W. Thom,  A. Tkatchenko,  T. Tsuchimochi,  N. M. Tubman,  
 L. Vogt,  M. L. Vidal,  O. Vydrov,  M. A. Watson,  J. Wenzel,  
 M. de Wergifosse,  T. A. Wesolowski,  A. White,  J. Witte,  A. Yamada,  
 Jun Yang,  K. Yao,  S. Yeganeh,  S. R. Yost,  Zhi-Qiang You,  A. Zech,  
 Igor Ying Zhang,  Xing Zhang,  Yan Zhao,  Ying Zhu,  B. R. Brooks,  
 G. K. L. Chan,  C. J. Cramer,  M. S. Gordon,  W. J. Hehre,  A. Klamt,  
 M. W. Schmidt,  C. D. Sherrill,  D. G. Truhlar,  A. Aspuru-Guzik,  R. Baer,  
 A. T. Bell,  N. A. Besley,  Jeng-Da Chai,  A. E. DePrince, III,  
 R. A. DiStasio Jr.,  A. Dreuw,  B. D. Dunietz,  T. R. Furlani,  
 Chao-Ping Hsu,  Yousung Jung,  Jing Kong,  D. S. Lambrecht,  WanZhen Liang,  
 C. Ochsenfeld,  V. A. Rassolov,  L. V. Slipchenko,  J. E. Subotnik,  
 T. Van Voorhis,  J. M. Herbert,  A. I. Krylov,  P. M. W. Gill,  M. Head-Gordon

 Contributors to earlier versions of Q-Chem not listed above: 
 R. D. Adamson,  B. Austin,  J. Baker,  G. J. O. Beran,  K. Brandhorst,  
 S. T. Brown,  E. F. C. Byrd,  A. K. Chakraborty,  C.-L. Cheng,  
 Siu Hung Chien,  D. M. Chipman,  D. L. Crittenden,  H. Dachsel,  
 R. J. Doerksen,  A. D. Dutoi,  L. Fusti-Molnar,  W. A. Goddard III,  
 A. Golubeva-Zadorozhnaya,  S. R. Gwaltney,  G. Hawkins,  A. Heyden,  
 S. Hirata,  G. Kedziora,  F. J. Keil,  C. Kelley,  Jihan Kim,  R. A. King,  
 R. Z. Khaliullin,  P. P. Korambath,  W. Kurlancheek,  A. M. Lee,  M. S. Lee,  
 S. V. Levchenko,  Ching Yeh Lin,  D. Liotard,  R. C. Lochan,  I. Lotan,  
 P. E. Maslen,  N. Nair,  D. P. O'Neill,  D. Neuhauser,  E. Neuscamman,  
 C. M. Oana,  R. Olson,  B. Peters,  R. Peverati,  P. A. Pieniazek,  
 Y. M. Rhee,  J. Ritchie,  M. A. Rohrdanz,  E. Rosta,  N. J. Russ,  
 H. F. Schaefer III,  N. E. Schultz,  N. Shenvi,  A. C. Simmonett,  A. Sodt,  
 D. Stuck,  K. S. Thanthiriwatte,  V. Vanovschi,  Tao Wang,  A. Warshel,  
 C. F. Williams,  Q. Wu,  X. Xu,  W. Zhang

 Please cite Q-Chem as follows:
 Y. Shao et al., Mol. Phys. 113, 184-215 (2015)
 DOI: 10.1080/00268976.2014.952696

 Q-Chem 5.1.1 for Intel X86 EM64T Linux

 Parts of Q-Chem use Armadillo 8.300.2 (Tropical Shenanigans).
 http://arma.sourceforge.net/

 Q-Chem begins on Wed Nov 11 14:13:04 2020  

Host: n0101.mhg0
0

     Scratch files written to /local/scratch/users/yhljason/CH3Li_DSD-PBEPBE-D3_aug-cc-pcVTZ.inp20201111140416//
The previous job contains 0 fragments, simply inherited here
Input Ideriv = 0
Curr. Ideriv = -1
Max.  Ideriv = 0
Analytic post-HF gradients are not available with non-HF exchange
Input Ideriv = 0
Curr. Ideriv = 0
Max.  Ideriv = 0

Checking the input file for inconsistencies... 	...done.

--------------------------------------------------------------
User input:
--------------------------------------------------------------
$molecule
read
$end

$rem
jobtype sp
exchange DSD-PBEPBE-D3
xc_grid 000099000590
basis aug-cc-pcVTZ

max_scf_cycles 200
thresh 14
scf_convergence 8
mem_total 128000
cc_memory 96000
cc_backend xm
mem_static 1500
symmetry false
sym_ignore true
scf_guess read
unrestricted false
scf_algorithm gdm
n_frozen_core 0
$end



$multipole_field
ZZ -0.0001
$end

--------------------------------------------------------------
 Adding empirical dispersion correction 
 ----------------------------------------------------------------
 Doing -D3(BJ) with
 s6 =   0.78000
 s8 =   0.00000
 a1 =   0.00000
 a2 =   6.10000
 -D3 energy without 3body term =     -0.0014851895 hartrees
 ----------------------------------------------------------------
             Standard Nuclear Orientation (Angstroms)
    I     Atom           X                Y                Z
 ----------------------------------------------------------------
    1      C       0.0000000000     0.0000000000     1.9851000000
    2      H      -0.8744257046     0.5050292293     2.4086001236
    3      H       0.8745747704     0.5047710498     2.4086001158
    4      H      -0.0001490540    -1.0098003255     2.4086001425
    5      Li      0.0000000000     0.0000000000     0.0000000000
 ----------------------------------------------------------------
 Nuclear Repulsion Energy =    16.2268525195 hartrees
 There are        6 alpha and        6 beta electrons
 Requested basis set is aug-cc-pCVTZ
 There are 65 shells and 187 basis functions

 Total QAlloc Memory Limit 128000 MB
 Mega-Array Size      1467 MB
 MEM_STATIC part      1500 MB

                       Distance Matrix (Angstroms)
             C (  1)   H (  2)   H (  3)   H (  4)
   H (  2)  1.095001
   H (  3)  1.095001  1.749000
   H (  4)  1.095011  1.749019  1.749019
   Li(  5)  1.985100  2.611710  2.611710  2.611714
 
 Applying Cartesian multipole field
    Component          Value
    ---------          -----
     (0,0,2)       -1.00000E-04
 Nucleus-field energy     =    -0.0146584340 hartrees
 A cutoff of  1.0D-14 yielded   2136 shell pairs
 There are     17766 function pairs (     23124 Cartesian)
 
 -------------------------------------------------------
 OpenMP Integral Computing Module                       
 Release: version 1.0, May 2013, Q-Chem Inc. Pittsburgh 
 -------------------------------------------------------
 Integral Job Info:
 Integral job number is                      11
 Integral operator is                         1
 short-range coefficients                     0
 long-range coefficients              100000000
 Omega coefficients                           0
 if combine SR and LR in K                    0
 Integral screening is                        0
 Integral computing path is                   2
 max size of driver memory is            800000
 size of driver memory is                776718
 size of scratch memory is              9449352
 max col of scratch BK array              10000
 max len of scratch array in speh3          662
 max len of scratch index in speh4           32
 max int batch size is                      520
 min int batch size is                       52
 fixed nKL is                                52
 max L of basis functions is                  3
 order of int derivative is                   0
 number of shells is                         65
 number of basis is                         213
 number of cartesian basis is               213
 number of contracted shell pairs          2136
 number of primitive shell pairs           5185
 maxK2 (contraction) of shell pair           81
 max number of K2 of shell pair               1
 max number of CS2 of shell pair            365
 max number of PS2 of shell pair            365
 mem total for path MDJ                  570992
 -------------------------------------------------------
 Smallest overlap matrix eigenvalue = 5.76E-05
 Guess MOs from SCF MO coefficient file

 -----------------------------------------------------------------------
  General SCF calculation program by
  Eric Jon Sundstrom, Paul Horn, Yuezhi Mao, Dmitri Zuev, Alec White,
  David Stuck, Shaama M.S., Shane Yost, Joonho Lee, David Small,
  Daniel Levine, Susi Lehtola, Hugh Burton, Evgeny Epifanovsky
 -----------------------------------------------------------------------
 Exchange:     0.6800 Hartree-Fock + 0.3200 PBE
 Correlation:  0.4900 PBE
 Using Euler-Maclaurin-Lebedev (99,590) quadrature formula
 Dispersion:   Grimme D3
 using 8 threads for integral computing
 -------------------------------------------------------
 OpenMP Integral computing Module                
 Release: version 2.0, May 2017, Q-Chem Inc. Pleasanton 
 -------------------------------------------------------
 -------------------------------------------------------
 OpenMP BLAS3 based DFT computing Module                
 Release: version 1.0, May 2013, Q-Chem Inc. Pittsburgh 
 -------------------------------------------------------
 A restricted SCF calculation will be
 performed using GDM
 SCF converges when RMS gradient is below 1.0e-08
 ---------------------------------------
  Cycle       Energy        RMS Gradient
 ---------------------------------------
    1     -47.1860698443      1.88e-03   Normal BFGS step
    2     -47.1861028966      7.26e-04   Normal BFGS step
    3     -47.1861063042      2.34e-04   Normal BFGS step
    4     -47.1861067045      9.53e-05   Normal BFGS step
    5     -47.1861067778      3.22e-05   Normal BFGS step
    6     -47.1861067814      7.14e-06   Normal BFGS step
    7     -47.1861067816      1.49e-06   Normal BFGS step
    8     -47.1861067816      3.58e-07   Normal BFGS step
    9     -47.1861067816      5.05e-08   Normal BFGS step
   10     -47.1861067816      7.65e-09  Convergence criterion met
 ---------------------------------------
 SCF time:   CPU 355.25s  wall 45.00s 
 SCF   energy in the final basis set =      -47.1861067816
 Total energy in the final basis set =      -47.1861067816
 
 Components of the MP2 correlation energy:
        aaaa  correlation energy =        -0.0035555792 au
        abab  correlation energy =        -0.1506939610 au
        bbbb  correlation energy =        -0.0035555792 au
        non-Brillouin singles    =        -0.0000000000 au

 Total  MP2   correlation energy =                    -0.15780512 au
        MP2         total energy =                   -47.34391190 au
 
 --------------------------------------------------------------
 
                    Orbital Energies (a.u.)
 --------------------------------------------------------------
 
 Alpha MOs
 -- Occupied --
-10.686  -2.246  -0.733  -0.397  -0.397  -0.241
 -- Virtual --
 -0.015   0.015   0.015   0.024   0.029   0.046   0.046   0.065
  0.072   0.072   0.073   0.094   0.094   0.108   0.120   0.120
  0.134   0.134   0.140   0.163   0.166   0.166   0.186   0.231
  0.231   0.288   0.291   0.291   0.299   0.303   0.311   0.311
  0.331   0.331   0.341   0.351   0.351   0.356   0.361   0.361
  0.376   0.390   0.390   0.390   0.397   0.443   0.468   0.468
  0.480   0.480   0.507   0.530   0.530   0.581   0.643   0.643
  0.739   0.739   0.786   0.786   0.805   0.812   0.819   0.819
  0.860   0.877   0.880   0.880   0.908   0.921   0.921   0.937
  0.964   0.964   0.989   1.045   1.045   1.060   1.076   1.076
  1.095   1.122   1.165   1.172   1.172   1.213   1.213   1.259
  1.259   1.297   1.341   1.341   1.351   1.593   1.593   1.598
  1.624   1.668   1.677   1.677   1.743   1.743   1.859   1.914
  1.914   1.932   2.068   2.068   2.084   2.212   2.212   2.244
  2.895   3.107   3.171   3.171   3.481   3.481   3.496   3.496
  3.538   3.620   3.620   3.659   3.798   3.798   3.823   3.851
  3.947   3.947   4.029   4.029   4.056   4.071   4.071   4.103
  4.366   4.397   4.397   4.501   4.569   4.695   4.695   4.830
  4.857   4.867   4.867   5.036   5.036   5.124   5.418   5.544
  5.544   5.706   6.028   6.028   6.442   6.544   6.544  14.645
 14.645  14.664  14.664  14.717  15.900  15.983  16.527  16.527
 17.555  18.290  18.290  18.694  41.300  41.300  41.360  41.556
 41.556  81.082  81.513  81.513  87.100
 --------------------------------------------------------------
 
          Ground-State Mulliken Net Atomic Charges

     Atom                 Charge (a.u.)
  ----------------------------------------
      1 C                    -1.045648
      2 H                     0.253322
      3 H                     0.253322
      4 H                     0.253317
      5 Li                    0.285687
  ----------------------------------------
  Sum of atomic charges =     0.000000

 -----------------------------------------------------------------
                    Cartesian Multipole Moments
 -----------------------------------------------------------------
    Charge (ESU x 10^10)
                 0.0000
    Dipole Moment (Debye)
         X       0.0000      Y       0.0000      Z      -5.8206
       Tot       5.8206
    Quadrupole Moments (Debye-Ang)
        XX     -11.6560     XY      -0.0000     YY     -11.6560
        XZ       0.0000     YZ       0.0000     ZZ     -19.8201
    Octopole Moments (Debye-Ang^2)
       XXX       0.0001    XXY       0.2480    XYY      -0.0001
       YYY      -0.2480    XXZ     -20.5204    XYZ      -0.0000
       YYZ     -20.5204    XZZ       0.0000    YZZ       0.0001
       ZZZ     -79.6675
    Hexadecapole Moments (Debye-Ang^3)
      XXXX     -24.9428   XXXY      -0.0000   XXYY      -8.3143
      XYYY      -0.0000   YYYY     -24.9430   XXXZ       0.0004
      XXYZ       0.8328   XYYZ      -0.0004   YYYZ      -0.8327
      XXZZ     -47.8135   XYZZ      -0.0000   YYZZ     -47.8134
      XZZZ      -0.0000   YZZZ       0.0004   ZZZZ    -316.8140
 -----------------------------------------------------------------
Archival summary:
1\1\n0101.mhg0\SP\ProcedureUnspecified\BasisUnspecified\1i13\yhljason\WedNov1114:14:212020WedNov1114:14:212020\0\\#,ProcedureUnspecified,BasisUnspecified,\\0,1\C\H,1,1.095\H,1,1.095,2,105.999\H,1,1.09501,2,106,3,-112.365,0\Li,1,1.9851,2,112.753,3,123.817,0\\\@

 Total job time:  76.57s(wall), 607.25s(cpu) 
 Wed Nov 11 14:14:21 2020

        *************************************************************
        *                                                           *
        *  Thank you very much for using Q-Chem.  Have a nice day.  *
        *                                                           *
        *************************************************************


