Q-Chem Developer Version!
                  Welcome to Q-Chem
     A Quantum Leap Into The Future Of Chemistry


 Q-Chem 5.1, Q-Chem, Inc., Pleasanton, CA (2018)

 Yihan Shao,  Zhengting Gan,  E. Epifanovsky,  A. T. B. Gilbert,  M. Wormit,  
 J. Kussmann,  A. W. Lange,  A. Behn,  Jia Deng,  Xintian Feng,  D. Ghosh,  
 M. Goldey,  P. R. Horn,  L. D. Jacobson,  I. Kaliman,  T. Kus,  A. Landau,  
 Jie Liu,  E. I. Proynov,  R. M. Richard,  R. P. Steele,  E. J. Sundstrom,  
 H. L. Woodcock III,  P. M. Zimmerman,  D. Zuev,  B. Albrecht,  E. Alguire,  
 S. A. Baeppler,  D. Barton,  Z. Benda,  Y. A. Bernard,  E. J. Berquist,  
 K. B. Bravaya,  H. Burton,  D. Casanova,  Chun-Min Chang,  Yunqing Chen,  
 A. Chien,  K. D. Closser,  M. P. Coons,  S. Coriani,  S. Dasgupta,  
 A. L. Dempwolff,  M. Diedenhofen,  Hainam Do,  R. G. Edgar,  Po-Tung Fang,  
 S. Faraji,  S. Fatehi,  Qingguo Feng,  K. D. Fenk,  J. Fosso-Tande,  
 Qinghui Ge,  A. Ghysels,  G. Gidofalvi,  J. Gomes,  J. Gonthier,  A. Gunina,  
 D. Hait,  M. W. D. Hanson-Heine,  P. H. P. Harbach,  A. W. Hauser,  
 J. E. Herr,  E. G. Hohenstein,  Z. C. Holden,  Kerwin Hui,  B. C. Huynh,  
 T.-C. Jagau,  Hyunjun Ji,  B. Kaduk,  K. Khistyaev,  Jaehoon Kim,  
 P. Klunzinger,  K. Koh,  D. Kosenkov,  L. Koulias,  T. Kowalczyk,  
 C. M. Krauter,  A. Kunitsa,  Ka Un Lao,  A. Laurent,  K. V. Lawler,  
 Joonho Lee,  D. Lefrancois,  S. Lehtola,  D. S. Levine,  Yi-Pei Li,  
 You-Sheng Lin,  Fenglai Liu,  E. Livshits,  A. Luenser,  P. Manohar,  
 E. Mansoor,  S. F. Manzer,  Shan-Ping Mao,  Yuezhi Mao,  N. Mardirossian,  
 A. V. Marenich,  T. Markovich,  L. A. Martinez-Martinez,  S. A. Maurer,  
 N. J. Mayhall,  S. C. McKenzie,  J.-M. Mewes,  A. F. Morrison,  
 J. W. Mullinax,  K. Nanda,  T. S. Nguyen-Beck,  R. Olivares-Amaya,  
 J. A. Parkhill,  T. M. Perrine,  F. Plasser,  P. Pokhilko,  S. Prager,  
 A. Prociuk,  E. Ramos,  D. R. Rehn,  F. Rob,  M. Schneider,  N. Sergueev,  
 S. M. Sharada,  S. Sharma,  D. W. Small,  T. Stauch,  T. Stein,  
 Yu-Chuan Su,  A. J. W. Thom,  A. Tkatchenko,  T. Tsuchimochi,  N. M. Tubman,  
 L. Vogt,  M. L. Vidal,  O. Vydrov,  M. A. Watson,  J. Wenzel,  
 M. de Wergifosse,  T. A. Wesolowski,  A. White,  J. Witte,  A. Yamada,  
 Jun Yang,  K. Yao,  S. Yeganeh,  S. R. Yost,  Zhi-Qiang You,  A. Zech,  
 Igor Ying Zhang,  Xing Zhang,  Yan Zhao,  Ying Zhu,  B. R. Brooks,  
 G. K. L. Chan,  C. J. Cramer,  M. S. Gordon,  W. J. Hehre,  A. Klamt,  
 M. W. Schmidt,  C. D. Sherrill,  D. G. Truhlar,  A. Aspuru-Guzik,  R. Baer,  
 A. T. Bell,  N. A. Besley,  Jeng-Da Chai,  A. E. DePrince, III,  
 R. A. DiStasio Jr.,  A. Dreuw,  B. D. Dunietz,  T. R. Furlani,  
 Chao-Ping Hsu,  Yousung Jung,  Jing Kong,  D. S. Lambrecht,  WanZhen Liang,  
 C. Ochsenfeld,  V. A. Rassolov,  L. V. Slipchenko,  J. E. Subotnik,  
 T. Van Voorhis,  J. M. Herbert,  A. I. Krylov,  P. M. W. Gill,  M. Head-Gordon

 Contributors to earlier versions of Q-Chem not listed above: 
 R. D. Adamson,  B. Austin,  J. Baker,  G. J. O. Beran,  K. Brandhorst,  
 S. T. Brown,  E. F. C. Byrd,  A. K. Chakraborty,  C.-L. Cheng,  
 Siu Hung Chien,  D. M. Chipman,  D. L. Crittenden,  H. Dachsel,  
 R. J. Doerksen,  A. D. Dutoi,  L. Fusti-Molnar,  W. A. Goddard III,  
 A. Golubeva-Zadorozhnaya,  S. R. Gwaltney,  G. Hawkins,  A. Heyden,  
 S. Hirata,  G. Kedziora,  F. J. Keil,  C. Kelley,  Jihan Kim,  R. A. King,  
 R. Z. Khaliullin,  P. P. Korambath,  W. Kurlancheek,  A. M. Lee,  M. S. Lee,  
 S. V. Levchenko,  Ching Yeh Lin,  D. Liotard,  R. C. Lochan,  I. Lotan,  
 P. E. Maslen,  N. Nair,  D. P. O'Neill,  D. Neuhauser,  E. Neuscamman,  
 C. M. Oana,  R. Olson,  B. Peters,  R. Peverati,  P. A. Pieniazek,  
 Y. M. Rhee,  J. Ritchie,  M. A. Rohrdanz,  E. Rosta,  N. J. Russ,  
 H. F. Schaefer III,  N. E. Schultz,  N. Shenvi,  A. C. Simmonett,  A. Sodt,  
 D. Stuck,  K. S. Thanthiriwatte,  V. Vanovschi,  Tao Wang,  A. Warshel,  
 C. F. Williams,  Q. Wu,  X. Xu,  W. Zhang

 Please cite Q-Chem as follows:
 Y. Shao et al., Mol. Phys. 113, 184-215 (2015)
 DOI: 10.1080/00268976.2014.952696

 Q-Chem 5.1.1 for Intel X86 EM64T Linux

 Parts of Q-Chem use Armadillo 8.300.2 (Tropical Shenanigans).
 http://arma.sourceforge.net/

 Q-Chem begins on Wed Nov 11 17:35:07 2020  

Host: n0098.mhg0
0

     Scratch files written to /local/scratch/users/yhljason/CH3Li_B2PLYP_aug-cc-pcV5Z.inp20201111142612//
Input Ideriv = 0
Curr. Ideriv = -1
Max.  Ideriv = 0
Analytic post-HF gradients are not available with non-HF exchange
Input Ideriv = 0
Curr. Ideriv = 0
Max.  Ideriv = 0

Checking the input file for inconsistencies... 	...done.

--------------------------------------------------------------
User input:
--------------------------------------------------------------
$molecule
0 1
C1 -0.0000000000 0.0000000000 1.9851000000
H2 -0.8744257046 0.5050292293 2.4086001236
H3 0.8745747704 0.5047710498 2.4086001158
H4 -0.0001490540 -1.0098003255 2.4086001425
Li5 0.0000000000 0.0000000000 0.0000000000
$end
$rem
jobtype sp
exchange B2PLYP
xc_grid 000099000590
basis gen

max_scf_cycles 200
thresh 14
scf_convergence 8
scf_algorithm gdm
symmetry false
sym_ignore true
unrestricted false
gen_scfman true
internal_stability_iter 15
internal_stability_davidson_iter 200
mem_total 128000
cc_memory 96000
cc_backend xm
mem_static 1500
n_frozen_core 500
$end

$basis
****
H
aug-cc-pcV5Z
****
C
aug-cc-pcV5Z
****
Li     0
S   14   1.00
  29493.0000000              1.8000000e-05
   4417.1010000              1.4100000e-04
   1005.2230000              7.3900000e-04
    284.7009000              3.1070000e-03
     92.8654300              1.1135000e-02
     33.5117900              3.4670000e-02
     13.0418000              9.2171000e-02
      5.3575360              1.9957600e-01
      2.2793380              3.2883600e-01
      0.9939900              3.4597500e-01
      0.4334710              1.4276100e-01
      0.0955660              5.3190000e-03
      0.0446570             -2.1010000e-03
      0.0206330              8.1500000e-04
S   14   1.00
  29493.0000000             -3.0000000e-06
   4417.1010000             -2.2000000e-05
   1005.2230000             -1.1500000e-04
    284.7009000             -4.8700000e-04
     92.8654300             -1.7460000e-03
     33.5117900             -5.5200000e-03
     13.0418000             -1.4928000e-02
      5.3575360             -3.4206000e-02
      2.2793380             -6.2155000e-02
      0.9939900             -9.5902000e-02
      0.4334710             -1.0397200e-01
      0.0955660              3.0715100e-01
      0.0446570              5.7902800e-01
      0.0206330              2.2323100e-01
S   1   1.00
      0.4334710              1.0000000e+00
S   1   1.00
      0.0955660              1.0000000e+00
S   1   1.00
      0.0446570              1.0000000e+00
S   1   1.00
      0.0206330              1.0000000e+00
P   8   1.00
     19.6635000              5.4000000e-04
      4.6231100              3.8650000e-03
      1.4137800              1.5171000e-02
      0.4737210              4.9204000e-02
      0.1761510              1.5466100e-01
      0.0726750              3.6009500e-01
      0.0321410              4.4185200e-01
      0.0145560              1.5600000e-01
P   1   1.00
      0.1761510              1.0000000e+00
P   1   1.00
      0.0726750              1.0000000e+00
P   1   1.00
      0.0321410              1.0000000e+00
P   1   1.00
      0.0145560              1.0000000e+00
D   1   1.00
      0.5310000              1.0000000e+00
D   1   1.00
      0.2481000              1.0000000e+00
D   1   1.00
      0.1159000              1.0000000e+00
D   1   1.00
      0.0542000              1.0000000e+00
F   1   1.00
      0.2920000              1.0000000e+00
F   1   1.00
      0.1641000              1.0000000e+00
F   1   1.00
      0.0922000              1.0000000e+00
G   1   1.00
      0.2971000              1.0000000e+00
G   1   1.00
      0.1500000              1.0000000e+00
H   1   1.00
      0.2949000              1.0000000e+00
S   1   1.00
     27.8558000              1.0000000
S   1   1.00
     12.5082000              1.0000000
S   1   1.00
      5.6166000              1.0000000
S   1   1.00
      2.5221000              1.0000000
P   1   1.00
     29.2095000              1.0000000
P   1   1.00
     11.1763000              1.0000000
P   1   1.00
      4.2763000              1.0000000
P   1   1.00
      1.6362000              1.0000000
D   1   1.00
     19.8455000              1.0000000
D   1   1.00
      7.1492000              1.0000000
D   1   1.00
      2.5754000              1.0000000
F   1   1.00
     13.2502000              1.0000000
F   1   1.00
      4.1991000              1.0000000
G   1   1.00
      8.4093000              1.0000000
S   1   1.00
      0.0061000              1.0000000
P   1   1.00
      0.0065000              1.0000000
D   1   1.00
      0.0235000              1.0000000
F   1   1.00
      0.0448000              1.0000000
G   1   1.00
      0.0724000              1.0000000
H   1   1.00
      0.1274000              1.0000000
****
$end

--------------------------------------------------------------
 ----------------------------------------------------------------
             Standard Nuclear Orientation (Angstroms)
    I     Atom           X                Y                Z
 ----------------------------------------------------------------
    1      C       0.0000000000     0.0000000000     1.9851000000
    2      H      -0.8744257046     0.5050292293     2.4086001236
    3      H       0.8745747704     0.5047710498     2.4086001158
    4      H      -0.0001490540    -1.0098003255     2.4086001425
    5      Li      0.0000000000     0.0000000000     0.0000000000
 ----------------------------------------------------------------
 Nuclear Repulsion Energy =    16.2283377089 hartrees
 There are        6 alpha and        6 beta electrons

 Q-Chem warning in module forms1/BasisType.C, line 1703:

 Setting pure/cartesian flag to 2111 for general basis


 Requested basis set is non-standard
 There are 142 shells and 642 basis functions

 Total QAlloc Memory Limit 128000 MB
 Mega-Array Size      1467 MB
 MEM_STATIC part      1500 MB

                       Distance Matrix (Angstroms)
             C (  1)   H (  2)   H (  3)   H (  4)
   H (  2)  1.095001
   H (  3)  1.095001  1.749000
   H (  4)  1.095011  1.749019  1.749019
   Li(  5)  1.985100  2.611710  2.611710  2.611714
 
 A cutoff of  1.0D-14 yielded   9806 shell pairs
 There are    202948 function pairs (    328246 Cartesian)
 
 -------------------------------------------------------
 OpenMP Integral Computing Module                       
 Release: version 1.0, May 2013, Q-Chem Inc. Pittsburgh 
 -------------------------------------------------------
 Integral Job Info:
 Integral job number is                      11
 Integral operator is                         1
 short-range coefficients                     0
 long-range coefficients              100000000
 Omega coefficients                           0
 if combine SR and LR in K                    0
 Integral screening is                        0
 Integral computing path is                   2
 max size of driver memory is           6400000
 size of driver memory is               5498286
 size of scratch memory is             28716118
 max col of scratch BK array             194481
 max len of scratch array in speh3         5572
 max len of scratch index in speh4           72
 max int batch size is                      520
 min int batch size is                       52
 fixed nKL is                                14
 max L of basis functions is                  5
 order of int derivative is                   0
 number of shells is                        142
 number of basis is                         817
 number of cartesian basis is               817
 number of contracted shell pairs          9806
 number of primitive shell pairs          19090
 maxK2 (contraction) of shell pair          196
 max number of K2 of shell pair               1
 max number of CS2 of shell pair           1067
 max number of PS2 of shell pair           1067
 mem total for path MDJ                 1589680
 -------------------------------------------------------
 Smallest overlap matrix eigenvalue = 3.80E-07
 Linear dependence detected in AO basis
 Number of orthogonalized atomic orbitals = 640
 Maximum deviation from orthogonality = 3.085E-10

 Scale SEOQF with 1.000000e-02/1.000000e-02/1.000000e-02

 Standard Electronic Orientation quadrupole field applied
 Nucleus-field energy     =    -0.0000000004 hartrees
 Guess MOs from core Hamiltonian diagonalization

 -----------------------------------------------------------------------
  General SCF calculation program by
  Eric Jon Sundstrom, Paul Horn, Yuezhi Mao, Dmitri Zuev, Alec White,
  David Stuck, Shaama M.S., Shane Yost, Joonho Lee, David Small,
  Daniel Levine, Susi Lehtola, Hugh Burton, Evgeny Epifanovsky
 -----------------------------------------------------------------------
 Exchange:     0.5300 Hartree-Fock + 0.4700 B88
 Correlation:  0.7300 LYP
 Using Euler-Maclaurin-Lebedev (99,590) quadrature formula
Running Object-Oriented RKS (RHF)
 LTot/LBra/LKet=          20          10          10
 LTot/LBra/LKet=          20          10          10

 Q-Chem warning:

 in GenH1, ket side, handled with new code


 Q-Chem warning:

 in GenH1, ket side, handled with new code

 LTot/LBra/LBra=          20          10          10

 Q-Chem warning:

 in GenH1, bra side, handled with new code

We will preform up to 15 macro iterations over saddle points until a stable solution is found
Energy prior to optimization (guess energy) = -32.223203022924
Begin Timing: Total SCF Calculation
Begin Timing: SCF Single Stationary Point Calculation
begin iterations for algorithm: GDM          
the SCF tolerance is set to 1.00e-08
    1     -32.2232030229      1.36e+00     00000  Descent step
    2     -35.5608202982      9.51e-01     00000  Descent step
    3     -38.4508990419      9.20e-01     00000  Descent step
    4     -40.8018145506      8.32e-01     00000  Descent step
    5     -42.9848575012      7.01e-01     00000  Descent step
    6     -44.8100025877      7.98e-01     00000  Descent step
    7     -46.2246923008      2.83e-01     00000  Descent step
    8     -46.8877863669      1.17e-01     00000  Descent step
    9     -47.1960026824      5.51e-02     00000  Dog-leg BFGS step
   10     -47.2880812707      1.40e-02     00000  Normal BFGS step
   11     -47.2717729073      3.12e-02     00000 Line search: overstep
   12     -47.2897764178      7.53e-03     00000  Normal BFGS step
   13     -47.2882690113      1.20e-02     00000 Line search: overstep
   14     -47.2904372844      4.25e-03     00000  Normal BFGS step
   15     -47.2906272648      5.68e-03     00000  Normal BFGS step
   16     -47.2907671270      2.47e-03     00000  Normal BFGS step
   17     -47.2908772401      9.52e-04     00000  Normal BFGS step
   18     -47.2908756895      1.69e-03     00000 Line search: overstep
   19     -47.2908919770      6.50e-04     00000  Normal BFGS step
   20     -47.2908917168      7.70e-04     00000  Normal BFGS step
   21     -47.2909002260      1.46e-04     00000  Normal BFGS step
   22     -47.2909003951      4.86e-05     00000  Normal BFGS step
   23     -47.2909004497      2.09e-05     00000  Normal BFGS step
   24     -47.2909004533      1.37e-06     00000  Normal BFGS step
   25     -47.2909004533      5.57e-07     00000  Normal BFGS step
   26     -47.2909004533      7.83e-08     00000  Normal BFGS step
   27     -47.2909004533      5.49e-08     00000  Normal BFGS step
   28     -47.2909004533      4.67e-09     00000 Convergence criterion met
Timing for Single Stationary Point: 28003.00s (wall), 215382.99s (cpu)
Begin Timing: Stability
===================================================
Beginning Test for Internal Stability
===================================================
generating davidson guess vectors based on koopmans excitations
    1      3.00e+00     00000 Davidson Iteration
    2      1.31e+00     00000 Davidson Iteration
    3      1.53e-01     00000 Davidson Iteration
    4      2.73e-02     00000 Davidson Iteration
    5      4.99e-03     00000 Davidson Iteration
    6      2.60e-03     00000 Davidson Iteration
    7      8.31e-04     00000 Davidson Iteration
    8      1.13e-04     00000 Davidson Iteration
    9      2.62e-05     00000 Davidson Converged
converged_eigenvalues
   0.4769
   0.6369
Threshold for negative eigenvalues: -1.0e-05
solution was a local minimum (stable)
===================================================
End Test for Internal Stability
===================================================
Our SCF solution is stable!
Timing for Total SCF: 39293.00s (wall), 305320.27s (cpu)
 Total energy in the final basis set =      -47.2909004533
    ==================================================
              The end of Object-Oriented SCFman       
    ==================================================

 Q-Chem fatal error occurred in module libmdc/qalloc.C, line 49:

 Illegal memory length in mega_alloc


 Please submit a crash report at q-chem.com/reporter 
 
 
 
User input: 2 of 2 
 
Q-Chem Developer Version!
                  Welcome to Q-Chem
     A Quantum Leap Into The Future Of Chemistry


 Q-Chem 5.1, Q-Chem, Inc., Pleasanton, CA (2018)

 Yihan Shao,  Zhengting Gan,  E. Epifanovsky,  A. T. B. Gilbert,  M. Wormit,  
 J. Kussmann,  A. W. Lange,  A. Behn,  Jia Deng,  Xintian Feng,  D. Ghosh,  
 M. Goldey,  P. R. Horn,  L. D. Jacobson,  I. Kaliman,  T. Kus,  A. Landau,  
 Jie Liu,  E. I. Proynov,  R. M. Richard,  R. P. Steele,  E. J. Sundstrom,  
 H. L. Woodcock III,  P. M. Zimmerman,  D. Zuev,  B. Albrecht,  E. Alguire,  
 S. A. Baeppler,  D. Barton,  Z. Benda,  Y. A. Bernard,  E. J. Berquist,  
 K. B. Bravaya,  H. Burton,  D. Casanova,  Chun-Min Chang,  Yunqing Chen,  
 A. Chien,  K. D. Closser,  M. P. Coons,  S. Coriani,  S. Dasgupta,  
 A. L. Dempwolff,  M. Diedenhofen,  Hainam Do,  R. G. Edgar,  Po-Tung Fang,  
 S. Faraji,  S. Fatehi,  Qingguo Feng,  K. D. Fenk,  J. Fosso-Tande,  
 Qinghui Ge,  A. Ghysels,  G. Gidofalvi,  J. Gomes,  J. Gonthier,  A. Gunina,  
 D. Hait,  M. W. D. Hanson-Heine,  P. H. P. Harbach,  A. W. Hauser,  
 J. E. Herr,  E. G. Hohenstein,  Z. C. Holden,  Kerwin Hui,  B. C. Huynh,  
 T.-C. Jagau,  Hyunjun Ji,  B. Kaduk,  K. Khistyaev,  Jaehoon Kim,  
 P. Klunzinger,  K. Koh,  D. Kosenkov,  L. Koulias,  T. Kowalczyk,  
 C. M. Krauter,  A. Kunitsa,  Ka Un Lao,  A. Laurent,  K. V. Lawler,  
 Joonho Lee,  D. Lefrancois,  S. Lehtola,  D. S. Levine,  Yi-Pei Li,  
 You-Sheng Lin,  Fenglai Liu,  E. Livshits,  A. Luenser,  P. Manohar,  
 E. Mansoor,  S. F. Manzer,  Shan-Ping Mao,  Yuezhi Mao,  N. Mardirossian,  
 A. V. Marenich,  T. Markovich,  L. A. Martinez-Martinez,  S. A. Maurer,  
 N. J. Mayhall,  S. C. McKenzie,  J.-M. Mewes,  A. F. Morrison,  
 J. W. Mullinax,  K. Nanda,  T. S. Nguyen-Beck,  R. Olivares-Amaya,  
 J. A. Parkhill,  T. M. Perrine,  F. Plasser,  P. Pokhilko,  S. Prager,  
 A. Prociuk,  E. Ramos,  D. R. Rehn,  F. Rob,  M. Schneider,  N. Sergueev,  
 S. M. Sharada,  S. Sharma,  D. W. Small,  T. Stauch,  T. Stein,  
 Yu-Chuan Su,  A. J. W. Thom,  A. Tkatchenko,  T. Tsuchimochi,  N. M. Tubman,  
 L. Vogt,  M. L. Vidal,  O. Vydrov,  M. A. Watson,  J. Wenzel,  
 M. de Wergifosse,  T. A. Wesolowski,  A. White,  J. Witte,  A. Yamada,  
 Jun Yang,  K. Yao,  S. Yeganeh,  S. R. Yost,  Zhi-Qiang You,  A. Zech,  
 Igor Ying Zhang,  Xing Zhang,  Yan Zhao,  Ying Zhu,  B. R. Brooks,  
 G. K. L. Chan,  C. J. Cramer,  M. S. Gordon,  W. J. Hehre,  A. Klamt,  
 M. W. Schmidt,  C. D. Sherrill,  D. G. Truhlar,  A. Aspuru-Guzik,  R. Baer,  
 A. T. Bell,  N. A. Besley,  Jeng-Da Chai,  A. E. DePrince, III,  
 R. A. DiStasio Jr.,  A. Dreuw,  B. D. Dunietz,  T. R. Furlani,  
 Chao-Ping Hsu,  Yousung Jung,  Jing Kong,  D. S. Lambrecht,  WanZhen Liang,  
 C. Ochsenfeld,  V. A. Rassolov,  L. V. Slipchenko,  J. E. Subotnik,  
 T. Van Voorhis,  J. M. Herbert,  A. I. Krylov,  P. M. W. Gill,  M. Head-Gordon

 Contributors to earlier versions of Q-Chem not listed above: 
 R. D. Adamson,  B. Austin,  J. Baker,  G. J. O. Beran,  K. Brandhorst,  
 S. T. Brown,  E. F. C. Byrd,  A. K. Chakraborty,  C.-L. Cheng,  
 Siu Hung Chien,  D. M. Chipman,  D. L. Crittenden,  H. Dachsel,  
 R. J. Doerksen,  A. D. Dutoi,  L. Fusti-Molnar,  W. A. Goddard III,  
 A. Golubeva-Zadorozhnaya,  S. R. Gwaltney,  G. Hawkins,  A. Heyden,  
 S. Hirata,  G. Kedziora,  F. J. Keil,  C. Kelley,  Jihan Kim,  R. A. King,  
 R. Z. Khaliullin,  P. P. Korambath,  W. Kurlancheek,  A. M. Lee,  M. S. Lee,  
 S. V. Levchenko,  Ching Yeh Lin,  D. Liotard,  R. C. Lochan,  I. Lotan,  
 P. E. Maslen,  N. Nair,  D. P. O'Neill,  D. Neuhauser,  E. Neuscamman,  
 C. M. Oana,  R. Olson,  B. Peters,  R. Peverati,  P. A. Pieniazek,  
 Y. M. Rhee,  J. Ritchie,  M. A. Rohrdanz,  E. Rosta,  N. J. Russ,  
 H. F. Schaefer III,  N. E. Schultz,  N. Shenvi,  A. C. Simmonett,  A. Sodt,  
 D. Stuck,  K. S. Thanthiriwatte,  V. Vanovschi,  Tao Wang,  A. Warshel,  
 C. F. Williams,  Q. Wu,  X. Xu,  W. Zhang

 Please cite Q-Chem as follows:
 Y. Shao et al., Mol. Phys. 113, 184-215 (2015)
 DOI: 10.1080/00268976.2014.952696

 Q-Chem 5.1.1 for Intel X86 EM64T Linux

 Parts of Q-Chem use Armadillo 8.300.2 (Tropical Shenanigans).
 http://arma.sourceforge.net/

 Q-Chem begins on Thu Nov 12 04:47:59 2020  

Host: n0098.mhg0
0

     Scratch files written to /local/scratch/users/yhljason/CH3Li_B2PLYP_aug-cc-pcV5Z.inp20201111142612//
The previous job contains 0 fragments, simply inherited here
Input Ideriv = 2
Curr. Ideriv = -1
Max.  Ideriv = 2

Checking the input file for inconsistencies... 	...done.

--------------------------------------------------------------
User input:
--------------------------------------------------------------
$molecule
read
$end

$rem

jobtype sp
method HF
xc_grid 000099000590
basis gen
max_scf_cycles 0
scf_guess read
thresh 14
scf_convergence 8
mem_total 128000
cc_memory 96000
cc_backend xm
mem_static 1500
symmetry false
sym_ignore true
scf_guess read
unrestricted false
scf_algorithm gdm
n_frozen_core 0
$end

$basis
****
H
aug-cc-pcV5Z
****
C
aug-cc-pcV5Z
****
Li     0
S   14   1.00
  29493.0000000              1.8000000e-05
   4417.1010000              1.4100000e-04
   1005.2230000              7.3900000e-04
    284.7009000              3.1070000e-03
     92.8654300              1.1135000e-02
     33.5117900              3.4670000e-02
     13.0418000              9.2171000e-02
      5.3575360              1.9957600e-01
      2.2793380              3.2883600e-01
      0.9939900              3.4597500e-01
      0.4334710              1.4276100e-01
      0.0955660              5.3190000e-03
      0.0446570             -2.1010000e-03
      0.0206330              8.1500000e-04
S   14   1.00
  29493.0000000             -3.0000000e-06
   4417.1010000             -2.2000000e-05
   1005.2230000             -1.1500000e-04
    284.7009000             -4.8700000e-04
     92.8654300             -1.7460000e-03
     33.5117900             -5.5200000e-03
     13.0418000             -1.4928000e-02
      5.3575360             -3.4206000e-02
      2.2793380             -6.2155000e-02
      0.9939900             -9.5902000e-02
      0.4334710             -1.0397200e-01
      0.0955660              3.0715100e-01
      0.0446570              5.7902800e-01
      0.0206330              2.2323100e-01
S   1   1.00
      0.4334710              1.0000000e+00
S   1   1.00
      0.0955660              1.0000000e+00
S   1   1.00
      0.0446570              1.0000000e+00
S   1   1.00
      0.0206330              1.0000000e+00
P   8   1.00
     19.6635000              5.4000000e-04
      4.6231100              3.8650000e-03
      1.4137800              1.5171000e-02
      0.4737210              4.9204000e-02
      0.1761510              1.5466100e-01
      0.0726750              3.6009500e-01
      0.0321410              4.4185200e-01
      0.0145560              1.5600000e-01
P   1   1.00
      0.1761510              1.0000000e+00
P   1   1.00
      0.0726750              1.0000000e+00
P   1   1.00
      0.0321410              1.0000000e+00
P   1   1.00
      0.0145560              1.0000000e+00
D   1   1.00
      0.5310000              1.0000000e+00
D   1   1.00
      0.2481000              1.0000000e+00
D   1   1.00
      0.1159000              1.0000000e+00
D   1   1.00
      0.0542000              1.0000000e+00
F   1   1.00
      0.2920000              1.0000000e+00
F   1   1.00
      0.1641000              1.0000000e+00
F   1   1.00
      0.0922000              1.0000000e+00
G   1   1.00
      0.2971000              1.0000000e+00
G   1   1.00
      0.1500000              1.0000000e+00
H   1   1.00
      0.2949000              1.0000000e+00
S   1   1.00
     27.8558000              1.0000000
S   1   1.00
     12.5082000              1.0000000
S   1   1.00
      5.6166000              1.0000000
S   1   1.00
      2.5221000              1.0000000
P   1   1.00
     29.2095000              1.0000000
P   1   1.00
     11.1763000              1.0000000
P   1   1.00
      4.2763000              1.0000000
P   1   1.00
      1.6362000              1.0000000
D   1   1.00
     19.8455000              1.0000000
D   1   1.00
      7.1492000              1.0000000
D   1   1.00
      2.5754000              1.0000000
F   1   1.00
     13.2502000              1.0000000
F   1   1.00
      4.1991000              1.0000000
G   1   1.00
      8.4093000              1.0000000
S   1   1.00
      0.0061000              1.0000000
P   1   1.00
      0.0065000              1.0000000
D   1   1.00
      0.0235000              1.0000000
F   1   1.00
      0.0448000              1.0000000
G   1   1.00
      0.0724000              1.0000000
H   1   1.00
      0.1274000              1.0000000
****
$end
--------------------------------------------------------------
 ----------------------------------------------------------------
             Standard Nuclear Orientation (Angstroms)
    I     Atom           X                Y                Z
 ----------------------------------------------------------------
    1      C       0.0000000000     0.0000000000     1.9851000000
    2      H      -0.8744257046     0.5050292293     2.4086001236
    3      H       0.8745747704     0.5047710498     2.4086001158
    4      H      -0.0001490540    -1.0098003255     2.4086001425
    5      Li      0.0000000000     0.0000000000     0.0000000000
 ----------------------------------------------------------------
 Nuclear Repulsion Energy =    16.2283377089 hartrees
 There are        6 alpha and        6 beta electrons

 Q-Chem warning in module forms1/BasisType.C, line 1703:

 Setting pure/cartesian flag to 2111 for general basis


 Requested basis set is non-standard
 There are 142 shells and 642 basis functions

 Total QAlloc Memory Limit 128000 MB
 Mega-Array Size      1467 MB
 MEM_STATIC part      1500 MB

                       Distance Matrix (Angstroms)
             C (  1)   H (  2)   H (  3)   H (  4)
   H (  2)  1.095001
   H (  3)  1.095001  1.749000
   H (  4)  1.095011  1.749019  1.749019
   Li(  5)  1.985100  2.611710  2.611710  2.611714
 
 A cutoff of  1.0D-14 yielded   9806 shell pairs
 There are    202948 function pairs (    328246 Cartesian)
 
 -------------------------------------------------------
 OpenMP Integral Computing Module                       
 Release: version 1.0, May 2013, Q-Chem Inc. Pittsburgh 
 -------------------------------------------------------
 Integral Job Info:
 Integral job number is                      11
 Integral operator is                         1
 short-range coefficients                     0
 long-range coefficients              100000000
 Omega coefficients                           0
 if combine SR and LR in K                    0
 Integral screening is                        0
 Integral computing path is                   2
 max size of driver memory is           6400000
 size of driver memory is               5498286
 size of scratch memory is             28716118
 max col of scratch BK array             194481
 max len of scratch array in speh3         5572
 max len of scratch index in speh4           72
 max int batch size is                      520
 min int batch size is                       52
 fixed nKL is                                14
 max L of basis functions is                  5
 order of int derivative is                   0
 number of shells is                        142
 number of basis is                         817
 number of cartesian basis is               817
 number of contracted shell pairs          9806
 number of primitive shell pairs          19090
 maxK2 (contraction) of shell pair          196
 max number of K2 of shell pair               1
 max number of CS2 of shell pair           1067
 max number of PS2 of shell pair           1067
 mem total for path MDJ                 1589680
 -------------------------------------------------------
 Smallest overlap matrix eigenvalue = 3.80E-07
 Linear dependence detected in AO basis
 Number of orthogonalized atomic orbitals = 640
 Maximum deviation from orthogonality = 3.085E-10

 Scale SEOQF with 1.000000e-02/1.000000e-02/1.000000e-02

 Standard Electronic Orientation quadrupole field applied
 Nucleus-field energy     =    -0.0000000004 hartrees
 Guess MOs from SCF MO coefficient file
 Reading MOs from coefficient file
 Reading MOs from coefficient file
 The restricted Hartree-Fock energy will be evaluated
 The orbitals will not be altered
Using Q-Chem read-in guess as SCF_GUESS READ specified.

 using 8 threads for integral computing
 -------------------------------------------------------
 OpenMP Integral computing Module                
 Release: version 2.0, May 2017, Q-Chem Inc. Pleasanton 
 -------------------------------------------------------
 LTot/LBra/LKet=          20          10          10
 LTot/LBra/LKet=          20          10          10
 LTot/LBra/LKet=          20          10          10
 LTot/LBra/LKet=          19           9          10
 LTot/LBra/LKet=          20          10          10
 LTot/LBra/LKet=          20          10          10

 Q-Chem warning:

 in GenH1, ket side, handled with new code


 Q-Chem warning:

 in GenH1, ket side, handled with new code


 Q-Chem warning:

 in GenH1, ket side, handled with new code

 LTot/LBra/LKet=          19           9          10
 LTot/LBra/LKet=          19           9          10

 Q-Chem warning:

 in GenH1, ket side, handled with new code


 Q-Chem warning:

 in GenH1, ket side, handled with new code


 Q-Chem warning:

 in GenH1, ket side, handled with new code


 Q-Chem warning:

 in GenH1, ket side, handled with new code


 Q-Chem warning:

 in GenH1, ket side, handled with new code

 LTot/LBra/LBra=          20          10          10

 Q-Chem warning:

 in GenH1, bra side, handled with new code

TIMEINFO->: J/JK contribution 7418.71 sec.
Avoiding writing the new MOs to disk !!! 
 ---------------------------------------
  Cycle       Energy        RMS Gradient
 ---------------------------------------
    1     -47.0370007723      8.74E-03 Convergence criterion met
 ---------------------------------------
 SCF time:  CPU 7421.45 s  wall 930.87 s
 SCF   energy in the final basis set = -47.03700077
 Total energy in the final basis set = -47.03700077
 
 --------------------------------------------------------------
 
                    Orbital Energies (a.u.)
 --------------------------------------------------------------
 
 Alpha MOs
 -- Occupied --
-10.503  -2.171  -0.689  -0.373  -0.373  -0.222
 -- Virtual --
 -0.028   0.006   0.006   0.007   0.013   0.024   0.024   0.034
  0.046   0.046   0.046   0.054   0.054   0.058   0.069   0.069
  0.077   0.077   0.081   0.105   0.105   0.105   0.121   0.133
  0.133   0.137   0.137   0.159   0.159   0.160   0.163   0.163
  0.166   0.166   0.186   0.189   0.199   0.199   0.217   0.217
  0.247   0.247   0.252   0.259   0.263   0.285   0.296   0.296
  0.306   0.306   0.320   0.320   0.326   0.328   0.330   0.337
  0.337   0.357   0.357   0.358   0.358   0.358   0.368   0.372
  0.377   0.377   0.378   0.378   0.379   0.389   0.420   0.420
  0.437   0.441   0.441   0.465   0.465   0.497   0.520   0.520
  0.529   0.529   0.546   0.577   0.577   0.577   0.615   0.632
  0.632   0.632   0.641   0.641   0.644   0.648   0.670   0.689
  0.689   0.696   0.696   0.707   0.707   0.716   0.718   0.732
  0.732   0.756   0.756   0.756   0.770   0.770   0.788   0.790
  0.790   0.814   0.819   0.843   0.843   0.843   0.854   0.854
  0.858   0.876   0.876   0.889   0.889   0.909   0.909   0.911
  0.920   0.942   0.942   0.959   0.979   0.979   0.990   1.014
  1.014   1.051   1.051   1.056   1.057   1.085   1.085   1.102
  1.108   1.124   1.124   1.130   1.133   1.170   1.170   1.177
  1.194   1.194   1.223   1.263   1.263   1.296   1.296   1.337
  1.341   1.341   1.349   1.392   1.392   1.408   1.438   1.438
  1.467   1.475   1.475   1.516   1.518   1.518   1.560   1.560
  1.580   1.592   1.620   1.620   1.646   1.667   1.667   1.669
  1.683   1.683   1.713   1.738   1.738   1.761   1.778   1.787
  1.787   1.843   1.843   1.870   1.875   1.914   1.916   1.916
  1.916   1.931   1.945   1.945   1.969   1.969   1.973   1.974
  1.974   1.979   1.994   2.016   2.016   2.033   2.033   2.044
  2.046   2.046   2.078   2.078   2.086   2.086   2.131   2.193
  2.193   2.199   2.247   2.251   2.251   2.293   2.293   2.334
  2.360   2.360   2.372   2.392   2.392   2.392   2.426   2.429
  2.429   2.499   2.499   2.552   2.653   2.653   2.711   2.732
  2.732   2.798   2.815   2.815   2.886   2.893   2.896   2.896
  2.937   2.937   2.986   2.996   2.996   3.024   3.046   3.046
  3.065   3.097   3.109   3.109   3.119   3.119   3.125   3.164
  3.174   3.180   3.181   3.181   3.266   3.266   3.273   3.273
  3.332   3.395   3.395   3.433   3.433   3.463   3.467   3.467
  3.568   3.576   3.577   3.577   3.615   3.615   3.654   3.688
  3.688   3.714   3.726   3.747   3.747   3.809   3.818   3.818
  3.836   3.852   3.887   3.887   3.904   3.941   3.941   3.971
  3.997   4.052   4.052   4.109   4.109   4.187   4.187   4.219
  4.258   4.294   4.349   4.349   4.401   4.401   4.489   4.672
  4.672   4.736   4.750   4.750   4.778   4.869   4.869   4.886
  4.924   4.924   4.998   4.998   5.024   5.024   5.137   5.152
  5.160   5.200   5.200   5.253   5.326   5.349   5.349   5.369
  5.401   5.401   5.525   5.541   5.541   5.709   5.709   5.866
  5.866   5.874   6.040   6.040   6.135   6.187   6.187   6.262
  6.267   6.332   6.332   6.411   6.411   6.430   6.507   6.649
  6.649   6.716   6.727   6.727   6.861   6.906   6.952   6.952
  7.004   7.004   7.049   7.054   7.054   7.201   7.201   7.260
  7.429   7.487   7.730   7.730   7.759   7.813   7.813   8.228
  8.228   8.247   8.351   8.410   8.455   8.455   8.459   8.459
  8.489   8.578   8.578   8.633   8.633   8.836   8.900   8.900
  9.154   9.187   9.187   9.350   9.350   9.605   9.857   9.857
  9.904  10.274  10.274  10.378  10.466  10.633  10.633  10.711
 10.711  10.779  10.879  10.879  11.155  11.155  11.317  11.452
 11.509  11.509  11.709  12.110  12.110  12.318  12.367  12.632
 12.758  12.758  12.904  12.904  12.989  12.990  13.105  13.105
 13.169  13.224  13.269  13.269  13.300  13.333  13.333  13.397
 13.526  13.526  13.538  13.656  13.667  13.667  13.731  13.731
 13.983  14.048  14.048  14.257  14.257  14.306  14.306  14.432
 14.432  14.463  14.515  14.520  14.588  14.617  14.617  14.700
 14.700  14.768  14.816  14.816  14.849  14.914  14.914  15.007
 15.094  15.094  15.194  15.376  15.376  15.626  15.626  15.688
 15.936  15.936  16.026  16.126  16.126  16.292  16.292  16.316
 16.323  16.493  16.493  16.761  16.783  16.856  16.861  16.886
 16.886  16.955  16.955  17.129  17.241  17.241  18.116  18.190
 18.190  18.269  18.316  18.316  18.525  18.681  18.681  18.821
 18.821  19.302  20.152  20.239  20.240  20.388  21.191  21.191
 22.135  25.265  25.974  25.974  27.331  27.331  27.613  27.709
 27.709  31.074  36.591  36.591  36.822  37.879  37.879  38.137
 38.234  38.234  43.640  43.640  43.642  43.642  43.645  43.645
 43.652  43.652  43.654  47.033  47.220  47.220  47.396  47.881
 47.881  48.847  51.250  62.325  62.680  62.680  62.692  62.692
 62.713  62.713  62.722  62.745  62.745  72.679  83.765  83.765
 84.028  84.028  84.183 104.699 106.598 106.598 107.880 107.880
108.063 108.266 109.077 109.077 130.635 166.878 166.878 166.885
166.885 166.885 166.892 166.896 166.896 166.901 167.264 167.611
167.611 187.631 187.726 187.726 187.809 187.999 187.999 188.412
328.917 328.917 329.031 329.760 329.760 337.634 466.167 466.470
466.4701177.133
 --------------------------------------------------------------
 
          Ground-State Mulliken Net Atomic Charges

     Atom                 Charge (a.u.)
  ----------------------------------------
      1 C                     0.084984
      2 H                     0.233232
      3 H                     0.233232
      4 H                     0.233206
      5 Li                   -0.784653
  ----------------------------------------
  Sum of atomic charges =     0.000000

 -----------------------------------------------------------------
                    Cartesian Multipole Moments
 -----------------------------------------------------------------
    Charge (ESU x 10^10)
                -0.0000
    Dipole Moment (Debye)
         X       0.0000      Y       0.0000      Z      -5.8068
       Tot       5.8068
    Quadrupole Moments (Debye-Ang)
        XX     -11.7846     XY      -0.0000     YY     -11.7845
        XZ       0.0000     YZ       0.0000     ZZ     -20.0605
    Octopole Moments (Debye-Ang^2)
       XXX       0.0001    XXY       0.2083    XYY      -0.0001
       YYY      -0.2083    XXZ     -20.7074    XYZ      -0.0000
       YYZ     -20.7073    XZZ      -0.0000    YZZ       0.0001
       ZZZ     -80.7948
    Hexadecapole Moments (Debye-Ang^3)
      XXXX     -25.7143   XXXY      -0.0000   XXYY      -8.5715
      XYYY      -0.0000   YYYY     -25.7145   XXXZ       0.0003
      XXYZ       0.7231   XYYZ      -0.0003   YYYZ      -0.7229
      XXZZ     -48.6510   XYZZ      -0.0000   YYZZ     -48.6509
      XZZZ      -0.0000   YZZZ       0.0004   ZZZZ    -322.2958
 -----------------------------------------------------------------
Archival summary:
1\1\n0098.mhg0\SP\HF\BasisUnspecified\1i13\yhljason\ThuNov1205:03:412020ThuNov1205:03:412020\0\\#,HF,BasisUnspecified,\\0,1\C\H,1,1.095\H,1,1.095,2,105.999\H,1,1.09501,2,106,3,-112.365,0\Li,1,1.9851,2,112.753,3,123.817,0\\HF=-47.0370008\\@

 Total job time:  942.56s(wall), 7443.05s(cpu) 
 Thu Nov 12 05:03:41 2020

        *************************************************************
        *                                                           *
        *  Thank you very much for using Q-Chem.  Have a nice day.  *
        *                                                           *
        *************************************************************


