Q-Chem Developer Version!
                  Welcome to Q-Chem
     A Quantum Leap Into The Future Of Chemistry


 Q-Chem 5.1, Q-Chem, Inc., Pleasanton, CA (2018)

 Yihan Shao,  Zhengting Gan,  E. Epifanovsky,  A. T. B. Gilbert,  M. Wormit,  
 J. Kussmann,  A. W. Lange,  A. Behn,  Jia Deng,  Xintian Feng,  D. Ghosh,  
 M. Goldey,  P. R. Horn,  L. D. Jacobson,  I. Kaliman,  T. Kus,  A. Landau,  
 Jie Liu,  E. I. Proynov,  R. M. Richard,  R. P. Steele,  E. J. Sundstrom,  
 H. L. Woodcock III,  P. M. Zimmerman,  D. Zuev,  B. Albrecht,  E. Alguire,  
 S. A. Baeppler,  D. Barton,  Z. Benda,  Y. A. Bernard,  E. J. Berquist,  
 K. B. Bravaya,  H. Burton,  D. Casanova,  Chun-Min Chang,  Yunqing Chen,  
 A. Chien,  K. D. Closser,  M. P. Coons,  S. Coriani,  S. Dasgupta,  
 A. L. Dempwolff,  M. Diedenhofen,  Hainam Do,  R. G. Edgar,  Po-Tung Fang,  
 S. Faraji,  S. Fatehi,  Qingguo Feng,  K. D. Fenk,  J. Fosso-Tande,  
 Qinghui Ge,  A. Ghysels,  G. Gidofalvi,  J. Gomes,  J. Gonthier,  A. Gunina,  
 D. Hait,  M. W. D. Hanson-Heine,  P. H. P. Harbach,  A. W. Hauser,  
 J. E. Herr,  E. G. Hohenstein,  Z. C. Holden,  Kerwin Hui,  B. C. Huynh,  
 T.-C. Jagau,  Hyunjun Ji,  B. Kaduk,  K. Khistyaev,  Jaehoon Kim,  
 P. Klunzinger,  K. Koh,  D. Kosenkov,  L. Koulias,  T. Kowalczyk,  
 C. M. Krauter,  A. Kunitsa,  Ka Un Lao,  A. Laurent,  K. V. Lawler,  
 Joonho Lee,  D. Lefrancois,  S. Lehtola,  D. S. Levine,  Yi-Pei Li,  
 You-Sheng Lin,  Fenglai Liu,  E. Livshits,  A. Luenser,  P. Manohar,  
 E. Mansoor,  S. F. Manzer,  Shan-Ping Mao,  Yuezhi Mao,  N. Mardirossian,  
 A. V. Marenich,  T. Markovich,  L. A. Martinez-Martinez,  S. A. Maurer,  
 N. J. Mayhall,  S. C. McKenzie,  J.-M. Mewes,  A. F. Morrison,  
 J. W. Mullinax,  K. Nanda,  T. S. Nguyen-Beck,  R. Olivares-Amaya,  
 J. A. Parkhill,  T. M. Perrine,  F. Plasser,  P. Pokhilko,  S. Prager,  
 A. Prociuk,  E. Ramos,  D. R. Rehn,  F. Rob,  M. Schneider,  N. Sergueev,  
 S. M. Sharada,  S. Sharma,  D. W. Small,  T. Stauch,  T. Stein,  
 Yu-Chuan Su,  A. J. W. Thom,  A. Tkatchenko,  T. Tsuchimochi,  N. M. Tubman,  
 L. Vogt,  M. L. Vidal,  O. Vydrov,  M. A. Watson,  J. Wenzel,  
 M. de Wergifosse,  T. A. Wesolowski,  A. White,  J. Witte,  A. Yamada,  
 Jun Yang,  K. Yao,  S. Yeganeh,  S. R. Yost,  Zhi-Qiang You,  A. Zech,  
 Igor Ying Zhang,  Xing Zhang,  Yan Zhao,  Ying Zhu,  B. R. Brooks,  
 G. K. L. Chan,  C. J. Cramer,  M. S. Gordon,  W. J. Hehre,  A. Klamt,  
 M. W. Schmidt,  C. D. Sherrill,  D. G. Truhlar,  A. Aspuru-Guzik,  R. Baer,  
 A. T. Bell,  N. A. Besley,  Jeng-Da Chai,  A. E. DePrince, III,  
 R. A. DiStasio Jr.,  A. Dreuw,  B. D. Dunietz,  T. R. Furlani,  
 Chao-Ping Hsu,  Yousung Jung,  Jing Kong,  D. S. Lambrecht,  WanZhen Liang,  
 C. Ochsenfeld,  V. A. Rassolov,  L. V. Slipchenko,  J. E. Subotnik,  
 T. Van Voorhis,  J. M. Herbert,  A. I. Krylov,  P. M. W. Gill,  M. Head-Gordon

 Contributors to earlier versions of Q-Chem not listed above: 
 R. D. Adamson,  B. Austin,  J. Baker,  G. J. O. Beran,  K. Brandhorst,  
 S. T. Brown,  E. F. C. Byrd,  A. K. Chakraborty,  C.-L. Cheng,  
 Siu Hung Chien,  D. M. Chipman,  D. L. Crittenden,  H. Dachsel,  
 R. J. Doerksen,  A. D. Dutoi,  L. Fusti-Molnar,  W. A. Goddard III,  
 A. Golubeva-Zadorozhnaya,  S. R. Gwaltney,  G. Hawkins,  A. Heyden,  
 S. Hirata,  G. Kedziora,  F. J. Keil,  C. Kelley,  Jihan Kim,  R. A. King,  
 R. Z. Khaliullin,  P. P. Korambath,  W. Kurlancheek,  A. M. Lee,  M. S. Lee,  
 S. V. Levchenko,  Ching Yeh Lin,  D. Liotard,  R. C. Lochan,  I. Lotan,  
 P. E. Maslen,  N. Nair,  D. P. O'Neill,  D. Neuhauser,  E. Neuscamman,  
 C. M. Oana,  R. Olson,  B. Peters,  R. Peverati,  P. A. Pieniazek,  
 Y. M. Rhee,  J. Ritchie,  M. A. Rohrdanz,  E. Rosta,  N. J. Russ,  
 H. F. Schaefer III,  N. E. Schultz,  N. Shenvi,  A. C. Simmonett,  A. Sodt,  
 D. Stuck,  K. S. Thanthiriwatte,  V. Vanovschi,  Tao Wang,  A. Warshel,  
 C. F. Williams,  Q. Wu,  X. Xu,  W. Zhang

 Please cite Q-Chem as follows:
 Y. Shao et al., Mol. Phys. 113, 184-215 (2015)
 DOI: 10.1080/00268976.2014.952696

 Q-Chem 5.1.1 for Intel X86 EM64T Linux

 Parts of Q-Chem use Armadillo 8.300.2 (Tropical Shenanigans).
 http://arma.sourceforge.net/

 Q-Chem begins on Wed Nov 11 14:12:08 2020  

Host: n0071.mhg0
0

     Scratch files written to /local/scratch/users/yhljason/HCHO_XYG3_aug-cc-pcVTZ.inp20201111140427//
Input Ideriv = 2
Curr. Ideriv = -1
Max.  Ideriv = 2

Checking the input file for inconsistencies... 	...done.

--------------------------------------------------------------
User input:
--------------------------------------------------------------
$molecule
0 1
O1      0.0000  0.0000  1.2050
C2      0.0000  0.0000  0.0000
H3      0.0000  0.9429  -0.5876
H4      0.0000  -0.9429 -0.5876
$end

$rem
jobtype sp
exchange XYG3
xc_grid 000099000590
basis aug-cc-pcVTZ

max_scf_cycles 200
thresh 14
scf_convergence 8
scf_algorithm gdm
symmetry false
sym_ignore true
unrestricted false
gen_scfman true
internal_stability_iter 15
internal_stability_davidson_iter 200
mem_total 128000
cc_memory 96000
cc_backend xm
mem_static 1500
n_frozen_core 0
$end



--------------------------------------------------------------
 ----------------------------------------------------------------
             Standard Nuclear Orientation (Angstroms)
    I     Atom           X                Y                Z
 ----------------------------------------------------------------
    1      O       0.0000000000     0.0000000000     1.2050000000
    2      C       0.0000000000     0.0000000000     0.0000000000
    3      H       0.0000000000     0.9429000000    -0.5876000000
    4      H       0.0000000000    -0.9429000000    -0.5876000000
 ----------------------------------------------------------------
 Nuclear Repulsion Energy =    31.2557350034 hartrees
 There are        8 alpha and        8 beta electrons
 Requested basis set is aug-cc-pCVTZ
 There are 56 shells and 164 basis functions

 Total QAlloc Memory Limit 128000 MB
 Mega-Array Size      1467 MB
 MEM_STATIC part      1500 MB

                       Distance Matrix (Angstroms)
             O (  1)   C (  2)   H (  3)
   C (  2)  1.205000
   H (  3)  2.025457  1.111006
   H (  4)  2.025457  1.111006  1.885800
 
 A cutoff of  1.0D-14 yielded   1588 shell pairs
 There are     13728 function pairs (     18113 Cartesian)
 
 -------------------------------------------------------
 OpenMP Integral Computing Module                       
 Release: version 1.0, May 2013, Q-Chem Inc. Pittsburgh 
 -------------------------------------------------------
 Integral Job Info:
 Integral job number is                      11
 Integral operator is                         1
 short-range coefficients                     0
 long-range coefficients              100000000
 Omega coefficients                           0
 if combine SR and LR in K                    0
 Integral screening is                        0
 Integral computing path is                   2
 max size of driver memory is            800000
 size of driver memory is                776718
 size of scratch memory is              6691272
 max col of scratch BK array              10000
 max len of scratch array in speh3          662
 max len of scratch index in speh4           32
 max int batch size is                      520
 min int batch size is                       52
 fixed nKL is                                52
 max L of basis functions is                  3
 order of int derivative is                   0
 number of shells is                         56
 number of basis is                         188
 number of cartesian basis is               188
 number of contracted shell pairs          1588
 number of primitive shell pairs           3990
 maxK2 (contraction) of shell pair           64
 max number of K2 of shell pair               1
 max number of CS2 of shell pair            258
 max number of PS2 of shell pair            464
 mem total for path MDJ                  562704
 -------------------------------------------------------
 Smallest overlap matrix eigenvalue = 8.60E-05

 Scale SEOQF with 1.000000e-01/1.000000e-01/1.000000e-01

 Standard Electronic Orientation quadrupole field applied
 Nucleus-field energy     =    -0.0000000012 hartrees
 Guess from superposition of atomic densities
 Warning:  Energy on first SCF cycle will be non-variational
 SAD guess density has 16.000000 electrons

 -----------------------------------------------------------------------
  General SCF calculation program by
  Eric Jon Sundstrom, Paul Horn, Yuezhi Mao, Dmitri Zuev, Alec White,
  David Stuck, Shaama M.S., Shane Yost, Joonho Lee, David Small,
  Daniel Levine, Susi Lehtola, Hugh Burton, Evgeny Epifanovsky
 -----------------------------------------------------------------------
 Exchange:     0.2000 Hartree-Fock + 0.0800 Slater + 0.7200 B88
 Correlation:  0.1900 VWN1RPA + 0.8100 LYP
 Using Euler-Maclaurin-Lebedev (99,590) quadrature formula
Running Object-Oriented RKS (RHF)
We will preform up to 15 macro iterations over saddle points until a stable solution is found
Energy prior to optimization (guess energy) = -114.495257363698
Begin Timing: Total SCF Calculation
Begin Timing: SCF Single Stationary Point Calculation
begin iterations for algorithm: GDM          
the SCF tolerance is set to 1.00e-08
    1    -114.4952573637      2.67e-01     00000  Descent step
    2    -114.3784750018      5.45e-01     00000 Line search: overstep
    3    -114.5474115388      5.17e-02     00000  Normal BFGS step
    4    -114.5521390669      1.70e-02     00000  Normal BFGS step
    5    -114.5541193084      1.14e-02     00000  Normal BFGS step
    6    -114.5542512335      2.10e-03     00000  Normal BFGS step
    7    -114.5542574830      8.58e-05     00000  Normal BFGS step
    8    -114.5542575594      4.87e-05     00000  Normal BFGS step
    9    -114.5542575632      3.68e-06     00000  Normal BFGS step
   10    -114.5542575632      2.53e-07     00000  Normal BFGS step
   11    -114.5542575632      3.77e-08     00000  Normal BFGS step
   12    -114.5542575632      8.60e-09     00000 Convergence criterion met
Timing for Single Stationary Point: 38.00s (wall), 299.41s (cpu)
Begin Timing: Stability
===================================================
Beginning Test for Internal Stability
===================================================
generating davidson guess vectors based on koopmans excitations
    1      1.27e+00     00000 Davidson Iteration
    2      6.12e-02     00000 Davidson Iteration
    3      2.53e-02     00000 Davidson Iteration
    4      6.51e-03     00000 Davidson Iteration
    5      7.52e-04     00000 Davidson Iteration
    6      3.23e-04     00000 Davidson Iteration
    7      3.62e-05     00000 Davidson Iteration
    8      2.02e-04     00000 Davidson Iteration
    9      4.92e-05     00000 Davidson Converged
converged_eigenvalues
   0.6173
   0.9526
Threshold for negative eigenvalues: -1.0e-05
solution was a local minimum (stable)
===================================================
End Test for Internal Stability
===================================================
Our SCF solution is stable!
Timing for Total SCF: 85.00s (wall), 677.17s (cpu)
 Total energy in the final basis set =     -114.5542575632
 Exchange:     0.8033 Hartree-Fock + -0.0140 Slater + 0.2107 B88
 Correlation:  0.6789 LYP
 Using Euler-Maclaurin-Lebedev (99,590) quadrature formula
 B3LYP orbitals are now ready for the XYG3 calculation.
 XYG3 energy = Exch (0.8033 HF  - 0.0140 Slater + 0.2107 Becke88) + 
               Corr (0.6789 LYP + 0.3211 MP2)
 Total Energy after ks_energy_corrections: -114.300696157879
    ==================================================
              The end of Object-Oriented SCFman       
    ==================================================
 
 Components of the MP2 correlation energy:
        aaaa  correlation energy  =        -0.0776077540 au
        abab  correlation energy  =        -0.5399689360 au
        bbbb  correlation energy  =        -0.0776077540 au
        singles contribution not yet available for XYG3

 Total  XYG3        total energy  =      -114.5239198805 au

 
 --------------------------------------------------------------
 
                    Orbital Energies (a.u.)
 --------------------------------------------------------------
 
 Alpha MOs
 -- Occupied --
-19.154 -10.281  -1.072  -0.644  -0.506  -0.463  -0.412  -0.282
 -- Virtual --
 -0.065  -0.011   0.015   0.030   0.049   0.079   0.089   0.109
  0.130   0.132   0.147   0.167   0.176   0.207   0.231   0.264
  0.267   0.282   0.297   0.308   0.318   0.329   0.377   0.379
  0.429   0.438   0.519   0.538   0.555   0.647   0.670   0.679
  0.701   0.709   0.723   0.723   0.785   0.794   0.799   0.839
  0.841   0.859   0.874   0.886   0.890   0.898   0.941   0.949
  1.050   1.084   1.136   1.192   1.206   1.259   1.299   1.340
  1.373   1.379   1.434   1.496   1.501   1.597   1.677   1.724
  1.791   1.802   1.958   1.968   2.023   2.055   2.087   2.178
  2.216   2.220   2.291   2.397   2.410   2.518   2.598   2.614
  2.708   2.753   2.763   2.871   3.077   3.091   3.203   3.228
  3.305   3.323   3.334   3.538   3.570   3.617   3.677   3.750
  3.795   3.839   3.846   4.006   4.021   4.203   4.315   4.366
  4.378   4.534   4.584   4.732   4.777   4.877   4.923   4.946
  5.281   5.440   5.701   6.054   6.087   6.133   6.138   6.157
  6.445   6.581   6.608   6.648   6.784   6.980   7.020   7.169
  7.235   7.801  14.934  15.822  16.224  16.741  25.375  25.683
 26.462  28.637  40.385  40.456  40.593  40.657  40.748  42.828
 42.851  42.948  43.023  43.123  79.651  80.315  80.585  85.424
136.364 136.580 137.301 147.993
 --------------------------------------------------------------
 
          Ground-State Mulliken Net Atomic Charges

     Atom                 Charge (a.u.)
  ----------------------------------------
      1 O                    -0.476424
      2 C                    -0.369431
      3 H                     0.422927
      4 H                     0.422927
  ----------------------------------------
  Sum of atomic charges =    -0.000000

 -----------------------------------------------------------------
                    Cartesian Multipole Moments
 -----------------------------------------------------------------
    Charge (ESU x 10^10)
                 0.0000
    Dipole Moment (Debye)
         X       0.0000      Y      -0.0000      Z      -2.4027
       Tot       2.4027
    Quadrupole Moments (Debye-Ang)
        XX     -11.7848     XY       0.0000     YY     -11.6966
        XZ      -0.0000     YZ      -0.0000     ZZ     -14.9447
    Octopole Moments (Debye-Ang^2)
       XXX       0.0000    XXY      -0.0000    XYY       0.0000
       YYY      -0.0000    XXZ      -5.5716    XYZ       0.0000
       YYZ      -6.6552    XZZ       0.0000    YZZ       0.0000
       ZZZ     -21.0541
    Hexadecapole Moments (Debye-Ang^3)
      XXXX     -10.8191   XXXY      -0.0000   XXYY      -5.3403
      XYYY       0.0000   YYYY     -19.2124   XXXZ      -0.0000
      XXYZ      -0.0000   XYYZ      -0.0000   YYYZ       0.0000
      XXZZ     -12.2543   XYZZ       0.0000   YYZZ     -14.7168
      XZZZ      -0.0000   YZZZ      -0.0000   ZZZZ     -68.3478
 -----------------------------------------------------------------
Archival summary:
1\1\n0071.mhg0\SP\ProcedureUnspecified\BasisUnspecified\112\yhljason\WedNov1114:14:062020WedNov1114:14:062020\0\\#,ProcedureUnspecified,BasisUnspecified,\\0,1\C\H,1,1.11101\H,1,1.11101,2,116.139\O,1,1.205,2,121.93,3,-180,0\\\@

 Total job time:  117.37s(wall), 930.43s(cpu) 
 Wed Nov 11 14:14:06 2020

        *************************************************************
        *                                                           *
        *  Thank you very much for using Q-Chem.  Have a nice day.  *
        *                                                           *
        *************************************************************


 
User input: 2 of 7 
 
Q-Chem Developer Version!
                  Welcome to Q-Chem
     A Quantum Leap Into The Future Of Chemistry


 Q-Chem 5.1, Q-Chem, Inc., Pleasanton, CA (2018)

 Yihan Shao,  Zhengting Gan,  E. Epifanovsky,  A. T. B. Gilbert,  M. Wormit,  
 J. Kussmann,  A. W. Lange,  A. Behn,  Jia Deng,  Xintian Feng,  D. Ghosh,  
 M. Goldey,  P. R. Horn,  L. D. Jacobson,  I. Kaliman,  T. Kus,  A. Landau,  
 Jie Liu,  E. I. Proynov,  R. M. Richard,  R. P. Steele,  E. J. Sundstrom,  
 H. L. Woodcock III,  P. M. Zimmerman,  D. Zuev,  B. Albrecht,  E. Alguire,  
 S. A. Baeppler,  D. Barton,  Z. Benda,  Y. A. Bernard,  E. J. Berquist,  
 K. B. Bravaya,  H. Burton,  D. Casanova,  Chun-Min Chang,  Yunqing Chen,  
 A. Chien,  K. D. Closser,  M. P. Coons,  S. Coriani,  S. Dasgupta,  
 A. L. Dempwolff,  M. Diedenhofen,  Hainam Do,  R. G. Edgar,  Po-Tung Fang,  
 S. Faraji,  S. Fatehi,  Qingguo Feng,  K. D. Fenk,  J. Fosso-Tande,  
 Qinghui Ge,  A. Ghysels,  G. Gidofalvi,  J. Gomes,  J. Gonthier,  A. Gunina,  
 D. Hait,  M. W. D. Hanson-Heine,  P. H. P. Harbach,  A. W. Hauser,  
 J. E. Herr,  E. G. Hohenstein,  Z. C. Holden,  Kerwin Hui,  B. C. Huynh,  
 T.-C. Jagau,  Hyunjun Ji,  B. Kaduk,  K. Khistyaev,  Jaehoon Kim,  
 P. Klunzinger,  K. Koh,  D. Kosenkov,  L. Koulias,  T. Kowalczyk,  
 C. M. Krauter,  A. Kunitsa,  Ka Un Lao,  A. Laurent,  K. V. Lawler,  
 Joonho Lee,  D. Lefrancois,  S. Lehtola,  D. S. Levine,  Yi-Pei Li,  
 You-Sheng Lin,  Fenglai Liu,  E. Livshits,  A. Luenser,  P. Manohar,  
 E. Mansoor,  S. F. Manzer,  Shan-Ping Mao,  Yuezhi Mao,  N. Mardirossian,  
 A. V. Marenich,  T. Markovich,  L. A. Martinez-Martinez,  S. A. Maurer,  
 N. J. Mayhall,  S. C. McKenzie,  J.-M. Mewes,  A. F. Morrison,  
 J. W. Mullinax,  K. Nanda,  T. S. Nguyen-Beck,  R. Olivares-Amaya,  
 J. A. Parkhill,  T. M. Perrine,  F. Plasser,  P. Pokhilko,  S. Prager,  
 A. Prociuk,  E. Ramos,  D. R. Rehn,  F. Rob,  M. Schneider,  N. Sergueev,  
 S. M. Sharada,  S. Sharma,  D. W. Small,  T. Stauch,  T. Stein,  
 Yu-Chuan Su,  A. J. W. Thom,  A. Tkatchenko,  T. Tsuchimochi,  N. M. Tubman,  
 L. Vogt,  M. L. Vidal,  O. Vydrov,  M. A. Watson,  J. Wenzel,  
 M. de Wergifosse,  T. A. Wesolowski,  A. White,  J. Witte,  A. Yamada,  
 Jun Yang,  K. Yao,  S. Yeganeh,  S. R. Yost,  Zhi-Qiang You,  A. Zech,  
 Igor Ying Zhang,  Xing Zhang,  Yan Zhao,  Ying Zhu,  B. R. Brooks,  
 G. K. L. Chan,  C. J. Cramer,  M. S. Gordon,  W. J. Hehre,  A. Klamt,  
 M. W. Schmidt,  C. D. Sherrill,  D. G. Truhlar,  A. Aspuru-Guzik,  R. Baer,  
 A. T. Bell,  N. A. Besley,  Jeng-Da Chai,  A. E. DePrince, III,  
 R. A. DiStasio Jr.,  A. Dreuw,  B. D. Dunietz,  T. R. Furlani,  
 Chao-Ping Hsu,  Yousung Jung,  Jing Kong,  D. S. Lambrecht,  WanZhen Liang,  
 C. Ochsenfeld,  V. A. Rassolov,  L. V. Slipchenko,  J. E. Subotnik,  
 T. Van Voorhis,  J. M. Herbert,  A. I. Krylov,  P. M. W. Gill,  M. Head-Gordon

 Contributors to earlier versions of Q-Chem not listed above: 
 R. D. Adamson,  B. Austin,  J. Baker,  G. J. O. Beran,  K. Brandhorst,  
 S. T. Brown,  E. F. C. Byrd,  A. K. Chakraborty,  C.-L. Cheng,  
 Siu Hung Chien,  D. M. Chipman,  D. L. Crittenden,  H. Dachsel,  
 R. J. Doerksen,  A. D. Dutoi,  L. Fusti-Molnar,  W. A. Goddard III,  
 A. Golubeva-Zadorozhnaya,  S. R. Gwaltney,  G. Hawkins,  A. Heyden,  
 S. Hirata,  G. Kedziora,  F. J. Keil,  C. Kelley,  Jihan Kim,  R. A. King,  
 R. Z. Khaliullin,  P. P. Korambath,  W. Kurlancheek,  A. M. Lee,  M. S. Lee,  
 S. V. Levchenko,  Ching Yeh Lin,  D. Liotard,  R. C. Lochan,  I. Lotan,  
 P. E. Maslen,  N. Nair,  D. P. O'Neill,  D. Neuhauser,  E. Neuscamman,  
 C. M. Oana,  R. Olson,  B. Peters,  R. Peverati,  P. A. Pieniazek,  
 Y. M. Rhee,  J. Ritchie,  M. A. Rohrdanz,  E. Rosta,  N. J. Russ,  
 H. F. Schaefer III,  N. E. Schultz,  N. Shenvi,  A. C. Simmonett,  A. Sodt,  
 D. Stuck,  K. S. Thanthiriwatte,  V. Vanovschi,  Tao Wang,  A. Warshel,  
 C. F. Williams,  Q. Wu,  X. Xu,  W. Zhang

 Please cite Q-Chem as follows:
 Y. Shao et al., Mol. Phys. 113, 184-215 (2015)
 DOI: 10.1080/00268976.2014.952696

 Q-Chem 5.1.1 for Intel X86 EM64T Linux

 Parts of Q-Chem use Armadillo 8.300.2 (Tropical Shenanigans).
 http://arma.sourceforge.net/

 Q-Chem begins on Wed Nov 11 14:14:06 2020  

Host: n0071.mhg0
0

     Scratch files written to /local/scratch/users/yhljason/HCHO_XYG3_aug-cc-pcVTZ.inp20201111140427//
The previous job contains 0 fragments, simply inherited here
Input Ideriv = 2
Curr. Ideriv = -1
Max.  Ideriv = 2

Checking the input file for inconsistencies... 	...done.

--------------------------------------------------------------
User input:
--------------------------------------------------------------
$molecule
read
$end

$rem
jobtype sp
exchange XYG3
xc_grid 000099000590
basis aug-cc-pcVTZ

max_scf_cycles 200
thresh 14
scf_convergence 8
mem_total 128000
cc_memory 96000
cc_backend xm
mem_static 1500
symmetry false
sym_ignore true
scf_guess read
unrestricted false
scf_algorithm gdm
n_frozen_core 0
$end



$multipole_field
XX 0.0001
$end


--------------------------------------------------------------
 ----------------------------------------------------------------
             Standard Nuclear Orientation (Angstroms)
    I     Atom           X                Y                Z
 ----------------------------------------------------------------
    1      O       0.0000000000     0.0000000000     1.2050000000
    2      C       0.0000000000     0.0000000000     0.0000000000
    3      H       0.0000000000     0.9429000000    -0.5876000000
    4      H       0.0000000000    -0.9429000000    -0.5876000000
 ----------------------------------------------------------------
 Nuclear Repulsion Energy =    31.2557350034 hartrees
 There are        8 alpha and        8 beta electrons
 Requested basis set is aug-cc-pCVTZ
 There are 56 shells and 164 basis functions

 Total QAlloc Memory Limit 128000 MB
 Mega-Array Size      1467 MB
 MEM_STATIC part      1500 MB

                       Distance Matrix (Angstroms)
             O (  1)   C (  2)   H (  3)
   C (  2)  1.205000
   H (  3)  2.025457  1.111006
   H (  4)  2.025457  1.111006  1.885800
 
 Applying Cartesian multipole field
    Component          Value
    ---------          -----
     (2,0,0)        1.00000E-04
 A cutoff of  1.0D-14 yielded   1588 shell pairs
 There are     13728 function pairs (     18113 Cartesian)
 
 -------------------------------------------------------
 OpenMP Integral Computing Module                       
 Release: version 1.0, May 2013, Q-Chem Inc. Pittsburgh 
 -------------------------------------------------------
 Integral Job Info:
 Integral job number is                      11
 Integral operator is                         1
 short-range coefficients                     0
 long-range coefficients              100000000
 Omega coefficients                           0
 if combine SR and LR in K                    0
 Integral screening is                        0
 Integral computing path is                   2
 max size of driver memory is            800000
 size of driver memory is                776718
 size of scratch memory is              6691272
 max col of scratch BK array              10000
 max len of scratch array in speh3          662
 max len of scratch index in speh4           32
 max int batch size is                      520
 min int batch size is                       52
 fixed nKL is                                52
 max L of basis functions is                  3
 order of int derivative is                   0
 number of shells is                         56
 number of basis is                         188
 number of cartesian basis is               188
 number of contracted shell pairs          1588
 number of primitive shell pairs           3990
 maxK2 (contraction) of shell pair           64
 max number of K2 of shell pair               1
 max number of CS2 of shell pair            258
 max number of PS2 of shell pair            464
 mem total for path MDJ                  562704
 -------------------------------------------------------
 Smallest overlap matrix eigenvalue = 8.60E-05
 Guess MOs from SCF MO coefficient file
 Reading MOs from coefficient file
 Reading MOs from coefficient file
 A restricted hybrid HF-DFT SCF calculation will be
 performed using Geometric Direct Minimization
 Exchange:     0.2000 Hartree-Fock + 0.0800 Slater + 0.7200 B88
 Correlation:  0.1900 VWN1RPA + 0.8100 LYP
 Using Euler-Maclaurin-Lebedev (99,590) quadrature formula
 SCF converges when RMS gradient is below 1.0E-08
Using Q-Chem read-in guess as SCF_GUESS READ specified.

 using 8 threads for integral computing
 -------------------------------------------------------
 OpenMP Integral computing Module                
 Release: version 2.0, May 2017, Q-Chem Inc. Pleasanton 
 -------------------------------------------------------
TIMEINFO->: J/JK contribution 16.86 sec.
 -------------------------------------------------------
 OpenMP BLAS3 based DFT computing Module                
 Release: version 1.0, May 2013, Q-Chem Inc. Pittsburgh 
 -------------------------------------------------------
 ---------------------------------------
  Cycle       Energy        RMS Gradient
 ---------------------------------------
    1    -114.5551337353      2.36E-04 Normal BFGS step
TIMEINFO->: J/JK contribution 16.45 sec.
    2    -114.5551339043      2.00E-04 Normal BFGS step
TIMEINFO->: J/JK contribution 16.29 sec.
    3    -114.5551339159      2.23E-04 Normal BFGS step
TIMEINFO->: J/JK contribution 16.00 sec.
    4    -114.5551339601      4.65E-05 Normal BFGS step
TIMEINFO->: J/JK contribution 16.07 sec.
    5    -114.5551339654      1.81E-05 Normal BFGS step
TIMEINFO->: J/JK contribution 15.98 sec.
    6    -114.5551339679      2.18E-06 Normal BFGS step
TIMEINFO->: J/JK contribution 16.25 sec.
    7    -114.5551339680      2.32E-07 Normal BFGS step
TIMEINFO->: J/JK contribution 15.76 sec.
    8    -114.5551339680      2.59E-08 Normal BFGS step
TIMEINFO->: J/JK contribution 15.62 sec.
   GDM::WARNING energy changes are now smaller than effective accuracy.
   GDM::        calculation will continue, but THRESH should be increased
   GDM::        or SCF_CONVERGENCE decreased.
   GDM::        effective_thresh =   8.000000000000000E-011
    9    -114.5551339680      7.04E-09 Convergence criterion met
 ---------------------------------------
 B3LYP orbitals are now ready for the XYG3 calculation.
 XYG3 energy = Exch (0.8033 HF  - 0.0140 Slater + 0.2107 Becke88) + 
               Corr (0.6789 LYP + 0.3211 MP2)
 SCF time:  CPU 235.91 s  wall 29.71 s
 SCF   energy in the final basis set = -114.30157008
 Total energy in the final basis set = -114.30157008
 
 Components of the MP2 correlation energy:
        aaaa  correlation energy  =        -0.0776109251 au
        abab  correlation energy  =        -0.5399666093 au
        bbbb  correlation energy  =        -0.0776109251 au
        singles contribution not yet available for XYG3

 Total  XYG3        total energy  =      -114.5247950923 au

 
 --------------------------------------------------------------
 
                    Orbital Energies (a.u.)
 --------------------------------------------------------------
 
 Alpha MOs
 -- Occupied --
-19.155 -10.282  -1.072  -0.644  -0.506  -0.464  -0.413  -0.282
 -- Virtual --
 -0.066  -0.012   0.014   0.029   0.046   0.077   0.088   0.108
  0.129   0.132   0.145   0.166   0.175   0.206   0.230   0.263
  0.266   0.280   0.296   0.307   0.318   0.328   0.377   0.378
  0.428   0.437   0.519   0.537   0.555   0.647   0.669   0.679
  0.701   0.709   0.723   0.723   0.784   0.794   0.798   0.838
  0.841   0.858   0.874   0.886   0.889   0.898   0.941   0.949
  1.050   1.084   1.136   1.191   1.205   1.259   1.299   1.339
  1.373   1.378   1.434   1.495   1.500   1.597   1.677   1.724
  1.790   1.802   1.958   1.968   2.023   2.054   2.087   2.177
  2.216   2.220   2.291   2.397   2.409   2.517   2.598   2.613
  2.707   2.752   2.763   2.870   3.077   3.090   3.203   3.228
  3.305   3.323   3.334   3.537   3.570   3.617   3.677   3.750
  3.795   3.839   3.846   4.006   4.020   4.202   4.314   4.366
  4.378   4.534   4.583   4.732   4.777   4.877   4.923   4.946
  5.280   5.440   5.701   6.054   6.087   6.133   6.138   6.156
  6.445   6.581   6.608   6.648   6.784   6.980   7.019   7.169
  7.235   7.801  14.933  15.821  16.223  16.741  25.375  25.683
 26.462  28.637  40.385  40.456  40.593  40.656  40.747  42.827
 42.850  42.947  43.023  43.123  79.651  80.315  80.585  85.424
136.363 136.580 137.301 147.993
 --------------------------------------------------------------
 
          Ground-State Mulliken Net Atomic Charges

     Atom                 Charge (a.u.)
  ----------------------------------------
      1 O                    -0.475630
      2 C                    -0.369694
      3 H                     0.422662
      4 H                     0.422662
  ----------------------------------------
  Sum of atomic charges =    -0.000000

 -----------------------------------------------------------------
                    Cartesian Multipole Moments
 -----------------------------------------------------------------
    Charge (ESU x 10^10)
                -0.0000
    Dipole Moment (Debye)
         X       0.0000      Y       0.0000      Z      -2.4024
       Tot       2.4024
    Quadrupole Moments (Debye-Ang)
        XX     -11.7911     XY      -0.0000     YY     -11.6979
        XZ       0.0000     YZ      -0.0000     ZZ     -14.9451
    Octopole Moments (Debye-Ang^2)
       XXX       0.0000    XXY       0.0000    XYY       0.0000
       YYY       0.0000    XXZ      -5.5735    XYZ      -0.0000
       YYZ      -6.6560    XZZ       0.0000    YZZ       0.0000
       ZZZ     -21.0546
    Hexadecapole Moments (Debye-Ang^3)
      XXXX     -10.8414   XXXY      -0.0000   XXYY      -5.3460
      XYYY      -0.0000   YYYY     -19.2193   XXXZ       0.0000
      XXYZ       0.0000   XYYZ       0.0000   YYYZ      -0.0000
      XXZZ     -12.2617   XYZZ      -0.0000   YYZZ     -14.7196
      XZZZ       0.0000   YZZZ       0.0000   ZZZZ     -68.3548
 -----------------------------------------------------------------
Archival summary:
1\1\n0071.mhg0\SP\ProcedureUnspecified\BasisUnspecified\112\yhljason\WedNov1114:15:012020WedNov1114:15:012020\0\\#,ProcedureUnspecified,BasisUnspecified,\\0,1\C\H,1,1.11101\H,1,1.11101,2,116.139\O,1,1.205,2,121.93,3,-180,0\\\@

 Total job time:  55.14s(wall), 437.44s(cpu) 
 Wed Nov 11 14:15:01 2020

        *************************************************************
        *                                                           *
        *  Thank you very much for using Q-Chem.  Have a nice day.  *
        *                                                           *
        *************************************************************


 
User input: 3 of 7 
 
Q-Chem Developer Version!
                  Welcome to Q-Chem
     A Quantum Leap Into The Future Of Chemistry


 Q-Chem 5.1, Q-Chem, Inc., Pleasanton, CA (2018)

 Yihan Shao,  Zhengting Gan,  E. Epifanovsky,  A. T. B. Gilbert,  M. Wormit,  
 J. Kussmann,  A. W. Lange,  A. Behn,  Jia Deng,  Xintian Feng,  D. Ghosh,  
 M. Goldey,  P. R. Horn,  L. D. Jacobson,  I. Kaliman,  T. Kus,  A. Landau,  
 Jie Liu,  E. I. Proynov,  R. M. Richard,  R. P. Steele,  E. J. Sundstrom,  
 H. L. Woodcock III,  P. M. Zimmerman,  D. Zuev,  B. Albrecht,  E. Alguire,  
 S. A. Baeppler,  D. Barton,  Z. Benda,  Y. A. Bernard,  E. J. Berquist,  
 K. B. Bravaya,  H. Burton,  D. Casanova,  Chun-Min Chang,  Yunqing Chen,  
 A. Chien,  K. D. Closser,  M. P. Coons,  S. Coriani,  S. Dasgupta,  
 A. L. Dempwolff,  M. Diedenhofen,  Hainam Do,  R. G. Edgar,  Po-Tung Fang,  
 S. Faraji,  S. Fatehi,  Qingguo Feng,  K. D. Fenk,  J. Fosso-Tande,  
 Qinghui Ge,  A. Ghysels,  G. Gidofalvi,  J. Gomes,  J. Gonthier,  A. Gunina,  
 D. Hait,  M. W. D. Hanson-Heine,  P. H. P. Harbach,  A. W. Hauser,  
 J. E. Herr,  E. G. Hohenstein,  Z. C. Holden,  Kerwin Hui,  B. C. Huynh,  
 T.-C. Jagau,  Hyunjun Ji,  B. Kaduk,  K. Khistyaev,  Jaehoon Kim,  
 P. Klunzinger,  K. Koh,  D. Kosenkov,  L. Koulias,  T. Kowalczyk,  
 C. M. Krauter,  A. Kunitsa,  Ka Un Lao,  A. Laurent,  K. V. Lawler,  
 Joonho Lee,  D. Lefrancois,  S. Lehtola,  D. S. Levine,  Yi-Pei Li,  
 You-Sheng Lin,  Fenglai Liu,  E. Livshits,  A. Luenser,  P. Manohar,  
 E. Mansoor,  S. F. Manzer,  Shan-Ping Mao,  Yuezhi Mao,  N. Mardirossian,  
 A. V. Marenich,  T. Markovich,  L. A. Martinez-Martinez,  S. A. Maurer,  
 N. J. Mayhall,  S. C. McKenzie,  J.-M. Mewes,  A. F. Morrison,  
 J. W. Mullinax,  K. Nanda,  T. S. Nguyen-Beck,  R. Olivares-Amaya,  
 J. A. Parkhill,  T. M. Perrine,  F. Plasser,  P. Pokhilko,  S. Prager,  
 A. Prociuk,  E. Ramos,  D. R. Rehn,  F. Rob,  M. Schneider,  N. Sergueev,  
 S. M. Sharada,  S. Sharma,  D. W. Small,  T. Stauch,  T. Stein,  
 Yu-Chuan Su,  A. J. W. Thom,  A. Tkatchenko,  T. Tsuchimochi,  N. M. Tubman,  
 L. Vogt,  M. L. Vidal,  O. Vydrov,  M. A. Watson,  J. Wenzel,  
 M. de Wergifosse,  T. A. Wesolowski,  A. White,  J. Witte,  A. Yamada,  
 Jun Yang,  K. Yao,  S. Yeganeh,  S. R. Yost,  Zhi-Qiang You,  A. Zech,  
 Igor Ying Zhang,  Xing Zhang,  Yan Zhao,  Ying Zhu,  B. R. Brooks,  
 G. K. L. Chan,  C. J. Cramer,  M. S. Gordon,  W. J. Hehre,  A. Klamt,  
 M. W. Schmidt,  C. D. Sherrill,  D. G. Truhlar,  A. Aspuru-Guzik,  R. Baer,  
 A. T. Bell,  N. A. Besley,  Jeng-Da Chai,  A. E. DePrince, III,  
 R. A. DiStasio Jr.,  A. Dreuw,  B. D. Dunietz,  T. R. Furlani,  
 Chao-Ping Hsu,  Yousung Jung,  Jing Kong,  D. S. Lambrecht,  WanZhen Liang,  
 C. Ochsenfeld,  V. A. Rassolov,  L. V. Slipchenko,  J. E. Subotnik,  
 T. Van Voorhis,  J. M. Herbert,  A. I. Krylov,  P. M. W. Gill,  M. Head-Gordon

 Contributors to earlier versions of Q-Chem not listed above: 
 R. D. Adamson,  B. Austin,  J. Baker,  G. J. O. Beran,  K. Brandhorst,  
 S. T. Brown,  E. F. C. Byrd,  A. K. Chakraborty,  C.-L. Cheng,  
 Siu Hung Chien,  D. M. Chipman,  D. L. Crittenden,  H. Dachsel,  
 R. J. Doerksen,  A. D. Dutoi,  L. Fusti-Molnar,  W. A. Goddard III,  
 A. Golubeva-Zadorozhnaya,  S. R. Gwaltney,  G. Hawkins,  A. Heyden,  
 S. Hirata,  G. Kedziora,  F. J. Keil,  C. Kelley,  Jihan Kim,  R. A. King,  
 R. Z. Khaliullin,  P. P. Korambath,  W. Kurlancheek,  A. M. Lee,  M. S. Lee,  
 S. V. Levchenko,  Ching Yeh Lin,  D. Liotard,  R. C. Lochan,  I. Lotan,  
 P. E. Maslen,  N. Nair,  D. P. O'Neill,  D. Neuhauser,  E. Neuscamman,  
 C. M. Oana,  R. Olson,  B. Peters,  R. Peverati,  P. A. Pieniazek,  
 Y. M. Rhee,  J. Ritchie,  M. A. Rohrdanz,  E. Rosta,  N. J. Russ,  
 H. F. Schaefer III,  N. E. Schultz,  N. Shenvi,  A. C. Simmonett,  A. Sodt,  
 D. Stuck,  K. S. Thanthiriwatte,  V. Vanovschi,  Tao Wang,  A. Warshel,  
 C. F. Williams,  Q. Wu,  X. Xu,  W. Zhang

 Please cite Q-Chem as follows:
 Y. Shao et al., Mol. Phys. 113, 184-215 (2015)
 DOI: 10.1080/00268976.2014.952696

 Q-Chem 5.1.1 for Intel X86 EM64T Linux

 Parts of Q-Chem use Armadillo 8.300.2 (Tropical Shenanigans).
 http://arma.sourceforge.net/

 Q-Chem begins on Wed Nov 11 14:15:01 2020  

Host: n0071.mhg0
0

     Scratch files written to /local/scratch/users/yhljason/HCHO_XYG3_aug-cc-pcVTZ.inp20201111140427//
The previous job contains 0 fragments, simply inherited here
Input Ideriv = 2
Curr. Ideriv = -1
Max.  Ideriv = 2

Checking the input file for inconsistencies... 	...done.

--------------------------------------------------------------
User input:
--------------------------------------------------------------
$molecule
read
$end

$rem
jobtype sp
exchange XYG3
xc_grid 000099000590
basis aug-cc-pcVTZ

max_scf_cycles 200
thresh 14
scf_convergence 8
mem_total 128000
cc_memory 96000
cc_backend xm
mem_static 1500
symmetry false
sym_ignore true
scf_guess read
unrestricted false
scf_algorithm gdm
n_frozen_core 0
$end



$multipole_field
XX -0.0001
$end


--------------------------------------------------------------
 ----------------------------------------------------------------
             Standard Nuclear Orientation (Angstroms)
    I     Atom           X                Y                Z
 ----------------------------------------------------------------
    1      O       0.0000000000     0.0000000000     1.2050000000
    2      C       0.0000000000     0.0000000000     0.0000000000
    3      H       0.0000000000     0.9429000000    -0.5876000000
    4      H       0.0000000000    -0.9429000000    -0.5876000000
 ----------------------------------------------------------------
 Nuclear Repulsion Energy =    31.2557350034 hartrees
 There are        8 alpha and        8 beta electrons
 Requested basis set is aug-cc-pCVTZ
 There are 56 shells and 164 basis functions

 Total QAlloc Memory Limit 128000 MB
 Mega-Array Size      1467 MB
 MEM_STATIC part      1500 MB

                       Distance Matrix (Angstroms)
             O (  1)   C (  2)   H (  3)
   C (  2)  1.205000
   H (  3)  2.025457  1.111006
   H (  4)  2.025457  1.111006  1.885800
 
 Applying Cartesian multipole field
    Component          Value
    ---------          -----
     (2,0,0)       -1.00000E-04
 A cutoff of  1.0D-14 yielded   1588 shell pairs
 There are     13728 function pairs (     18113 Cartesian)
 
 -------------------------------------------------------
 OpenMP Integral Computing Module                       
 Release: version 1.0, May 2013, Q-Chem Inc. Pittsburgh 
 -------------------------------------------------------
 Integral Job Info:
 Integral job number is                      11
 Integral operator is                         1
 short-range coefficients                     0
 long-range coefficients              100000000
 Omega coefficients                           0
 if combine SR and LR in K                    0
 Integral screening is                        0
 Integral computing path is                   2
 max size of driver memory is            800000
 size of driver memory is                776718
 size of scratch memory is              6691272
 max col of scratch BK array              10000
 max len of scratch array in speh3          662
 max len of scratch index in speh4           32
 max int batch size is                      520
 min int batch size is                       52
 fixed nKL is                                52
 max L of basis functions is                  3
 order of int derivative is                   0
 number of shells is                         56
 number of basis is                         188
 number of cartesian basis is               188
 number of contracted shell pairs          1588
 number of primitive shell pairs           3990
 maxK2 (contraction) of shell pair           64
 max number of K2 of shell pair               1
 max number of CS2 of shell pair            258
 max number of PS2 of shell pair            464
 mem total for path MDJ                  562704
 -------------------------------------------------------
 Smallest overlap matrix eigenvalue = 8.60E-05
 Guess MOs from SCF MO coefficient file
 Reading MOs from coefficient file
 Reading MOs from coefficient file
 A restricted hybrid HF-DFT SCF calculation will be
 performed using Geometric Direct Minimization
 Exchange:     0.2000 Hartree-Fock + 0.0800 Slater + 0.7200 B88
 Correlation:  0.1900 VWN1RPA + 0.8100 LYP
 Using Euler-Maclaurin-Lebedev (99,590) quadrature formula
 SCF converges when RMS gradient is below 1.0E-08
Using Q-Chem read-in guess as SCF_GUESS READ specified.

 using 8 threads for integral computing
 -------------------------------------------------------
 OpenMP Integral computing Module                
 Release: version 2.0, May 2017, Q-Chem Inc. Pleasanton 
 -------------------------------------------------------
TIMEINFO->: J/JK contribution 16.51 sec.
 -------------------------------------------------------
 OpenMP BLAS3 based DFT computing Module                
 Release: version 1.0, May 2013, Q-Chem Inc. Pittsburgh 
 -------------------------------------------------------
 ---------------------------------------
  Cycle       Energy        RMS Gradient
 ---------------------------------------
    1    -114.5533806924      4.80E-04 Normal BFGS step
TIMEINFO->: J/JK contribution 16.60 sec.
    2    -114.5533813690      3.99E-04 Normal BFGS step
TIMEINFO->: J/JK contribution 16.33 sec.
    3    -114.5533814145      4.48E-04 Normal BFGS step
TIMEINFO->: J/JK contribution 16.71 sec.
    4    -114.5533815919      9.33E-05 Normal BFGS step
TIMEINFO->: J/JK contribution 16.06 sec.
    5    -114.5533816127      3.61E-05 Normal BFGS step
TIMEINFO->: J/JK contribution 16.26 sec.
    6    -114.5533816230      4.35E-06 Normal BFGS step
TIMEINFO->: J/JK contribution 16.12 sec.
    7    -114.5533816230      4.64E-07 Normal BFGS step
TIMEINFO->: J/JK contribution 16.06 sec.
    8    -114.5533816230      5.13E-08 Normal BFGS step
TIMEINFO->: J/JK contribution 15.63 sec.
   GDM::WARNING energy changes are now smaller than effective accuracy.
   GDM::        calculation will continue, but THRESH should be increased
   GDM::        or SCF_CONVERGENCE decreased.
   GDM::        effective_thresh =   8.000000000000000E-011
    9    -114.5533816230      1.40E-08 Normal BFGS step
TIMEINFO->: J/JK contribution 15.29 sec.
   10    -114.5533816230      9.47E-10 Convergence criterion met
 ---------------------------------------
 B3LYP orbitals are now ready for the XYG3 calculation.
 XYG3 energy = Exch (0.8033 HF  - 0.0140 Slater + 0.2107 Becke88) + 
               Corr (0.6789 LYP + 0.3211 MP2)
 SCF time:  CPU 262.53 s  wall 33.05 s
 SCF   energy in the final basis set = -114.29982266
 Total energy in the final basis set = -114.29982266
 
 Components of the MP2 correlation energy:
        aaaa  correlation energy  =        -0.0776045969 au
        abab  correlation energy  =        -0.5399712773 au
        bbbb  correlation energy  =        -0.0776045969 au
        singles contribution not yet available for XYG3

 Total  XYG3        total energy  =      -114.5230451060 au

 
 --------------------------------------------------------------
 
                    Orbital Energies (a.u.)
 --------------------------------------------------------------
 
 Alpha MOs
 -- Occupied --
-19.154 -10.281  -1.072  -0.644  -0.505  -0.463  -0.412  -0.282
 -- Virtual --
 -0.065  -0.009   0.017   0.031   0.051   0.080   0.091   0.110
  0.131   0.133   0.149   0.168   0.177   0.207   0.233   0.265
  0.268   0.283   0.297   0.309   0.319   0.330   0.377   0.379
  0.430   0.439   0.520   0.538   0.556   0.647   0.670   0.680
  0.702   0.710   0.723   0.724   0.786   0.795   0.799   0.839
  0.842   0.860   0.874   0.887   0.890   0.898   0.941   0.950
  1.051   1.085   1.136   1.192   1.206   1.259   1.299   1.340
  1.374   1.379   1.435   1.496   1.501   1.598   1.678   1.724
  1.791   1.803   1.958   1.968   2.024   2.055   2.087   2.178
  2.216   2.220   2.291   2.398   2.410   2.518   2.599   2.614
  2.708   2.753   2.764   2.871   3.078   3.091   3.203   3.228
  3.305   3.324   3.335   3.538   3.570   3.618   3.677   3.750
  3.795   3.839   3.846   4.007   4.021   4.203   4.315   4.366
  4.378   4.534   4.584   4.732   4.777   4.877   4.923   4.946
  5.281   5.440   5.701   6.055   6.088   6.133   6.138   6.157
  6.445   6.581   6.609   6.649   6.784   6.981   7.020   7.169
  7.235   7.801  14.934  15.822  16.224  16.742  25.375  25.683
 26.462  28.637  40.385  40.456  40.594  40.657  40.748  42.828
 42.851  42.948  43.023  43.123  79.651  80.315  80.586  85.424
136.364 136.581 137.301 147.994
 --------------------------------------------------------------
 
          Ground-State Mulliken Net Atomic Charges

     Atom                 Charge (a.u.)
  ----------------------------------------
      1 O                    -0.477212
      2 C                    -0.369175
      3 H                     0.423194
      4 H                     0.423194
  ----------------------------------------
  Sum of atomic charges =     0.000000

 -----------------------------------------------------------------
                    Cartesian Multipole Moments
 -----------------------------------------------------------------
    Charge (ESU x 10^10)
                 0.0000
    Dipole Moment (Debye)
         X       0.0000      Y       0.0000      Z      -2.4030
       Tot       2.4030
    Quadrupole Moments (Debye-Ang)
        XX     -11.7786     XY      -0.0000     YY     -11.6953
        XZ       0.0000     YZ       0.0000     ZZ     -14.9443
    Octopole Moments (Debye-Ang^2)
       XXX       0.0000    XXY      -0.0000    XYY       0.0000
       YYY       0.0000    XXZ      -5.5697    XYZ      -0.0000
       YYZ      -6.6544    XZZ       0.0000    YZZ      -0.0000
       ZZZ     -21.0537
    Hexadecapole Moments (Debye-Ang^3)
      XXXX     -10.7972   XXXY      -0.0000   XXYY      -5.3346
      XYYY      -0.0000   YYYY     -19.2057   XXXZ       0.0000
      XXYZ       0.0000   XYYZ       0.0000   YYYZ      -0.0000
      XXZZ     -12.2469   XYZZ      -0.0000   YYZZ     -14.7140
      XZZZ       0.0000   YZZZ       0.0000   ZZZZ     -68.3409
 -----------------------------------------------------------------
Archival summary:
1\1\n0071.mhg0\SP\ProcedureUnspecified\BasisUnspecified\112\yhljason\WedNov1114:16:002020WedNov1114:16:002020\0\\#,ProcedureUnspecified,BasisUnspecified,\\0,1\C\H,1,1.11101\H,1,1.11101,2,116.139\O,1,1.205,2,121.93,3,-180,0\\\@

 Total job time:  58.32s(wall), 460.47s(cpu) 
 Wed Nov 11 14:16:00 2020

        *************************************************************
        *                                                           *
        *  Thank you very much for using Q-Chem.  Have a nice day.  *
        *                                                           *
        *************************************************************


 
User input: 4 of 7 
 
Q-Chem Developer Version!
                  Welcome to Q-Chem
     A Quantum Leap Into The Future Of Chemistry


 Q-Chem 5.1, Q-Chem, Inc., Pleasanton, CA (2018)

 Yihan Shao,  Zhengting Gan,  E. Epifanovsky,  A. T. B. Gilbert,  M. Wormit,  
 J. Kussmann,  A. W. Lange,  A. Behn,  Jia Deng,  Xintian Feng,  D. Ghosh,  
 M. Goldey,  P. R. Horn,  L. D. Jacobson,  I. Kaliman,  T. Kus,  A. Landau,  
 Jie Liu,  E. I. Proynov,  R. M. Richard,  R. P. Steele,  E. J. Sundstrom,  
 H. L. Woodcock III,  P. M. Zimmerman,  D. Zuev,  B. Albrecht,  E. Alguire,  
 S. A. Baeppler,  D. Barton,  Z. Benda,  Y. A. Bernard,  E. J. Berquist,  
 K. B. Bravaya,  H. Burton,  D. Casanova,  Chun-Min Chang,  Yunqing Chen,  
 A. Chien,  K. D. Closser,  M. P. Coons,  S. Coriani,  S. Dasgupta,  
 A. L. Dempwolff,  M. Diedenhofen,  Hainam Do,  R. G. Edgar,  Po-Tung Fang,  
 S. Faraji,  S. Fatehi,  Qingguo Feng,  K. D. Fenk,  J. Fosso-Tande,  
 Qinghui Ge,  A. Ghysels,  G. Gidofalvi,  J. Gomes,  J. Gonthier,  A. Gunina,  
 D. Hait,  M. W. D. Hanson-Heine,  P. H. P. Harbach,  A. W. Hauser,  
 J. E. Herr,  E. G. Hohenstein,  Z. C. Holden,  Kerwin Hui,  B. C. Huynh,  
 T.-C. Jagau,  Hyunjun Ji,  B. Kaduk,  K. Khistyaev,  Jaehoon Kim,  
 P. Klunzinger,  K. Koh,  D. Kosenkov,  L. Koulias,  T. Kowalczyk,  
 C. M. Krauter,  A. Kunitsa,  Ka Un Lao,  A. Laurent,  K. V. Lawler,  
 Joonho Lee,  D. Lefrancois,  S. Lehtola,  D. S. Levine,  Yi-Pei Li,  
 You-Sheng Lin,  Fenglai Liu,  E. Livshits,  A. Luenser,  P. Manohar,  
 E. Mansoor,  S. F. Manzer,  Shan-Ping Mao,  Yuezhi Mao,  N. Mardirossian,  
 A. V. Marenich,  T. Markovich,  L. A. Martinez-Martinez,  S. A. Maurer,  
 N. J. Mayhall,  S. C. McKenzie,  J.-M. Mewes,  A. F. Morrison,  
 J. W. Mullinax,  K. Nanda,  T. S. Nguyen-Beck,  R. Olivares-Amaya,  
 J. A. Parkhill,  T. M. Perrine,  F. Plasser,  P. Pokhilko,  S. Prager,  
 A. Prociuk,  E. Ramos,  D. R. Rehn,  F. Rob,  M. Schneider,  N. Sergueev,  
 S. M. Sharada,  S. Sharma,  D. W. Small,  T. Stauch,  T. Stein,  
 Yu-Chuan Su,  A. J. W. Thom,  A. Tkatchenko,  T. Tsuchimochi,  N. M. Tubman,  
 L. Vogt,  M. L. Vidal,  O. Vydrov,  M. A. Watson,  J. Wenzel,  
 M. de Wergifosse,  T. A. Wesolowski,  A. White,  J. Witte,  A. Yamada,  
 Jun Yang,  K. Yao,  S. Yeganeh,  S. R. Yost,  Zhi-Qiang You,  A. Zech,  
 Igor Ying Zhang,  Xing Zhang,  Yan Zhao,  Ying Zhu,  B. R. Brooks,  
 G. K. L. Chan,  C. J. Cramer,  M. S. Gordon,  W. J. Hehre,  A. Klamt,  
 M. W. Schmidt,  C. D. Sherrill,  D. G. Truhlar,  A. Aspuru-Guzik,  R. Baer,  
 A. T. Bell,  N. A. Besley,  Jeng-Da Chai,  A. E. DePrince, III,  
 R. A. DiStasio Jr.,  A. Dreuw,  B. D. Dunietz,  T. R. Furlani,  
 Chao-Ping Hsu,  Yousung Jung,  Jing Kong,  D. S. Lambrecht,  WanZhen Liang,  
 C. Ochsenfeld,  V. A. Rassolov,  L. V. Slipchenko,  J. E. Subotnik,  
 T. Van Voorhis,  J. M. Herbert,  A. I. Krylov,  P. M. W. Gill,  M. Head-Gordon

 Contributors to earlier versions of Q-Chem not listed above: 
 R. D. Adamson,  B. Austin,  J. Baker,  G. J. O. Beran,  K. Brandhorst,  
 S. T. Brown,  E. F. C. Byrd,  A. K. Chakraborty,  C.-L. Cheng,  
 Siu Hung Chien,  D. M. Chipman,  D. L. Crittenden,  H. Dachsel,  
 R. J. Doerksen,  A. D. Dutoi,  L. Fusti-Molnar,  W. A. Goddard III,  
 A. Golubeva-Zadorozhnaya,  S. R. Gwaltney,  G. Hawkins,  A. Heyden,  
 S. Hirata,  G. Kedziora,  F. J. Keil,  C. Kelley,  Jihan Kim,  R. A. King,  
 R. Z. Khaliullin,  P. P. Korambath,  W. Kurlancheek,  A. M. Lee,  M. S. Lee,  
 S. V. Levchenko,  Ching Yeh Lin,  D. Liotard,  R. C. Lochan,  I. Lotan,  
 P. E. Maslen,  N. Nair,  D. P. O'Neill,  D. Neuhauser,  E. Neuscamman,  
 C. M. Oana,  R. Olson,  B. Peters,  R. Peverati,  P. A. Pieniazek,  
 Y. M. Rhee,  J. Ritchie,  M. A. Rohrdanz,  E. Rosta,  N. J. Russ,  
 H. F. Schaefer III,  N. E. Schultz,  N. Shenvi,  A. C. Simmonett,  A. Sodt,  
 D. Stuck,  K. S. Thanthiriwatte,  V. Vanovschi,  Tao Wang,  A. Warshel,  
 C. F. Williams,  Q. Wu,  X. Xu,  W. Zhang

 Please cite Q-Chem as follows:
 Y. Shao et al., Mol. Phys. 113, 184-215 (2015)
 DOI: 10.1080/00268976.2014.952696

 Q-Chem 5.1.1 for Intel X86 EM64T Linux

 Parts of Q-Chem use Armadillo 8.300.2 (Tropical Shenanigans).
 http://arma.sourceforge.net/

 Q-Chem begins on Wed Nov 11 14:16:00 2020  

Host: n0071.mhg0
0

     Scratch files written to /local/scratch/users/yhljason/HCHO_XYG3_aug-cc-pcVTZ.inp20201111140427//
The previous job contains 0 fragments, simply inherited here
Input Ideriv = 2
Curr. Ideriv = -1
Max.  Ideriv = 2

Checking the input file for inconsistencies... 	...done.

--------------------------------------------------------------
User input:
--------------------------------------------------------------
$molecule
read
$end

$rem
jobtype sp
exchange XYG3
xc_grid 000099000590
basis aug-cc-pcVTZ

max_scf_cycles 200
thresh 14
scf_convergence 8
mem_total 128000
cc_memory 96000
cc_backend xm
mem_static 1500
symmetry false
sym_ignore true
scf_guess read
unrestricted false
scf_algorithm gdm
n_frozen_core 0
$end



$multipole_field
YY 0.0001
$end


--------------------------------------------------------------
 ----------------------------------------------------------------
             Standard Nuclear Orientation (Angstroms)
    I     Atom           X                Y                Z
 ----------------------------------------------------------------
    1      O       0.0000000000     0.0000000000     1.2050000000
    2      C       0.0000000000     0.0000000000     0.0000000000
    3      H       0.0000000000     0.9429000000    -0.5876000000
    4      H       0.0000000000    -0.9429000000    -0.5876000000
 ----------------------------------------------------------------
 Nuclear Repulsion Energy =    31.2557350034 hartrees
 There are        8 alpha and        8 beta electrons
 Requested basis set is aug-cc-pCVTZ
 There are 56 shells and 164 basis functions

 Total QAlloc Memory Limit 128000 MB
 Mega-Array Size      1467 MB
 MEM_STATIC part      1500 MB

                       Distance Matrix (Angstroms)
             O (  1)   C (  2)   H (  3)
   C (  2)  1.205000
   H (  3)  2.025457  1.111006
   H (  4)  2.025457  1.111006  1.885800
 
 Applying Cartesian multipole field
    Component          Value
    ---------          -----
     (0,2,0)        1.00000E-04
 Nucleus-field energy     =     0.0006349785 hartrees
 A cutoff of  1.0D-14 yielded   1588 shell pairs
 There are     13728 function pairs (     18113 Cartesian)
 
 -------------------------------------------------------
 OpenMP Integral Computing Module                       
 Release: version 1.0, May 2013, Q-Chem Inc. Pittsburgh 
 -------------------------------------------------------
 Integral Job Info:
 Integral job number is                      11
 Integral operator is                         1
 short-range coefficients                     0
 long-range coefficients              100000000
 Omega coefficients                           0
 if combine SR and LR in K                    0
 Integral screening is                        0
 Integral computing path is                   2
 max size of driver memory is            800000
 size of driver memory is                776718
 size of scratch memory is              6691272
 max col of scratch BK array              10000
 max len of scratch array in speh3          662
 max len of scratch index in speh4           32
 max int batch size is                      520
 min int batch size is                       52
 fixed nKL is                                52
 max L of basis functions is                  3
 order of int derivative is                   0
 number of shells is                         56
 number of basis is                         188
 number of cartesian basis is               188
 number of contracted shell pairs          1588
 number of primitive shell pairs           3990
 maxK2 (contraction) of shell pair           64
 max number of K2 of shell pair               1
 max number of CS2 of shell pair            258
 max number of PS2 of shell pair            464
 mem total for path MDJ                  562704
 -------------------------------------------------------
 Smallest overlap matrix eigenvalue = 8.60E-05
 Guess MOs from SCF MO coefficient file
 Reading MOs from coefficient file
 Reading MOs from coefficient file
 A restricted hybrid HF-DFT SCF calculation will be
 performed using Geometric Direct Minimization
 Exchange:     0.2000 Hartree-Fock + 0.0800 Slater + 0.7200 B88
 Correlation:  0.1900 VWN1RPA + 0.8100 LYP
 Using Euler-Maclaurin-Lebedev (99,590) quadrature formula
 SCF converges when RMS gradient is below 1.0E-08
Using Q-Chem read-in guess as SCF_GUESS READ specified.

 using 8 threads for integral computing
 -------------------------------------------------------
 OpenMP Integral computing Module                
 Release: version 2.0, May 2017, Q-Chem Inc. Pleasanton 
 -------------------------------------------------------
TIMEINFO->: J/JK contribution 16.55 sec.
 -------------------------------------------------------
 OpenMP BLAS3 based DFT computing Module                
 Release: version 1.0, May 2013, Q-Chem Inc. Pittsburgh 
 -------------------------------------------------------
 ---------------------------------------
  Cycle       Energy        RMS Gradient
 ---------------------------------------
    1    -114.5551268456      4.55E-04 Normal BFGS step
TIMEINFO->: J/JK contribution 16.53 sec.
    2    -114.5551273251      3.43E-04 Normal BFGS step
TIMEINFO->: J/JK contribution 16.50 sec.
    3    -114.5551276088      3.31E-04 Normal BFGS step
TIMEINFO->: J/JK contribution 16.52 sec.
    4    -114.5551276089      2.48E-04 Normal BFGS step
TIMEINFO->: J/JK contribution 16.15 sec.
    5    -114.5551277064      1.35E-05 Normal BFGS step
TIMEINFO->: J/JK contribution 16.18 sec.
    6    -114.5551277079      4.43E-06 Normal BFGS step
TIMEINFO->: J/JK contribution 16.00 sec.
    7    -114.5551277081      2.95E-07 Normal BFGS step
TIMEINFO->: J/JK contribution 15.83 sec.
    8    -114.5551277081      7.09E-08 Normal BFGS step
TIMEINFO->: J/JK contribution 15.82 sec.
   GDM::WARNING energy changes are now smaller than effective accuracy.
   GDM::        calculation will continue, but THRESH should be increased
   GDM::        or SCF_CONVERGENCE decreased.
   GDM::        effective_thresh =   8.000000000000000E-011
    9    -114.5551277081      2.56E-09 Convergence criterion met
 ---------------------------------------
 B3LYP orbitals are now ready for the XYG3 calculation.
 XYG3 energy = Exch (0.8033 HF  - 0.0140 Slater + 0.2107 Becke88) + 
               Corr (0.6789 LYP + 0.3211 MP2)
 SCF time:  CPU 237.88 s  wall 29.95 s
 SCF   energy in the final basis set = -114.30154057
 Total energy in the final basis set = -114.30154057
 
 Components of the MP2 correlation energy:
        aaaa  correlation energy  =        -0.0776195524 au
        abab  correlation energy  =        -0.5400141887 au
        bbbb  correlation energy  =        -0.0776195524 au
        singles contribution not yet available for XYG3

 Total  XYG3        total energy  =      -114.5247864008 au

 
 --------------------------------------------------------------
 
                    Orbital Energies (a.u.)
 --------------------------------------------------------------
 
 Alpha MOs
 -- Occupied --
-19.155 -10.282  -1.072  -0.644  -0.506  -0.464  -0.413  -0.282
 -- Virtual --
 -0.066  -0.013   0.011   0.029   0.048   0.076   0.086   0.108
  0.129   0.130   0.147   0.166   0.175   0.205   0.231   0.263
  0.265   0.280   0.295   0.307   0.316   0.328   0.376   0.377
  0.428   0.437   0.519   0.536   0.555   0.646   0.669   0.679
  0.700   0.709   0.722   0.722   0.784   0.793   0.798   0.838
  0.841   0.858   0.873   0.885   0.889   0.897   0.940   0.949
  1.050   1.084   1.135   1.191   1.206   1.258   1.298   1.339
  1.373   1.378   1.434   1.495   1.500   1.597   1.677   1.723
  1.790   1.802   1.958   1.967   2.023   2.054   2.086   2.177
  2.216   2.220   2.290   2.397   2.409   2.517   2.598   2.613
  2.708   2.752   2.763   2.870   3.077   3.090   3.202   3.227
  3.305   3.323   3.334   3.537   3.569   3.617   3.676   3.750
  3.795   3.839   3.845   4.006   4.020   4.202   4.314   4.366
  4.378   4.534   4.583   4.731   4.776   4.877   4.923   4.946
  5.280   5.439   5.700   6.054   6.087   6.133   6.138   6.156
  6.445   6.580   6.608   6.648   6.784   6.980   7.019   7.169
  7.235   7.801  14.933  15.821  16.223  16.741  25.375  25.683
 26.462  28.637  40.385  40.456  40.593  40.656  40.747  42.827
 42.850  42.947  43.022  43.122  79.650  80.314  80.585  85.424
136.363 136.580 137.301 147.993
 --------------------------------------------------------------
 
          Ground-State Mulliken Net Atomic Charges

     Atom                 Charge (a.u.)
  ----------------------------------------
      1 O                    -0.476735
      2 C                    -0.369379
      3 H                     0.423057
      4 H                     0.423057
  ----------------------------------------
  Sum of atomic charges =    -0.000000

 -----------------------------------------------------------------
                    Cartesian Multipole Moments
 -----------------------------------------------------------------
    Charge (ESU x 10^10)
                -0.0000
    Dipole Moment (Debye)
         X       0.0000      Y      -0.0000      Z      -2.4002
       Tot       2.4002
    Quadrupole Moments (Debye-Ang)
        XX     -11.7861     XY      -0.0000     YY     -11.7110
        XZ       0.0000     YZ       0.0000     ZZ     -14.9458
    Octopole Moments (Debye-Ang^2)
       XXX       0.0000    XXY       0.0000    XYY       0.0000
       YYY      -0.0000    XXZ      -5.5710    XYZ      -0.0000
       YYZ      -6.6491    XZZ       0.0000    YZZ       0.0000
       ZZZ     -21.0488
    Hexadecapole Moments (Debye-Ang^3)
      XXXX     -10.8235   XXXY      -0.0000   XXYY      -5.3489
      XYYY      -0.0000   YYYY     -19.2795   XXXZ       0.0000
      XXYZ       0.0000   XYYZ       0.0000   YYYZ      -0.0000
      XXZZ     -12.2571   XYZZ      -0.0000   YYZZ     -14.7351
      XZZZ       0.0000   YZZZ      -0.0000   ZZZZ     -68.3566
 -----------------------------------------------------------------
Archival summary:
1\1\n0071.mhg0\SP\ProcedureUnspecified\BasisUnspecified\112\yhljason\WedNov1114:16:552020WedNov1114:16:552020\0\\#,ProcedureUnspecified,BasisUnspecified,\\0,1\C\H,1,1.11101\H,1,1.11101,2,116.139\O,1,1.205,2,121.93,3,-180,0\\\@

 Total job time:  55.39s(wall), 438.32s(cpu) 
 Wed Nov 11 14:16:55 2020

        *************************************************************
        *                                                           *
        *  Thank you very much for using Q-Chem.  Have a nice day.  *
        *                                                           *
        *************************************************************


 
User input: 5 of 7 
 
Q-Chem Developer Version!
                  Welcome to Q-Chem
     A Quantum Leap Into The Future Of Chemistry


 Q-Chem 5.1, Q-Chem, Inc., Pleasanton, CA (2018)

 Yihan Shao,  Zhengting Gan,  E. Epifanovsky,  A. T. B. Gilbert,  M. Wormit,  
 J. Kussmann,  A. W. Lange,  A. Behn,  Jia Deng,  Xintian Feng,  D. Ghosh,  
 M. Goldey,  P. R. Horn,  L. D. Jacobson,  I. Kaliman,  T. Kus,  A. Landau,  
 Jie Liu,  E. I. Proynov,  R. M. Richard,  R. P. Steele,  E. J. Sundstrom,  
 H. L. Woodcock III,  P. M. Zimmerman,  D. Zuev,  B. Albrecht,  E. Alguire,  
 S. A. Baeppler,  D. Barton,  Z. Benda,  Y. A. Bernard,  E. J. Berquist,  
 K. B. Bravaya,  H. Burton,  D. Casanova,  Chun-Min Chang,  Yunqing Chen,  
 A. Chien,  K. D. Closser,  M. P. Coons,  S. Coriani,  S. Dasgupta,  
 A. L. Dempwolff,  M. Diedenhofen,  Hainam Do,  R. G. Edgar,  Po-Tung Fang,  
 S. Faraji,  S. Fatehi,  Qingguo Feng,  K. D. Fenk,  J. Fosso-Tande,  
 Qinghui Ge,  A. Ghysels,  G. Gidofalvi,  J. Gomes,  J. Gonthier,  A. Gunina,  
 D. Hait,  M. W. D. Hanson-Heine,  P. H. P. Harbach,  A. W. Hauser,  
 J. E. Herr,  E. G. Hohenstein,  Z. C. Holden,  Kerwin Hui,  B. C. Huynh,  
 T.-C. Jagau,  Hyunjun Ji,  B. Kaduk,  K. Khistyaev,  Jaehoon Kim,  
 P. Klunzinger,  K. Koh,  D. Kosenkov,  L. Koulias,  T. Kowalczyk,  
 C. M. Krauter,  A. Kunitsa,  Ka Un Lao,  A. Laurent,  K. V. Lawler,  
 Joonho Lee,  D. Lefrancois,  S. Lehtola,  D. S. Levine,  Yi-Pei Li,  
 You-Sheng Lin,  Fenglai Liu,  E. Livshits,  A. Luenser,  P. Manohar,  
 E. Mansoor,  S. F. Manzer,  Shan-Ping Mao,  Yuezhi Mao,  N. Mardirossian,  
 A. V. Marenich,  T. Markovich,  L. A. Martinez-Martinez,  S. A. Maurer,  
 N. J. Mayhall,  S. C. McKenzie,  J.-M. Mewes,  A. F. Morrison,  
 J. W. Mullinax,  K. Nanda,  T. S. Nguyen-Beck,  R. Olivares-Amaya,  
 J. A. Parkhill,  T. M. Perrine,  F. Plasser,  P. Pokhilko,  S. Prager,  
 A. Prociuk,  E. Ramos,  D. R. Rehn,  F. Rob,  M. Schneider,  N. Sergueev,  
 S. M. Sharada,  S. Sharma,  D. W. Small,  T. Stauch,  T. Stein,  
 Yu-Chuan Su,  A. J. W. Thom,  A. Tkatchenko,  T. Tsuchimochi,  N. M. Tubman,  
 L. Vogt,  M. L. Vidal,  O. Vydrov,  M. A. Watson,  J. Wenzel,  
 M. de Wergifosse,  T. A. Wesolowski,  A. White,  J. Witte,  A. Yamada,  
 Jun Yang,  K. Yao,  S. Yeganeh,  S. R. Yost,  Zhi-Qiang You,  A. Zech,  
 Igor Ying Zhang,  Xing Zhang,  Yan Zhao,  Ying Zhu,  B. R. Brooks,  
 G. K. L. Chan,  C. J. Cramer,  M. S. Gordon,  W. J. Hehre,  A. Klamt,  
 M. W. Schmidt,  C. D. Sherrill,  D. G. Truhlar,  A. Aspuru-Guzik,  R. Baer,  
 A. T. Bell,  N. A. Besley,  Jeng-Da Chai,  A. E. DePrince, III,  
 R. A. DiStasio Jr.,  A. Dreuw,  B. D. Dunietz,  T. R. Furlani,  
 Chao-Ping Hsu,  Yousung Jung,  Jing Kong,  D. S. Lambrecht,  WanZhen Liang,  
 C. Ochsenfeld,  V. A. Rassolov,  L. V. Slipchenko,  J. E. Subotnik,  
 T. Van Voorhis,  J. M. Herbert,  A. I. Krylov,  P. M. W. Gill,  M. Head-Gordon

 Contributors to earlier versions of Q-Chem not listed above: 
 R. D. Adamson,  B. Austin,  J. Baker,  G. J. O. Beran,  K. Brandhorst,  
 S. T. Brown,  E. F. C. Byrd,  A. K. Chakraborty,  C.-L. Cheng,  
 Siu Hung Chien,  D. M. Chipman,  D. L. Crittenden,  H. Dachsel,  
 R. J. Doerksen,  A. D. Dutoi,  L. Fusti-Molnar,  W. A. Goddard III,  
 A. Golubeva-Zadorozhnaya,  S. R. Gwaltney,  G. Hawkins,  A. Heyden,  
 S. Hirata,  G. Kedziora,  F. J. Keil,  C. Kelley,  Jihan Kim,  R. A. King,  
 R. Z. Khaliullin,  P. P. Korambath,  W. Kurlancheek,  A. M. Lee,  M. S. Lee,  
 S. V. Levchenko,  Ching Yeh Lin,  D. Liotard,  R. C. Lochan,  I. Lotan,  
 P. E. Maslen,  N. Nair,  D. P. O'Neill,  D. Neuhauser,  E. Neuscamman,  
 C. M. Oana,  R. Olson,  B. Peters,  R. Peverati,  P. A. Pieniazek,  
 Y. M. Rhee,  J. Ritchie,  M. A. Rohrdanz,  E. Rosta,  N. J. Russ,  
 H. F. Schaefer III,  N. E. Schultz,  N. Shenvi,  A. C. Simmonett,  A. Sodt,  
 D. Stuck,  K. S. Thanthiriwatte,  V. Vanovschi,  Tao Wang,  A. Warshel,  
 C. F. Williams,  Q. Wu,  X. Xu,  W. Zhang

 Please cite Q-Chem as follows:
 Y. Shao et al., Mol. Phys. 113, 184-215 (2015)
 DOI: 10.1080/00268976.2014.952696

 Q-Chem 5.1.1 for Intel X86 EM64T Linux

 Parts of Q-Chem use Armadillo 8.300.2 (Tropical Shenanigans).
 http://arma.sourceforge.net/

 Q-Chem begins on Wed Nov 11 14:16:55 2020  

Host: n0071.mhg0
0

     Scratch files written to /local/scratch/users/yhljason/HCHO_XYG3_aug-cc-pcVTZ.inp20201111140427//
The previous job contains 0 fragments, simply inherited here
Input Ideriv = 2
Curr. Ideriv = -1
Max.  Ideriv = 2

Checking the input file for inconsistencies... 	...done.

--------------------------------------------------------------
User input:
--------------------------------------------------------------
$molecule
read
$end

$rem
jobtype sp
exchange XYG3
xc_grid 000099000590
basis aug-cc-pcVTZ

max_scf_cycles 200
thresh 14
scf_convergence 8
mem_total 128000
cc_memory 96000
cc_backend xm
mem_static 1500
symmetry false
sym_ignore true
scf_guess read
unrestricted false
scf_algorithm gdm
n_frozen_core 0
$end



$multipole_field
YY -0.0001
$end


--------------------------------------------------------------
 ----------------------------------------------------------------
             Standard Nuclear Orientation (Angstroms)
    I     Atom           X                Y                Z
 ----------------------------------------------------------------
    1      O       0.0000000000     0.0000000000     1.2050000000
    2      C       0.0000000000     0.0000000000     0.0000000000
    3      H       0.0000000000     0.9429000000    -0.5876000000
    4      H       0.0000000000    -0.9429000000    -0.5876000000
 ----------------------------------------------------------------
 Nuclear Repulsion Energy =    31.2557350034 hartrees
 There are        8 alpha and        8 beta electrons
 Requested basis set is aug-cc-pCVTZ
 There are 56 shells and 164 basis functions

 Total QAlloc Memory Limit 128000 MB
 Mega-Array Size      1467 MB
 MEM_STATIC part      1500 MB

                       Distance Matrix (Angstroms)
             O (  1)   C (  2)   H (  3)
   C (  2)  1.205000
   H (  3)  2.025457  1.111006
   H (  4)  2.025457  1.111006  1.885800
 
 Applying Cartesian multipole field
    Component          Value
    ---------          -----
     (0,2,0)       -1.00000E-04
 Nucleus-field energy     =    -0.0006349785 hartrees
 A cutoff of  1.0D-14 yielded   1588 shell pairs
 There are     13728 function pairs (     18113 Cartesian)
 
 -------------------------------------------------------
 OpenMP Integral Computing Module                       
 Release: version 1.0, May 2013, Q-Chem Inc. Pittsburgh 
 -------------------------------------------------------
 Integral Job Info:
 Integral job number is                      11
 Integral operator is                         1
 short-range coefficients                     0
 long-range coefficients              100000000
 Omega coefficients                           0
 if combine SR and LR in K                    0
 Integral screening is                        0
 Integral computing path is                   2
 max size of driver memory is            800000
 size of driver memory is                776718
 size of scratch memory is              6691272
 max col of scratch BK array              10000
 max len of scratch array in speh3          662
 max len of scratch index in speh4           32
 max int batch size is                      520
 min int batch size is                       52
 fixed nKL is                                52
 max L of basis functions is                  3
 order of int derivative is                   0
 number of shells is                         56
 number of basis is                         188
 number of cartesian basis is               188
 number of contracted shell pairs          1588
 number of primitive shell pairs           3990
 maxK2 (contraction) of shell pair           64
 max number of K2 of shell pair               1
 max number of CS2 of shell pair            258
 max number of PS2 of shell pair            464
 mem total for path MDJ                  562704
 -------------------------------------------------------
 Smallest overlap matrix eigenvalue = 8.60E-05
 Guess MOs from SCF MO coefficient file
 Reading MOs from coefficient file
 Reading MOs from coefficient file
 A restricted hybrid HF-DFT SCF calculation will be
 performed using Geometric Direct Minimization
 Exchange:     0.2000 Hartree-Fock + 0.0800 Slater + 0.7200 B88
 Correlation:  0.1900 VWN1RPA + 0.8100 LYP
 Using Euler-Maclaurin-Lebedev (99,590) quadrature formula
 SCF converges when RMS gradient is below 1.0E-08
Using Q-Chem read-in guess as SCF_GUESS READ specified.

 using 8 threads for integral computing
 -------------------------------------------------------
 OpenMP Integral computing Module                
 Release: version 2.0, May 2017, Q-Chem Inc. Pleasanton 
 -------------------------------------------------------
TIMEINFO->: J/JK contribution 16.27 sec.
 -------------------------------------------------------
 OpenMP BLAS3 based DFT computing Module                
 Release: version 1.0, May 2013, Q-Chem Inc. Pittsburgh 
 -------------------------------------------------------
 ---------------------------------------
  Cycle       Energy        RMS Gradient
 ---------------------------------------
    1    -114.5533863461      7.37E-04 Normal BFGS step
TIMEINFO->: J/JK contribution 16.27 sec.
    2    -114.5533878790      3.26E-04 Normal BFGS step
TIMEINFO->: J/JK contribution 16.18 sec.
    3    -114.5533883438      3.68E-04 Normal BFGS step
TIMEINFO->: J/JK contribution 16.09 sec.
    4    -114.5533883365      1.99E-04 Line search: overstep
TIMEINFO->: J/JK contribution 16.10 sec.
    5    -114.5533884562      5.13E-05 Normal BFGS step
TIMEINFO->: J/JK contribution 16.07 sec.
    6    -114.5533884793      2.36E-05 Normal BFGS step
TIMEINFO->: J/JK contribution 16.12 sec.
    7    -114.5533884855      1.38E-06 Normal BFGS step
TIMEINFO->: J/JK contribution 15.84 sec.
    8    -114.5533884856      4.74E-07 Normal BFGS step
TIMEINFO->: J/JK contribution 15.93 sec.
    9    -114.5533884856      1.98E-08 Normal BFGS step
TIMEINFO->: J/JK contribution 15.23 sec.
   GDM::WARNING energy changes are now smaller than effective accuracy.
   GDM::        calculation will continue, but THRESH should be increased
   GDM::        or SCF_CONVERGENCE decreased.
   GDM::        effective_thresh =   8.000000000000000E-011
   10    -114.5533884856      4.17E-09 Convergence criterion met
 ---------------------------------------
 B3LYP orbitals are now ready for the XYG3 calculation.
 XYG3 energy = Exch (0.8033 HF  - 0.0140 Slater + 0.2107 Becke88) + 
               Corr (0.6789 LYP + 0.3211 MP2)
 SCF time:  CPU 257.02 s  wall 32.41 s
 SCF   energy in the final basis set = -114.29985259
 Total energy in the final basis set = -114.29985259
 
 Components of the MP2 correlation energy:
        aaaa  correlation energy  =        -0.0775960435 au
        abab  correlation energy  =        -0.5399239523 au
        bbbb  correlation energy  =        -0.0775960435 au
        singles contribution not yet available for XYG3

 Total  XYG3        total energy  =      -114.5230543477 au

 
 --------------------------------------------------------------
 
                    Orbital Energies (a.u.)
 --------------------------------------------------------------
 
 Alpha MOs
 -- Occupied --
-19.154 -10.281  -1.072  -0.644  -0.505  -0.463  -0.412  -0.282
 -- Virtual --
 -0.065  -0.009   0.019   0.031   0.049   0.082   0.093   0.110
  0.130   0.134   0.148   0.168   0.177   0.208   0.232   0.265
  0.269   0.283   0.298   0.309   0.320   0.329   0.378   0.380
  0.430   0.438   0.520   0.539   0.556   0.649   0.670   0.680
  0.702   0.710   0.724   0.724   0.786   0.795   0.800   0.839
  0.842   0.860   0.875   0.887   0.890   0.899   0.942   0.950
  1.051   1.085   1.137   1.192   1.206   1.260   1.300   1.340
  1.374   1.379   1.435   1.496   1.501   1.598   1.678   1.725
  1.791   1.803   1.959   1.968   2.024   2.055   2.087   2.178
  2.216   2.220   2.291   2.398   2.410   2.518   2.599   2.614
  2.708   2.753   2.764   2.871   3.078   3.091   3.203   3.228
  3.306   3.324   3.335   3.538   3.570   3.618   3.677   3.751
  3.795   3.840   3.846   4.007   4.021   4.203   4.315   4.367
  4.379   4.535   4.584   4.732   4.777   4.877   4.924   4.947
  5.281   5.440   5.701   6.055   6.088   6.133   6.138   6.157
  6.446   6.581   6.609   6.649   6.784   6.981   7.020   7.170
  7.236   7.802  14.934  15.822  16.224  16.742  25.376  25.683
 26.462  28.638  40.385  40.456  40.594  40.657  40.748  42.828
 42.851  42.948  43.023  43.123  79.651  80.315  80.586  85.425
136.364 136.581 137.302 147.994
 --------------------------------------------------------------
 
          Ground-State Mulliken Net Atomic Charges

     Atom                 Charge (a.u.)
  ----------------------------------------
      1 O                    -0.476113
      2 C                    -0.369498
      3 H                     0.422805
      4 H                     0.422805
  ----------------------------------------
  Sum of atomic charges =    -0.000000

 -----------------------------------------------------------------
                    Cartesian Multipole Moments
 -----------------------------------------------------------------
    Charge (ESU x 10^10)
                -0.0000
    Dipole Moment (Debye)
         X       0.0000      Y       0.0000      Z      -2.4052
       Tot       2.4052
    Quadrupole Moments (Debye-Ang)
        XX     -11.7835     XY      -0.0000     YY     -11.6823
        XZ       0.0000     YZ       0.0000     ZZ     -14.9437
    Octopole Moments (Debye-Ang^2)
       XXX       0.0000    XXY       0.0000    XYY       0.0000
       YYY       0.0000    XXZ      -5.5722    XYZ      -0.0000
       YYZ      -6.6613    XZZ       0.0000    YZZ      -0.0000
       ZZZ     -21.0594
    Hexadecapole Moments (Debye-Ang^3)
      XXXX     -10.8149   XXXY      -0.0000   XXYY      -5.3318
      XYYY      -0.0000   YYYY     -19.1463   XXXZ       0.0000
      XXYZ      -0.0000   XYYZ       0.0000   YYYZ       0.0000
      XXZZ     -12.2515   XYZZ      -0.0000   YYZZ     -14.6986
      XZZZ       0.0000   YZZZ       0.0000   ZZZZ     -68.3392
 -----------------------------------------------------------------
Archival summary:
1\1\n0071.mhg0\SP\ProcedureUnspecified\BasisUnspecified\112\yhljason\WedNov1114:17:532020WedNov1114:17:532020\0\\#,ProcedureUnspecified,BasisUnspecified,\\0,1\C\H,1,1.11101\H,1,1.11101,2,116.139\O,1,1.205,2,121.93,3,-180,0\\\@

 Total job time:  57.58s(wall), 455.30s(cpu) 
 Wed Nov 11 14:17:53 2020

        *************************************************************
        *                                                           *
        *  Thank you very much for using Q-Chem.  Have a nice day.  *
        *                                                           *
        *************************************************************


 
User input: 6 of 7 
 
Q-Chem Developer Version!
                  Welcome to Q-Chem
     A Quantum Leap Into The Future Of Chemistry


 Q-Chem 5.1, Q-Chem, Inc., Pleasanton, CA (2018)

 Yihan Shao,  Zhengting Gan,  E. Epifanovsky,  A. T. B. Gilbert,  M. Wormit,  
 J. Kussmann,  A. W. Lange,  A. Behn,  Jia Deng,  Xintian Feng,  D. Ghosh,  
 M. Goldey,  P. R. Horn,  L. D. Jacobson,  I. Kaliman,  T. Kus,  A. Landau,  
 Jie Liu,  E. I. Proynov,  R. M. Richard,  R. P. Steele,  E. J. Sundstrom,  
 H. L. Woodcock III,  P. M. Zimmerman,  D. Zuev,  B. Albrecht,  E. Alguire,  
 S. A. Baeppler,  D. Barton,  Z. Benda,  Y. A. Bernard,  E. J. Berquist,  
 K. B. Bravaya,  H. Burton,  D. Casanova,  Chun-Min Chang,  Yunqing Chen,  
 A. Chien,  K. D. Closser,  M. P. Coons,  S. Coriani,  S. Dasgupta,  
 A. L. Dempwolff,  M. Diedenhofen,  Hainam Do,  R. G. Edgar,  Po-Tung Fang,  
 S. Faraji,  S. Fatehi,  Qingguo Feng,  K. D. Fenk,  J. Fosso-Tande,  
 Qinghui Ge,  A. Ghysels,  G. Gidofalvi,  J. Gomes,  J. Gonthier,  A. Gunina,  
 D. Hait,  M. W. D. Hanson-Heine,  P. H. P. Harbach,  A. W. Hauser,  
 J. E. Herr,  E. G. Hohenstein,  Z. C. Holden,  Kerwin Hui,  B. C. Huynh,  
 T.-C. Jagau,  Hyunjun Ji,  B. Kaduk,  K. Khistyaev,  Jaehoon Kim,  
 P. Klunzinger,  K. Koh,  D. Kosenkov,  L. Koulias,  T. Kowalczyk,  
 C. M. Krauter,  A. Kunitsa,  Ka Un Lao,  A. Laurent,  K. V. Lawler,  
 Joonho Lee,  D. Lefrancois,  S. Lehtola,  D. S. Levine,  Yi-Pei Li,  
 You-Sheng Lin,  Fenglai Liu,  E. Livshits,  A. Luenser,  P. Manohar,  
 E. Mansoor,  S. F. Manzer,  Shan-Ping Mao,  Yuezhi Mao,  N. Mardirossian,  
 A. V. Marenich,  T. Markovich,  L. A. Martinez-Martinez,  S. A. Maurer,  
 N. J. Mayhall,  S. C. McKenzie,  J.-M. Mewes,  A. F. Morrison,  
 J. W. Mullinax,  K. Nanda,  T. S. Nguyen-Beck,  R. Olivares-Amaya,  
 J. A. Parkhill,  T. M. Perrine,  F. Plasser,  P. Pokhilko,  S. Prager,  
 A. Prociuk,  E. Ramos,  D. R. Rehn,  F. Rob,  M. Schneider,  N. Sergueev,  
 S. M. Sharada,  S. Sharma,  D. W. Small,  T. Stauch,  T. Stein,  
 Yu-Chuan Su,  A. J. W. Thom,  A. Tkatchenko,  T. Tsuchimochi,  N. M. Tubman,  
 L. Vogt,  M. L. Vidal,  O. Vydrov,  M. A. Watson,  J. Wenzel,  
 M. de Wergifosse,  T. A. Wesolowski,  A. White,  J. Witte,  A. Yamada,  
 Jun Yang,  K. Yao,  S. Yeganeh,  S. R. Yost,  Zhi-Qiang You,  A. Zech,  
 Igor Ying Zhang,  Xing Zhang,  Yan Zhao,  Ying Zhu,  B. R. Brooks,  
 G. K. L. Chan,  C. J. Cramer,  M. S. Gordon,  W. J. Hehre,  A. Klamt,  
 M. W. Schmidt,  C. D. Sherrill,  D. G. Truhlar,  A. Aspuru-Guzik,  R. Baer,  
 A. T. Bell,  N. A. Besley,  Jeng-Da Chai,  A. E. DePrince, III,  
 R. A. DiStasio Jr.,  A. Dreuw,  B. D. Dunietz,  T. R. Furlani,  
 Chao-Ping Hsu,  Yousung Jung,  Jing Kong,  D. S. Lambrecht,  WanZhen Liang,  
 C. Ochsenfeld,  V. A. Rassolov,  L. V. Slipchenko,  J. E. Subotnik,  
 T. Van Voorhis,  J. M. Herbert,  A. I. Krylov,  P. M. W. Gill,  M. Head-Gordon

 Contributors to earlier versions of Q-Chem not listed above: 
 R. D. Adamson,  B. Austin,  J. Baker,  G. J. O. Beran,  K. Brandhorst,  
 S. T. Brown,  E. F. C. Byrd,  A. K. Chakraborty,  C.-L. Cheng,  
 Siu Hung Chien,  D. M. Chipman,  D. L. Crittenden,  H. Dachsel,  
 R. J. Doerksen,  A. D. Dutoi,  L. Fusti-Molnar,  W. A. Goddard III,  
 A. Golubeva-Zadorozhnaya,  S. R. Gwaltney,  G. Hawkins,  A. Heyden,  
 S. Hirata,  G. Kedziora,  F. J. Keil,  C. Kelley,  Jihan Kim,  R. A. King,  
 R. Z. Khaliullin,  P. P. Korambath,  W. Kurlancheek,  A. M. Lee,  M. S. Lee,  
 S. V. Levchenko,  Ching Yeh Lin,  D. Liotard,  R. C. Lochan,  I. Lotan,  
 P. E. Maslen,  N. Nair,  D. P. O'Neill,  D. Neuhauser,  E. Neuscamman,  
 C. M. Oana,  R. Olson,  B. Peters,  R. Peverati,  P. A. Pieniazek,  
 Y. M. Rhee,  J. Ritchie,  M. A. Rohrdanz,  E. Rosta,  N. J. Russ,  
 H. F. Schaefer III,  N. E. Schultz,  N. Shenvi,  A. C. Simmonett,  A. Sodt,  
 D. Stuck,  K. S. Thanthiriwatte,  V. Vanovschi,  Tao Wang,  A. Warshel,  
 C. F. Williams,  Q. Wu,  X. Xu,  W. Zhang

 Please cite Q-Chem as follows:
 Y. Shao et al., Mol. Phys. 113, 184-215 (2015)
 DOI: 10.1080/00268976.2014.952696

 Q-Chem 5.1.1 for Intel X86 EM64T Linux

[...]
   GDM::WARNING energy changes are now smaller than effective accuracy.
   GDM::        calculation will continue, but THRESH should be increased
   GDM::        or SCF_CONVERGENCE decreased.
   GDM::        effective_thresh =   8.000000000000000E-011
   10    -114.5553696338      2.09E-09 Convergence criterion met
 ---------------------------------------
 B3LYP orbitals are now ready for the XYG3 calculation.
 XYG3 energy = Exch (0.8033 HF  - 0.0140 Slater + 0.2107 Becke88) + 
               Corr (0.6789 LYP + 0.3211 MP2)
 SCF time:  CPU 261.97 s  wall 32.99 s
 SCF   energy in the final basis set = -114.30181100
 Total energy in the final basis set = -114.30181100
 
 Components of the MP2 correlation energy:
        aaaa  correlation energy  =        -0.0776048478 au
        abab  correlation energy  =        -0.5399426520 au
        bbbb  correlation energy  =        -0.0776048478 au
        singles contribution not yet available for XYG3

 Total  XYG3        total energy  =      -114.5250244188 au

 
 --------------------------------------------------------------
 
                    Orbital Energies (a.u.)
 --------------------------------------------------------------
 
 Alpha MOs
 -- Occupied --
-19.155 -10.282  -1.072  -0.644  -0.506  -0.464  -0.413  -0.283
 -- Virtual --
 -0.066  -0.013   0.014   0.028   0.048   0.077   0.088   0.107
  0.128   0.130   0.145   0.167   0.174   0.205   0.231   0.262
  0.266   0.280   0.295   0.307   0.317   0.328   0.376   0.377
  0.428   0.437   0.518   0.536   0.554   0.646   0.668   0.679
  0.700   0.709   0.722   0.722   0.784   0.793   0.798   0.838
  0.841   0.858   0.873   0.886   0.889   0.897   0.940   0.949
  1.049   1.084   1.135   1.191   1.205   1.258   1.298   1.339
  1.373   1.378   1.434   1.495   1.500   1.597   1.677   1.723
  1.790   1.802   1.958   1.967   2.023   2.054   2.086   2.177
  2.215   2.219   2.290   2.397   2.409   2.517   2.598   2.613
  2.707   2.752   2.763   2.870   3.077   3.090   3.202   3.227
  3.305   3.323   3.334   3.537   3.569   3.617   3.676   3.750
  3.794   3.839   3.845   4.006   4.020   4.202   4.314   4.366
  4.378   4.534   4.583   4.731   4.776   4.877   4.923   4.946
  5.280   5.440   5.700   6.054   6.087   6.132   6.138   6.156
  6.445   6.580   6.608   6.648   6.784   6.980   7.019   7.169
  7.235   7.801  14.933  15.821  16.223  16.741  25.375  25.682
 26.461  28.637  40.384  40.456  40.593  40.656  40.747  42.827
 42.850  42.947  43.022  43.122  79.650  80.314  80.585  85.424
136.363 136.580 137.301 147.993
 --------------------------------------------------------------
 
          Ground-State Mulliken Net Atomic Charges

     Atom                 Charge (a.u.)
  ----------------------------------------
      1 O                    -0.477655
      2 C                    -0.367258
      3 H                     0.422456
      4 H                     0.422456
  ----------------------------------------
  Sum of atomic charges =    -0.000000

 -----------------------------------------------------------------
                    Cartesian Multipole Moments
 -----------------------------------------------------------------
    Charge (ESU x 10^10)
                -0.0000
    Dipole Moment (Debye)
         X      -0.0000      Y       0.0000      Z      -2.4104
       Tot       2.4104
    Quadrupole Moments (Debye-Ang)
        XX     -11.7852     XY      -0.0000     YY     -11.6976
        XZ      -0.0000     YZ      -0.0000     ZZ     -14.9708
    Octopole Moments (Debye-Ang^2)
       XXX       0.0000    XXY       0.0000    XYY       0.0000
       YYY      -0.0000    XXZ      -5.5765    XYZ      -0.0000
       YYZ      -6.6593    XZZ      -0.0000    YZZ       0.0000
       ZZZ     -21.0998
    Hexadecapole Moments (Debye-Ang^3)
      XXXX     -10.8213   XXXY      -0.0000   XXYY      -5.3421
      XYYY      -0.0000   YYYY     -19.2195   XXXZ       0.0000
      XXYZ      -0.0000   XYYZ       0.0000   YYYZ       0.0000
      XXZZ     -12.2697   XYZZ      -0.0000   YYZZ     -14.7389
      XZZZ      -0.0000   YZZZ      -0.0000   ZZZZ     -68.4958
 -----------------------------------------------------------------
Archival summary:
1\1\n0071.mhg0\SP\ProcedureUnspecified\BasisUnspecified\112\yhljason\WedNov1114:18:512020WedNov1114:18:512020\0\\#,ProcedureUnspecified,BasisUnspecified,\\0,1\C\H,1,1.11101\H,1,1.11101,2,116.139\O,1,1.205,2,121.93,3,-180,0\\\@

 Total job time:  58.14s(wall), 460.43s(cpu) 
 Wed Nov 11 14:18:51 2020

        *************************************************************
        *                                                           *
        *  Thank you very much for using Q-Chem.  Have a nice day.  *
        *                                                           *
        *************************************************************


 
User input: 7 of 7 
 
Q-Chem Developer Version!
                  Welcome to Q-Chem
     A Quantum Leap Into The Future Of Chemistry


 Q-Chem 5.1, Q-Chem, Inc., Pleasanton, CA (2018)

 Yihan Shao,  Zhengting Gan,  E. Epifanovsky,  A. T. B. Gilbert,  M. Wormit,  
 J. Kussmann,  A. W. Lange,  A. Behn,  Jia Deng,  Xintian Feng,  D. Ghosh,  
 M. Goldey,  P. R. Horn,  L. D. Jacobson,  I. Kaliman,  T. Kus,  A. Landau,  
 Jie Liu,  E. I. Proynov,  R. M. Richard,  R. P. Steele,  E. J. Sundstrom,  
 H. L. Woodcock III,  P. M. Zimmerman,  D. Zuev,  B. Albrecht,  E. Alguire,  
 S. A. Baeppler,  D. Barton,  Z. Benda,  Y. A. Bernard,  E. J. Berquist,  
 K. B. Bravaya,  H. Burton,  D. Casanova,  Chun-Min Chang,  Yunqing Chen,  
 A. Chien,  K. D. Closser,  M. P. Coons,  S. Coriani,  S. Dasgupta,  
 A. L. Dempwolff,  M. Diedenhofen,  Hainam Do,  R. G. Edgar,  Po-Tung Fang,  
 S. Faraji,  S. Fatehi,  Qingguo Feng,  K. D. Fenk,  J. Fosso-Tande,  
 Qinghui Ge,  A. Ghysels,  G. Gidofalvi,  J. Gomes,  J. Gonthier,  A. Gunina,  
 D. Hait,  M. W. D. Hanson-Heine,  P. H. P. Harbach,  A. W. Hauser,  
 J. E. Herr,  E. G. Hohenstein,  Z. C. Holden,  Kerwin Hui,  B. C. Huynh,  
 T.-C. Jagau,  Hyunjun Ji,  B. Kaduk,  K. Khistyaev,  Jaehoon Kim,  
 P. Klunzinger,  K. Koh,  D. Kosenkov,  L. Koulias,  T. Kowalczyk,  
 C. M. Krauter,  A. Kunitsa,  Ka Un Lao,  A. Laurent,  K. V. Lawler,  
 Joonho Lee,  D. Lefrancois,  S. Lehtola,  D. S. Levine,  Yi-Pei Li,  
 You-Sheng Lin,  Fenglai Liu,  E. Livshits,  A. Luenser,  P. Manohar,  
 E. Mansoor,  S. F. Manzer,  Shan-Ping Mao,  Yuezhi Mao,  N. Mardirossian,  
 A. V. Marenich,  T. Markovich,  L. A. Martinez-Martinez,  S. A. Maurer,  
 N. J. Mayhall,  S. C. McKenzie,  J.-M. Mewes,  A. F. Morrison,  
 J. W. Mullinax,  K. Nanda,  T. S. Nguyen-Beck,  R. Olivares-Amaya,  
 J. A. Parkhill,  T. M. Perrine,  F. Plasser,  P. Pokhilko,  S. Prager,  
 A. Prociuk,  E. Ramos,  D. R. Rehn,  F. Rob,  M. Schneider,  N. Sergueev,  
 S. M. Sharada,  S. Sharma,  D. W. Small,  T. Stauch,  T. Stein,  
 Yu-Chuan Su,  A. J. W. Thom,  A. Tkatchenko,  T. Tsuchimochi,  N. M. Tubman,  
 L. Vogt,  M. L. Vidal,  O. Vydrov,  M. A. Watson,  J. Wenzel,  
 M. de Wergifosse,  T. A. Wesolowski,  A. White,  J. Witte,  A. Yamada,  
 Jun Yang,  K. Yao,  S. Yeganeh,  S. R. Yost,  Zhi-Qiang You,  A. Zech,  
 Igor Ying Zhang,  Xing Zhang,  Yan Zhao,  Ying Zhu,  B. R. Brooks,  
 G. K. L. Chan,  C. J. Cramer,  M. S. Gordon,  W. J. Hehre,  A. Klamt,  
 M. W. Schmidt,  C. D. Sherrill,  D. G. Truhlar,  A. Aspuru-Guzik,  R. Baer,  
 A. T. Bell,  N. A. Besley,  Jeng-Da Chai,  A. E. DePrince, III,  
 R. A. DiStasio Jr.,  A. Dreuw,  B. D. Dunietz,  T. R. Furlani,  
 Chao-Ping Hsu,  Yousung Jung,  Jing Kong,  D. S. Lambrecht,  WanZhen Liang,  
 C. Ochsenfeld,  V. A. Rassolov,  L. V. Slipchenko,  J. E. Subotnik,  
 T. Van Voorhis,  J. M. Herbert,  A. I. Krylov,  P. M. W. Gill,  M. Head-Gordon

 Contributors to earlier versions of Q-Chem not listed above: 
 R. D. Adamson,  B. Austin,  J. Baker,  G. J. O. Beran,  K. Brandhorst,  
 S. T. Brown,  E. F. C. Byrd,  A. K. Chakraborty,  C.-L. Cheng,  
 Siu Hung Chien,  D. M. Chipman,  D. L. Crittenden,  H. Dachsel,  
 R. J. Doerksen,  A. D. Dutoi,  L. Fusti-Molnar,  W. A. Goddard III,  
 A. Golubeva-Zadorozhnaya,  S. R. Gwaltney,  G. Hawkins,  A. Heyden,  
 S. Hirata,  G. Kedziora,  F. J. Keil,  C. Kelley,  Jihan Kim,  R. A. King,  
 R. Z. Khaliullin,  P. P. Korambath,  W. Kurlancheek,  A. M. Lee,  M. S. Lee,  
 S. V. Levchenko,  Ching Yeh Lin,  D. Liotard,  R. C. Lochan,  I. Lotan,  
 P. E. Maslen,  N. Nair,  D. P. O'Neill,  D. Neuhauser,  E. Neuscamman,  
 C. M. Oana,  R. Olson,  B. Peters,  R. Peverati,  P. A. Pieniazek,  
 Y. M. Rhee,  J. Ritchie,  M. A. Rohrdanz,  E. Rosta,  N. J. Russ,  
 H. F. Schaefer III,  N. E. Schultz,  N. Shenvi,  A. C. Simmonett,  A. Sodt,  
 D. Stuck,  K. S. Thanthiriwatte,  V. Vanovschi,  Tao Wang,  A. Warshel,  
 C. F. Williams,  Q. Wu,  X. Xu,  W. Zhang

 Please cite Q-Chem as follows:
 Y. Shao et al., Mol. Phys. 113, 184-215 (2015)
 DOI: 10.1080/00268976.2014.952696

 Q-Chem 5.1.1 for Intel X86 EM64T Linux

 Parts of Q-Chem use Armadillo 8.300.2 (Tropical Shenanigans).
 http://arma.sourceforge.net/

 Q-Chem begins on Wed Nov 11 14:18:51 2020  

Host: n0071.mhg0
0

     Scratch files written to /local/scratch/users/yhljason/HCHO_XYG3_aug-cc-pcVTZ.inp20201111140427//
The previous job contains 0 fragments, simply inherited here
Input Ideriv = 2
Curr. Ideriv = -1
Max.  Ideriv = 2

Checking the input file for inconsistencies... 	...done.

--------------------------------------------------------------
User input:
--------------------------------------------------------------
$molecule
read
$end

$rem
jobtype sp
exchange XYG3
xc_grid 000099000590
basis aug-cc-pcVTZ

max_scf_cycles 200
thresh 14
scf_convergence 8
mem_total 128000
cc_memory 96000
cc_backend xm
mem_static 1500
symmetry false
sym_ignore true
scf_guess read
unrestricted false
scf_algorithm gdm
n_frozen_core 0
$end



$multipole_field
ZZ -0.0001
$end

--------------------------------------------------------------
 ----------------------------------------------------------------
             Standard Nuclear Orientation (Angstroms)
    I     Atom           X                Y                Z
 ----------------------------------------------------------------
    1      O       0.0000000000     0.0000000000     1.2050000000
    2      C       0.0000000000     0.0000000000     0.0000000000
    3      H       0.0000000000     0.9429000000    -0.5876000000
    4      H       0.0000000000    -0.9429000000    -0.5876000000
 ----------------------------------------------------------------
 Nuclear Repulsion Energy =    31.2557350034 hartrees
 There are        8 alpha and        8 beta electrons
 Requested basis set is aug-cc-pCVTZ
 There are 56 shells and 164 basis functions

 Total QAlloc Memory Limit 128000 MB
 Mega-Array Size      1467 MB
 MEM_STATIC part      1500 MB

                       Distance Matrix (Angstroms)
             O (  1)   C (  2)   H (  3)
   C (  2)  1.205000
   H (  3)  2.025457  1.111006
   H (  4)  2.025457  1.111006  1.885800
 
 Applying Cartesian multipole field
    Component          Value
    ---------          -----
     (0,0,2)       -1.00000E-04
 Nucleus-field energy     =    -0.0043948193 hartrees
 A cutoff of  1.0D-14 yielded   1588 shell pairs
 There are     13728 function pairs (     18113 Cartesian)
 
 -------------------------------------------------------
 OpenMP Integral Computing Module                       
 Release: version 1.0, May 2013, Q-Chem Inc. Pittsburgh 
 -------------------------------------------------------
 Integral Job Info:
 Integral job number is                      11
 Integral operator is                         1
 short-range coefficients                     0
 long-range coefficients              100000000
 Omega coefficients                           0
 if combine SR and LR in K                    0
 Integral screening is                        0
 Integral computing path is                   2
 max size of driver memory is            800000
 size of driver memory is                776718
 size of scratch memory is              6691272
 max col of scratch BK array              10000
 max len of scratch array in speh3          662
 max len of scratch index in speh4           32
 max int batch size is                      520
 min int batch size is                       52
 fixed nKL is                                52
 max L of basis functions is                  3
 order of int derivative is                   0
 number of shells is                         56
 number of basis is                         188
 number of cartesian basis is               188
 number of contracted shell pairs          1588
 number of primitive shell pairs           3990
 maxK2 (contraction) of shell pair           64
 max number of K2 of shell pair               1
 max number of CS2 of shell pair            258
 max number of PS2 of shell pair            464
 mem total for path MDJ                  562704
 -------------------------------------------------------
 Smallest overlap matrix eigenvalue = 8.60E-05
 Guess MOs from SCF MO coefficient file
 Reading MOs from coefficient file
 Reading MOs from coefficient file
 A restricted hybrid HF-DFT SCF calculation will be
 performed using Geometric Direct Minimization
 Exchange:     0.2000 Hartree-Fock + 0.0800 Slater + 0.7200 B88
 Correlation:  0.1900 VWN1RPA + 0.8100 LYP
 Using Euler-Maclaurin-Lebedev (99,590) quadrature formula
 SCF converges when RMS gradient is below 1.0E-08
Using Q-Chem read-in guess as SCF_GUESS READ specified.

 using 8 threads for integral computing
 -------------------------------------------------------
 OpenMP Integral computing Module                
 Release: version 2.0, May 2017, Q-Chem Inc. Pleasanton 
 -------------------------------------------------------
TIMEINFO->: J/JK contribution 16.46 sec.
 -------------------------------------------------------
 OpenMP BLAS3 based DFT computing Module                
 Release: version 1.0, May 2013, Q-Chem Inc. Pittsburgh 
 -------------------------------------------------------
 ---------------------------------------
  Cycle       Energy        RMS Gradient
 ---------------------------------------
    1    -114.5531435541      1.09E-03 Normal BFGS step
TIMEINFO->: J/JK contribution 16.57 sec.
    2    -114.5531453978      1.44E-03 Normal BFGS step
TIMEINFO->: J/JK contribution 16.08 sec.
    3    -114.5531465870      7.60E-04 Normal BFGS step
TIMEINFO->: J/JK contribution 16.27 sec.
    4    -114.5531471580      2.21E-04 Normal BFGS step
TIMEINFO->: J/JK contribution 16.05 sec.
    5    -114.5531474025      4.58E-05 Normal BFGS step
TIMEINFO->: J/JK contribution 16.13 sec.
    6    -114.5531474239      1.10E-05 Normal BFGS step
TIMEINFO->: J/JK contribution 16.15 sec.
    7    -114.5531474252      2.07E-06 Normal BFGS step
TIMEINFO->: J/JK contribution 15.98 sec.
    8    -114.5531474252      4.25E-07 Normal BFGS step
TIMEINFO->: J/JK contribution 15.69 sec.
    9    -114.5531474252      2.32E-08 Normal BFGS step
TIMEINFO->: J/JK contribution 15.23 sec.
   10    -114.5531474252      1.18E-08 Normal BFGS step
TIMEINFO->: J/JK contribution 14.51 sec.
   GDM::WARNING energy changes are now smaller than effective accuracy.
   GDM::        calculation will continue, but THRESH should be increased
   GDM::        or SCF_CONVERGENCE decreased.
   GDM::        effective_thresh =   3.143912980646535E-009
   11    -114.5531474252      3.79E-09 Convergence criterion met
 ---------------------------------------
 B3LYP orbitals are now ready for the XYG3 calculation.
 XYG3 energy = Exch (0.8033 HF  - 0.0140 Slater + 0.2107 Becke88) + 
               Corr (0.6789 LYP + 0.3211 MP2)
 SCF time:  CPU 283.96 s  wall 35.75 s
 SCF   energy in the final basis set = -114.29958306
 Total energy in the final basis set = -114.29958306
 
 Components of the MP2 correlation energy:
        aaaa  correlation energy  =        -0.0776107280 au
        abab  correlation energy  =        -0.5399954277 au
        bbbb  correlation energy  =        -0.0776107280 au
        singles contribution not yet available for XYG3

 Total  XYG3        total energy  =      -114.5228171946 au

 
 --------------------------------------------------------------
 
                    Orbital Energies (a.u.)
 --------------------------------------------------------------
 
 Alpha MOs
 -- Occupied --
-19.154 -10.281  -1.071  -0.643  -0.505  -0.463  -0.412  -0.281
 -- Virtual --
 -0.065  -0.009   0.017   0.032   0.049   0.081   0.091   0.111
  0.131   0.134   0.149   0.167   0.178   0.208   0.232   0.266
  0.268   0.283   0.298   0.309   0.319   0.330   0.378   0.380
  0.430   0.438   0.521   0.539   0.556   0.648   0.671   0.680
  0.702   0.710   0.724   0.724   0.785   0.795   0.800   0.840
  0.842   0.860   0.875   0.887   0.890   0.899   0.942   0.950
  1.052   1.085   1.137   1.192   1.206   1.260   1.299   1.340
  1.374   1.379   1.435   1.496   1.501   1.598   1.678   1.724
  1.791   1.803   1.959   1.969   2.024   2.055   2.088   2.178
  2.217   2.221   2.292   2.398   2.410   2.518   2.599   2.614
  2.708   2.753   2.764   2.871   3.078   3.091   3.203   3.228
  3.306   3.324   3.335   3.538   3.570   3.618   3.677   3.751
  3.796   3.839   3.846   4.007   4.021   4.203   4.315   4.367
  4.379   4.535   4.584   4.732   4.777   4.877   4.924   4.947
  5.281   5.440   5.701   6.055   6.088   6.133   6.139   6.157
  6.446   6.581   6.609   6.649   6.785   6.981   7.020   7.170
  7.236   7.802  14.934  15.822  16.224  16.742  25.376  25.684
 26.463  28.638  40.385  40.457  40.594  40.657  40.748  42.828
 42.851  42.948  43.023  43.123  79.651  80.315  80.586  85.425
136.364 136.581 137.302 147.994
 --------------------------------------------------------------
 
          Ground-State Mulliken Net Atomic Charges

     Atom                 Charge (a.u.)
  ----------------------------------------
      1 O                    -0.475195
      2 C                    -0.371577
      3 H                     0.423386
      4 H                     0.423386
  ----------------------------------------
  Sum of atomic charges =    -0.000000

 -----------------------------------------------------------------
                    Cartesian Multipole Moments
 -----------------------------------------------------------------
    Charge (ESU x 10^10)
                -0.0000
    Dipole Moment (Debye)
         X      -0.0000      Y       0.0000      Z      -2.3951
       Tot       2.3951
    Quadrupole Moments (Debye-Ang)
        XX     -11.7844     XY      -0.0000     YY     -11.6955
        XZ      -0.0000     YZ       0.0000     ZZ     -14.9188
    Octopole Moments (Debye-Ang^2)
       XXX       0.0000    XXY      -0.0000    XYY      -0.0000
       YYY       0.0000    XXZ      -5.5668    XYZ      -0.0000
       YYZ      -6.6512    XZZ      -0.0000    YZZ      -0.0000
       ZZZ     -21.0087
    Hexadecapole Moments (Debye-Ang^3)
      XXXX     -10.8171   XXXY      -0.0000   XXYY      -5.3385
      XYYY       0.0000   YYYY     -19.2056   XXXZ       0.0000
      XXYZ       0.0000   XYYZ       0.0000   YYYZ      -0.0000
      XXZZ     -12.2390   XYZZ      -0.0000   YYZZ     -14.6949
      XZZZ       0.0000   YZZZ      -0.0000   ZZZZ     -68.2010
 -----------------------------------------------------------------
Archival summary:
1\1\n0071.mhg0\SP\ProcedureUnspecified\BasisUnspecified\112\yhljason\WedNov1114:19:522020WedNov1114:19:522020\0\\#,ProcedureUnspecified,BasisUnspecified,\\0,1\C\H,1,1.11101\H,1,1.11101,2,116.139\O,1,1.205,2,121.93,3,-180,0\\\@

 Total job time:  60.84s(wall), 481.66s(cpu) 
 Wed Nov 11 14:19:52 2020

        *************************************************************
        *                                                           *
        *  Thank you very much for using Q-Chem.  Have a nice day.  *
        *                                                           *
        *************************************************************


