Q-Chem Developer Version!
                  Welcome to Q-Chem
     A Quantum Leap Into The Future Of Chemistry


 Q-Chem 5.1, Q-Chem, Inc., Pleasanton, CA (2018)

 Yihan Shao,  Zhengting Gan,  E. Epifanovsky,  A. T. B. Gilbert,  M. Wormit,  
 J. Kussmann,  A. W. Lange,  A. Behn,  Jia Deng,  Xintian Feng,  D. Ghosh,  
 M. Goldey,  P. R. Horn,  L. D. Jacobson,  I. Kaliman,  T. Kus,  A. Landau,  
 Jie Liu,  E. I. Proynov,  R. M. Richard,  R. P. Steele,  E. J. Sundstrom,  
 H. L. Woodcock III,  P. M. Zimmerman,  D. Zuev,  B. Albrecht,  E. Alguire,  
 S. A. Baeppler,  D. Barton,  Z. Benda,  Y. A. Bernard,  E. J. Berquist,  
 K. B. Bravaya,  H. Burton,  D. Casanova,  Chun-Min Chang,  Yunqing Chen,  
 A. Chien,  K. D. Closser,  M. P. Coons,  S. Coriani,  S. Dasgupta,  
 A. L. Dempwolff,  M. Diedenhofen,  Hainam Do,  R. G. Edgar,  Po-Tung Fang,  
 S. Faraji,  S. Fatehi,  Qingguo Feng,  K. D. Fenk,  J. Fosso-Tande,  
 Qinghui Ge,  A. Ghysels,  G. Gidofalvi,  J. Gomes,  J. Gonthier,  A. Gunina,  
 D. Hait,  M. W. D. Hanson-Heine,  P. H. P. Harbach,  A. W. Hauser,  
 J. E. Herr,  E. G. Hohenstein,  Z. C. Holden,  Kerwin Hui,  B. C. Huynh,  
 T.-C. Jagau,  Hyunjun Ji,  B. Kaduk,  K. Khistyaev,  Jaehoon Kim,  
 P. Klunzinger,  K. Koh,  D. Kosenkov,  L. Koulias,  T. Kowalczyk,  
 C. M. Krauter,  A. Kunitsa,  Ka Un Lao,  A. Laurent,  K. V. Lawler,  
 Joonho Lee,  D. Lefrancois,  S. Lehtola,  D. S. Levine,  Yi-Pei Li,  
 You-Sheng Lin,  Fenglai Liu,  E. Livshits,  A. Luenser,  P. Manohar,  
 E. Mansoor,  S. F. Manzer,  Shan-Ping Mao,  Yuezhi Mao,  N. Mardirossian,  
 A. V. Marenich,  T. Markovich,  L. A. Martinez-Martinez,  S. A. Maurer,  
 N. J. Mayhall,  S. C. McKenzie,  J.-M. Mewes,  A. F. Morrison,  
 J. W. Mullinax,  K. Nanda,  T. S. Nguyen-Beck,  R. Olivares-Amaya,  
 J. A. Parkhill,  T. M. Perrine,  F. Plasser,  P. Pokhilko,  S. Prager,  
 A. Prociuk,  E. Ramos,  D. R. Rehn,  F. Rob,  M. Schneider,  N. Sergueev,  
 S. M. Sharada,  S. Sharma,  D. W. Small,  T. Stauch,  T. Stein,  
 Yu-Chuan Su,  A. J. W. Thom,  A. Tkatchenko,  T. Tsuchimochi,  N. M. Tubman,  
 L. Vogt,  M. L. Vidal,  O. Vydrov,  M. A. Watson,  J. Wenzel,  
 M. de Wergifosse,  T. A. Wesolowski,  A. White,  J. Witte,  A. Yamada,  
 Jun Yang,  K. Yao,  S. Yeganeh,  S. R. Yost,  Zhi-Qiang You,  A. Zech,  
 Igor Ying Zhang,  Xing Zhang,  Yan Zhao,  Ying Zhu,  B. R. Brooks,  
 G. K. L. Chan,  C. J. Cramer,  M. S. Gordon,  W. J. Hehre,  A. Klamt,  
 M. W. Schmidt,  C. D. Sherrill,  D. G. Truhlar,  A. Aspuru-Guzik,  R. Baer,  
 A. T. Bell,  N. A. Besley,  Jeng-Da Chai,  A. E. DePrince, III,  
 R. A. DiStasio Jr.,  A. Dreuw,  B. D. Dunietz,  T. R. Furlani,  
 Chao-Ping Hsu,  Yousung Jung,  Jing Kong,  D. S. Lambrecht,  WanZhen Liang,  
 C. Ochsenfeld,  V. A. Rassolov,  L. V. Slipchenko,  J. E. Subotnik,  
 T. Van Voorhis,  J. M. Herbert,  A. I. Krylov,  P. M. W. Gill,  M. Head-Gordon

 Contributors to earlier versions of Q-Chem not listed above: 
 R. D. Adamson,  B. Austin,  J. Baker,  G. J. O. Beran,  K. Brandhorst,  
 S. T. Brown,  E. F. C. Byrd,  A. K. Chakraborty,  C.-L. Cheng,  
 Siu Hung Chien,  D. M. Chipman,  D. L. Crittenden,  H. Dachsel,  
 R. J. Doerksen,  A. D. Dutoi,  L. Fusti-Molnar,  W. A. Goddard III,  
 A. Golubeva-Zadorozhnaya,  S. R. Gwaltney,  G. Hawkins,  A. Heyden,  
 S. Hirata,  G. Kedziora,  F. J. Keil,  C. Kelley,  Jihan Kim,  R. A. King,  
 R. Z. Khaliullin,  P. P. Korambath,  W. Kurlancheek,  A. M. Lee,  M. S. Lee,  
 S. V. Levchenko,  Ching Yeh Lin,  D. Liotard,  R. C. Lochan,  I. Lotan,  
 P. E. Maslen,  N. Nair,  D. P. O'Neill,  D. Neuhauser,  E. Neuscamman,  
 C. M. Oana,  R. Olson,  B. Peters,  R. Peverati,  P. A. Pieniazek,  
 Y. M. Rhee,  J. Ritchie,  M. A. Rohrdanz,  E. Rosta,  N. J. Russ,  
 H. F. Schaefer III,  N. E. Schultz,  N. Shenvi,  A. C. Simmonett,  A. Sodt,  
 D. Stuck,  K. S. Thanthiriwatte,  V. Vanovschi,  Tao Wang,  A. Warshel,  
 C. F. Williams,  Q. Wu,  X. Xu,  W. Zhang

 Please cite Q-Chem as follows:
 Y. Shao et al., Mol. Phys. 113, 184-215 (2015)
 DOI: 10.1080/00268976.2014.952696

 Q-Chem 5.1.1 for Intel X86 EM64T Linux

 Parts of Q-Chem use Armadillo 8.300.2 (Tropical Shenanigans).
 http://arma.sourceforge.net/

 Q-Chem begins on Wed Nov 11 14:14:27 2020  

Host: n0096.mhg0
0

     Scratch files written to /local/scratch/users/yhljason/HCHO_wB97X-2TQZ_aug-cc-pcVQZ.inp20201111140429//
Input Ideriv = 0
Curr. Ideriv = -1
Max.  Ideriv = 0
Analytic post-HF gradients are not available with non-HF exchange
Input Ideriv = 0
Curr. Ideriv = 0
Max.  Ideriv = 0

Checking the input file for inconsistencies... 	...done.

--------------------------------------------------------------
User input:
--------------------------------------------------------------
$molecule
0 1
O1      0.0000  0.0000  1.2050
C2      0.0000  0.0000  0.0000
H3      0.0000  0.9429  -0.5876
H4      0.0000  -0.9429 -0.5876
$end

$rem
jobtype sp
exchange wB97X-2(TQZ)
xc_grid 000099000590
basis aug-cc-pcVQZ

max_scf_cycles 200
thresh 14
scf_convergence 8
scf_algorithm gdm
symmetry false
sym_ignore true
unrestricted false
gen_scfman true
internal_stability_iter 15
internal_stability_davidson_iter 200
mem_total 128000
cc_memory 96000
cc_backend xm
mem_static 1500
n_frozen_core 0
$end



--------------------------------------------------------------
 ----------------------------------------------------------------
             Standard Nuclear Orientation (Angstroms)
    I     Atom           X                Y                Z
 ----------------------------------------------------------------
    1      O       0.0000000000     0.0000000000     1.2050000000
    2      C       0.0000000000     0.0000000000     0.0000000000
    3      H       0.0000000000     0.9429000000    -0.5876000000
    4      H       0.0000000000    -0.9429000000    -0.5876000000
 ----------------------------------------------------------------
 Nuclear Repulsion Energy =    31.2557350034 hartrees
 There are        8 alpha and        8 beta electrons
 Requested basis set is aug-cc-pCVQZ
 There are 86 shells and 310 basis functions

 Total QAlloc Memory Limit 128000 MB
 Mega-Array Size      1467 MB
 MEM_STATIC part      1500 MB

                       Distance Matrix (Angstroms)
             O (  1)   C (  2)   H (  3)
   C (  2)  1.205000
   H (  3)  2.025457  1.111006
   H (  4)  2.025457  1.111006  1.885800
 
 A cutoff of  1.0D-14 yielded   3677 shell pairs
 There are     48249 function pairs (     75927 Cartesian)
 
 -------------------------------------------------------
 OpenMP Integral Computing Module                       
 Release: version 1.0, May 2013, Q-Chem Inc. Pittsburgh 
 -------------------------------------------------------
 Integral Job Info:
 Integral job number is                      11
 Integral operator is                         1
 short-range coefficients              63615800
 long-range coefficients              100000000
 Omega coefficients                         300
 if combine SR and LR in K                    1
 Integral screening is                        0
 Integral computing path is                   2
 max size of driver memory is           3200000
 size of driver memory is               1704330
 size of scratch memory is             18852824
 max col of scratch BK array              50625
 max len of scratch array in speh3         2114
 max len of scratch index in speh4           50
 max int batch size is                      520
 min int batch size is                       52
 fixed nKL is                                52
 max L of basis functions is                  4
 order of int derivative is                   0
 number of shells is                         86
 number of basis is                         388
 number of cartesian basis is               388
 number of contracted shell pairs          3677
 number of primitive shell pairs           7282
 maxK2 (contraction) of shell pair           81
 max number of K2 of shell pair               1
 max number of CS2 of shell pair            482
 max number of PS2 of shell pair            702
 mem total for path MDJ                  738190
 -------------------------------------------------------
 Smallest overlap matrix eigenvalue = 2.29E-05

 Scale SEOQF with 1.000000e-01/1.000000e-01/1.000000e-01

 Standard Electronic Orientation quadrupole field applied
 Nucleus-field energy     =    -0.0000000012 hartrees
 Guess from superposition of atomic densities
 Warning:  Energy on first SCF cycle will be non-variational
 SAD guess density has 16.000000 electrons

 -----------------------------------------------------------------------
  General SCF calculation program by
  Eric Jon Sundstrom, Paul Horn, Yuezhi Mao, Dmitri Zuev, Alec White,
  David Stuck, Shaama M.S., Shane Yost, Joonho Lee, David Small,
  Daniel Levine, Susi Lehtola, Hugh Burton, Evgeny Epifanovsky
 -----------------------------------------------------------------------
 Exchange:     0.6362 Hartree-Fock + 1.0000 wB97X-2(TQZ) + LR-HF
 Correlation:  1.0000 wB97X-2(TQZ)
 Using Euler-Maclaurin-Lebedev (99,590) quadrature formula
Running Object-Oriented RKS (RHF)
We will preform up to 15 macro iterations over saddle points until a stable solution is found
Energy prior to optimization (guess energy) = -114.167295168768
Begin Timing: Total SCF Calculation
Begin Timing: SCF Single Stationary Point Calculation
begin iterations for algorithm: GDM          
the SCF tolerance is set to 1.00e-08
    1    -114.1672951688      1.71e-01     00000  Descent step
    2    -114.1810549503      1.51e-01     00000  Normal BFGS step
    3    -114.2368195860      9.91e-03     00000  Normal BFGS step
    4    -114.2372713267      3.51e-03     00000  Normal BFGS step
    5    -114.2373614075      7.73e-04     00000  Normal BFGS step
    6    -114.2373684638      2.20e-04     00000  Normal BFGS step
    7    -114.2373691272      3.23e-05     00000  Normal BFGS step
    8    -114.2373691403      9.50e-06     00000  Normal BFGS step
    9    -114.2373691410      2.01e-06     00000  Normal BFGS step
   10    -114.2373691410      3.01e-07     00000  Normal BFGS step
   11    -114.2373691410      4.15e-08     00000  Normal BFGS step
   12    -114.2373691410      2.90e-08     00000  Normal BFGS step
   13    -114.2373691410      8.34e-09     00000 Convergence criterion met
Timing for Single Stationary Point: 396.00s (wall), 3135.93s (cpu)
Begin Timing: Stability
===================================================
Beginning Test for Internal Stability
===================================================
generating davidson guess vectors based on koopmans excitations
    1      3.30e+00     00000 Davidson Iteration
    2      2.41e+00     00000 Davidson Iteration
    3      3.47e-01     00000 Davidson Iteration
    4      1.20e-01     00000 Davidson Iteration
    5      1.55e-01     00000 Davidson Iteration
    6      4.20e-02     00000 Davidson Iteration
    7      4.84e-02     00000 Davidson Iteration
    8      9.17e-03     00000 Davidson Iteration
    9      2.87e-03     00000 Davidson Iteration
   10      1.58e-03     00000 Davidson Iteration
   11      9.97e-04     00000 Davidson Iteration
   12      3.13e-04     00000 Davidson Iteration
   13      1.54e-04     00000 Davidson Iteration
   14      7.04e-05     00000 Davidson Iteration
   15      1.16e-04     00000 Davidson Iteration
   16      2.42e-05     00000 Davidson Converged
converged_eigenvalues
   1.1826
   0.6591
Threshold for negative eigenvalues: -1.0e-05
solution was a local minimum (stable)
===================================================
End Test for Internal Stability
===================================================
Our SCF solution is stable!
Timing for Total SCF: 1637.00s (wall), 12982.32s (cpu)
 Total energy in the final basis set =     -114.2373691410
    ==================================================
              The end of Object-Oriented SCFman       
    ==================================================
 
 Components of the MP2 correlation energy:
        aaaa  correlation energy =        -0.0320002803 au
        abab  correlation energy =        -0.2035694887 au
        bbbb  correlation energy =        -0.0320002803 au
        non-Brillouin singles    =        -0.0000000000 au

 Total  MP2   correlation energy =                    -0.26757005 au
        MP2         total energy =                  -114.50493919 au
 
 --------------------------------------------------------------
 
                    Orbital Energies (a.u.)
 --------------------------------------------------------------
 
 Alpha MOs
 -- Occupied --
-19.995 -10.922  -1.310  -0.821  -0.660  -0.616  -0.528  -0.416
 -- Virtual --
  0.027   0.042   0.053   0.071   0.099   0.119   0.123   0.150
  0.172   0.179   0.184   0.207   0.208   0.227   0.258   0.275
  0.278   0.299   0.300   0.316   0.321   0.346   0.395   0.400
  0.422   0.439   0.485   0.515   0.538   0.543   0.555   0.602
  0.613   0.644   0.651   0.658   0.663   0.709   0.718   0.727
  0.727   0.742   0.754   0.757   0.787   0.808   0.826   0.860
  0.863   0.919   0.938   0.958   0.994   1.030   1.050   1.061
  1.094   1.127   1.152   1.264   1.264   1.350   1.365   1.403
  1.442   1.485   1.489   1.494   1.536   1.537   1.545   1.592
  1.595   1.602   1.634   1.667   1.698   1.766   1.781   1.792
  1.798   1.844   1.860   1.864   1.911   1.929   1.936   1.970
  1.987   1.999   2.027   2.028   2.069   2.088   2.092   2.130
  2.142   2.175   2.257   2.325   2.405   2.412   2.422   2.422
  2.499   2.568   2.587   2.685   2.705   2.712   2.716   2.730
  2.775   2.833   2.850   2.891   2.990   3.023   3.156   3.253
  3.298   3.329   3.408   3.459   3.618   3.634   3.729   3.763
  3.775   3.797   3.873   3.884   3.926   3.952   3.966   4.061
  4.109   4.130   4.139   4.226   4.245   4.257   4.260   4.268
  4.292   4.333   4.452   4.512   4.520   4.576   4.596   4.638
  4.768   4.827   4.991   5.070   5.256   5.269   5.327   5.424
  5.613   5.652   5.677   5.904   5.930   5.984   6.070   6.133
  6.137   6.210   6.294   6.427   6.493   6.644   6.667   6.717
  6.751   6.821   6.831   6.931   7.017   7.024   7.052   7.194
  7.296   7.456   7.587   7.686   7.777   8.064   8.098   8.121
  8.157   8.159   8.357   8.374   8.386   8.418   8.538   8.766
  8.913   8.998   9.033   9.134   9.263   9.477   9.506   9.571
  9.928   9.933   9.975   9.979  10.085  10.188  10.326  10.459
 10.567  10.576  10.590  10.769  10.899  10.919  10.990  11.025
 11.106  11.277  11.437  11.476  11.823  11.846  11.932  12.353
 12.406  12.466  12.565  12.836  12.995  13.037  13.195  13.346
 13.705  14.464  15.084  18.003  19.348  20.949  21.300  26.667
 26.769  27.255  27.623  27.829  33.508  33.814  34.698  37.501
 46.836  46.868  47.215  47.585  48.039  63.843  66.482  67.676
 67.995  98.220  98.226  98.239  98.241  98.247  98.278  98.296
102.827 102.830 102.879 102.880 102.884 102.920 102.958 114.783
114.823 115.057 115.263 115.362 116.414 116.648 117.342 123.160
197.817 197.833 198.019 198.215 198.438 215.747 224.399 225.383
225.645 394.265 394.463 395.022 508.483 893.308
 --------------------------------------------------------------
 
          Ground-State Mulliken Net Atomic Charges

     Atom                 Charge (a.u.)
  ----------------------------------------
      1 O                    -0.507404
      2 C                    -0.312042
      3 H                     0.409723
      4 H                     0.409723
  ----------------------------------------
  Sum of atomic charges =     0.000000

 -----------------------------------------------------------------
                    Cartesian Multipole Moments
 -----------------------------------------------------------------
    Charge (ESU x 10^10)
                 0.0000
    Dipole Moment (Debye)
         X       0.0000      Y      -0.0000      Z      -2.6660
       Tot       2.6660
    Quadrupole Moments (Debye-Ang)
        XX     -11.8326     XY      -0.0000     YY     -11.5443
        XZ      -0.0000     YZ      -0.0000     ZZ     -15.0342
    Octopole Moments (Debye-Ang^2)
       XXX       0.0000    XXY      -0.0000    XYY       0.0000
       YYY      -0.0000    XXZ      -5.7457    XYZ       0.0000
       YYZ      -6.8837    XZZ      -0.0000    YZZ       0.0000
       ZZZ     -21.4251
    Hexadecapole Moments (Debye-Ang^3)
      XXXX     -10.7807   XXXY      -0.0000   XXYY      -5.2116
      XYYY       0.0000   YYYY     -18.0539   XXXZ      -0.0000
      XXYZ       0.0000   XYYZ      -0.0000   YYYZ       0.0000
      XXZZ     -12.2206   XYZZ      -0.0000   YYZZ     -14.2979
      XZZZ      -0.0000   YZZZ      -0.0000   ZZZZ     -67.7053
 -----------------------------------------------------------------
Archival summary:
1\1\n0096.mhg0\SP\ProcedureUnspecified\BasisUnspecified\112\yhljason\WedNov1114:48:052020WedNov1114:48:052020\0\\#,ProcedureUnspecified,BasisUnspecified,\\0,1\C\H,1,1.11101\H,1,1.11101,2,116.139\O,1,1.205,2,121.93,3,-180,0\\\@

 Total job time:  2018.17s(wall), 15998.95s(cpu) 
 Wed Nov 11 14:48:05 2020

        *************************************************************
        *                                                           *
        *  Thank you very much for using Q-Chem.  Have a nice day.  *
        *                                                           *
        *************************************************************


 
User input: 2 of 7 
 
Q-Chem Developer Version!
                  Welcome to Q-Chem
     A Quantum Leap Into The Future Of Chemistry


 Q-Chem 5.1, Q-Chem, Inc., Pleasanton, CA (2018)

 Yihan Shao,  Zhengting Gan,  E. Epifanovsky,  A. T. B. Gilbert,  M. Wormit,  
 J. Kussmann,  A. W. Lange,  A. Behn,  Jia Deng,  Xintian Feng,  D. Ghosh,  
 M. Goldey,  P. R. Horn,  L. D. Jacobson,  I. Kaliman,  T. Kus,  A. Landau,  
 Jie Liu,  E. I. Proynov,  R. M. Richard,  R. P. Steele,  E. J. Sundstrom,  
 H. L. Woodcock III,  P. M. Zimmerman,  D. Zuev,  B. Albrecht,  E. Alguire,  
 S. A. Baeppler,  D. Barton,  Z. Benda,  Y. A. Bernard,  E. J. Berquist,  
 K. B. Bravaya,  H. Burton,  D. Casanova,  Chun-Min Chang,  Yunqing Chen,  
 A. Chien,  K. D. Closser,  M. P. Coons,  S. Coriani,  S. Dasgupta,  
 A. L. Dempwolff,  M. Diedenhofen,  Hainam Do,  R. G. Edgar,  Po-Tung Fang,  
 S. Faraji,  S. Fatehi,  Qingguo Feng,  K. D. Fenk,  J. Fosso-Tande,  
 Qinghui Ge,  A. Ghysels,  G. Gidofalvi,  J. Gomes,  J. Gonthier,  A. Gunina,  
 D. Hait,  M. W. D. Hanson-Heine,  P. H. P. Harbach,  A. W. Hauser,  
 J. E. Herr,  E. G. Hohenstein,  Z. C. Holden,  Kerwin Hui,  B. C. Huynh,  
 T.-C. Jagau,  Hyunjun Ji,  B. Kaduk,  K. Khistyaev,  Jaehoon Kim,  
 P. Klunzinger,  K. Koh,  D. Kosenkov,  L. Koulias,  T. Kowalczyk,  
 C. M. Krauter,  A. Kunitsa,  Ka Un Lao,  A. Laurent,  K. V. Lawler,  
 Joonho Lee,  D. Lefrancois,  S. Lehtola,  D. S. Levine,  Yi-Pei Li,  
 You-Sheng Lin,  Fenglai Liu,  E. Livshits,  A. Luenser,  P. Manohar,  
 E. Mansoor,  S. F. Manzer,  Shan-Ping Mao,  Yuezhi Mao,  N. Mardirossian,  
 A. V. Marenich,  T. Markovich,  L. A. Martinez-Martinez,  S. A. Maurer,  
 N. J. Mayhall,  S. C. McKenzie,  J.-M. Mewes,  A. F. Morrison,  
 J. W. Mullinax,  K. Nanda,  T. S. Nguyen-Beck,  R. Olivares-Amaya,  
 J. A. Parkhill,  T. M. Perrine,  F. Plasser,  P. Pokhilko,  S. Prager,  
 A. Prociuk,  E. Ramos,  D. R. Rehn,  F. Rob,  M. Schneider,  N. Sergueev,  
 S. M. Sharada,  S. Sharma,  D. W. Small,  T. Stauch,  T. Stein,  
 Yu-Chuan Su,  A. J. W. Thom,  A. Tkatchenko,  T. Tsuchimochi,  N. M. Tubman,  
 L. Vogt,  M. L. Vidal,  O. Vydrov,  M. A. Watson,  J. Wenzel,  
 M. de Wergifosse,  T. A. Wesolowski,  A. White,  J. Witte,  A. Yamada,  
 Jun Yang,  K. Yao,  S. Yeganeh,  S. R. Yost,  Zhi-Qiang You,  A. Zech,  
 Igor Ying Zhang,  Xing Zhang,  Yan Zhao,  Ying Zhu,  B. R. Brooks,  
 G. K. L. Chan,  C. J. Cramer,  M. S. Gordon,  W. J. Hehre,  A. Klamt,  
 M. W. Schmidt,  C. D. Sherrill,  D. G. Truhlar,  A. Aspuru-Guzik,  R. Baer,  
 A. T. Bell,  N. A. Besley,  Jeng-Da Chai,  A. E. DePrince, III,  
 R. A. DiStasio Jr.,  A. Dreuw,  B. D. Dunietz,  T. R. Furlani,  
 Chao-Ping Hsu,  Yousung Jung,  Jing Kong,  D. S. Lambrecht,  WanZhen Liang,  
 C. Ochsenfeld,  V. A. Rassolov,  L. V. Slipchenko,  J. E. Subotnik,  
 T. Van Voorhis,  J. M. Herbert,  A. I. Krylov,  P. M. W. Gill,  M. Head-Gordon

 Contributors to earlier versions of Q-Chem not listed above: 
 R. D. Adamson,  B. Austin,  J. Baker,  G. J. O. Beran,  K. Brandhorst,  
 S. T. Brown,  E. F. C. Byrd,  A. K. Chakraborty,  C.-L. Cheng,  
 Siu Hung Chien,  D. M. Chipman,  D. L. Crittenden,  H. Dachsel,  
 R. J. Doerksen,  A. D. Dutoi,  L. Fusti-Molnar,  W. A. Goddard III,  
 A. Golubeva-Zadorozhnaya,  S. R. Gwaltney,  G. Hawkins,  A. Heyden,  
 S. Hirata,  G. Kedziora,  F. J. Keil,  C. Kelley,  Jihan Kim,  R. A. King,  
 R. Z. Khaliullin,  P. P. Korambath,  W. Kurlancheek,  A. M. Lee,  M. S. Lee,  
 S. V. Levchenko,  Ching Yeh Lin,  D. Liotard,  R. C. Lochan,  I. Lotan,  
 P. E. Maslen,  N. Nair,  D. P. O'Neill,  D. Neuhauser,  E. Neuscamman,  
 C. M. Oana,  R. Olson,  B. Peters,  R. Peverati,  P. A. Pieniazek,  
 Y. M. Rhee,  J. Ritchie,  M. A. Rohrdanz,  E. Rosta,  N. J. Russ,  
 H. F. Schaefer III,  N. E. Schultz,  N. Shenvi,  A. C. Simmonett,  A. Sodt,  
 D. Stuck,  K. S. Thanthiriwatte,  V. Vanovschi,  Tao Wang,  A. Warshel,  
 C. F. Williams,  Q. Wu,  X. Xu,  W. Zhang

 Please cite Q-Chem as follows:
 Y. Shao et al., Mol. Phys. 113, 184-215 (2015)
 DOI: 10.1080/00268976.2014.952696

 Q-Chem 5.1.1 for Intel X86 EM64T Linux

 Parts of Q-Chem use Armadillo 8.300.2 (Tropical Shenanigans).
 http://arma.sourceforge.net/

 Q-Chem begins on Wed Nov 11 14:48:05 2020  

Host: n0096.mhg0
0

     Scratch files written to /local/scratch/users/yhljason/HCHO_wB97X-2TQZ_aug-cc-pcVQZ.inp20201111140429//
The previous job contains 0 fragments, simply inherited here
Input Ideriv = 0
Curr. Ideriv = -1
Max.  Ideriv = 0
Analytic post-HF gradients are not available with non-HF exchange
Input Ideriv = 0
Curr. Ideriv = 0
Max.  Ideriv = 0

Checking the input file for inconsistencies... 	...done.

--------------------------------------------------------------
User input:
--------------------------------------------------------------
$molecule
read
$end

$rem
jobtype sp
exchange wB97X-2(TQZ)
xc_grid 000099000590
basis aug-cc-pcVQZ

max_scf_cycles 200
thresh 14
scf_convergence 8
mem_total 128000
cc_memory 96000
cc_backend xm
mem_static 1500
symmetry false
sym_ignore true
scf_guess read
unrestricted false
scf_algorithm gdm
n_frozen_core 0
$end



$multipole_field
XX 0.0001
$end


--------------------------------------------------------------
 ----------------------------------------------------------------
             Standard Nuclear Orientation (Angstroms)
    I     Atom           X                Y                Z
 ----------------------------------------------------------------
    1      O       0.0000000000     0.0000000000     1.2050000000
    2      C       0.0000000000     0.0000000000     0.0000000000
    3      H       0.0000000000     0.9429000000    -0.5876000000
    4      H       0.0000000000    -0.9429000000    -0.5876000000
 ----------------------------------------------------------------
 Nuclear Repulsion Energy =    31.2557350034 hartrees
 There are        8 alpha and        8 beta electrons
 Requested basis set is aug-cc-pCVQZ
 There are 86 shells and 310 basis functions

 Total QAlloc Memory Limit 128000 MB
 Mega-Array Size      1467 MB
 MEM_STATIC part      1500 MB

                       Distance Matrix (Angstroms)
             O (  1)   C (  2)   H (  3)
   C (  2)  1.205000
   H (  3)  2.025457  1.111006
   H (  4)  2.025457  1.111006  1.885800
 
 Applying Cartesian multipole field
    Component          Value
    ---------          -----
     (2,0,0)        1.00000E-04
 A cutoff of  1.0D-14 yielded   3677 shell pairs
 There are     48249 function pairs (     75927 Cartesian)
 
 -------------------------------------------------------
 OpenMP Integral Computing Module                       
 Release: version 1.0, May 2013, Q-Chem Inc. Pittsburgh 
 -------------------------------------------------------
 Integral Job Info:
 Integral job number is                      11
 Integral operator is                         1
 short-range coefficients              63615800
 long-range coefficients              100000000
 Omega coefficients                         300
 if combine SR and LR in K                    1
 Integral screening is                        0
 Integral computing path is                   2
 max size of driver memory is           3200000
 size of driver memory is               1704330
 size of scratch memory is             18852824
 max col of scratch BK array              50625
 max len of scratch array in speh3         2114
 max len of scratch index in speh4           50
 max int batch size is                      520
 min int batch size is                       52
 fixed nKL is                                52
 max L of basis functions is                  4
 order of int derivative is                   0
 number of shells is                         86
 number of basis is                         388
 number of cartesian basis is               388
 number of contracted shell pairs          3677
 number of primitive shell pairs           7282
 maxK2 (contraction) of shell pair           81
 max number of K2 of shell pair               1
 max number of CS2 of shell pair            482
 max number of PS2 of shell pair            702
 mem total for path MDJ                  738190
 -------------------------------------------------------
 Smallest overlap matrix eigenvalue = 2.29E-05
 Guess MOs from SCF MO coefficient file

 -----------------------------------------------------------------------
  General SCF calculation program by
  Eric Jon Sundstrom, Paul Horn, Yuezhi Mao, Dmitri Zuev, Alec White,
  David Stuck, Shaama M.S., Shane Yost, Joonho Lee, David Small,
  Daniel Levine, Susi Lehtola, Hugh Burton, Evgeny Epifanovsky
 -----------------------------------------------------------------------
 Exchange:     0.6362 Hartree-Fock + 1.0000 wB97X-2(TQZ) + LR-HF
 Correlation:  1.0000 wB97X-2(TQZ)
 Using Euler-Maclaurin-Lebedev (99,590) quadrature formula
 using 8 threads for integral computing
 -------------------------------------------------------
 OpenMP Integral computing Module                
 Release: version 1.0, May 2013, Q-Chem Inc. Pittsburgh 
 -------------------------------------------------------
 using 8 threads for integral computing
 -------------------------------------------------------
 OpenMP Integral computing Module                
 Release: version 1.0, May 2013, Q-Chem Inc. Pittsburgh 
 -------------------------------------------------------
 -------------------------------------------------------
 OpenMP BLAS3 based DFT computing Module                
 Release: version 1.0, May 2013, Q-Chem Inc. Pittsburgh 
 -------------------------------------------------------
 A restricted SCF calculation will be
 performed using GDM
 SCF converges when RMS gradient is below 1.0e-08
 ---------------------------------------
  Cycle       Energy        RMS Gradient
 ---------------------------------------
    1    -114.2382488670      1.81e-04   Normal BFGS step
    2    -114.2382490736      5.09e-05   Normal BFGS step
    3    -114.2382490941      4.70e-05   Normal BFGS step
    4    -114.2382491005      5.88e-06   Normal BFGS step
    5    -114.2382491010      2.15e-06   Normal BFGS step
    6    -114.2382491011      1.24e-06   Normal BFGS step
    7    -114.2382491011      3.46e-07   Normal BFGS step
    8    -114.2382491011      4.47e-08   Normal BFGS step
    9    -114.2382491011      9.31e-09  Convergence criterion met
 ---------------------------------------
 SCF time:   CPU 2361.96s  wall 298.00s 
 SCF   energy in the final basis set =     -114.2382491011
 Total energy in the final basis set =     -114.2382491011
 
 Components of the MP2 correlation energy:
        aaaa  correlation energy =        -0.0320009357 au
        abab  correlation energy =        -0.2035673136 au
        bbbb  correlation energy =        -0.0320009357 au
        non-Brillouin singles    =        -0.0000000000 au

 Total  MP2   correlation energy =                    -0.26756919 au
        MP2         total energy =                  -114.50581829 au
 
 --------------------------------------------------------------
 
                    Orbital Energies (a.u.)
 --------------------------------------------------------------
 
 Alpha MOs
 -- Occupied --
-19.995 -10.922  -1.311  -0.821  -0.660  -0.616  -0.528  -0.417
 -- Virtual --
  0.025   0.040   0.051   0.070   0.097   0.117   0.121   0.149
  0.172   0.177   0.183   0.206   0.207   0.226   0.256   0.275
  0.277   0.298   0.299   0.315   0.320   0.346   0.395   0.399
  0.420   0.438   0.484   0.514   0.538   0.542   0.554   0.601
  0.612   0.643   0.650   0.658   0.662   0.708   0.718   0.726
  0.726   0.742   0.754   0.757   0.786   0.807   0.826   0.859
  0.862   0.918   0.938   0.957   0.993   1.030   1.049   1.060
  1.093   1.126   1.151   1.263   1.264   1.349   1.364   1.403
  1.442   1.485   1.489   1.494   1.535   1.537   1.545   1.591
  1.594   1.601   1.634   1.667   1.697   1.766   1.780   1.791
  1.797   1.844   1.859   1.864   1.911   1.929   1.936   1.970
  1.987   1.999   2.027   2.028   2.068   2.088   2.092   2.129
  2.141   2.175   2.257   2.325   2.405   2.411   2.421   2.422
  2.498   2.567   2.586   2.685   2.705   2.712   2.716   2.730
  2.775   2.833   2.850   2.890   2.990   3.023   3.155   3.253
  3.297   3.329   3.408   3.459   3.618   3.634   3.729   3.762
  3.775   3.797   3.873   3.884   3.926   3.951   3.966   4.061
  4.109   4.130   4.139   4.226   4.244   4.256   4.260   4.268
  4.291   4.333   4.452   4.512   4.519   4.576   4.596   4.638
  4.768   4.827   4.991   5.070   5.256   5.269   5.326   5.424
  5.613   5.652   5.677   5.904   5.930   5.984   6.070   6.133
  6.137   6.210   6.294   6.427   6.493   6.644   6.667   6.716
  6.751   6.821   6.830   6.930   7.016   7.023   7.051   7.194
  7.296   7.456   7.587   7.686   7.777   8.064   8.098   8.121
  8.157   8.159   8.357   8.373   8.386   8.418   8.538   8.766
  8.913   8.998   9.033   9.134   9.262   9.477   9.505   9.571
  9.928   9.933   9.974   9.978  10.085  10.188  10.326  10.459
 10.567  10.576  10.590  10.769  10.898  10.919  10.990  11.025
 11.106  11.277  11.437  11.476  11.823  11.845  11.932  12.352
 12.405  12.466  12.565  12.836  12.995  13.036  13.194  13.346
 13.705  14.463  15.084  18.003  19.348  20.948  21.300  26.667
 26.769  27.254  27.623  27.829  33.508  33.814  34.698  37.501
 46.836  46.868  47.214  47.585  48.039  63.843  66.481  67.675
 67.995  98.220  98.226  98.239  98.241  98.246  98.277  98.296
102.827 102.830 102.879 102.880 102.883 102.920 102.958 114.783
114.822 115.057 115.263 115.362 116.414 116.648 117.341 123.159
197.816 197.832 198.019 198.215 198.438 215.746 224.399 225.383
225.645 394.265 394.463 395.021 508.483 893.308
 --------------------------------------------------------------
 
          Ground-State Mulliken Net Atomic Charges

     Atom                 Charge (a.u.)
  ----------------------------------------
      1 O                    -0.506296
      2 C                    -0.314760
      3 H                     0.410528
      4 H                     0.410528
  ----------------------------------------
  Sum of atomic charges =     0.000000

 -----------------------------------------------------------------
                    Cartesian Multipole Moments
 -----------------------------------------------------------------
    Charge (ESU x 10^10)
                 0.0000
    Dipole Moment (Debye)
         X      -0.0000      Y      -0.0000      Z      -2.6656
       Tot       2.6656
    Quadrupole Moments (Debye-Ang)
        XX     -11.8389     XY      -0.0000     YY     -11.5454
        XZ      -0.0000     YZ       0.0000     ZZ     -15.0342
    Octopole Moments (Debye-Ang^2)
       XXX      -0.0000    XXY      -0.0000    XYY       0.0000
       YYY      -0.0000    XXZ      -5.7478    XYZ       0.0000
       YYZ      -6.8842    XZZ       0.0000    YZZ      -0.0000
       ZZZ     -21.4249
    Hexadecapole Moments (Debye-Ang^3)
      XXXX     -10.8023   XXXY      -0.0000   XXYY      -5.2168
      XYYY      -0.0000   YYYY     -18.0589   XXXZ      -0.0000
      XXYZ       0.0000   XYYZ      -0.0000   YYYZ       0.0000
      XXZZ     -12.2277   XYZZ      -0.0000   YYZZ     -14.2998
      XZZZ      -0.0000   YZZZ       0.0000   ZZZZ     -67.7089
 -----------------------------------------------------------------
Archival summary:
1\1\n0096.mhg0\SP\ProcedureUnspecified\BasisUnspecified\112\yhljason\WedNov1114:58:442020WedNov1114:58:442020\0\\#,ProcedureUnspecified,BasisUnspecified,\\0,1\C\H,1,1.11101\H,1,1.11101,2,116.139\O,1,1.205,2,121.93,3,-180,0\\\@

 Total job time:  638.51s(wall), 5054.87s(cpu) 
 Wed Nov 11 14:58:44 2020

        *************************************************************
        *                                                           *
        *  Thank you very much for using Q-Chem.  Have a nice day.  *
        *                                                           *
        *************************************************************


 
User input: 3 of 7 
 
Q-Chem Developer Version!
                  Welcome to Q-Chem
     A Quantum Leap Into The Future Of Chemistry


 Q-Chem 5.1, Q-Chem, Inc., Pleasanton, CA (2018)

 Yihan Shao,  Zhengting Gan,  E. Epifanovsky,  A. T. B. Gilbert,  M. Wormit,  
 J. Kussmann,  A. W. Lange,  A. Behn,  Jia Deng,  Xintian Feng,  D. Ghosh,  
 M. Goldey,  P. R. Horn,  L. D. Jacobson,  I. Kaliman,  T. Kus,  A. Landau,  
 Jie Liu,  E. I. Proynov,  R. M. Richard,  R. P. Steele,  E. J. Sundstrom,  
 H. L. Woodcock III,  P. M. Zimmerman,  D. Zuev,  B. Albrecht,  E. Alguire,  
 S. A. Baeppler,  D. Barton,  Z. Benda,  Y. A. Bernard,  E. J. Berquist,  
 K. B. Bravaya,  H. Burton,  D. Casanova,  Chun-Min Chang,  Yunqing Chen,  
 A. Chien,  K. D. Closser,  M. P. Coons,  S. Coriani,  S. Dasgupta,  
 A. L. Dempwolff,  M. Diedenhofen,  Hainam Do,  R. G. Edgar,  Po-Tung Fang,  
 S. Faraji,  S. Fatehi,  Qingguo Feng,  K. D. Fenk,  J. Fosso-Tande,  
 Qinghui Ge,  A. Ghysels,  G. Gidofalvi,  J. Gomes,  J. Gonthier,  A. Gunina,  
 D. Hait,  M. W. D. Hanson-Heine,  P. H. P. Harbach,  A. W. Hauser,  
 J. E. Herr,  E. G. Hohenstein,  Z. C. Holden,  Kerwin Hui,  B. C. Huynh,  
 T.-C. Jagau,  Hyunjun Ji,  B. Kaduk,  K. Khistyaev,  Jaehoon Kim,  
 P. Klunzinger,  K. Koh,  D. Kosenkov,  L. Koulias,  T. Kowalczyk,  
 C. M. Krauter,  A. Kunitsa,  Ka Un Lao,  A. Laurent,  K. V. Lawler,  
 Joonho Lee,  D. Lefrancois,  S. Lehtola,  D. S. Levine,  Yi-Pei Li,  
 You-Sheng Lin,  Fenglai Liu,  E. Livshits,  A. Luenser,  P. Manohar,  
 E. Mansoor,  S. F. Manzer,  Shan-Ping Mao,  Yuezhi Mao,  N. Mardirossian,  
 A. V. Marenich,  T. Markovich,  L. A. Martinez-Martinez,  S. A. Maurer,  
 N. J. Mayhall,  S. C. McKenzie,  J.-M. Mewes,  A. F. Morrison,  
 J. W. Mullinax,  K. Nanda,  T. S. Nguyen-Beck,  R. Olivares-Amaya,  
 J. A. Parkhill,  T. M. Perrine,  F. Plasser,  P. Pokhilko,  S. Prager,  
 A. Prociuk,  E. Ramos,  D. R. Rehn,  F. Rob,  M. Schneider,  N. Sergueev,  
 S. M. Sharada,  S. Sharma,  D. W. Small,  T. Stauch,  T. Stein,  
 Yu-Chuan Su,  A. J. W. Thom,  A. Tkatchenko,  T. Tsuchimochi,  N. M. Tubman,  
 L. Vogt,  M. L. Vidal,  O. Vydrov,  M. A. Watson,  J. Wenzel,  
 M. de Wergifosse,  T. A. Wesolowski,  A. White,  J. Witte,  A. Yamada,  
 Jun Yang,  K. Yao,  S. Yeganeh,  S. R. Yost,  Zhi-Qiang You,  A. Zech,  
 Igor Ying Zhang,  Xing Zhang,  Yan Zhao,  Ying Zhu,  B. R. Brooks,  
 G. K. L. Chan,  C. J. Cramer,  M. S. Gordon,  W. J. Hehre,  A. Klamt,  
 M. W. Schmidt,  C. D. Sherrill,  D. G. Truhlar,  A. Aspuru-Guzik,  R. Baer,  
 A. T. Bell,  N. A. Besley,  Jeng-Da Chai,  A. E. DePrince, III,  
 R. A. DiStasio Jr.,  A. Dreuw,  B. D. Dunietz,  T. R. Furlani,  
 Chao-Ping Hsu,  Yousung Jung,  Jing Kong,  D. S. Lambrecht,  WanZhen Liang,  
 C. Ochsenfeld,  V. A. Rassolov,  L. V. Slipchenko,  J. E. Subotnik,  
 T. Van Voorhis,  J. M. Herbert,  A. I. Krylov,  P. M. W. Gill,  M. Head-Gordon

 Contributors to earlier versions of Q-Chem not listed above: 
 R. D. Adamson,  B. Austin,  J. Baker,  G. J. O. Beran,  K. Brandhorst,  
 S. T. Brown,  E. F. C. Byrd,  A. K. Chakraborty,  C.-L. Cheng,  
 Siu Hung Chien,  D. M. Chipman,  D. L. Crittenden,  H. Dachsel,  
 R. J. Doerksen,  A. D. Dutoi,  L. Fusti-Molnar,  W. A. Goddard III,  
 A. Golubeva-Zadorozhnaya,  S. R. Gwaltney,  G. Hawkins,  A. Heyden,  
 S. Hirata,  G. Kedziora,  F. J. Keil,  C. Kelley,  Jihan Kim,  R. A. King,  
 R. Z. Khaliullin,  P. P. Korambath,  W. Kurlancheek,  A. M. Lee,  M. S. Lee,  
 S. V. Levchenko,  Ching Yeh Lin,  D. Liotard,  R. C. Lochan,  I. Lotan,  
 P. E. Maslen,  N. Nair,  D. P. O'Neill,  D. Neuhauser,  E. Neuscamman,  
 C. M. Oana,  R. Olson,  B. Peters,  R. Peverati,  P. A. Pieniazek,  
 Y. M. Rhee,  J. Ritchie,  M. A. Rohrdanz,  E. Rosta,  N. J. Russ,  
 H. F. Schaefer III,  N. E. Schultz,  N. Shenvi,  A. C. Simmonett,  A. Sodt,  
 D. Stuck,  K. S. Thanthiriwatte,  V. Vanovschi,  Tao Wang,  A. Warshel,  
 C. F. Williams,  Q. Wu,  X. Xu,  W. Zhang

 Please cite Q-Chem as follows:
 Y. Shao et al., Mol. Phys. 113, 184-215 (2015)
 DOI: 10.1080/00268976.2014.952696

 Q-Chem 5.1.1 for Intel X86 EM64T Linux

 Parts of Q-Chem use Armadillo 8.300.2 (Tropical Shenanigans).
 http://arma.sourceforge.net/

 Q-Chem begins on Wed Nov 11 14:58:44 2020  

Host: n0096.mhg0
0

     Scratch files written to /local/scratch/users/yhljason/HCHO_wB97X-2TQZ_aug-cc-pcVQZ.inp20201111140429//
The previous job contains 0 fragments, simply inherited here
Input Ideriv = 0
Curr. Ideriv = -1
Max.  Ideriv = 0
Analytic post-HF gradients are not available with non-HF exchange
Input Ideriv = 0
Curr. Ideriv = 0
Max.  Ideriv = 0

Checking the input file for inconsistencies... 	...done.

--------------------------------------------------------------
User input:
--------------------------------------------------------------
$molecule
read
$end

$rem
jobtype sp
exchange wB97X-2(TQZ)
xc_grid 000099000590
basis aug-cc-pcVQZ

max_scf_cycles 200
thresh 14
scf_convergence 8
mem_total 128000
cc_memory 96000
cc_backend xm
mem_static 1500
symmetry false
sym_ignore true
scf_guess read
unrestricted false
scf_algorithm gdm
n_frozen_core 0
$end



$multipole_field
XX -0.0001
$end


--------------------------------------------------------------
 ----------------------------------------------------------------
             Standard Nuclear Orientation (Angstroms)
    I     Atom           X                Y                Z
 ----------------------------------------------------------------
    1      O       0.0000000000     0.0000000000     1.2050000000
    2      C       0.0000000000     0.0000000000     0.0000000000
    3      H       0.0000000000     0.9429000000    -0.5876000000
    4      H       0.0000000000    -0.9429000000    -0.5876000000
 ----------------------------------------------------------------
 Nuclear Repulsion Energy =    31.2557350034 hartrees
 There are        8 alpha and        8 beta electrons
 Requested basis set is aug-cc-pCVQZ
 There are 86 shells and 310 basis functions

 Total QAlloc Memory Limit 128000 MB
 Mega-Array Size      1467 MB
 MEM_STATIC part      1500 MB

                       Distance Matrix (Angstroms)
             O (  1)   C (  2)   H (  3)
   C (  2)  1.205000
   H (  3)  2.025457  1.111006
   H (  4)  2.025457  1.111006  1.885800
 
 Applying Cartesian multipole field
    Component          Value
    ---------          -----
     (2,0,0)       -1.00000E-04
 A cutoff of  1.0D-14 yielded   3677 shell pairs
 There are     48249 function pairs (     75927 Cartesian)
 
 -------------------------------------------------------
 OpenMP Integral Computing Module                       
 Release: version 1.0, May 2013, Q-Chem Inc. Pittsburgh 
 -------------------------------------------------------
 Integral Job Info:
 Integral job number is                      11
 Integral operator is                         1
 short-range coefficients              63615800
 long-range coefficients              100000000
 Omega coefficients                         300
 if combine SR and LR in K                    1
 Integral screening is                        0
 Integral computing path is                   2
 max size of driver memory is           3200000
 size of driver memory is               1704330
 size of scratch memory is             18852824
 max col of scratch BK array              50625
 max len of scratch array in speh3         2114
 max len of scratch index in speh4           50
 max int batch size is                      520
 min int batch size is                       52
 fixed nKL is                                52
 max L of basis functions is                  4
 order of int derivative is                   0
 number of shells is                         86
 number of basis is                         388
 number of cartesian basis is               388
 number of contracted shell pairs          3677
 number of primitive shell pairs           7282
 maxK2 (contraction) of shell pair           81
 max number of K2 of shell pair               1
 max number of CS2 of shell pair            482
 max number of PS2 of shell pair            702
 mem total for path MDJ                  738190
 -------------------------------------------------------
 Smallest overlap matrix eigenvalue = 2.29E-05
 Guess MOs from SCF MO coefficient file

 -----------------------------------------------------------------------
  General SCF calculation program by
  Eric Jon Sundstrom, Paul Horn, Yuezhi Mao, Dmitri Zuev, Alec White,
  David Stuck, Shaama M.S., Shane Yost, Joonho Lee, David Small,
  Daniel Levine, Susi Lehtola, Hugh Burton, Evgeny Epifanovsky
 -----------------------------------------------------------------------
 Exchange:     0.6362 Hartree-Fock + 1.0000 wB97X-2(TQZ) + LR-HF
 Correlation:  1.0000 wB97X-2(TQZ)
 Using Euler-Maclaurin-Lebedev (99,590) quadrature formula
 using 8 threads for integral computing
 -------------------------------------------------------
 OpenMP Integral computing Module                
 Release: version 1.0, May 2013, Q-Chem Inc. Pittsburgh 
 -------------------------------------------------------
 using 8 threads for integral computing
 -------------------------------------------------------
 OpenMP Integral computing Module                
 Release: version 1.0, May 2013, Q-Chem Inc. Pittsburgh 
 -------------------------------------------------------
 -------------------------------------------------------
 OpenMP BLAS3 based DFT computing Module                
 Release: version 1.0, May 2013, Q-Chem Inc. Pittsburgh 
 -------------------------------------------------------
 A restricted SCF calculation will be
 performed using GDM
 SCF converges when RMS gradient is below 1.0e-08
 ---------------------------------------
  Cycle       Energy        RMS Gradient
 ---------------------------------------
    1    -114.2364887122      3.58e-04   Normal BFGS step
    2    -114.2364895390      1.03e-04   Normal BFGS step
    3    -114.2364896204      8.94e-05   Normal BFGS step
    4    -114.2364896462      1.17e-05   Normal BFGS step
    5    -114.2364896481      4.45e-06   Normal BFGS step
    6    -114.2364896484      2.35e-06   Normal BFGS step
    7    -114.2364896484      6.73e-07   Normal BFGS step
    8    -114.2364896484      9.01e-08   Normal BFGS step
    9    -114.2364896484      1.85e-08   Normal BFGS step
   10    -114.2364896484      2.96e-09  Convergence criterion met
 ---------------------------------------
 SCF time:   CPU 2635.38s  wall 333.00s 
 SCF   energy in the final basis set =     -114.2364896484
 Total energy in the final basis set =     -114.2364896484
 
 Components of the MP2 correlation energy:
        aaaa  correlation energy =        -0.0319996277 au
        abab  correlation energy =        -0.2035716619 au
        bbbb  correlation energy =        -0.0319996277 au
        non-Brillouin singles    =        -0.0000000000 au

 Total  MP2   correlation energy =                    -0.26757092 au
        MP2         total energy =                  -114.50406057 au
 
 --------------------------------------------------------------
 
                    Orbital Energies (a.u.)
 --------------------------------------------------------------
 
 Alpha MOs
 -- Occupied --
-19.995 -10.922  -1.310  -0.821  -0.659  -0.616  -0.527  -0.416
 -- Virtual --
  0.029   0.043   0.055   0.073   0.101   0.120   0.124   0.150
  0.173   0.181   0.185   0.208   0.209   0.228   0.260   0.276
  0.279   0.300   0.302   0.317   0.322   0.347   0.396   0.400
  0.423   0.440   0.486   0.516   0.538   0.544   0.556   0.603
  0.613   0.645   0.651   0.659   0.664   0.709   0.719   0.727
  0.728   0.743   0.755   0.758   0.787   0.809   0.827   0.860
  0.863   0.919   0.939   0.958   0.995   1.031   1.051   1.061
  1.094   1.127   1.152   1.264   1.265   1.350   1.365   1.403
  1.442   1.486   1.490   1.494   1.536   1.538   1.546   1.592
  1.595   1.602   1.634   1.668   1.698   1.766   1.781   1.792
  1.798   1.845   1.860   1.865   1.912   1.930   1.936   1.970
  1.988   2.000   2.027   2.028   2.069   2.088   2.093   2.130
  2.142   2.176   2.257   2.326   2.405   2.412   2.422   2.423
  2.499   2.568   2.587   2.686   2.705   2.713   2.716   2.731
  2.776   2.833   2.851   2.891   2.991   3.023   3.156   3.253
  3.298   3.329   3.409   3.459   3.618   3.635   3.729   3.763
  3.775   3.797   3.873   3.884   3.926   3.952   3.967   4.061
  4.110   4.130   4.139   4.226   4.245   4.257   4.260   4.268
  4.292   4.333   4.453   4.512   4.520   4.576   4.597   4.638
  4.768   4.827   4.991   5.071   5.256   5.269   5.327   5.425
  5.613   5.652   5.677   5.904   5.930   5.984   6.071   6.133
  6.138   6.210   6.295   6.428   6.493   6.644   6.667   6.717
  6.751   6.822   6.831   6.931   7.017   7.024   7.052   7.194
  7.296   7.457   7.588   7.687   7.777   8.064   8.098   8.122
  8.157   8.159   8.357   8.374   8.387   8.419   8.538   8.766
  8.913   8.998   9.033   9.134   9.263   9.477   9.506   9.571
  9.928   9.933   9.975   9.979  10.085  10.188  10.326  10.459
 10.568  10.577  10.590  10.770  10.899  10.919  10.990  11.026
 11.106  11.277  11.437  11.476  11.823  11.846  11.933  12.353
 12.406  12.466  12.565  12.836  12.996  13.037  13.195  13.347
 13.706  14.464  15.084  18.003  19.348  20.949  21.300  26.668
 26.769  27.255  27.623  27.830  33.508  33.814  34.698  37.501
 46.837  46.868  47.215  47.586  48.039  63.843  66.482  67.676
 67.995  98.220  98.227  98.239  98.242  98.247  98.278  98.296
102.828 102.831 102.880 102.880 102.884 102.920 102.958 114.783
114.823 115.057 115.263 115.362 116.415 116.649 117.342 123.160
197.817 197.833 198.019 198.215 198.438 215.747 224.399 225.383
225.645 394.265 394.464 395.022 508.484 893.308
 --------------------------------------------------------------
 
          Ground-State Mulliken Net Atomic Charges

     Atom                 Charge (a.u.)
  ----------------------------------------
      1 O                    -0.508500
      2 C                    -0.309347
      3 H                     0.408924
      4 H                     0.408924
  ----------------------------------------
  Sum of atomic charges =     0.000000

 -----------------------------------------------------------------
                    Cartesian Multipole Moments
 -----------------------------------------------------------------
    Charge (ESU x 10^10)
                 0.0000
    Dipole Moment (Debye)
         X       0.0000      Y      -0.0000      Z      -2.6664
       Tot       2.6664
    Quadrupole Moments (Debye-Ang)
        XX     -11.8263     XY       0.0000     YY     -11.5433
        XZ       0.0000     YZ       0.0000     ZZ     -15.0343
    Octopole Moments (Debye-Ang^2)
       XXX       0.0000    XXY       0.0000    XYY       0.0000
       YYY       0.0000    XXZ      -5.7436    XYZ      -0.0000
       YYZ      -6.8832    XZZ       0.0000    YZZ      -0.0000
       ZZZ     -21.4253
    Hexadecapole Moments (Debye-Ang^3)
      XXXX     -10.7594   XXXY       0.0000   XXYY      -5.2064
      XYYY       0.0000   YYYY     -18.0490   XXXZ       0.0000
      XXYZ       0.0000   XYYZ       0.0000   YYYZ       0.0000
      XXZZ     -12.2135   XYZZ       0.0000   YYZZ     -14.2961
      XZZZ       0.0000   YZZZ       0.0000   ZZZZ     -67.7017
 -----------------------------------------------------------------
Archival summary:
1\1\n0096.mhg0\SP\ProcedureUnspecified\BasisUnspecified\112\yhljason\WedNov1115:09:452020WedNov1115:09:452020\0\\#,ProcedureUnspecified,BasisUnspecified,\\0,1\C\H,1,1.11101\H,1,1.11101,2,116.139\O,1,1.205,2,121.93,3,-180,0\\\@

 Total job time:  661.43s(wall), 5234.40s(cpu) 
 Wed Nov 11 15:09:45 2020

        *************************************************************
        *                                                           *
        *  Thank you very much for using Q-Chem.  Have a nice day.  *
        *                                                           *
        *************************************************************


 
User input: 4 of 7 
 
Q-Chem Developer Version!
                  Welcome to Q-Chem
     A Quantum Leap Into The Future Of Chemistry


 Q-Chem 5.1, Q-Chem, Inc., Pleasanton, CA (2018)

 Yihan Shao,  Zhengting Gan,  E. Epifanovsky,  A. T. B. Gilbert,  M. Wormit,  
 J. Kussmann,  A. W. Lange,  A. Behn,  Jia Deng,  Xintian Feng,  D. Ghosh,  
 M. Goldey,  P. R. Horn,  L. D. Jacobson,  I. Kaliman,  T. Kus,  A. Landau,  
 Jie Liu,  E. I. Proynov,  R. M. Richard,  R. P. Steele,  E. J. Sundstrom,  
 H. L. Woodcock III,  P. M. Zimmerman,  D. Zuev,  B. Albrecht,  E. Alguire,  
 S. A. Baeppler,  D. Barton,  Z. Benda,  Y. A. Bernard,  E. J. Berquist,  
 K. B. Bravaya,  H. Burton,  D. Casanova,  Chun-Min Chang,  Yunqing Chen,  
 A. Chien,  K. D. Closser,  M. P. Coons,  S. Coriani,  S. Dasgupta,  
 A. L. Dempwolff,  M. Diedenhofen,  Hainam Do,  R. G. Edgar,  Po-Tung Fang,  
 S. Faraji,  S. Fatehi,  Qingguo Feng,  K. D. Fenk,  J. Fosso-Tande,  
 Qinghui Ge,  A. Ghysels,  G. Gidofalvi,  J. Gomes,  J. Gonthier,  A. Gunina,  
 D. Hait,  M. W. D. Hanson-Heine,  P. H. P. Harbach,  A. W. Hauser,  
 J. E. Herr,  E. G. Hohenstein,  Z. C. Holden,  Kerwin Hui,  B. C. Huynh,  
 T.-C. Jagau,  Hyunjun Ji,  B. Kaduk,  K. Khistyaev,  Jaehoon Kim,  
 P. Klunzinger,  K. Koh,  D. Kosenkov,  L. Koulias,  T. Kowalczyk,  
 C. M. Krauter,  A. Kunitsa,  Ka Un Lao,  A. Laurent,  K. V. Lawler,  
 Joonho Lee,  D. Lefrancois,  S. Lehtola,  D. S. Levine,  Yi-Pei Li,  
 You-Sheng Lin,  Fenglai Liu,  E. Livshits,  A. Luenser,  P. Manohar,  
 E. Mansoor,  S. F. Manzer,  Shan-Ping Mao,  Yuezhi Mao,  N. Mardirossian,  
 A. V. Marenich,  T. Markovich,  L. A. Martinez-Martinez,  S. A. Maurer,  
 N. J. Mayhall,  S. C. McKenzie,  J.-M. Mewes,  A. F. Morrison,  
 J. W. Mullinax,  K. Nanda,  T. S. Nguyen-Beck,  R. Olivares-Amaya,  
 J. A. Parkhill,  T. M. Perrine,  F. Plasser,  P. Pokhilko,  S. Prager,  
 A. Prociuk,  E. Ramos,  D. R. Rehn,  F. Rob,  M. Schneider,  N. Sergueev,  
 S. M. Sharada,  S. Sharma,  D. W. Small,  T. Stauch,  T. Stein,  
 Yu-Chuan Su,  A. J. W. Thom,  A. Tkatchenko,  T. Tsuchimochi,  N. M. Tubman,  
 L. Vogt,  M. L. Vidal,  O. Vydrov,  M. A. Watson,  J. Wenzel,  
 M. de Wergifosse,  T. A. Wesolowski,  A. White,  J. Witte,  A. Yamada,  
 Jun Yang,  K. Yao,  S. Yeganeh,  S. R. Yost,  Zhi-Qiang You,  A. Zech,  
 Igor Ying Zhang,  Xing Zhang,  Yan Zhao,  Ying Zhu,  B. R. Brooks,  
 G. K. L. Chan,  C. J. Cramer,  M. S. Gordon,  W. J. Hehre,  A. Klamt,  
 M. W. Schmidt,  C. D. Sherrill,  D. G. Truhlar,  A. Aspuru-Guzik,  R. Baer,  
 A. T. Bell,  N. A. Besley,  Jeng-Da Chai,  A. E. DePrince, III,  
 R. A. DiStasio Jr.,  A. Dreuw,  B. D. Dunietz,  T. R. Furlani,  
 Chao-Ping Hsu,  Yousung Jung,  Jing Kong,  D. S. Lambrecht,  WanZhen Liang,  
 C. Ochsenfeld,  V. A. Rassolov,  L. V. Slipchenko,  J. E. Subotnik,  
 T. Van Voorhis,  J. M. Herbert,  A. I. Krylov,  P. M. W. Gill,  M. Head-Gordon

 Contributors to earlier versions of Q-Chem not listed above: 
 R. D. Adamson,  B. Austin,  J. Baker,  G. J. O. Beran,  K. Brandhorst,  
 S. T. Brown,  E. F. C. Byrd,  A. K. Chakraborty,  C.-L. Cheng,  
 Siu Hung Chien,  D. M. Chipman,  D. L. Crittenden,  H. Dachsel,  
 R. J. Doerksen,  A. D. Dutoi,  L. Fusti-Molnar,  W. A. Goddard III,  
 A. Golubeva-Zadorozhnaya,  S. R. Gwaltney,  G. Hawkins,  A. Heyden,  
 S. Hirata,  G. Kedziora,  F. J. Keil,  C. Kelley,  Jihan Kim,  R. A. King,  
 R. Z. Khaliullin,  P. P. Korambath,  W. Kurlancheek,  A. M. Lee,  M. S. Lee,  
 S. V. Levchenko,  Ching Yeh Lin,  D. Liotard,  R. C. Lochan,  I. Lotan,  
 P. E. Maslen,  N. Nair,  D. P. O'Neill,  D. Neuhauser,  E. Neuscamman,  
 C. M. Oana,  R. Olson,  B. Peters,  R. Peverati,  P. A. Pieniazek,  
 Y. M. Rhee,  J. Ritchie,  M. A. Rohrdanz,  E. Rosta,  N. J. Russ,  
 H. F. Schaefer III,  N. E. Schultz,  N. Shenvi,  A. C. Simmonett,  A. Sodt,  
 D. Stuck,  K. S. Thanthiriwatte,  V. Vanovschi,  Tao Wang,  A. Warshel,  
 C. F. Williams,  Q. Wu,  X. Xu,  W. Zhang

 Please cite Q-Chem as follows:
 Y. Shao et al., Mol. Phys. 113, 184-215 (2015)
 DOI: 10.1080/00268976.2014.952696

 Q-Chem 5.1.1 for Intel X86 EM64T Linux

 Parts of Q-Chem use Armadillo 8.300.2 (Tropical Shenanigans).
 http://arma.sourceforge.net/

 Q-Chem begins on Wed Nov 11 15:09:46 2020  

Host: n0096.mhg0
0

     Scratch files written to /local/scratch/users/yhljason/HCHO_wB97X-2TQZ_aug-cc-pcVQZ.inp20201111140429//
The previous job contains 0 fragments, simply inherited here
Input Ideriv = 0
Curr. Ideriv = -1
Max.  Ideriv = 0
Analytic post-HF gradients are not available with non-HF exchange
Input Ideriv = 0
Curr. Ideriv = 0
Max.  Ideriv = 0

Checking the input file for inconsistencies... 	...done.

--------------------------------------------------------------
User input:
--------------------------------------------------------------
$molecule
read
$end

$rem
jobtype sp
exchange wB97X-2(TQZ)
xc_grid 000099000590
basis aug-cc-pcVQZ

max_scf_cycles 200
thresh 14
scf_convergence 8
mem_total 128000
cc_memory 96000
cc_backend xm
mem_static 1500
symmetry false
sym_ignore true
scf_guess read
unrestricted false
scf_algorithm gdm
n_frozen_core 0
$end



$multipole_field
YY 0.0001
$end


--------------------------------------------------------------
 ----------------------------------------------------------------
             Standard Nuclear Orientation (Angstroms)
    I     Atom           X                Y                Z
 ----------------------------------------------------------------
    1      O       0.0000000000     0.0000000000     1.2050000000
    2      C       0.0000000000     0.0000000000     0.0000000000
    3      H       0.0000000000     0.9429000000    -0.5876000000
    4      H       0.0000000000    -0.9429000000    -0.5876000000
 ----------------------------------------------------------------
 Nuclear Repulsion Energy =    31.2557350034 hartrees
 There are        8 alpha and        8 beta electrons
 Requested basis set is aug-cc-pCVQZ
 There are 86 shells and 310 basis functions

 Total QAlloc Memory Limit 128000 MB
 Mega-Array Size      1467 MB
 MEM_STATIC part      1500 MB

                       Distance Matrix (Angstroms)
             O (  1)   C (  2)   H (  3)
   C (  2)  1.205000
   H (  3)  2.025457  1.111006
   H (  4)  2.025457  1.111006  1.885800
 
 Applying Cartesian multipole field
    Component          Value
    ---------          -----
     (0,2,0)        1.00000E-04
 Nucleus-field energy     =     0.0006349785 hartrees
 A cutoff of  1.0D-14 yielded   3677 shell pairs
 There are     48249 function pairs (     75927 Cartesian)
 
 -------------------------------------------------------
 OpenMP Integral Computing Module                       
 Release: version 1.0, May 2013, Q-Chem Inc. Pittsburgh 
 -------------------------------------------------------
 Integral Job Info:
 Integral job number is                      11
 Integral operator is                         1
 short-range coefficients              63615800
 long-range coefficients              100000000
 Omega coefficients                         300
 if combine SR and LR in K                    1
 Integral screening is                        0
 Integral computing path is                   2
 max size of driver memory is           3200000
 size of driver memory is               1704330
 size of scratch memory is             18852824
 max col of scratch BK array              50625
 max len of scratch array in speh3         2114
 max len of scratch index in speh4           50
 max int batch size is                      520
 min int batch size is                       52
 fixed nKL is                                52
 max L of basis functions is                  4
 order of int derivative is                   0
 number of shells is                         86
 number of basis is                         388
 number of cartesian basis is               388
 number of contracted shell pairs          3677
 number of primitive shell pairs           7282
 maxK2 (contraction) of shell pair           81
 max number of K2 of shell pair               1
 max number of CS2 of shell pair            482
 max number of PS2 of shell pair            702
 mem total for path MDJ                  738190
 -------------------------------------------------------
 Smallest overlap matrix eigenvalue = 2.29E-05
 Guess MOs from SCF MO coefficient file

 -----------------------------------------------------------------------
  General SCF calculation program by
  Eric Jon Sundstrom, Paul Horn, Yuezhi Mao, Dmitri Zuev, Alec White,
  David Stuck, Shaama M.S., Shane Yost, Joonho Lee, David Small,
  Daniel Levine, Susi Lehtola, Hugh Burton, Evgeny Epifanovsky
 -----------------------------------------------------------------------
 Exchange:     0.6362 Hartree-Fock + 1.0000 wB97X-2(TQZ) + LR-HF
 Correlation:  1.0000 wB97X-2(TQZ)
 Using Euler-Maclaurin-Lebedev (99,590) quadrature formula
 using 8 threads for integral computing
 -------------------------------------------------------
 OpenMP Integral computing Module                
 Release: version 1.0, May 2013, Q-Chem Inc. Pittsburgh 
 -------------------------------------------------------
 using 8 threads for integral computing
 -------------------------------------------------------
 OpenMP Integral computing Module                
 Release: version 1.0, May 2013, Q-Chem Inc. Pittsburgh 
 -------------------------------------------------------
 -------------------------------------------------------
 OpenMP BLAS3 based DFT computing Module                
 Release: version 1.0, May 2013, Q-Chem Inc. Pittsburgh 
 -------------------------------------------------------
 A restricted SCF calculation will be
 performed using GDM
 SCF converges when RMS gradient is below 1.0e-08
 ---------------------------------------
  Cycle       Energy        RMS Gradient
 ---------------------------------------
    1    -114.2382271223      3.18e-04   Normal BFGS step
    2    -114.2382278142      7.41e-05   Normal BFGS step
    3    -114.2382278963      5.85e-05   Normal BFGS step
    4    -114.2382279059      1.74e-05   Normal BFGS step
    5    -114.2382279086      1.78e-06   Normal BFGS step
    6    -114.2382279087      1.36e-06   Normal BFGS step
    7    -114.2382279087      3.76e-07   Normal BFGS step
    8    -114.2382279087      6.13e-08   Normal BFGS step
    9    -114.2382279087      2.21e-08   Normal BFGS step
   10    -114.2382279087      2.99e-09  Convergence criterion met
 ---------------------------------------
 SCF time:   CPU 2653.33s  wall 335.00s 
 SCF   energy in the final basis set =     -114.2382279087
 Total energy in the final basis set =     -114.2382279087
 
 Components of the MP2 correlation energy:
        aaaa  correlation energy =        -0.0320026646 au
        abab  correlation energy =        -0.2035763781 au
        bbbb  correlation energy =        -0.0320026646 au
        non-Brillouin singles    =        -0.0000000000 au

 Total  MP2   correlation energy =                    -0.26758171 au
        MP2         total energy =                  -114.50580962 au
 
 --------------------------------------------------------------
 
                    Orbital Energies (a.u.)
 --------------------------------------------------------------
 
 Alpha MOs
 -- Occupied --
-19.995 -10.922  -1.311  -0.821  -0.660  -0.616  -0.528  -0.417
 -- Virtual --
  0.025   0.036   0.053   0.070   0.099   0.116   0.119   0.149
  0.170   0.178   0.183   0.206   0.207   0.225   0.257   0.274
  0.276   0.298   0.299   0.314   0.320   0.344   0.394   0.398
  0.421   0.438   0.484   0.514   0.537   0.542   0.555   0.602
  0.612   0.643   0.650   0.657   0.662   0.708   0.717   0.725
  0.726   0.741   0.754   0.756   0.786   0.807   0.825   0.859
  0.862   0.918   0.937   0.957   0.993   1.029   1.050   1.060
  1.093   1.126   1.151   1.263   1.264   1.349   1.364   1.402
  1.441   1.485   1.488   1.493   1.535   1.537   1.545   1.591
  1.594   1.601   1.633   1.667   1.697   1.765   1.780   1.791
  1.797   1.844   1.859   1.864   1.911   1.929   1.935   1.969
  1.987   1.998   2.027   2.027   2.068   2.087   2.092   2.129
  2.141   2.175   2.257   2.325   2.404   2.411   2.421   2.422
  2.498   2.567   2.586   2.685   2.705   2.712   2.716   2.730
  2.775   2.833   2.850   2.890   2.990   3.023   3.155   3.253
  3.297   3.329   3.408   3.458   3.618   3.634   3.729   3.762
  3.775   3.797   3.872   3.884   3.926   3.951   3.966   4.061
  4.109   4.130   4.139   4.226   4.244   4.256   4.259   4.268
  4.291   4.333   4.452   4.512   4.519   4.576   4.596   4.637
  4.767   4.827   4.990   5.070   5.256   5.269   5.326   5.424
  5.613   5.652   5.677   5.904   5.930   5.984   6.070   6.133
  6.137   6.209   6.294   6.427   6.493   6.643   6.666   6.716
  6.750   6.821   6.830   6.930   7.016   7.023   7.051   7.193
  7.296   7.456   7.587   7.686   7.776   8.063   8.098   8.121
  8.157   8.158   8.357   8.373   8.386   8.418   8.537   8.766
  8.912   8.998   9.033   9.134   9.262   9.477   9.505   9.570
  9.927   9.932   9.974   9.978  10.084  10.188  10.326  10.459
 10.567  10.576  10.589  10.769  10.898  10.918  10.990  11.025
 11.106  11.277  11.437  11.475  11.822  11.845  11.932  12.352
 12.405  12.466  12.564  12.836  12.995  13.036  13.194  13.346
 13.705  14.463  15.083  18.002  19.347  20.948  21.300  26.667
 26.769  27.254  27.623  27.829  33.507  33.814  34.697  37.500
 46.836  46.868  47.214  47.585  48.039  63.843  66.481  67.675
 67.994  98.220  98.226  98.239  98.241  98.246  98.277  98.296
102.827 102.830 102.879 102.880 102.883 102.919 102.958 114.782
114.822 115.057 115.263 115.361 116.414 116.648 117.341 123.159
197.816 197.832 198.019 198.215 198.438 215.746 224.399 225.383
225.644 394.265 394.463 395.021 508.483 893.307
 --------------------------------------------------------------
 
          Ground-State Mulliken Net Atomic Charges

     Atom                 Charge (a.u.)
  ----------------------------------------
      1 O                    -0.508201
      2 C                    -0.311230
      3 H                     0.409716
      4 H                     0.409716
  ----------------------------------------
  Sum of atomic charges =     0.000000

 -----------------------------------------------------------------
                    Cartesian Multipole Moments
 -----------------------------------------------------------------
    Charge (ESU x 10^10)
                 0.0000
    Dipole Moment (Debye)
         X       0.0000      Y      -0.0000      Z      -2.6638
       Tot       2.6638
    Quadrupole Moments (Debye-Ang)
        XX     -11.8337     XY       0.0000     YY     -11.5571
        XZ       0.0000     YZ       0.0000     ZZ     -15.0348
    Octopole Moments (Debye-Ang^2)
       XXX       0.0000    XXY      -0.0000    XYY       0.0000
       YYY      -0.0000    XXZ      -5.7452    XYZ       0.0000
       YYZ      -6.8795    XZZ       0.0000    YZZ      -0.0000
       ZZZ     -21.4207
    Hexadecapole Moments (Debye-Ang^3)
      XXXX     -10.7840   XXXY       0.0000   XXYY      -5.2186
      XYYY       0.0000   YYYY     -18.1076   XXXZ       0.0000
      XXYZ       0.0000   XYYZ       0.0000   YYYZ       0.0000
      XXZZ     -12.2225   XYZZ       0.0000   YYZZ     -14.3127
      XZZZ       0.0000   YZZZ       0.0000   ZZZZ     -67.7099
 -----------------------------------------------------------------
Archival summary:
1\1\n0096.mhg0\SP\ProcedureUnspecified\BasisUnspecified\112\yhljason\WedNov1115:21:032020WedNov1115:21:032020\0\\#,ProcedureUnspecified,BasisUnspecified,\\0,1\C\H,1,1.11101\H,1,1.11101,2,116.139\O,1,1.205,2,121.93,3,-180,0\\\@

 Total job time:  677.33s(wall), 5359.51s(cpu) 
 Wed Nov 11 15:21:03 2020

        *************************************************************
        *                                                           *
        *  Thank you very much for using Q-Chem.  Have a nice day.  *
        *                                                           *
        *************************************************************


 
User input: 5 of 7 
 
Q-Chem Developer Version!
                  Welcome to Q-Chem
     A Quantum Leap Into The Future Of Chemistry


 Q-Chem 5.1, Q-Chem, Inc., Pleasanton, CA (2018)

 Yihan Shao,  Zhengting Gan,  E. Epifanovsky,  A. T. B. Gilbert,  M. Wormit,  
 J. Kussmann,  A. W. Lange,  A. Behn,  Jia Deng,  Xintian Feng,  D. Ghosh,  
 M. Goldey,  P. R. Horn,  L. D. Jacobson,  I. Kaliman,  T. Kus,  A. Landau,  
 Jie Liu,  E. I. Proynov,  R. M. Richard,  R. P. Steele,  E. J. Sundstrom,  
 H. L. Woodcock III,  P. M. Zimmerman,  D. Zuev,  B. Albrecht,  E. Alguire,  
 S. A. Baeppler,  D. Barton,  Z. Benda,  Y. A. Bernard,  E. J. Berquist,  
 K. B. Bravaya,  H. Burton,  D. Casanova,  Chun-Min Chang,  Yunqing Chen,  
 A. Chien,  K. D. Closser,  M. P. Coons,  S. Coriani,  S. Dasgupta,  
 A. L. Dempwolff,  M. Diedenhofen,  Hainam Do,  R. G. Edgar,  Po-Tung Fang,  
 S. Faraji,  S. Fatehi,  Qingguo Feng,  K. D. Fenk,  J. Fosso-Tande,  
 Qinghui Ge,  A. Ghysels,  G. Gidofalvi,  J. Gomes,  J. Gonthier,  A. Gunina,  
 D. Hait,  M. W. D. Hanson-Heine,  P. H. P. Harbach,  A. W. Hauser,  
 J. E. Herr,  E. G. Hohenstein,  Z. C. Holden,  Kerwin Hui,  B. C. Huynh,  
 T.-C. Jagau,  Hyunjun Ji,  B. Kaduk,  K. Khistyaev,  Jaehoon Kim,  
 P. Klunzinger,  K. Koh,  D. Kosenkov,  L. Koulias,  T. Kowalczyk,  
 C. M. Krauter,  A. Kunitsa,  Ka Un Lao,  A. Laurent,  K. V. Lawler,  
 Joonho Lee,  D. Lefrancois,  S. Lehtola,  D. S. Levine,  Yi-Pei Li,  
 You-Sheng Lin,  Fenglai Liu,  E. Livshits,  A. Luenser,  P. Manohar,  
 E. Mansoor,  S. F. Manzer,  Shan-Ping Mao,  Yuezhi Mao,  N. Mardirossian,  
 A. V. Marenich,  T. Markovich,  L. A. Martinez-Martinez,  S. A. Maurer,  
 N. J. Mayhall,  S. C. McKenzie,  J.-M. Mewes,  A. F. Morrison,  
 J. W. Mullinax,  K. Nanda,  T. S. Nguyen-Beck,  R. Olivares-Amaya,  
 J. A. Parkhill,  T. M. Perrine,  F. Plasser,  P. Pokhilko,  S. Prager,  
 A. Prociuk,  E. Ramos,  D. R. Rehn,  F. Rob,  M. Schneider,  N. Sergueev,  
 S. M. Sharada,  S. Sharma,  D. W. Small,  T. Stauch,  T. Stein,  
 Yu-Chuan Su,  A. J. W. Thom,  A. Tkatchenko,  T. Tsuchimochi,  N. M. Tubman,  
 L. Vogt,  M. L. Vidal,  O. Vydrov,  M. A. Watson,  J. Wenzel,  
 M. de Wergifosse,  T. A. Wesolowski,  A. White,  J. Witte,  A. Yamada,  
 Jun Yang,  K. Yao,  S. Yeganeh,  S. R. Yost,  Zhi-Qiang You,  A. Zech,  
 Igor Ying Zhang,  Xing Zhang,  Yan Zhao,  Ying Zhu,  B. R. Brooks,  
 G. K. L. Chan,  C. J. Cramer,  M. S. Gordon,  W. J. Hehre,  A. Klamt,  
 M. W. Schmidt,  C. D. Sherrill,  D. G. Truhlar,  A. Aspuru-Guzik,  R. Baer,  
 A. T. Bell,  N. A. Besley,  Jeng-Da Chai,  A. E. DePrince, III,  
 R. A. DiStasio Jr.,  A. Dreuw,  B. D. Dunietz,  T. R. Furlani,  
 Chao-Ping Hsu,  Yousung Jung,  Jing Kong,  D. S. Lambrecht,  WanZhen Liang,  
 C. Ochsenfeld,  V. A. Rassolov,  L. V. Slipchenko,  J. E. Subotnik,  
 T. Van Voorhis,  J. M. Herbert,  A. I. Krylov,  P. M. W. Gill,  M. Head-Gordon

 Contributors to earlier versions of Q-Chem not listed above: 
 R. D. Adamson,  B. Austin,  J. Baker,  G. J. O. Beran,  K. Brandhorst,  
 S. T. Brown,  E. F. C. Byrd,  A. K. Chakraborty,  C.-L. Cheng,  
 Siu Hung Chien,  D. M. Chipman,  D. L. Crittenden,  H. Dachsel,  
 R. J. Doerksen,  A. D. Dutoi,  L. Fusti-Molnar,  W. A. Goddard III,  
 A. Golubeva-Zadorozhnaya,  S. R. Gwaltney,  G. Hawkins,  A. Heyden,  
 S. Hirata,  G. Kedziora,  F. J. Keil,  C. Kelley,  Jihan Kim,  R. A. King,  
 R. Z. Khaliullin,  P. P. Korambath,  W. Kurlancheek,  A. M. Lee,  M. S. Lee,  
 S. V. Levchenko,  Ching Yeh Lin,  D. Liotard,  R. C. Lochan,  I. Lotan,  
 P. E. Maslen,  N. Nair,  D. P. O'Neill,  D. Neuhauser,  E. Neuscamman,  
 C. M. Oana,  R. Olson,  B. Peters,  R. Peverati,  P. A. Pieniazek,  
 Y. M. Rhee,  J. Ritchie,  M. A. Rohrdanz,  E. Rosta,  N. J. Russ,  
 H. F. Schaefer III,  N. E. Schultz,  N. Shenvi,  A. C. Simmonett,  A. Sodt,  
 D. Stuck,  K. S. Thanthiriwatte,  V. Vanovschi,  Tao Wang,  A. Warshel,  
 C. F. Williams,  Q. Wu,  X. Xu,  W. Zhang

 Please cite Q-Chem as follows:
 Y. Shao et al., Mol. Phys. 113, 184-215 (2015)
 DOI: 10.1080/00268976.2014.952696

 Q-Chem 5.1.1 for Intel X86 EM64T Linux

 Parts of Q-Chem use Armadillo 8.300.2 (Tropical Shenanigans).
 http://arma.sourceforge.net/

 Q-Chem begins on Wed Nov 11 15:21:03 2020  

Host: n0096.mhg0
0

     Scratch files written to /local/scratch/users/yhljason/HCHO_wB97X-2TQZ_aug-cc-pcVQZ.inp20201111140429//
The previous job contains 0 fragments, simply inherited here
Input Ideriv = 0
Curr. Ideriv = -1
Max.  Ideriv = 0
Analytic post-HF gradients are not available with non-HF exchange
Input Ideriv = 0
Curr. Ideriv = 0
Max.  Ideriv = 0

Checking the input file for inconsistencies... 	...done.

--------------------------------------------------------------
User input:
--------------------------------------------------------------
$molecule
read
$end

$rem
jobtype sp
exchange wB97X-2(TQZ)
xc_grid 000099000590
basis aug-cc-pcVQZ

max_scf_cycles 200
thresh 14
scf_convergence 8
mem_total 128000
cc_memory 96000
cc_backend xm
mem_static 1500
symmetry false
sym_ignore true
scf_guess read
unrestricted false
scf_algorithm gdm
n_frozen_core 0
$end



$multipole_field
YY -0.0001
$end


--------------------------------------------------------------
 ----------------------------------------------------------------
             Standard Nuclear Orientation (Angstroms)
    I     Atom           X                Y                Z
 ----------------------------------------------------------------
    1      O       0.0000000000     0.0000000000     1.2050000000
    2      C       0.0000000000     0.0000000000     0.0000000000
    3      H       0.0000000000     0.9429000000    -0.5876000000
    4      H       0.0000000000    -0.9429000000    -0.5876000000
 ----------------------------------------------------------------
 Nuclear Repulsion Energy =    31.2557350034 hartrees
 There are        8 alpha and        8 beta electrons
 Requested basis set is aug-cc-pCVQZ
 There are 86 shells and 310 basis functions

 Total QAlloc Memory Limit 128000 MB
 Mega-Array Size      1467 MB
 MEM_STATIC part      1500 MB

                       Distance Matrix (Angstroms)
             O (  1)   C (  2)   H (  3)
   C (  2)  1.205000
   H (  3)  2.025457  1.111006
   H (  4)  2.025457  1.111006  1.885800
 
 Applying Cartesian multipole field
    Component          Value
    ---------          -----
     (0,2,0)       -1.00000E-04
 Nucleus-field energy     =    -0.0006349785 hartrees
 A cutoff of  1.0D-14 yielded   3677 shell pairs
 There are     48249 function pairs (     75927 Cartesian)
 
 -------------------------------------------------------
 OpenMP Integral Computing Module                       
 Release: version 1.0, May 2013, Q-Chem Inc. Pittsburgh 
 -------------------------------------------------------
 Integral Job Info:
 Integral job number is                      11
 Integral operator is                         1
 short-range coefficients              63615800
 long-range coefficients              100000000
 Omega coefficients                         300
 if combine SR and LR in K                    1
 Integral screening is                        0
 Integral computing path is                   2
 max size of driver memory is           3200000
 size of driver memory is               1704330
 size of scratch memory is             18852824
 max col of scratch BK array              50625
 max len of scratch array in speh3         2114
 max len of scratch index in speh4           50
 max int batch size is                      520
 min int batch size is                       52
 fixed nKL is                                52
 max L of basis functions is                  4
 order of int derivative is                   0
 number of shells is                         86
 number of basis is                         388
 number of cartesian basis is               388
 number of contracted shell pairs          3677
 number of primitive shell pairs           7282
 maxK2 (contraction) of shell pair           81
 max number of K2 of shell pair               1
 max number of CS2 of shell pair            482
 max number of PS2 of shell pair            702
 mem total for path MDJ                  738190
 -------------------------------------------------------
 Smallest overlap matrix eigenvalue = 2.29E-05
 Guess MOs from SCF MO coefficient file

 -----------------------------------------------------------------------
  General SCF calculation program by
  Eric Jon Sundstrom, Paul Horn, Yuezhi Mao, Dmitri Zuev, Alec White,
  David Stuck, Shaama M.S., Shane Yost, Joonho Lee, David Small,
  Daniel Levine, Susi Lehtola, Hugh Burton, Evgeny Epifanovsky
 -----------------------------------------------------------------------
 Exchange:     0.6362 Hartree-Fock + 1.0000 wB97X-2(TQZ) + LR-HF
 Correlation:  1.0000 wB97X-2(TQZ)
 Using Euler-Maclaurin-Lebedev (99,590) quadrature formula
 using 8 threads for integral computing
 -------------------------------------------------------
 OpenMP Integral computing Module                
 Release: version 1.0, May 2013, Q-Chem Inc. Pittsburgh 
 -------------------------------------------------------
 using 8 threads for integral computing
 -------------------------------------------------------
 OpenMP Integral computing Module                
 Release: version 1.0, May 2013, Q-Chem Inc. Pittsburgh 
 -------------------------------------------------------
 -------------------------------------------------------
 OpenMP BLAS3 based DFT computing Module                
 Release: version 1.0, May 2013, Q-Chem Inc. Pittsburgh 
 -------------------------------------------------------
 A restricted SCF calculation will be
 performed using GDM
 SCF converges when RMS gradient is below 1.0e-08
 ---------------------------------------
  Cycle       Energy        RMS Gradient
 ---------------------------------------
    1    -114.2365094239      5.19e-04   Normal BFGS step
    2    -114.2365111345      1.10e-04   Normal BFGS step
    3    -114.2365113019      5.56e-05   Normal BFGS step
    4    -114.2365113145      3.25e-05   Normal BFGS step
    5    -114.2365113194      2.81e-06   Normal BFGS step
    6    -114.2365113195      7.34e-07   Normal BFGS step
    7    -114.2365113195      2.08e-07   Normal BFGS step
    8    -114.2365113195      5.40e-08   Normal BFGS step
    9    -114.2365113195      2.21e-08   Normal BFGS step
   10    -114.2365113195      3.12e-09  Convergence criterion met
 ---------------------------------------
 SCF time:   CPU 2599.80s  wall 328.00s 
 SCF   energy in the final basis set =     -114.2365113195
 Total energy in the final basis set =     -114.2365113195
 
 Components of the MP2 correlation energy:
        aaaa  correlation energy =        -0.0319979130 au
        abab  correlation energy =        -0.2035626376 au
        bbbb  correlation energy =        -0.0319979130 au
        non-Brillouin singles    =        -0.0000000000 au

 Total  MP2   correlation energy =                    -0.26755846 au
        MP2         total energy =                  -114.50406978 au
 
 --------------------------------------------------------------
 
                    Orbital Energies (a.u.)
 --------------------------------------------------------------
 
 Alpha MOs
 -- Occupied --
-19.995 -10.921  -1.310  -0.821  -0.659  -0.616  -0.527  -0.416
 -- Virtual --
  0.030   0.047   0.054   0.073   0.100   0.121   0.127   0.151
  0.175   0.180   0.185   0.208   0.209   0.229   0.259   0.277
  0.280   0.300   0.302   0.318   0.322   0.349   0.397   0.401
  0.422   0.440   0.485   0.516   0.539   0.544   0.555   0.603
  0.614   0.645   0.651   0.659   0.663   0.710   0.719   0.728
  0.728   0.743   0.755   0.759   0.787   0.808   0.827   0.861
  0.863   0.920   0.939   0.958   0.994   1.032   1.051   1.062
  1.095   1.128   1.152   1.264   1.265   1.350   1.365   1.404
  1.443   1.486   1.490   1.495   1.536   1.538   1.546   1.592
  1.595   1.602   1.634   1.668   1.698   1.767   1.781   1.792
  1.798   1.845   1.860   1.865   1.912   1.930   1.937   1.971
  1.988   2.000   2.027   2.029   2.069   2.088   2.093   2.130
  2.142   2.176   2.257   2.326   2.406   2.412   2.422   2.423
  2.499   2.568   2.587   2.686   2.705   2.713   2.716   2.731
  2.776   2.833   2.851   2.891   2.991   3.023   3.156   3.254
  3.298   3.330   3.409   3.460   3.619   3.635   3.729   3.763
  3.775   3.797   3.873   3.885   3.927   3.952   3.967   4.062
  4.110   4.131   4.139   4.227   4.245   4.257   4.260   4.268
  4.292   4.333   4.453   4.512   4.520   4.576   4.597   4.638
  4.768   4.827   4.991   5.071   5.256   5.270   5.327   5.425
  5.613   5.653   5.677   5.904   5.930   5.984   6.071   6.133
  6.138   6.210   6.295   6.428   6.493   6.644   6.667   6.717
  6.751   6.822   6.831   6.931   7.017   7.024   7.052   7.194
  7.296   7.457   7.588   7.687   7.777   8.064   8.099   8.122
  8.157   8.159   8.358   8.374   8.387   8.419   8.538   8.766
  8.913   8.999   9.034   9.135   9.263   9.478   9.506   9.571
  9.928   9.933   9.975   9.979  10.085  10.189  10.326  10.460
 10.568  10.577  10.590  10.770  10.899  10.919  10.990  11.026
 11.106  11.277  11.437  11.476  11.823  11.846  11.933  12.353
 12.406  12.466  12.565  12.836  12.996  13.037  13.195  13.347
 13.706  14.464  15.084  18.003  19.348  20.949  21.300  26.668
 26.769  27.255  27.624  27.830  33.508  33.815  34.698  37.501
 46.837  46.869  47.215  47.586  48.039  63.843  66.482  67.676
 67.995  98.220  98.227  98.239  98.242  98.247  98.278  98.297
102.828 102.831 102.880 102.881 102.884 102.920 102.958 114.783
114.823 115.058 115.264 115.362 116.415 116.649 117.342 123.160
197.817 197.833 198.020 198.215 198.438 215.747 224.400 225.384
225.645 394.265 394.464 395.022 508.484 893.308
 --------------------------------------------------------------
 
          Ground-State Mulliken Net Atomic Charges

     Atom                 Charge (a.u.)
  ----------------------------------------
      1 O                    -0.506613
      2 C                    -0.312874
      3 H                     0.409743
      4 H                     0.409743
  ----------------------------------------
  Sum of atomic charges =     0.000000

 -----------------------------------------------------------------
                    Cartesian Multipole Moments
 -----------------------------------------------------------------
    Charge (ESU x 10^10)
                 0.0000
    Dipole Moment (Debye)
[...]
  2.498   2.567   2.586   2.685   2.704   2.712   2.715   2.730
  2.775   2.833   2.850   2.890   2.990   3.023   3.155   3.253
  3.297   3.329   3.408   3.459   3.618   3.634   3.728   3.762
  3.774   3.796   3.872   3.884   3.926   3.951   3.966   4.061
  4.109   4.129   4.138   4.226   4.244   4.256   4.259   4.267
  4.291   4.332   4.452   4.511   4.519   4.575   4.596   4.637
  4.767   4.827   4.990   5.070   5.255   5.269   5.326   5.424
  5.612   5.652   5.676   5.904   5.930   5.984   6.070   6.133
  6.137   6.209   6.294   6.427   6.492   6.643   6.666   6.716
  6.750   6.821   6.830   6.930   7.016   7.023   7.051   7.193
  7.295   7.456   7.587   7.686   7.776   8.064   8.098   8.121
  8.156   8.158   8.357   8.373   8.386   8.418   8.537   8.766
  8.912   8.998   9.033   9.134   9.262   9.477   9.505   9.570
  9.927   9.932   9.974   9.978  10.084  10.188  10.325  10.459
 10.567  10.576  10.589  10.769  10.898  10.918  10.989  11.025
 11.105  11.276  11.436  11.475  11.822  11.845  11.932  12.352
 12.405  12.465  12.564  12.835  12.995  13.036  13.194  13.346
 13.705  14.463  15.083  18.002  19.347  20.948  21.300  26.667
 26.769  27.254  27.623  27.829  33.507  33.814  34.697  37.500
 46.836  46.868  47.214  47.585  48.038  63.842  66.481  67.675
 67.994  98.220  98.226  98.239  98.241  98.246  98.277  98.296
102.827 102.830 102.879 102.880 102.883 102.919 102.958 114.782
114.822 115.057 115.263 115.361 116.414 116.648 117.341 123.159
197.816 197.832 198.019 198.214 198.437 215.746 224.399 225.383
225.644 394.264 394.463 395.021 508.483 893.307
 --------------------------------------------------------------
 
          Ground-State Mulliken Net Atomic Charges

     Atom                 Charge (a.u.)
  ----------------------------------------
      1 O                    -0.508634
      2 C                    -0.309860
      3 H                     0.409247
      4 H                     0.409247
  ----------------------------------------
  Sum of atomic charges =     0.000000

 -----------------------------------------------------------------
                    Cartesian Multipole Moments
 -----------------------------------------------------------------
    Charge (ESU x 10^10)
                 0.0000
    Dipole Moment (Debye)
         X      -0.0000      Y       0.0000      Z      -2.6739
       Tot       2.6739
    Quadrupole Moments (Debye-Ang)
        XX     -11.8326     XY       0.0000     YY     -11.5450
        XZ       0.0000     YZ      -0.0000     ZZ     -15.0593
    Octopole Moments (Debye-Ang^2)
       XXX       0.0000    XXY       0.0000    XYY       0.0000
       YYY       0.0000    XXZ      -5.7506    XYZ      -0.0000
       YYZ      -6.8876    XZZ       0.0000    YZZ       0.0000
       ZZZ     -21.4696
    Hexadecapole Moments (Debye-Ang^3)
      XXXX     -10.7809   XXXY       0.0000   XXYY      -5.2123
      XYYY       0.0000   YYYY     -18.0573   XXXZ       0.0000
      XXYZ      -0.0000   XYYZ       0.0000   YYYZ      -0.0000
      XXZZ     -12.2344   XYZZ       0.0000   YYZZ     -14.3166
      XZZZ       0.0000   YZZZ      -0.0000   ZZZZ     -67.8417
 -----------------------------------------------------------------
Archival summary:
1\1\n0096.mhg0\SP\ProcedureUnspecified\BasisUnspecified\112\yhljason\WedNov1115:43:222020WedNov1115:43:222020\0\\#,ProcedureUnspecified,BasisUnspecified,\\0,1\C\H,1,1.11101\H,1,1.11101,2,116.139\O,1,1.205,2,121.93,3,-180,0\\\@

 Total job time:  667.11s(wall), 5282.60s(cpu) 
 Wed Nov 11 15:43:22 2020

        *************************************************************
        *                                                           *
        *  Thank you very much for using Q-Chem.  Have a nice day.  *
        *                                                           *
        *************************************************************


 
User input: 7 of 7 
 
Q-Chem Developer Version!
                  Welcome to Q-Chem
     A Quantum Leap Into The Future Of Chemistry


 Q-Chem 5.1, Q-Chem, Inc., Pleasanton, CA (2018)

 Yihan Shao,  Zhengting Gan,  E. Epifanovsky,  A. T. B. Gilbert,  M. Wormit,  
 J. Kussmann,  A. W. Lange,  A. Behn,  Jia Deng,  Xintian Feng,  D. Ghosh,  
 M. Goldey,  P. R. Horn,  L. D. Jacobson,  I. Kaliman,  T. Kus,  A. Landau,  
 Jie Liu,  E. I. Proynov,  R. M. Richard,  R. P. Steele,  E. J. Sundstrom,  
 H. L. Woodcock III,  P. M. Zimmerman,  D. Zuev,  B. Albrecht,  E. Alguire,  
 S. A. Baeppler,  D. Barton,  Z. Benda,  Y. A. Bernard,  E. J. Berquist,  
 K. B. Bravaya,  H. Burton,  D. Casanova,  Chun-Min Chang,  Yunqing Chen,  
 A. Chien,  K. D. Closser,  M. P. Coons,  S. Coriani,  S. Dasgupta,  
 A. L. Dempwolff,  M. Diedenhofen,  Hainam Do,  R. G. Edgar,  Po-Tung Fang,  
 S. Faraji,  S. Fatehi,  Qingguo Feng,  K. D. Fenk,  J. Fosso-Tande,  
 Qinghui Ge,  A. Ghysels,  G. Gidofalvi,  J. Gomes,  J. Gonthier,  A. Gunina,  
 D. Hait,  M. W. D. Hanson-Heine,  P. H. P. Harbach,  A. W. Hauser,  
 J. E. Herr,  E. G. Hohenstein,  Z. C. Holden,  Kerwin Hui,  B. C. Huynh,  
 T.-C. Jagau,  Hyunjun Ji,  B. Kaduk,  K. Khistyaev,  Jaehoon Kim,  
 P. Klunzinger,  K. Koh,  D. Kosenkov,  L. Koulias,  T. Kowalczyk,  
 C. M. Krauter,  A. Kunitsa,  Ka Un Lao,  A. Laurent,  K. V. Lawler,  
 Joonho Lee,  D. Lefrancois,  S. Lehtola,  D. S. Levine,  Yi-Pei Li,  
 You-Sheng Lin,  Fenglai Liu,  E. Livshits,  A. Luenser,  P. Manohar,  
 E. Mansoor,  S. F. Manzer,  Shan-Ping Mao,  Yuezhi Mao,  N. Mardirossian,  
 A. V. Marenich,  T. Markovich,  L. A. Martinez-Martinez,  S. A. Maurer,  
 N. J. Mayhall,  S. C. McKenzie,  J.-M. Mewes,  A. F. Morrison,  
 J. W. Mullinax,  K. Nanda,  T. S. Nguyen-Beck,  R. Olivares-Amaya,  
 J. A. Parkhill,  T. M. Perrine,  F. Plasser,  P. Pokhilko,  S. Prager,  
 A. Prociuk,  E. Ramos,  D. R. Rehn,  F. Rob,  M. Schneider,  N. Sergueev,  
 S. M. Sharada,  S. Sharma,  D. W. Small,  T. Stauch,  T. Stein,  
 Yu-Chuan Su,  A. J. W. Thom,  A. Tkatchenko,  T. Tsuchimochi,  N. M. Tubman,  
 L. Vogt,  M. L. Vidal,  O. Vydrov,  M. A. Watson,  J. Wenzel,  
 M. de Wergifosse,  T. A. Wesolowski,  A. White,  J. Witte,  A. Yamada,  
 Jun Yang,  K. Yao,  S. Yeganeh,  S. R. Yost,  Zhi-Qiang You,  A. Zech,  
 Igor Ying Zhang,  Xing Zhang,  Yan Zhao,  Ying Zhu,  B. R. Brooks,  
 G. K. L. Chan,  C. J. Cramer,  M. S. Gordon,  W. J. Hehre,  A. Klamt,  
 M. W. Schmidt,  C. D. Sherrill,  D. G. Truhlar,  A. Aspuru-Guzik,  R. Baer,  
 A. T. Bell,  N. A. Besley,  Jeng-Da Chai,  A. E. DePrince, III,  
 R. A. DiStasio Jr.,  A. Dreuw,  B. D. Dunietz,  T. R. Furlani,  
 Chao-Ping Hsu,  Yousung Jung,  Jing Kong,  D. S. Lambrecht,  WanZhen Liang,  
 C. Ochsenfeld,  V. A. Rassolov,  L. V. Slipchenko,  J. E. Subotnik,  
 T. Van Voorhis,  J. M. Herbert,  A. I. Krylov,  P. M. W. Gill,  M. Head-Gordon

 Contributors to earlier versions of Q-Chem not listed above: 
 R. D. Adamson,  B. Austin,  J. Baker,  G. J. O. Beran,  K. Brandhorst,  
 S. T. Brown,  E. F. C. Byrd,  A. K. Chakraborty,  C.-L. Cheng,  
 Siu Hung Chien,  D. M. Chipman,  D. L. Crittenden,  H. Dachsel,  
 R. J. Doerksen,  A. D. Dutoi,  L. Fusti-Molnar,  W. A. Goddard III,  
 A. Golubeva-Zadorozhnaya,  S. R. Gwaltney,  G. Hawkins,  A. Heyden,  
 S. Hirata,  G. Kedziora,  F. J. Keil,  C. Kelley,  Jihan Kim,  R. A. King,  
 R. Z. Khaliullin,  P. P. Korambath,  W. Kurlancheek,  A. M. Lee,  M. S. Lee,  
 S. V. Levchenko,  Ching Yeh Lin,  D. Liotard,  R. C. Lochan,  I. Lotan,  
 P. E. Maslen,  N. Nair,  D. P. O'Neill,  D. Neuhauser,  E. Neuscamman,  
 C. M. Oana,  R. Olson,  B. Peters,  R. Peverati,  P. A. Pieniazek,  
 Y. M. Rhee,  J. Ritchie,  M. A. Rohrdanz,  E. Rosta,  N. J. Russ,  
 H. F. Schaefer III,  N. E. Schultz,  N. Shenvi,  A. C. Simmonett,  A. Sodt,  
 D. Stuck,  K. S. Thanthiriwatte,  V. Vanovschi,  Tao Wang,  A. Warshel,  
 C. F. Williams,  Q. Wu,  X. Xu,  W. Zhang

 Please cite Q-Chem as follows:
 Y. Shao et al., Mol. Phys. 113, 184-215 (2015)
 DOI: 10.1080/00268976.2014.952696

 Q-Chem 5.1.1 for Intel X86 EM64T Linux

 Parts of Q-Chem use Armadillo 8.300.2 (Tropical Shenanigans).
 http://arma.sourceforge.net/

 Q-Chem begins on Wed Nov 11 15:43:22 2020  

Host: n0096.mhg0
0

     Scratch files written to /local/scratch/users/yhljason/HCHO_wB97X-2TQZ_aug-cc-pcVQZ.inp20201111140429//
The previous job contains 0 fragments, simply inherited here
Input Ideriv = 0
Curr. Ideriv = -1
Max.  Ideriv = 0
Analytic post-HF gradients are not available with non-HF exchange
Input Ideriv = 0
Curr. Ideriv = 0
Max.  Ideriv = 0

Checking the input file for inconsistencies... 	...done.

--------------------------------------------------------------
User input:
--------------------------------------------------------------
$molecule
read
$end

$rem
jobtype sp
exchange wB97X-2(TQZ)
xc_grid 000099000590
basis aug-cc-pcVQZ

max_scf_cycles 200
thresh 14
scf_convergence 8
mem_total 128000
cc_memory 96000
cc_backend xm
mem_static 1500
symmetry false
sym_ignore true
scf_guess read
unrestricted false
scf_algorithm gdm
n_frozen_core 0
$end



$multipole_field
ZZ -0.0001
$end

--------------------------------------------------------------
 ----------------------------------------------------------------
             Standard Nuclear Orientation (Angstroms)
    I     Atom           X                Y                Z
 ----------------------------------------------------------------
    1      O       0.0000000000     0.0000000000     1.2050000000
    2      C       0.0000000000     0.0000000000     0.0000000000
    3      H       0.0000000000     0.9429000000    -0.5876000000
    4      H       0.0000000000    -0.9429000000    -0.5876000000
 ----------------------------------------------------------------
 Nuclear Repulsion Energy =    31.2557350034 hartrees
 There are        8 alpha and        8 beta electrons
 Requested basis set is aug-cc-pCVQZ
 There are 86 shells and 310 basis functions

 Total QAlloc Memory Limit 128000 MB
 Mega-Array Size      1467 MB
 MEM_STATIC part      1500 MB

                       Distance Matrix (Angstroms)
             O (  1)   C (  2)   H (  3)
   C (  2)  1.205000
   H (  3)  2.025457  1.111006
   H (  4)  2.025457  1.111006  1.885800
 
 Applying Cartesian multipole field
    Component          Value
    ---------          -----
     (0,0,2)       -1.00000E-04
 Nucleus-field energy     =    -0.0043948193 hartrees
 A cutoff of  1.0D-14 yielded   3677 shell pairs
 There are     48249 function pairs (     75927 Cartesian)
 
 -------------------------------------------------------
 OpenMP Integral Computing Module                       
 Release: version 1.0, May 2013, Q-Chem Inc. Pittsburgh 
 -------------------------------------------------------
 Integral Job Info:
 Integral job number is                      11
 Integral operator is                         1
 short-range coefficients              63615800
 long-range coefficients              100000000
 Omega coefficients                         300
 if combine SR and LR in K                    1
 Integral screening is                        0
 Integral computing path is                   2
 max size of driver memory is           3200000
 size of driver memory is               1704330
 size of scratch memory is             18852824
 max col of scratch BK array              50625
 max len of scratch array in speh3         2114
 max len of scratch index in speh4           50
 max int batch size is                      520
 min int batch size is                       52
 fixed nKL is                                52
 max L of basis functions is                  4
 order of int derivative is                   0
 number of shells is                         86
 number of basis is                         388
 number of cartesian basis is               388
 number of contracted shell pairs          3677
 number of primitive shell pairs           7282
 maxK2 (contraction) of shell pair           81
 max number of K2 of shell pair               1
 max number of CS2 of shell pair            482
 max number of PS2 of shell pair            702
 mem total for path MDJ                  738190
 -------------------------------------------------------
 Smallest overlap matrix eigenvalue = 2.29E-05
 Guess MOs from SCF MO coefficient file

 -----------------------------------------------------------------------
  General SCF calculation program by
  Eric Jon Sundstrom, Paul Horn, Yuezhi Mao, Dmitri Zuev, Alec White,
  David Stuck, Shaama M.S., Shane Yost, Joonho Lee, David Small,
  Daniel Levine, Susi Lehtola, Hugh Burton, Evgeny Epifanovsky
 -----------------------------------------------------------------------
 Exchange:     0.6362 Hartree-Fock + 1.0000 wB97X-2(TQZ) + LR-HF
 Correlation:  1.0000 wB97X-2(TQZ)
 Using Euler-Maclaurin-Lebedev (99,590) quadrature formula
 using 8 threads for integral computing
 -------------------------------------------------------
 OpenMP Integral computing Module                
 Release: version 1.0, May 2013, Q-Chem Inc. Pittsburgh 
 -------------------------------------------------------
 using 8 threads for integral computing
 -------------------------------------------------------
 OpenMP Integral computing Module                
 Release: version 1.0, May 2013, Q-Chem Inc. Pittsburgh 
 -------------------------------------------------------
 -------------------------------------------------------
 OpenMP BLAS3 based DFT computing Module                
 Release: version 1.0, May 2013, Q-Chem Inc. Pittsburgh 
 -------------------------------------------------------
 A restricted SCF calculation will be
 performed using GDM
 SCF converges when RMS gradient is below 1.0e-08
 ---------------------------------------
  Cycle       Energy        RMS Gradient
 ---------------------------------------
    1    -114.2362485857      6.57e-04   Normal BFGS step
    2    -114.2362517711      2.24e-04   Normal BFGS step
    3    -114.2362522116      1.56e-04   Normal BFGS step
    4    -114.2362522965      4.21e-05   Normal BFGS step
    5    -114.2362523099      8.72e-06   Normal BFGS step
    6    -114.2362523112      5.01e-06   Normal BFGS step
    7    -114.2362523114      4.12e-07   Normal BFGS step
    8    -114.2362523114      1.30e-07   Normal BFGS step
    9    -114.2362523114      1.73e-08   Normal BFGS step
   10    -114.2362523114      4.21e-09  Convergence criterion met
 ---------------------------------------
 SCF time:   CPU 2667.65s  wall 337.00s 
 SCF   energy in the final basis set =     -114.2362523114
 Total energy in the final basis set =     -114.2362523114
 
 Components of the MP2 correlation energy:
        aaaa  correlation energy =        -0.0320015830 au
        abab  correlation energy =        -0.2035774052 au
        bbbb  correlation energy =        -0.0320015830 au
        non-Brillouin singles    =        -0.0000000000 au

 Total  MP2   correlation energy =                    -0.26758057 au
        MP2         total energy =                  -114.50383288 au
 
 --------------------------------------------------------------
 
                    Orbital Energies (a.u.)
 --------------------------------------------------------------
 
 Alpha MOs
 -- Occupied --
-19.994 -10.921  -1.310  -0.821  -0.659  -0.616  -0.527  -0.416
 -- Virtual --
  0.030   0.044   0.054   0.074   0.100   0.121   0.125   0.153
  0.175   0.181   0.185   0.207   0.210   0.229   0.259   0.277
  0.279   0.300   0.302   0.317   0.322   0.348   0.398   0.401
  0.423   0.440   0.485   0.516   0.540   0.543   0.557   0.604
  0.614   0.645   0.652   0.659   0.663   0.710   0.720   0.727
  0.728   0.744   0.755   0.758   0.788   0.809   0.827   0.860
  0.863   0.920   0.939   0.959   0.995   1.031   1.051   1.062
  1.095   1.127   1.153   1.264   1.265   1.350   1.365   1.404
  1.443   1.486   1.490   1.495   1.536   1.538   1.546   1.593
  1.595   1.603   1.635   1.668   1.698   1.767   1.782   1.792
  1.798   1.845   1.860   1.865   1.912   1.930   1.937   1.970
  1.988   2.000   2.028   2.029   2.069   2.089   2.093   2.130
  2.142   2.176   2.257   2.326   2.405   2.412   2.422   2.423
  2.499   2.568   2.587   2.686   2.706   2.713   2.716   2.731
  2.776   2.834   2.851   2.891   2.991   3.024   3.156   3.254
  3.298   3.330   3.409   3.459   3.619   3.635   3.730   3.763
  3.776   3.798   3.873   3.885   3.927   3.952   3.967   4.062
  4.110   4.131   4.140   4.227   4.245   4.257   4.261   4.269
  4.292   4.334   4.453   4.513   4.520   4.577   4.597   4.638
  4.768   4.828   4.991   5.071   5.257   5.270   5.327   5.425
  5.613   5.653   5.677   5.904   5.931   5.984   6.071   6.134
  6.138   6.210   6.295   6.428   6.493   6.644   6.667   6.717
  6.751   6.822   6.831   6.931   7.017   7.024   7.052   7.194
  7.296   7.457   7.588   7.687   7.777   8.064   8.099   8.122
  8.157   8.159   8.358   8.374   8.387   8.419   8.538   8.766
  8.913   8.999   9.034   9.135   9.263   9.478   9.506   9.571
  9.928   9.933   9.975   9.979  10.085  10.189  10.327  10.460
 10.568  10.577  10.590  10.770  10.899  10.919  10.991  11.026
 11.107  11.277  11.437  11.476  11.823  11.846  11.933  12.353
 12.406  12.466  12.565  12.836  12.996  13.037  13.195  13.347
 13.706  14.464  15.084  18.003  19.348  20.949  21.301  26.668
 26.770  27.255  27.624  27.830  33.508  33.815  34.698  37.501
 46.837  46.869  47.215  47.586  48.040  63.844  66.482  67.676
 67.995  98.221  98.227  98.240  98.242  98.247  98.278  98.297
102.828 102.831 102.880 102.881 102.884 102.920 102.959 114.783
114.823 115.058 115.264 115.362 116.415 116.649 117.342 123.160
197.817 197.833 198.020 198.215 198.439 215.747 224.400 225.384
225.645 394.266 394.464 395.022 508.484 893.308
 --------------------------------------------------------------
 
          Ground-State Mulliken Net Atomic Charges

     Atom                 Charge (a.u.)
  ----------------------------------------
      1 O                    -0.506170
      2 C                    -0.314193
      3 H                     0.410182
      4 H                     0.410182
  ----------------------------------------
  Sum of atomic charges =     0.000000

 -----------------------------------------------------------------
                    Cartesian Multipole Moments
 -----------------------------------------------------------------
    Charge (ESU x 10^10)
                 0.0000
    Dipole Moment (Debye)
         X      -0.0000      Y      -0.0000      Z      -2.6581
       Tot       2.6581
    Quadrupole Moments (Debye-Ang)
        XX     -11.8327     XY       0.0000     YY     -11.5437
        XZ      -0.0000     YZ       0.0000     ZZ     -15.0093
    Octopole Moments (Debye-Ang^2)
       XXX      -0.0000    XXY      -0.0000    XYY      -0.0000
       YYY      -0.0000    XXZ      -5.7408    XYZ      -0.0000
       YYZ      -6.8798    XZZ      -0.0000    YZZ      -0.0000
       ZZZ     -21.3809
    Hexadecapole Moments (Debye-Ang^3)
      XXXX     -10.7806   XXXY       0.0000   XXYY      -5.2109
      XYYY       0.0000   YYYY     -18.0506   XXXZ      -0.0000
      XXYZ       0.0000   XYYZ      -0.0000   YYYZ       0.0000
      XXZZ     -12.2068   XYZZ       0.0000   YYZZ     -14.2795
      XZZZ      -0.0000   YZZZ      -0.0000   ZZZZ     -67.5698
 -----------------------------------------------------------------
Archival summary:
1\1\n0096.mhg0\SP\ProcedureUnspecified\BasisUnspecified\112\yhljason\WedNov1115:54:402020WedNov1115:54:402020\0\\#,ProcedureUnspecified,BasisUnspecified,\\0,1\C\H,1,1.11101\H,1,1.11101,2,116.139\O,1,1.205,2,121.93,3,-180,0\\\@

 Total job time:  677.30s(wall), 5360.13s(cpu) 
 Wed Nov 11 15:54:40 2020

        *************************************************************
        *                                                           *
        *  Thank you very much for using Q-Chem.  Have a nice day.  *
        *                                                           *
        *************************************************************


