Q-Chem Developer Version!
                  Welcome to Q-Chem
     A Quantum Leap Into The Future Of Chemistry


 Q-Chem 5.1, Q-Chem, Inc., Pleasanton, CA (2018)

 Yihan Shao,  Zhengting Gan,  E. Epifanovsky,  A. T. B. Gilbert,  M. Wormit,  
 J. Kussmann,  A. W. Lange,  A. Behn,  Jia Deng,  Xintian Feng,  D. Ghosh,  
 M. Goldey,  P. R. Horn,  L. D. Jacobson,  I. Kaliman,  T. Kus,  A. Landau,  
 Jie Liu,  E. I. Proynov,  R. M. Richard,  R. P. Steele,  E. J. Sundstrom,  
 H. L. Woodcock III,  P. M. Zimmerman,  D. Zuev,  B. Albrecht,  E. Alguire,  
 S. A. Baeppler,  D. Barton,  Z. Benda,  Y. A. Bernard,  E. J. Berquist,  
 K. B. Bravaya,  H. Burton,  D. Casanova,  Chun-Min Chang,  Yunqing Chen,  
 A. Chien,  K. D. Closser,  M. P. Coons,  S. Coriani,  S. Dasgupta,  
 A. L. Dempwolff,  M. Diedenhofen,  Hainam Do,  R. G. Edgar,  Po-Tung Fang,  
 S. Faraji,  S. Fatehi,  Qingguo Feng,  K. D. Fenk,  J. Fosso-Tande,  
 Qinghui Ge,  A. Ghysels,  G. Gidofalvi,  J. Gomes,  J. Gonthier,  A. Gunina,  
 D. Hait,  M. W. D. Hanson-Heine,  P. H. P. Harbach,  A. W. Hauser,  
 J. E. Herr,  E. G. Hohenstein,  Z. C. Holden,  Kerwin Hui,  B. C. Huynh,  
 T.-C. Jagau,  Hyunjun Ji,  B. Kaduk,  K. Khistyaev,  Jaehoon Kim,  
 P. Klunzinger,  K. Koh,  D. Kosenkov,  L. Koulias,  T. Kowalczyk,  
 C. M. Krauter,  A. Kunitsa,  Ka Un Lao,  A. Laurent,  K. V. Lawler,  
 Joonho Lee,  D. Lefrancois,  S. Lehtola,  D. S. Levine,  Yi-Pei Li,  
 You-Sheng Lin,  Fenglai Liu,  E. Livshits,  A. Luenser,  P. Manohar,  
 E. Mansoor,  S. F. Manzer,  Shan-Ping Mao,  Yuezhi Mao,  N. Mardirossian,  
 A. V. Marenich,  T. Markovich,  L. A. Martinez-Martinez,  S. A. Maurer,  
 N. J. Mayhall,  S. C. McKenzie,  J.-M. Mewes,  A. F. Morrison,  
 J. W. Mullinax,  K. Nanda,  T. S. Nguyen-Beck,  R. Olivares-Amaya,  
 J. A. Parkhill,  T. M. Perrine,  F. Plasser,  P. Pokhilko,  S. Prager,  
 A. Prociuk,  E. Ramos,  D. R. Rehn,  F. Rob,  M. Schneider,  N. Sergueev,  
 S. M. Sharada,  S. Sharma,  D. W. Small,  T. Stauch,  T. Stein,  
 Yu-Chuan Su,  A. J. W. Thom,  A. Tkatchenko,  T. Tsuchimochi,  N. M. Tubman,  
 L. Vogt,  M. L. Vidal,  O. Vydrov,  M. A. Watson,  J. Wenzel,  
 M. de Wergifosse,  T. A. Wesolowski,  A. White,  J. Witte,  A. Yamada,  
 Jun Yang,  K. Yao,  S. Yeganeh,  S. R. Yost,  Zhi-Qiang You,  A. Zech,  
 Igor Ying Zhang,  Xing Zhang,  Yan Zhao,  Ying Zhu,  B. R. Brooks,  
 G. K. L. Chan,  C. J. Cramer,  M. S. Gordon,  W. J. Hehre,  A. Klamt,  
 M. W. Schmidt,  C. D. Sherrill,  D. G. Truhlar,  A. Aspuru-Guzik,  R. Baer,  
 A. T. Bell,  N. A. Besley,  Jeng-Da Chai,  A. E. DePrince, III,  
 R. A. DiStasio Jr.,  A. Dreuw,  B. D. Dunietz,  T. R. Furlani,  
 Chao-Ping Hsu,  Yousung Jung,  Jing Kong,  D. S. Lambrecht,  WanZhen Liang,  
 C. Ochsenfeld,  V. A. Rassolov,  L. V. Slipchenko,  J. E. Subotnik,  
 T. Van Voorhis,  J. M. Herbert,  A. I. Krylov,  P. M. W. Gill,  M. Head-Gordon

 Contributors to earlier versions of Q-Chem not listed above: 
 R. D. Adamson,  B. Austin,  J. Baker,  G. J. O. Beran,  K. Brandhorst,  
 S. T. Brown,  E. F. C. Byrd,  A. K. Chakraborty,  C.-L. Cheng,  
 Siu Hung Chien,  D. M. Chipman,  D. L. Crittenden,  H. Dachsel,  
 R. J. Doerksen,  A. D. Dutoi,  L. Fusti-Molnar,  W. A. Goddard III,  
 A. Golubeva-Zadorozhnaya,  S. R. Gwaltney,  G. Hawkins,  A. Heyden,  
 S. Hirata,  G. Kedziora,  F. J. Keil,  C. Kelley,  Jihan Kim,  R. A. King,  
 R. Z. Khaliullin,  P. P. Korambath,  W. Kurlancheek,  A. M. Lee,  M. S. Lee,  
 S. V. Levchenko,  Ching Yeh Lin,  D. Liotard,  R. C. Lochan,  I. Lotan,  
 P. E. Maslen,  N. Nair,  D. P. O'Neill,  D. Neuhauser,  E. Neuscamman,  
 C. M. Oana,  R. Olson,  B. Peters,  R. Peverati,  P. A. Pieniazek,  
 Y. M. Rhee,  J. Ritchie,  M. A. Rohrdanz,  E. Rosta,  N. J. Russ,  
 H. F. Schaefer III,  N. E. Schultz,  N. Shenvi,  A. C. Simmonett,  A. Sodt,  
 D. Stuck,  K. S. Thanthiriwatte,  V. Vanovschi,  Tao Wang,  A. Warshel,  
 C. F. Williams,  Q. Wu,  X. Xu,  W. Zhang

 Please cite Q-Chem as follows:
 Y. Shao et al., Mol. Phys. 113, 184-215 (2015)
 DOI: 10.1080/00268976.2014.952696

 Q-Chem 5.1.1 for Intel X86 EM64T Linux

 Parts of Q-Chem use Armadillo 8.300.2 (Tropical Shenanigans).
 http://arma.sourceforge.net/

 Q-Chem begins on Wed Nov 11 14:28:39 2020  

Host: n0094.mhg0
0

     Scratch files written to /local/scratch/users/yhljason/NCl_DSD-PBEPBE-D3_aug-cc-pcVTZ.inp20201111140432//
Input Ideriv = 0
Curr. Ideriv = -1
Max.  Ideriv = 0
Input Ideriv = 1
Curr. Ideriv = 0
Max.  Ideriv = 0

Checking the input file for inconsistencies... 	...done.

--------------------------------------------------------------
User input:
--------------------------------------------------------------
$molecule
0 3
N1      0.0000  0.0000  0.0000
Cl2     0.0000  0.0000  1.6107
$end

$rem
jobtype sp
exchange DSD-PBEPBE-D3
xc_grid 000099000590
basis aug-cc-pcVTZ

max_scf_cycles 200
thresh 14
scf_convergence 8
scf_algorithm gdm
symmetry false
sym_ignore true
unrestricted false
gen_scfman true
internal_stability_iter 15
internal_stability_davidson_iter 200
mem_total 128000
cc_memory 96000
cc_backend xm
mem_static 1500
n_frozen_core 0
$end



--------------------------------------------------------------
 Adding empirical dispersion correction 
 ----------------------------------------------------------------
 Doing -D3(BJ) with
 s6 =   0.78000
 s8 =   0.00000
 a1 =   0.00000
 a2 =   6.10000
 -D3 energy without 3body term =     -0.0006656522 hartrees
 ----------------------------------------------------------------
             Standard Nuclear Orientation (Angstroms)
    I     Atom           X                Y                Z
 ----------------------------------------------------------------
    1      N       0.0000000000     0.0000000000     0.0000000000
    2      Cl      0.0000000000     0.0000000000     1.6107000000
 ----------------------------------------------------------------
 Nuclear Repulsion Energy =    39.0954342331 hartrees
 There are       13 alpha and       11 beta electrons
 Requested basis set is aug-cc-pCVTZ
 There are 42 shells and 134 basis functions

 Total QAlloc Memory Limit 128000 MB
 Mega-Array Size      1467 MB
 MEM_STATIC part      1500 MB

                       Distance Matrix (Angstroms)
             N (  1)
   Cl(  2)  1.610700
 
 A cutoff of  1.0D-14 yielded    883 shell pairs
 There are      9061 function pairs (     12669 Cartesian)
 
 -------------------------------------------------------
 OpenMP Integral Computing Module                       
 Release: version 1.0, May 2013, Q-Chem Inc. Pittsburgh 
 -------------------------------------------------------
 Integral Job Info:
 Integral job number is                      11
 Integral operator is                         1
 short-range coefficients                     0
 long-range coefficients              100000000
 Omega coefficients                           0
 if combine SR and LR in K                    0
 Integral screening is                        0
 Integral computing path is                   2
 max size of driver memory is            800000
 size of driver memory is                776718
 size of scratch memory is             29531563
 max col of scratch BK array              10000
 max len of scratch array in speh3          662
 max len of scratch index in speh4           32
 max int batch size is                      520
 min int batch size is                       52
 fixed nKL is                                31
 max L of basis functions is                  3
 order of int derivative is                   0
 number of shells is                         42
 number of basis is                         158
 number of cartesian basis is               158
 number of contracted shell pairs           883
 number of primitive shell pairs           5031
 maxK2 (contraction) of shell pair          169
 max number of K2 of shell pair               1
 max number of CS2 of shell pair             98
 max number of PS2 of shell pair           1014
 mem total for path MDJ                  562256
 -------------------------------------------------------
 Smallest overlap matrix eigenvalue = 3.23E-04

 Scale SEOQF with 1.000000e-01/1.000000e-01/1.000000e-01

 Standard Electronic Orientation quadrupole field applied
 Nucleus-field energy     =    -0.0000000047 hartrees
 Guess from superposition of atomic densities
 Warning:  Energy on first SCF cycle will be non-variational
 SAD guess density has 24.000000 electrons

 -----------------------------------------------------------------------
  General SCF calculation program by
  Eric Jon Sundstrom, Paul Horn, Yuezhi Mao, Dmitri Zuev, Alec White,
  David Stuck, Shaama M.S., Shane Yost, Joonho Lee, David Small,
  Daniel Levine, Susi Lehtola, Hugh Burton, Evgeny Epifanovsky
 -----------------------------------------------------------------------
 Exchange:     0.6800 Hartree-Fock + 0.3200 PBE
 Correlation:  0.4900 PBE
 Using Euler-Maclaurin-Lebedev (99,590) quadrature formula
 Dispersion:   Grimme D3
Running Object-Oriented ROKS (ROHF)
ROHF occupied orbitals are orthonormal
ROHF occupied orbitals are orthogonal to virtual orbitals
ROHF virtual orbitals are orthonormal
We will preform up to 15 macro iterations over saddle points until a stable solution is found
Energy prior to optimization (guess energy) = -512.991434466177
Begin Timing: Total SCF Calculation
Begin Timing: SCF Single Stationary Point Calculation
begin iterations for algorithm: GDM          
the SCF tolerance is set to 1.00e-08
    1    -512.9914344662      4.51e-01     00000  Descent step
    2    -513.2972461321      3.29e-01     00000  Descent step
    3    -513.5033036327      4.25e-01     00000  Descent step
Fro norm of D 1.015520660685e+00
transformation scaled by 2
    4    -513.6555694578      5.96e-01     00000  Descent step
    5    -513.6790632959      4.31e-01     00000  Normal BFGS step
    6    -513.7558447328      1.54e-01     00000  Normal BFGS step
    7    -513.7636746677      7.38e-02     00000  Normal BFGS step
    8    -513.7870708969      2.54e-01     00000  Normal BFGS step
    9    -513.8218483695      3.15e-01     00000  Descent step
   10    -513.9387065299      3.99e-01     00000  Descent step
Fro norm of D 1.007383911372e+00
transformation scaled by 2
   11    -514.0169738415      4.69e-01     00000  Descent step
   12    -514.0544602515      2.90e-01     00000  Descent step
   13    -514.0688590985      2.97e-01     00000  Descent step
   14    -513.9740034764      8.53e-01     00000 Line search: overstep
   15    -514.0852875943      8.57e-02     00000  Dog-leg BFGS step
   16    -514.0182513174      4.67e-01     00000 Line search: overstep
   17    -514.0859193750      2.73e-02     00000  Dog-leg BFGS step
   18    -514.0291126282      5.83e-01     00000 Line search: overstep
   19    -514.0870795567      4.36e-02     00000  Normal BFGS step
   20    -514.0880372594      1.94e-02     00000  Normal BFGS step
   21    -514.0882939520      1.41e-02     00000  Normal BFGS step
   22    -514.0883406863      1.13e-02     00000  Normal BFGS step
   23    -514.0884228044      1.87e-03     00000  Normal BFGS step
   24    -514.0884252801      1.70e-03     00000  Normal BFGS step
   25    -514.0884243397      3.20e-03     00000 Line search: overstep
   26    -514.0884258970      6.87e-04     00000  Normal BFGS step
   27    -514.0884260559      1.17e-04     00000  Normal BFGS step
   28    -514.0884260981      1.07e-04     00000  Normal BFGS step
   29    -514.0884261397      3.61e-05     00000  Normal BFGS step
   30    -514.0884261468      1.58e-05     00000  Normal BFGS step
   31    -514.0884261470      9.14e-06     00000  Normal BFGS step
   32    -514.0884261471      4.21e-07     00000  Normal BFGS step
   33    -514.0884261471      1.95e-07     00000  Normal BFGS step
   34    -514.0884261471      7.48e-07     00000  Normal BFGS step
   35    -514.0884261471      1.16e-06     00000  Normal BFGS step
   36    -514.0884261471      6.87e-08     00000  Normal BFGS step
   37    -514.0884261471      3.19e-08     00000  Normal BFGS step
   38    -514.0884261471      1.38e-08     00000  Normal BFGS step
   39    -514.0884261471      1.46e-08     00000  Normal BFGS step
   40    -514.0884261471      1.86e-08     00000  Normal BFGS step
   41    -514.0884261471      7.80e-08     00000  Normal BFGS step
   42    -514.0884261471      1.17e-07     00000  Normal BFGS step
   43    -514.0884261471      1.24e-07     00000  Normal BFGS step
   44    -514.0884261471      3.28e-06     00000  Normal BFGS step
   45    -514.0884261471      5.76e-06     00000  Normal BFGS step
   46    -514.0884261250      3.76e-04     00000 Line search: overstep
  /global/home/groups-sw/mhg/qchem_public/qchem5p0/libgscf/libgscf/opt/gdm.C::WARNING energy changes are now smaller than effective accuracy.
  /global/home/groups-sw/mhg/qchem_public/qchem5p0/libgscf/libgscf/opt/gdm.C::        calculation will continue, but THRESH should be increased
  /global/home/groups-sw/mhg/qchem_public/qchem5p0/libgscf/libgscf/opt/gdm.C::        or SCF_CONVERGENCE decreased. 
  /global/home/groups-sw/mhg/qchem_public/qchem5p0/libgscf/libgscf/opt/gdm.C::        effective_thresh = 3.94e-09
   47    -514.0884261470      3.25e-05     00000  Normal BFGS step
   48    -514.0884261471      6.48e-06     00000  Normal BFGS step
   49    -514.0884261471      4.25e-06     00000  Normal BFGS step
   50    -514.0884261471      3.13e-06     00000  Normal BFGS step
   51    -514.0884261472      3.56e-06     00000  Normal BFGS step
   52    -514.0884261472      3.78e-06     00000  Normal BFGS step
   53    -514.0884261472      4.01e-06     00000  Normal BFGS step
   54    -514.0884261472      5.60e-06     00000  Normal BFGS step
   55    -514.0884261474      4.18e-05     00000  Normal BFGS step
   56    -514.0884263119      3.31e-03     00000 Line search: understep
   57    -514.0884188625      3.17e-02     00000 Line search: overstep
   58    -514.0884267031      6.23e-03     00000 Line search: understep
   59    -514.0884232065      2.92e-02     00000 Line search: overstep
   60    -514.0884271586      8.58e-03     00000 Line search: understep
   61    -514.0884256702      2.72e-02     00000 Line search: overstep
   62    -514.0884275865      1.05e-02     00000 Line search: understep
   63    -514.0884270873      2.52e-02     00000  Normal BFGS step
   64    -514.0884261864      1.39e-03     00000 Line search: overstep
   65    -514.0884285549      1.41e-02     00000  Normal BFGS step
   66    -514.0884795086      6.47e-02     00000  Dog-leg BFGS step
   67    -514.1078440881      2.09e-01     00000  Dog-leg BFGS step
   68    -514.1397312999      2.59e-01     00000  Descent step
Fro norm of D 1.192147493390e+00
transformation scaled by 2
   69    -514.1999501734      4.10e-01     00000  Descent step
   70    -514.2014455293      5.09e-01     00000  Descent step
   71    -514.2426943537      2.90e-01     00000  Descent step
   72    -514.0949454071      1.23e+00     00000 Line search: overstep
   73    -514.2695674435      4.86e-02     00000  Dog-leg BFGS step
   74    -514.2025087163      2.75e-01     00000 Line search: overstep
   75    -514.2708706075      4.53e-02     00000  Dog-leg BFGS step
   76    -514.1521286814      8.97e-01     00000 Line search: overstep
   77    -514.2723182145      6.20e-02     00000  Dog-leg BFGS step
   78    -514.1978815220      3.67e-01     00000 Line search: overstep
   79    -514.2735348942      3.50e-02     00000  Dog-leg BFGS step
   80    -514.1998282686      4.90e-01     00000 Line search: overstep
   81    -514.2743415007      3.87e-02     00000  Normal BFGS step
   82    -514.2734224853      5.08e-02     00000 Line search: overstep
   83    -514.2747706819      2.29e-02     00000  Normal BFGS step
   84    -514.2732686732      6.44e-02     00000 Line search: overstep
   85    -514.2750142967      1.34e-02     00000  Normal BFGS step
   86    -514.2748112810      3.60e-02     00000 Line search: overstep
   87    -514.2751082035      6.02e-03     00000  Normal BFGS step
   88    -514.2750967367      1.26e-02     00000 Line search: overstep
   89    -514.2751240947      4.31e-03     00000  Normal BFGS step
   90    -514.2722983020      7.54e-02     00000 Line search: overstep
   91    -514.2751153573      6.46e-03     00000 Line search: overstep
   92    -514.2751278943      3.94e-03     00000  Normal BFGS step
   93    -514.2751221695      7.45e-03     00000 Line search: overstep
   94    -514.2751360214      1.08e-03     00000  Normal BFGS step
   95    -514.2751385443      8.47e-04     00000  Normal BFGS step
   96    -514.2751393216      4.43e-04     00000  Normal BFGS step
   97    -514.2751394713      1.71e-04     00000  Normal BFGS step
   98    -514.2751395305      4.18e-05     00000  Normal BFGS step
   99    -514.2751395388      1.93e-05     00000  Normal BFGS step
  100    -514.2751395409      7.67e-06     00000  Normal BFGS step
  101    -514.2751395410      1.48e-06     00000  Normal BFGS step
  102    -514.2751395410      4.53e-07     00000  Normal BFGS step
  103    -514.2751395410      1.27e-07     00000  Normal BFGS step
  104    -514.2751395410      4.61e-07     00000  Normal BFGS step
  105    -514.2751395410      6.34e-07     00000  Normal BFGS step
  106    -514.2751395410      2.12e-07     00000  Normal BFGS step
  107    -514.2751395410      1.39e-07     00000  Normal BFGS step
  108    -514.2751395410      2.81e-08     00000  Normal BFGS step
  109    -514.2751395410      5.84e-08     00000  Normal BFGS step
  110    -514.2751395410      1.88e-08     00000  Normal BFGS step
  111    -514.2751395410      3.73e-08     00000  Normal BFGS step
  112    -514.2751395410      1.44e-08     00000  Normal BFGS step
  113    -514.2751395410      2.34e-08     00000  Normal BFGS step
  114    -514.2751395410      5.46e-09     00000 Convergence criterion met
The disked orbital energies are calculated using alpha and beta Focks
Timing for Single Stationary Point: 262.00s (wall), 2078.98s (cpu)
Begin Timing: Stability
===================================================
Beginning Test for Internal Stability
===================================================
generating davidson guess vectors based on koopmans-like excitations
    1      6.75e-01     00000 Davidson Iteration
    2      3.16e-01     00000 Davidson Iteration
    3      1.69e-01     00000 Davidson Iteration
    4      8.73e-02     00000 Davidson Iteration
    5      3.33e-02     00000 Davidson Iteration
    6      7.40e-03     00000 Davidson Iteration
    7      4.62e-03     00000 Davidson Iteration
    8      8.58e-03     00000 Davidson Iteration
    9      3.96e-03     00000 Davidson Iteration
   10      8.79e-04     00000 Davidson Iteration
   11      7.60e-04     00000 Davidson Iteration
   12      7.54e-04     00000 Davidson Iteration
   13      7.20e-04     00000 Davidson Iteration
   14      7.54e-04     00000 Davidson Iteration
   15      7.28e-04     00000 Davidson Iteration
   16      8.99e-04     00000 Davidson Iteration
   17      1.96e-04     00000 Davidson Iteration
   18      6.10e-05     00000 Davidson Iteration
   19      1.32e-03     00000 Davidson Iteration
   20      5.08e-04     00000 Davidson Iteration
   21      8.63e-05     00000 Davidson Converged
converged_eigenvalues
   0.3505
   0.3505
Threshold for negative eigenvalues: -1.0e-05
solution was a local minimum (stable)
===================================================
End Test for Internal Stability
===================================================
Our SCF solution is stable!
The disked orbital energies are calculated using alpha and beta Focks
Timing for Total SCF: 332.00s (wall), 2631.23s (cpu)
 Total energy in the final basis set =     -514.2751395410
<S^2> =          2.000000000
    ==================================================
              The end of Object-Oriented SCFman       
    ==================================================
 
 Components of the MP2 correlation energy:
        aaaa  correlation energy =        -0.0150203693 au
        abab  correlation energy =        -0.3229534576 au
        bbbb  correlation energy =        -0.0120663703 au
        non-Brillouin singles    =        -0.0054679846 au

 Total  MP2   correlation energy =                    -0.35550818 au
        MP2         total energy =                  -514.63064772 au
 
 --------------------------------------------------------------
 
                    Orbital Energies (a.u.)
 --------------------------------------------------------------
 
 Alpha MOs
 -- Occupied --
******* -15.191 -10.185  -7.766  -7.763  -7.763  -1.190  -0.892
 -0.547  -0.521  -0.521  -0.437  -0.437
 -- Virtual --
  0.044   0.081   0.091   0.091   0.115   0.140   0.140   0.148
  0.251   0.263   0.263   0.353   0.353   0.427   0.468   0.468
  0.489   0.526   0.526   0.556   0.556   0.656   0.727   0.761
  0.761   0.776   0.776   0.845   0.828   0.828   0.968   1.060
  1.060   1.139   1.139   1.234   1.311   1.311   1.449   1.449
  1.437   1.437   1.574   1.652   1.652   1.707   1.734   1.734
  1.999   2.000   2.000   2.214   2.214   2.283   2.283   2.472
  2.619   2.619   2.878   2.878   2.909   2.909   2.966   2.944
  2.944   3.033   3.320   3.320   3.449   3.974   4.615   4.667
  4.667   4.774   4.774   4.816   4.816   4.953   4.953   5.146
  5.146   5.365   5.463  10.045  10.045  10.088  10.088  10.352
 12.363  12.363  12.811  17.869  20.295  20.295  21.002  21.866
 36.383  36.383  36.387  36.387  36.389  36.389  36.405  38.635
 38.635  38.728  38.728  38.807  45.907  45.907  45.933  45.933
 46.068  54.373  54.373  54.897 102.900 108.099 108.099 108.750
114.604
 
 Beta MOs
 -- Occupied --
******* -15.143 -10.183  -7.765  -7.758  -7.758  -1.118  -0.777
 -0.489  -0.470  -0.470
 -- Virtual --
  0.038   0.038   0.051   0.089   0.094   0.094   0.120   0.150
  0.150   0.166   0.259   0.273   0.273   0.372   0.372   0.441
  0.492   0.492   0.501   0.541   0.541   0.569   0.569   0.662
  0.747   0.772   0.772   0.798   0.798   0.858   0.884   0.884
  0.986   1.068   1.068   1.154   1.154   1.265   1.335   1.335
  1.484   1.484   1.534   1.534   1.590   1.680   1.680   1.724
  1.758   1.758   2.020   2.027   2.027   2.223   2.223   2.294
  2.294   2.497   2.635   2.635   2.888   2.888   2.917   2.917
  2.971   2.991   2.991   3.050   3.400   3.400   3.460   4.025
  4.659   4.762   4.762   4.839   4.839   4.957   4.957   4.998
  4.998   5.220   5.220   5.409   5.507  10.048  10.048  10.090
 10.090  10.354  12.368  12.368  12.813  17.873  20.362  20.362
 21.027  21.902  36.384  36.384  36.388  36.388  36.390  36.390
 36.405  38.696  38.696  38.761  38.761  38.832  45.911  45.911
 45.936  45.936  46.070  54.376  54.376  54.897 102.902 108.116
108.116 108.755 114.618
 --------------------------------------------------------------
 
          Ground-State Mulliken Net Atomic Charges

     Atom                 Charge (a.u.)
  ----------------------------------------
      1 N                    -0.289143
      2 Cl                    0.289143
  ----------------------------------------
  Sum of atomic charges =    -0.000000

 -----------------------------------------------------------------
                    Cartesian Multipole Moments
 -----------------------------------------------------------------
    Charge (ESU x 10^10)
                -0.0000
    Dipole Moment (Debye)
         X       0.0000      Y       0.0000      Z       0.7768
       Tot       0.7768
    Quadrupole Moments (Debye-Ang)
        XX     -17.8574     XY      -0.0000     YY     -17.8574
        XZ       0.0000     YZ       0.0000     ZZ     -16.4876
    Octopole Moments (Debye-Ang^2)
       XXX       0.0000    XXY       0.0000    XYY       0.0000
       YYY       0.0000    XXZ     -20.1343    XYZ      -0.0000
       YYZ     -20.1343    XZZ       0.0000    YZZ       0.0000
       ZZZ     -53.2799
    Hexadecapole Moments (Debye-Ang^3)
      XXXX     -18.7028   XXXY      -0.0000   XXYY      -6.2343
      XYYY      -0.0000   YYYY     -18.7028   XXXZ       0.0000
      XXYZ       0.0000   XYYZ       0.0000   YYYZ       0.0000
      XXZZ     -39.0442   XYZZ      -0.0000   YYZZ     -39.0442
      XZZZ       0.0000   YZZZ       0.0000   ZZZZ    -188.7275
 -----------------------------------------------------------------
Archival summary:
1\1\n0094.mhg0\SP\ROProcedureUnspecified\BasisUnspecified\l11(3)\yhljason\WedNov1114:34:492020WedNov1114:34:492020\0\\#,ROProcedureUnspecified,BasisUnspecified,\\0,3\N\Cl,1,1.6107\\\@

 Total job time:  369.60s(wall), 2934.61s(cpu) 
 Wed Nov 11 14:34:49 2020

        *************************************************************
        *                                                           *
        *  Thank you very much for using Q-Chem.  Have a nice day.  *
        *                                                           *
        *************************************************************


 
User input: 2 of 7 
 
Q-Chem Developer Version!
                  Welcome to Q-Chem
     A Quantum Leap Into The Future Of Chemistry


 Q-Chem 5.1, Q-Chem, Inc., Pleasanton, CA (2018)

 Yihan Shao,  Zhengting Gan,  E. Epifanovsky,  A. T. B. Gilbert,  M. Wormit,  
 J. Kussmann,  A. W. Lange,  A. Behn,  Jia Deng,  Xintian Feng,  D. Ghosh,  
 M. Goldey,  P. R. Horn,  L. D. Jacobson,  I. Kaliman,  T. Kus,  A. Landau,  
 Jie Liu,  E. I. Proynov,  R. M. Richard,  R. P. Steele,  E. J. Sundstrom,  
 H. L. Woodcock III,  P. M. Zimmerman,  D. Zuev,  B. Albrecht,  E. Alguire,  
 S. A. Baeppler,  D. Barton,  Z. Benda,  Y. A. Bernard,  E. J. Berquist,  
 K. B. Bravaya,  H. Burton,  D. Casanova,  Chun-Min Chang,  Yunqing Chen,  
 A. Chien,  K. D. Closser,  M. P. Coons,  S. Coriani,  S. Dasgupta,  
 A. L. Dempwolff,  M. Diedenhofen,  Hainam Do,  R. G. Edgar,  Po-Tung Fang,  
 S. Faraji,  S. Fatehi,  Qingguo Feng,  K. D. Fenk,  J. Fosso-Tande,  
 Qinghui Ge,  A. Ghysels,  G. Gidofalvi,  J. Gomes,  J. Gonthier,  A. Gunina,  
 D. Hait,  M. W. D. Hanson-Heine,  P. H. P. Harbach,  A. W. Hauser,  
 J. E. Herr,  E. G. Hohenstein,  Z. C. Holden,  Kerwin Hui,  B. C. Huynh,  
 T.-C. Jagau,  Hyunjun Ji,  B. Kaduk,  K. Khistyaev,  Jaehoon Kim,  
 P. Klunzinger,  K. Koh,  D. Kosenkov,  L. Koulias,  T. Kowalczyk,  
 C. M. Krauter,  A. Kunitsa,  Ka Un Lao,  A. Laurent,  K. V. Lawler,  
 Joonho Lee,  D. Lefrancois,  S. Lehtola,  D. S. Levine,  Yi-Pei Li,  
 You-Sheng Lin,  Fenglai Liu,  E. Livshits,  A. Luenser,  P. Manohar,  
 E. Mansoor,  S. F. Manzer,  Shan-Ping Mao,  Yuezhi Mao,  N. Mardirossian,  
 A. V. Marenich,  T. Markovich,  L. A. Martinez-Martinez,  S. A. Maurer,  
 N. J. Mayhall,  S. C. McKenzie,  J.-M. Mewes,  A. F. Morrison,  
 J. W. Mullinax,  K. Nanda,  T. S. Nguyen-Beck,  R. Olivares-Amaya,  
 J. A. Parkhill,  T. M. Perrine,  F. Plasser,  P. Pokhilko,  S. Prager,  
 A. Prociuk,  E. Ramos,  D. R. Rehn,  F. Rob,  M. Schneider,  N. Sergueev,  
 S. M. Sharada,  S. Sharma,  D. W. Small,  T. Stauch,  T. Stein,  
 Yu-Chuan Su,  A. J. W. Thom,  A. Tkatchenko,  T. Tsuchimochi,  N. M. Tubman,  
 L. Vogt,  M. L. Vidal,  O. Vydrov,  M. A. Watson,  J. Wenzel,  
 M. de Wergifosse,  T. A. Wesolowski,  A. White,  J. Witte,  A. Yamada,  
 Jun Yang,  K. Yao,  S. Yeganeh,  S. R. Yost,  Zhi-Qiang You,  A. Zech,  
 Igor Ying Zhang,  Xing Zhang,  Yan Zhao,  Ying Zhu,  B. R. Brooks,  
 G. K. L. Chan,  C. J. Cramer,  M. S. Gordon,  W. J. Hehre,  A. Klamt,  
 M. W. Schmidt,  C. D. Sherrill,  D. G. Truhlar,  A. Aspuru-Guzik,  R. Baer,  
 A. T. Bell,  N. A. Besley,  Jeng-Da Chai,  A. E. DePrince, III,  
 R. A. DiStasio Jr.,  A. Dreuw,  B. D. Dunietz,  T. R. Furlani,  
 Chao-Ping Hsu,  Yousung Jung,  Jing Kong,  D. S. Lambrecht,  WanZhen Liang,  
 C. Ochsenfeld,  V. A. Rassolov,  L. V. Slipchenko,  J. E. Subotnik,  
 T. Van Voorhis,  J. M. Herbert,  A. I. Krylov,  P. M. W. Gill,  M. Head-Gordon

 Contributors to earlier versions of Q-Chem not listed above: 
 R. D. Adamson,  B. Austin,  J. Baker,  G. J. O. Beran,  K. Brandhorst,  
 S. T. Brown,  E. F. C. Byrd,  A. K. Chakraborty,  C.-L. Cheng,  
 Siu Hung Chien,  D. M. Chipman,  D. L. Crittenden,  H. Dachsel,  
 R. J. Doerksen,  A. D. Dutoi,  L. Fusti-Molnar,  W. A. Goddard III,  
 A. Golubeva-Zadorozhnaya,  S. R. Gwaltney,  G. Hawkins,  A. Heyden,  
 S. Hirata,  G. Kedziora,  F. J. Keil,  C. Kelley,  Jihan Kim,  R. A. King,  
 R. Z. Khaliullin,  P. P. Korambath,  W. Kurlancheek,  A. M. Lee,  M. S. Lee,  
 S. V. Levchenko,  Ching Yeh Lin,  D. Liotard,  R. C. Lochan,  I. Lotan,  
 P. E. Maslen,  N. Nair,  D. P. O'Neill,  D. Neuhauser,  E. Neuscamman,  
 C. M. Oana,  R. Olson,  B. Peters,  R. Peverati,  P. A. Pieniazek,  
 Y. M. Rhee,  J. Ritchie,  M. A. Rohrdanz,  E. Rosta,  N. J. Russ,  
 H. F. Schaefer III,  N. E. Schultz,  N. Shenvi,  A. C. Simmonett,  A. Sodt,  
 D. Stuck,  K. S. Thanthiriwatte,  V. Vanovschi,  Tao Wang,  A. Warshel,  
 C. F. Williams,  Q. Wu,  X. Xu,  W. Zhang

 Please cite Q-Chem as follows:
 Y. Shao et al., Mol. Phys. 113, 184-215 (2015)
 DOI: 10.1080/00268976.2014.952696

 Q-Chem 5.1.1 for Intel X86 EM64T Linux

 Parts of Q-Chem use Armadillo 8.300.2 (Tropical Shenanigans).
 http://arma.sourceforge.net/

 Q-Chem begins on Wed Nov 11 14:34:49 2020  

Host: n0094.mhg0
0

     Scratch files written to /local/scratch/users/yhljason/NCl_DSD-PBEPBE-D3_aug-cc-pcVTZ.inp20201111140432//
The previous job contains 0 fragments, simply inherited here
Input Ideriv = 0
Curr. Ideriv = -1
Max.  Ideriv = 0
Input Ideriv = 1
Curr. Ideriv = 0
Max.  Ideriv = 0

Checking the input file for inconsistencies... 	...done.

--------------------------------------------------------------
User input:
--------------------------------------------------------------
$molecule
read
$end

$rem
jobtype sp
exchange DSD-PBEPBE-D3
xc_grid 000099000590
basis aug-cc-pcVTZ

max_scf_cycles 200
thresh 14
scf_convergence 8
mem_total 128000
cc_memory 96000
cc_backend xm
mem_static 1500
symmetry false
sym_ignore true
scf_guess read
unrestricted false
scf_algorithm gdm
n_frozen_core 0
$end



$multipole_field
XX 0.0001
$end


--------------------------------------------------------------
 Adding empirical dispersion correction 
 ----------------------------------------------------------------
 Doing -D3(BJ) with
 s6 =   0.78000
 s8 =   0.00000
 a1 =   0.00000
 a2 =   6.10000
 -D3 energy without 3body term =     -0.0006656522 hartrees
 ----------------------------------------------------------------
             Standard Nuclear Orientation (Angstroms)
    I     Atom           X                Y                Z
 ----------------------------------------------------------------
    1      N       0.0000000000     0.0000000000     0.0000000000
    2      Cl      0.0000000000     0.0000000000     1.6107000000
 ----------------------------------------------------------------
 Nuclear Repulsion Energy =    39.0954342331 hartrees
 There are       13 alpha and       11 beta electrons
 Requested basis set is aug-cc-pCVTZ
 There are 42 shells and 134 basis functions

 Total QAlloc Memory Limit 128000 MB
 Mega-Array Size      1467 MB
 MEM_STATIC part      1500 MB

                       Distance Matrix (Angstroms)
             N (  1)
   Cl(  2)  1.610700
 
 Applying Cartesian multipole field
    Component          Value
    ---------          -----
     (2,0,0)        1.00000E-04
 A cutoff of  1.0D-14 yielded    883 shell pairs
 There are      9061 function pairs (     12669 Cartesian)
 
 -------------------------------------------------------
 OpenMP Integral Computing Module                       
 Release: version 1.0, May 2013, Q-Chem Inc. Pittsburgh 
 -------------------------------------------------------
 Integral Job Info:
 Integral job number is                      11
 Integral operator is                         1
 short-range coefficients                     0
 long-range coefficients              100000000
 Omega coefficients                           0
 if combine SR and LR in K                    0
 Integral screening is                        0
 Integral computing path is                   2
 max size of driver memory is            800000
 size of driver memory is                776718
 size of scratch memory is             29531563
 max col of scratch BK array              10000
 max len of scratch array in speh3          662
 max len of scratch index in speh4           32
 max int batch size is                      520
 min int batch size is                       52
 fixed nKL is                                31
 max L of basis functions is                  3
 order of int derivative is                   0
 number of shells is                         42
 number of basis is                         158
 number of cartesian basis is               158
 number of contracted shell pairs           883
 number of primitive shell pairs           5031
 maxK2 (contraction) of shell pair          169
 max number of K2 of shell pair               1
 max number of CS2 of shell pair             98
 max number of PS2 of shell pair           1014
 mem total for path MDJ                  562256
 -------------------------------------------------------
 Smallest overlap matrix eigenvalue = 3.23E-04
 Guess MOs from SCF MO coefficient file
 Reading MOs from coefficient file
 Reading MOs from coefficient file
 A restricted hybrid HF-DFT SCF calculation will be
 performed using Geometric Direct Minimization
 Exchange:     0.6800 Hartree-Fock + 0.3200 PBE
 Correlation:  0.4900 PBE
 Using Euler-Maclaurin-Lebedev (99,590) quadrature formula
 Dispersion:   Grimme D3
 SCF converges when RMS gradient is below 1.0E-08
Using Q-Chem read-in guess as SCF_GUESS READ specified.

 using 8 threads for integral computing
 -------------------------------------------------------
 OpenMP Integral computing Module                
 Release: version 2.0, May 2017, Q-Chem Inc. Pleasanton 
 -------------------------------------------------------
TIMEINFO->: J/JK contribution 14.78 sec.
 -------------------------------------------------------
 OpenMP BLAS3 based DFT computing Module                
 Release: version 1.0, May 2013, Q-Chem Inc. Pittsburgh 
 -------------------------------------------------------
 ---------------------------------------
  Cycle       Energy        RMS Gradient
 ---------------------------------------
    1    -514.2764671945      4.25E-04 Normal BFGS step
TIMEINFO->: J/JK contribution 14.54 sec.
    2    -514.2764674723      2.56E-04 Normal BFGS step
TIMEINFO->: J/JK contribution 14.26 sec.
    3    -514.2764675123      8.47E-05 Normal BFGS step
TIMEINFO->: J/JK contribution 14.42 sec.
    4    -514.2764675204      3.78E-05 Normal BFGS step
TIMEINFO->: J/JK contribution 14.25 sec.
    5    -514.2764675234      1.70E-05 Normal BFGS step
TIMEINFO->: J/JK contribution 14.11 sec.
    6    -514.2764675236      4.67E-06 Normal BFGS step
TIMEINFO->: J/JK contribution 14.22 sec.
    7    -514.2764675236      2.02E-06 Normal BFGS step
TIMEINFO->: J/JK contribution 14.03 sec.
    8    -514.2764675237      4.93E-07 Normal BFGS step
TIMEINFO->: J/JK contribution 13.82 sec.
    9    -514.2764675237      3.71E-08 Normal BFGS step
TIMEINFO->: J/JK contribution 13.64 sec.
   10    -514.2764675237      1.49E-08 Normal BFGS step
TIMEINFO->: J/JK contribution 13.15 sec.
   11    -514.2764675237      6.10E-09 Convergence criterion met
 ---------------------------------------
 SCF time:  CPU 196.95 s  wall 24.82 s
 SCF   energy in the final basis set = -514.27646752
 Total energy in the final basis set = -514.27646752
 
 Components of the MP2 correlation energy:
        aaaa  correlation energy =        -0.0150208713 au
        abab  correlation energy =        -0.3229549829 au
        bbbb  correlation energy =        -0.0120660597 au
        non-Brillouin singles    =        -0.0054674532 au

 Total  MP2   correlation energy =                    -0.35550937 au
        MP2         total energy =                  -514.63197689 au
 
 --------------------------------------------------------------
 
                    Orbital Energies (a.u.)
 --------------------------------------------------------------
 
 Alpha MOs
 -- Occupied --
******* -15.191 -10.186  -7.766  -7.763  -7.763  -1.188  -0.893
 -0.549  -0.521  -0.521  -0.437  -0.437
 -- Virtual --
  0.042   0.080   0.089   0.090   0.113   0.137   0.139   0.148
  0.250   0.263   0.263   0.351   0.351   0.427   0.467   0.467
  0.488   0.521   0.522   0.556   0.556   0.655   0.726   0.761
  0.761   0.772   0.772   0.834   0.845   0.834   0.968   1.060
  1.060   1.138   1.138   1.234   1.309   1.310   1.449   1.449
  1.437   1.437   1.574   1.652   1.652   1.707   1.734   1.734
  1.999   2.000   2.000   2.214   2.214   2.283   2.283   2.473
  2.618   2.618   2.878   2.878   2.909   2.909   2.941   2.941
  2.966   3.033   3.325   3.325   3.448   3.973   4.615   4.667
  4.667   4.772   4.772   4.818   4.818   4.953   4.953   5.146
  5.146   5.362   5.467  10.045  10.045  10.088  10.088  10.352
 12.362  12.363  12.811  17.869  20.295  20.295  21.002  21.866
 36.383  36.383  36.387  36.387  36.389  36.389  36.404  38.635
 38.635  38.728  38.728  38.807  45.907  45.907  45.933  45.933
 46.068  54.373  54.373  54.896 102.900 108.099 108.099 108.750
114.603
 
 Beta MOs
 -- Occupied --
******* -15.144 -10.183  -7.765  -7.758  -7.758  -1.121  -0.777
 -0.488  -0.470  -0.470
 -- Virtual --
  0.037   0.037   0.052   0.088   0.092   0.093   0.120   0.148
  0.150   0.164   0.258   0.272   0.272   0.372   0.373   0.440
  0.492   0.492   0.501   0.542   0.543   0.567   0.568   0.661
  0.747   0.772   0.772   0.799   0.799   0.880   0.857   0.881
  0.986   1.067   1.067   1.154   1.154   1.265   1.335   1.335
  1.484   1.484   1.533   1.533   1.589   1.679   1.679   1.724
  1.758   1.758   2.020   2.027   2.027   2.222   2.222   2.293
  2.294   2.497   2.635   2.635   2.888   2.888   2.917   2.917
  2.992   2.992   2.971   3.049   3.397   3.397   3.460   4.025
  4.659   4.762   4.762   4.840   4.840   4.955   4.955   4.998
  4.998   5.220   5.220   5.410   5.505  10.048  10.048  10.090
 10.090  10.354  12.368  12.368  12.813  17.872  20.361  20.361
 21.027  21.902  36.384  36.384  36.388  36.388  36.389  36.389
 36.405  38.695  38.695  38.761  38.761  38.832  45.911  45.911
 45.935  45.935  46.069  54.376  54.376  54.897 102.902 108.116
108.116 108.755 114.618
 --------------------------------------------------------------
 
          Ground-State Mulliken Net Atomic Charges

     Atom                 Charge (a.u.)
  ----------------------------------------
      1 N                    -0.288789
      2 Cl                    0.288789
  ----------------------------------------
  Sum of atomic charges =    -0.000000

 -----------------------------------------------------------------
                    Cartesian Multipole Moments
 -----------------------------------------------------------------
    Charge (ESU x 10^10)
                -0.0000
    Dipole Moment (Debye)
         X       0.0000      Y       0.0000      Z       0.7762
       Tot       0.7762
    Quadrupole Moments (Debye-Ang)
        XX     -17.8663     XY       0.0000     YY     -17.8595
        XZ      -0.0000     YZ      -0.0000     ZZ     -16.4901
    Octopole Moments (Debye-Ang^2)
       XXX      -0.0000    XXY      -0.0000    XYY      -0.0000
       YYY      -0.0000    XXZ     -20.1458    XYZ       0.0000
       YYZ     -20.1372    XZZ      -0.0000    YZZ      -0.0000
       ZZZ     -53.2877
    Hexadecapole Moments (Debye-Ang^3)
      XXXX     -18.7356   XXXY       0.0000   XXYY      -6.2412
      XYYY       0.0000   YYYY     -18.7119   XXXZ      -0.0000
      XXYZ      -0.0000   XYYZ      -0.0000   YYYZ      -0.0000
      XXZZ     -39.0708   XYZZ      -0.0000   YYZZ     -39.0518
      XZZZ      -0.0000   YZZZ      -0.0000   ZZZZ    -188.7576
 -----------------------------------------------------------------
Archival summary:
1\1\n0094.mhg0\SP\ROProcedureUnspecified\BasisUnspecified\l11(3)\yhljason\WedNov1114:35:502020WedNov1114:35:502020\0\\#,ROProcedureUnspecified,BasisUnspecified,\\0,3\N\Cl,1,1.6107\\\@

 Total job time:  60.62s(wall), 476.64s(cpu) 
 Wed Nov 11 14:35:50 2020

        *************************************************************
        *                                                           *
        *  Thank you very much for using Q-Chem.  Have a nice day.  *
        *                                                           *
        *************************************************************


 
User input: 3 of 7 
 
Q-Chem Developer Version!
                  Welcome to Q-Chem
     A Quantum Leap Into The Future Of Chemistry


 Q-Chem 5.1, Q-Chem, Inc., Pleasanton, CA (2018)

 Yihan Shao,  Zhengting Gan,  E. Epifanovsky,  A. T. B. Gilbert,  M. Wormit,  
 J. Kussmann,  A. W. Lange,  A. Behn,  Jia Deng,  Xintian Feng,  D. Ghosh,  
 M. Goldey,  P. R. Horn,  L. D. Jacobson,  I. Kaliman,  T. Kus,  A. Landau,  
 Jie Liu,  E. I. Proynov,  R. M. Richard,  R. P. Steele,  E. J. Sundstrom,  
 H. L. Woodcock III,  P. M. Zimmerman,  D. Zuev,  B. Albrecht,  E. Alguire,  
 S. A. Baeppler,  D. Barton,  Z. Benda,  Y. A. Bernard,  E. J. Berquist,  
 K. B. Bravaya,  H. Burton,  D. Casanova,  Chun-Min Chang,  Yunqing Chen,  
 A. Chien,  K. D. Closser,  M. P. Coons,  S. Coriani,  S. Dasgupta,  
 A. L. Dempwolff,  M. Diedenhofen,  Hainam Do,  R. G. Edgar,  Po-Tung Fang,  
 S. Faraji,  S. Fatehi,  Qingguo Feng,  K. D. Fenk,  J. Fosso-Tande,  
 Qinghui Ge,  A. Ghysels,  G. Gidofalvi,  J. Gomes,  J. Gonthier,  A. Gunina,  
 D. Hait,  M. W. D. Hanson-Heine,  P. H. P. Harbach,  A. W. Hauser,  
 J. E. Herr,  E. G. Hohenstein,  Z. C. Holden,  Kerwin Hui,  B. C. Huynh,  
 T.-C. Jagau,  Hyunjun Ji,  B. Kaduk,  K. Khistyaev,  Jaehoon Kim,  
 P. Klunzinger,  K. Koh,  D. Kosenkov,  L. Koulias,  T. Kowalczyk,  
 C. M. Krauter,  A. Kunitsa,  Ka Un Lao,  A. Laurent,  K. V. Lawler,  
 Joonho Lee,  D. Lefrancois,  S. Lehtola,  D. S. Levine,  Yi-Pei Li,  
 You-Sheng Lin,  Fenglai Liu,  E. Livshits,  A. Luenser,  P. Manohar,  
 E. Mansoor,  S. F. Manzer,  Shan-Ping Mao,  Yuezhi Mao,  N. Mardirossian,  
 A. V. Marenich,  T. Markovich,  L. A. Martinez-Martinez,  S. A. Maurer,  
 N. J. Mayhall,  S. C. McKenzie,  J.-M. Mewes,  A. F. Morrison,  
 J. W. Mullinax,  K. Nanda,  T. S. Nguyen-Beck,  R. Olivares-Amaya,  
 J. A. Parkhill,  T. M. Perrine,  F. Plasser,  P. Pokhilko,  S. Prager,  
 A. Prociuk,  E. Ramos,  D. R. Rehn,  F. Rob,  M. Schneider,  N. Sergueev,  
 S. M. Sharada,  S. Sharma,  D. W. Small,  T. Stauch,  T. Stein,  
 Yu-Chuan Su,  A. J. W. Thom,  A. Tkatchenko,  T. Tsuchimochi,  N. M. Tubman,  
 L. Vogt,  M. L. Vidal,  O. Vydrov,  M. A. Watson,  J. Wenzel,  
 M. de Wergifosse,  T. A. Wesolowski,  A. White,  J. Witte,  A. Yamada,  
 Jun Yang,  K. Yao,  S. Yeganeh,  S. R. Yost,  Zhi-Qiang You,  A. Zech,  
 Igor Ying Zhang,  Xing Zhang,  Yan Zhao,  Ying Zhu,  B. R. Brooks,  
 G. K. L. Chan,  C. J. Cramer,  M. S. Gordon,  W. J. Hehre,  A. Klamt,  
 M. W. Schmidt,  C. D. Sherrill,  D. G. Truhlar,  A. Aspuru-Guzik,  R. Baer,  
 A. T. Bell,  N. A. Besley,  Jeng-Da Chai,  A. E. DePrince, III,  
 R. A. DiStasio Jr.,  A. Dreuw,  B. D. Dunietz,  T. R. Furlani,  
 Chao-Ping Hsu,  Yousung Jung,  Jing Kong,  D. S. Lambrecht,  WanZhen Liang,  
 C. Ochsenfeld,  V. A. Rassolov,  L. V. Slipchenko,  J. E. Subotnik,  
 T. Van Voorhis,  J. M. Herbert,  A. I. Krylov,  P. M. W. Gill,  M. Head-Gordon

 Contributors to earlier versions of Q-Chem not listed above: 
 R. D. Adamson,  B. Austin,  J. Baker,  G. J. O. Beran,  K. Brandhorst,  
 S. T. Brown,  E. F. C. Byrd,  A. K. Chakraborty,  C.-L. Cheng,  
 Siu Hung Chien,  D. M. Chipman,  D. L. Crittenden,  H. Dachsel,  
 R. J. Doerksen,  A. D. Dutoi,  L. Fusti-Molnar,  W. A. Goddard III,  
 A. Golubeva-Zadorozhnaya,  S. R. Gwaltney,  G. Hawkins,  A. Heyden,  
 S. Hirata,  G. Kedziora,  F. J. Keil,  C. Kelley,  Jihan Kim,  R. A. King,  
 R. Z. Khaliullin,  P. P. Korambath,  W. Kurlancheek,  A. M. Lee,  M. S. Lee,  
 S. V. Levchenko,  Ching Yeh Lin,  D. Liotard,  R. C. Lochan,  I. Lotan,  
 P. E. Maslen,  N. Nair,  D. P. O'Neill,  D. Neuhauser,  E. Neuscamman,  
 C. M. Oana,  R. Olson,  B. Peters,  R. Peverati,  P. A. Pieniazek,  
 Y. M. Rhee,  J. Ritchie,  M. A. Rohrdanz,  E. Rosta,  N. J. Russ,  
 H. F. Schaefer III,  N. E. Schultz,  N. Shenvi,  A. C. Simmonett,  A. Sodt,  
 D. Stuck,  K. S. Thanthiriwatte,  V. Vanovschi,  Tao Wang,  A. Warshel,  
 C. F. Williams,  Q. Wu,  X. Xu,  W. Zhang

 Please cite Q-Chem as follows:
 Y. Shao et al., Mol. Phys. 113, 184-215 (2015)
 DOI: 10.1080/00268976.2014.952696

 Q-Chem 5.1.1 for Intel X86 EM64T Linux

 Parts of Q-Chem use Armadillo 8.300.2 (Tropical Shenanigans).
 http://arma.sourceforge.net/

 Q-Chem begins on Wed Nov 11 14:35:50 2020  

Host: n0094.mhg0
0

     Scratch files written to /local/scratch/users/yhljason/NCl_DSD-PBEPBE-D3_aug-cc-pcVTZ.inp20201111140432//
The previous job contains 0 fragments, simply inherited here
Input Ideriv = 0
Curr. Ideriv = -1
Max.  Ideriv = 0
Input Ideriv = 1
Curr. Ideriv = 0
Max.  Ideriv = 0

Checking the input file for inconsistencies... 	...done.

--------------------------------------------------------------
User input:
--------------------------------------------------------------
$molecule
read
$end

$rem
jobtype sp
exchange DSD-PBEPBE-D3
xc_grid 000099000590
basis aug-cc-pcVTZ

max_scf_cycles 200
thresh 14
scf_convergence 8
mem_total 128000
cc_memory 96000
cc_backend xm
mem_static 1500
symmetry false
sym_ignore true
scf_guess read
unrestricted false
scf_algorithm gdm
n_frozen_core 0
$end



$multipole_field
XX -0.0001
$end


--------------------------------------------------------------
 Adding empirical dispersion correction 
 ----------------------------------------------------------------
 Doing -D3(BJ) with
 s6 =   0.78000
 s8 =   0.00000
 a1 =   0.00000
 a2 =   6.10000
 -D3 energy without 3body term =     -0.0006656522 hartrees
 ----------------------------------------------------------------
             Standard Nuclear Orientation (Angstroms)
    I     Atom           X                Y                Z
 ----------------------------------------------------------------
    1      N       0.0000000000     0.0000000000     0.0000000000
    2      Cl      0.0000000000     0.0000000000     1.6107000000
 ----------------------------------------------------------------
 Nuclear Repulsion Energy =    39.0954342331 hartrees
 There are       13 alpha and       11 beta electrons
 Requested basis set is aug-cc-pCVTZ
 There are 42 shells and 134 basis functions

 Total QAlloc Memory Limit 128000 MB
 Mega-Array Size      1467 MB
 MEM_STATIC part      1500 MB

                       Distance Matrix (Angstroms)
             N (  1)
   Cl(  2)  1.610700
 
 Applying Cartesian multipole field
    Component          Value
    ---------          -----
     (2,0,0)       -1.00000E-04
 A cutoff of  1.0D-14 yielded    883 shell pairs
 There are      9061 function pairs (     12669 Cartesian)
 
 -------------------------------------------------------
 OpenMP Integral Computing Module                       
 Release: version 1.0, May 2013, Q-Chem Inc. Pittsburgh 
 -------------------------------------------------------
 Integral Job Info:
 Integral job number is                      11
 Integral operator is                         1
 short-range coefficients                     0
 long-range coefficients              100000000
 Omega coefficients                           0
 if combine SR and LR in K                    0
 Integral screening is                        0
 Integral computing path is                   2
 max size of driver memory is            800000
 size of driver memory is                776718
 size of scratch memory is             29531563
 max col of scratch BK array              10000
 max len of scratch array in speh3          662
 max len of scratch index in speh4           32
 max int batch size is                      520
 min int batch size is                       52
 fixed nKL is                                31
 max L of basis functions is                  3
 order of int derivative is                   0
 number of shells is                         42
 number of basis is                         158
 number of cartesian basis is               158
 number of contracted shell pairs           883
 number of primitive shell pairs           5031
 maxK2 (contraction) of shell pair          169
 max number of K2 of shell pair               1
 max number of CS2 of shell pair             98
 max number of PS2 of shell pair           1014
 mem total for path MDJ                  562256
 -------------------------------------------------------
 Smallest overlap matrix eigenvalue = 3.23E-04
 Guess MOs from SCF MO coefficient file
 Reading MOs from coefficient file
 Reading MOs from coefficient file
 A restricted hybrid HF-DFT SCF calculation will be
 performed using Geometric Direct Minimization
 Exchange:     0.6800 Hartree-Fock + 0.3200 PBE
 Correlation:  0.4900 PBE
 Using Euler-Maclaurin-Lebedev (99,590) quadrature formula
 Dispersion:   Grimme D3
 SCF converges when RMS gradient is below 1.0E-08
Using Q-Chem read-in guess as SCF_GUESS READ specified.

 using 8 threads for integral computing
 -------------------------------------------------------
 OpenMP Integral computing Module                
 Release: version 2.0, May 2017, Q-Chem Inc. Pleasanton 
 -------------------------------------------------------
TIMEINFO->: J/JK contribution 14.87 sec.
 -------------------------------------------------------
 OpenMP BLAS3 based DFT computing Module                
 Release: version 1.0, May 2013, Q-Chem Inc. Pittsburgh 
 -------------------------------------------------------
 ---------------------------------------
  Cycle       Energy        RMS Gradient
 ---------------------------------------
    1    -514.2738108980      8.53E-04 Normal BFGS step
TIMEINFO->: J/JK contribution 14.67 sec.
    2    -514.2738120128      5.05E-04 Normal BFGS step
TIMEINFO->: J/JK contribution 14.74 sec.
    3    -514.2738121707      1.69E-04 Normal BFGS step
TIMEINFO->: J/JK contribution 14.42 sec.
    4    -514.2738122029      7.55E-05 Normal BFGS step
TIMEINFO->: J/JK contribution 14.36 sec.
    5    -514.2738122148      3.31E-05 Normal BFGS step
TIMEINFO->: J/JK contribution 14.36 sec.
    6    -514.2738122156      8.69E-06 Normal BFGS step
TIMEINFO->: J/JK contribution 14.51 sec.
    7    -514.2738122156      3.74E-06 Normal BFGS step
TIMEINFO->: J/JK contribution 14.36 sec.
    8    -514.2738122157      9.24E-07 Normal BFGS step
TIMEINFO->: J/JK contribution 14.36 sec.
    9    -514.2738122157      7.08E-08 Normal BFGS step
TIMEINFO->: J/JK contribution 14.39 sec.
   10    -514.2738122157      2.91E-08 Normal BFGS step
TIMEINFO->: J/JK contribution 13.86 sec.
   11    -514.2738122157      1.19E-08 Normal BFGS step
TIMEINFO->: J/JK contribution 13.32 sec.
   GDM::WARNING energy changes are now smaller than effective accuracy.
   GDM::        calculation will continue, but THRESH should be increased
   GDM::        or SCF_CONVERGENCE decreased.
   GDM::        effective_thresh =   1.300000000000000E-010
   12    -514.2738122157      4.52E-09 Convergence criterion met
 ---------------------------------------
 SCF time:  CPU 218.60 s  wall 27.56 s
 SCF   energy in the final basis set = -514.27381222
 Total energy in the final basis set = -514.27381222
 
 Components of the MP2 correlation energy:
        aaaa  correlation energy =        -0.0150198697 au
        abab  correlation energy =        -0.3229519521 au
        bbbb  correlation energy =        -0.0120666806 au
        non-Brillouin singles    =        -0.0054685163 au

 Total  MP2   correlation energy =                    -0.35550702 au
        MP2         total energy =                  -514.62931923 au
 
 --------------------------------------------------------------
 
                    Orbital Energies (a.u.)
 --------------------------------------------------------------
 
 Alpha MOs
 -- Occupied --
******* -15.190 -10.185  -7.766  -7.763  -7.763  -1.187  -0.893
 -0.548  -0.520  -0.520  -0.437  -0.437
 -- Virtual --
  0.043   0.081   0.092   0.093   0.115   0.140   0.141   0.150
  0.252   0.264   0.264   0.352   0.352   0.428   0.468   0.468
  0.489   0.523   0.523   0.557   0.558   0.656   0.726   0.762
  0.762   0.773   0.773   0.834   0.846   0.835   0.969   1.060
  1.060   1.138   1.138   1.235   1.310   1.310   1.450   1.450
  1.438   1.438   1.575   1.653   1.653   1.708   1.735   1.735
  1.999   2.001   2.001   2.214   2.214   2.284   2.284   2.473
  2.619   2.619   2.878   2.878   2.910   2.910   2.941   2.941
  2.966   3.034   3.326   3.326   3.449   3.974   4.615   4.667
  4.667   4.772   4.772   4.819   4.819   4.953   4.954   5.146
  5.146   5.362   5.468  10.045  10.045  10.089  10.089  10.352
 12.363  12.363  12.811  17.870  20.296  20.296  21.002  21.866
 36.383  36.383  36.387  36.387  36.389  36.389  36.405  38.636
 38.636  38.728  38.728  38.807  45.907  45.907  45.934  45.934
 46.068  54.373  54.373  54.897 102.901 108.099 108.099 108.750
114.604
 
 Beta MOs
 -- Occupied --
******* -15.143 -10.183  -7.765  -7.758  -7.758  -1.120  -0.776
 -0.488  -0.469  -0.469
 -- Virtual --
  0.038   0.038   0.053   0.090   0.095   0.096   0.121   0.151
  0.152   0.166   0.260   0.273   0.273   0.373   0.373   0.441
  0.493   0.493   0.502   0.544   0.544   0.569   0.569   0.663
  0.748   0.773   0.773   0.800   0.800   0.881   0.858   0.882
  0.987   1.068   1.068   1.154   1.154   1.266   1.335   1.336
  1.484   1.484   1.534   1.534   1.590   1.680   1.680   1.725
  1.758   1.758   2.021   2.027   2.027   2.223   2.223   2.294
  2.294   2.497   2.635   2.636   2.888   2.888   2.917   2.917
  2.992   2.992   2.971   3.050   3.398   3.398   3.460   4.026
  4.659   4.763   4.763   4.840   4.840   4.956   4.956   4.998
  4.998   5.220   5.220   5.411   5.505  10.048  10.048  10.091
 10.091  10.355  12.368  12.368  12.813  17.873  20.362  20.362
 21.027  21.903  36.384  36.384  36.388  36.388  36.390  36.390
 36.405  38.696  38.696  38.762  38.762  38.832  45.911  45.911
 45.936  45.936  46.070  54.376  54.376  54.898 102.902 108.116
108.116 108.755 114.618
 --------------------------------------------------------------
 
          Ground-State Mulliken Net Atomic Charges

     Atom                 Charge (a.u.)
  ----------------------------------------
      1 N                    -0.289496
      2 Cl                    0.289496
  ----------------------------------------
  Sum of atomic charges =    -0.000000

 -----------------------------------------------------------------
                    Cartesian Multipole Moments
 -----------------------------------------------------------------
    Charge (ESU x 10^10)
                -0.0000
    Dipole Moment (Debye)
         X       0.0000      Y       0.0000      Z       0.7775
       Tot       0.7775
    Quadrupole Moments (Debye-Ang)
        XX     -17.8486     XY      -0.0000     YY     -17.8553
        XZ       0.0000     YZ       0.0000     ZZ     -16.4851
    Octopole Moments (Debye-Ang^2)
       XXX       0.0000    XXY       0.0000    XYY       0.0000
       YYY       0.0000    XXZ     -20.1228    XYZ      -0.0000
       YYZ     -20.1313    XZZ       0.0000    YZZ       0.0000
       ZZZ     -53.2721
    Hexadecapole Moments (Debye-Ang^3)
      XXXX     -18.6704   XXXY       0.0000   XXYY      -6.2274
      XYYY       0.0000   YYYY     -18.6938   XXXZ       0.0000
      XXYZ       0.0000   XYYZ       0.0000   YYYZ       0.0000
      XXZZ     -39.0177   XYZZ       0.0000   YYZZ     -39.0366
      XZZZ       0.0000   YZZZ       0.0000   ZZZZ    -188.6977
 -----------------------------------------------------------------
Archival summary:
1\1\n0094.mhg0\SP\ROProcedureUnspecified\BasisUnspecified\l11(3)\yhljason\WedNov1114:36:532020WedNov1114:36:532020\0\\#,ROProcedureUnspecified,BasisUnspecified,\\0,3\N\Cl,1,1.6107\\\@

 Total job time:  63.58s(wall), 499.91s(cpu) 
 Wed Nov 11 14:36:53 2020

        *************************************************************
        *                                                           *
        *  Thank you very much for using Q-Chem.  Have a nice day.  *
        *                                                           *
        *************************************************************


 
User input: 4 of 7 
 
Q-Chem Developer Version!
                  Welcome to Q-Chem
     A Quantum Leap Into The Future Of Chemistry


 Q-Chem 5.1, Q-Chem, Inc., Pleasanton, CA (2018)

 Yihan Shao,  Zhengting Gan,  E. Epifanovsky,  A. T. B. Gilbert,  M. Wormit,  
 J. Kussmann,  A. W. Lange,  A. Behn,  Jia Deng,  Xintian Feng,  D. Ghosh,  
 M. Goldey,  P. R. Horn,  L. D. Jacobson,  I. Kaliman,  T. Kus,  A. Landau,  
 Jie Liu,  E. I. Proynov,  R. M. Richard,  R. P. Steele,  E. J. Sundstrom,  
 H. L. Woodcock III,  P. M. Zimmerman,  D. Zuev,  B. Albrecht,  E. Alguire,  
 S. A. Baeppler,  D. Barton,  Z. Benda,  Y. A. Bernard,  E. J. Berquist,  
 K. B. Bravaya,  H. Burton,  D. Casanova,  Chun-Min Chang,  Yunqing Chen,  
 A. Chien,  K. D. Closser,  M. P. Coons,  S. Coriani,  S. Dasgupta,  
 A. L. Dempwolff,  M. Diedenhofen,  Hainam Do,  R. G. Edgar,  Po-Tung Fang,  
 S. Faraji,  S. Fatehi,  Qingguo Feng,  K. D. Fenk,  J. Fosso-Tande,  
 Qinghui Ge,  A. Ghysels,  G. Gidofalvi,  J. Gomes,  J. Gonthier,  A. Gunina,  
 D. Hait,  M. W. D. Hanson-Heine,  P. H. P. Harbach,  A. W. Hauser,  
 J. E. Herr,  E. G. Hohenstein,  Z. C. Holden,  Kerwin Hui,  B. C. Huynh,  
 T.-C. Jagau,  Hyunjun Ji,  B. Kaduk,  K. Khistyaev,  Jaehoon Kim,  
 P. Klunzinger,  K. Koh,  D. Kosenkov,  L. Koulias,  T. Kowalczyk,  
 C. M. Krauter,  A. Kunitsa,  Ka Un Lao,  A. Laurent,  K. V. Lawler,  
 Joonho Lee,  D. Lefrancois,  S. Lehtola,  D. S. Levine,  Yi-Pei Li,  
 You-Sheng Lin,  Fenglai Liu,  E. Livshits,  A. Luenser,  P. Manohar,  
 E. Mansoor,  S. F. Manzer,  Shan-Ping Mao,  Yuezhi Mao,  N. Mardirossian,  
 A. V. Marenich,  T. Markovich,  L. A. Martinez-Martinez,  S. A. Maurer,  
 N. J. Mayhall,  S. C. McKenzie,  J.-M. Mewes,  A. F. Morrison,  
 J. W. Mullinax,  K. Nanda,  T. S. Nguyen-Beck,  R. Olivares-Amaya,  
 J. A. Parkhill,  T. M. Perrine,  F. Plasser,  P. Pokhilko,  S. Prager,  
 A. Prociuk,  E. Ramos,  D. R. Rehn,  F. Rob,  M. Schneider,  N. Sergueev,  
 S. M. Sharada,  S. Sharma,  D. W. Small,  T. Stauch,  T. Stein,  
 Yu-Chuan Su,  A. J. W. Thom,  A. Tkatchenko,  T. Tsuchimochi,  N. M. Tubman,  
 L. Vogt,  M. L. Vidal,  O. Vydrov,  M. A. Watson,  J. Wenzel,  
 M. de Wergifosse,  T. A. Wesolowski,  A. White,  J. Witte,  A. Yamada,  
 Jun Yang,  K. Yao,  S. Yeganeh,  S. R. Yost,  Zhi-Qiang You,  A. Zech,  
 Igor Ying Zhang,  Xing Zhang,  Yan Zhao,  Ying Zhu,  B. R. Brooks,  
 G. K. L. Chan,  C. J. Cramer,  M. S. Gordon,  W. J. Hehre,  A. Klamt,  
 M. W. Schmidt,  C. D. Sherrill,  D. G. Truhlar,  A. Aspuru-Guzik,  R. Baer,  
 A. T. Bell,  N. A. Besley,  Jeng-Da Chai,  A. E. DePrince, III,  
 R. A. DiStasio Jr.,  A. Dreuw,  B. D. Dunietz,  T. R. Furlani,  
 Chao-Ping Hsu,  Yousung Jung,  Jing Kong,  D. S. Lambrecht,  WanZhen Liang,  
 C. Ochsenfeld,  V. A. Rassolov,  L. V. Slipchenko,  J. E. Subotnik,  
 T. Van Voorhis,  J. M. Herbert,  A. I. Krylov,  P. M. W. Gill,  M. Head-Gordon

 Contributors to earlier versions of Q-Chem not listed above: 
 R. D. Adamson,  B. Austin,  J. Baker,  G. J. O. Beran,  K. Brandhorst,  
 S. T. Brown,  E. F. C. Byrd,  A. K. Chakraborty,  C.-L. Cheng,  
 Siu Hung Chien,  D. M. Chipman,  D. L. Crittenden,  H. Dachsel,  
 R. J. Doerksen,  A. D. Dutoi,  L. Fusti-Molnar,  W. A. Goddard III,  
 A. Golubeva-Zadorozhnaya,  S. R. Gwaltney,  G. Hawkins,  A. Heyden,  
 S. Hirata,  G. Kedziora,  F. J. Keil,  C. Kelley,  Jihan Kim,  R. A. King,  
 R. Z. Khaliullin,  P. P. Korambath,  W. Kurlancheek,  A. M. Lee,  M. S. Lee,  
 S. V. Levchenko,  Ching Yeh Lin,  D. Liotard,  R. C. Lochan,  I. Lotan,  
 P. E. Maslen,  N. Nair,  D. P. O'Neill,  D. Neuhauser,  E. Neuscamman,  
 C. M. Oana,  R. Olson,  B. Peters,  R. Peverati,  P. A. Pieniazek,  
 Y. M. Rhee,  J. Ritchie,  M. A. Rohrdanz,  E. Rosta,  N. J. Russ,  
 H. F. Schaefer III,  N. E. Schultz,  N. Shenvi,  A. C. Simmonett,  A. Sodt,  
 D. Stuck,  K. S. Thanthiriwatte,  V. Vanovschi,  Tao Wang,  A. Warshel,  
 C. F. Williams,  Q. Wu,  X. Xu,  W. Zhang

 Please cite Q-Chem as follows:
 Y. Shao et al., Mol. Phys. 113, 184-215 (2015)
 DOI: 10.1080/00268976.2014.952696

 Q-Chem 5.1.1 for Intel X86 EM64T Linux

 Parts of Q-Chem use Armadillo 8.300.2 (Tropical Shenanigans).
 http://arma.sourceforge.net/

 Q-Chem begins on Wed Nov 11 14:36:53 2020  

Host: n0094.mhg0
0

     Scratch files written to /local/scratch/users/yhljason/NCl_DSD-PBEPBE-D3_aug-cc-pcVTZ.inp20201111140432//
The previous job contains 0 fragments, simply inherited here
Input Ideriv = 0
Curr. Ideriv = -1
Max.  Ideriv = 0
Input Ideriv = 1
Curr. Ideriv = 0
Max.  Ideriv = 0

Checking the input file for inconsistencies... 	...done.

--------------------------------------------------------------
User input:
--------------------------------------------------------------
$molecule
read
$end

$rem
jobtype sp
exchange DSD-PBEPBE-D3
xc_grid 000099000590
basis aug-cc-pcVTZ

max_scf_cycles 200
thresh 14
scf_convergence 8
mem_total 128000
cc_memory 96000
cc_backend xm
mem_static 1500
symmetry false
sym_ignore true
scf_guess read
unrestricted false
scf_algorithm gdm
n_frozen_core 0
$end



$multipole_field
YY 0.0001
$end


--------------------------------------------------------------
 Adding empirical dispersion correction 
 ----------------------------------------------------------------
 Doing -D3(BJ) with
 s6 =   0.78000
 s8 =   0.00000
 a1 =   0.00000
 a2 =   6.10000
 -D3 energy without 3body term =     -0.0006656522 hartrees
 ----------------------------------------------------------------
             Standard Nuclear Orientation (Angstroms)
    I     Atom           X                Y                Z
 ----------------------------------------------------------------
    1      N       0.0000000000     0.0000000000     0.0000000000
    2      Cl      0.0000000000     0.0000000000     1.6107000000
 ----------------------------------------------------------------
 Nuclear Repulsion Energy =    39.0954342331 hartrees
 There are       13 alpha and       11 beta electrons
 Requested basis set is aug-cc-pCVTZ
 There are 42 shells and 134 basis functions

 Total QAlloc Memory Limit 128000 MB
 Mega-Array Size      1467 MB
 MEM_STATIC part      1500 MB

                       Distance Matrix (Angstroms)
             N (  1)
   Cl(  2)  1.610700
 
 Applying Cartesian multipole field
    Component          Value
    ---------          -----
     (0,2,0)        1.00000E-04
 A cutoff of  1.0D-14 yielded    883 shell pairs
 There are      9061 function pairs (     12669 Cartesian)
 
 -------------------------------------------------------
 OpenMP Integral Computing Module                       
 Release: version 1.0, May 2013, Q-Chem Inc. Pittsburgh 
 -------------------------------------------------------
 Integral Job Info:
 Integral job number is                      11
 Integral operator is                         1
 short-range coefficients                     0
 long-range coefficients              100000000
 Omega coefficients                           0
 if combine SR and LR in K                    0
 Integral screening is                        0
 Integral computing path is                   2
 max size of driver memory is            800000
 size of driver memory is                776718
 size of scratch memory is             29531563
 max col of scratch BK array              10000
 max len of scratch array in speh3          662
 max len of scratch index in speh4           32
 max int batch size is                      520
 min int batch size is                       52
 fixed nKL is                                31
 max L of basis functions is                  3
 order of int derivative is                   0
 number of shells is                         42
 number of basis is                         158
 number of cartesian basis is               158
 number of contracted shell pairs           883
 number of primitive shell pairs           5031
 maxK2 (contraction) of shell pair          169
 max number of K2 of shell pair               1
 max number of CS2 of shell pair             98
 max number of PS2 of shell pair           1014
 mem total for path MDJ                  562256
 -------------------------------------------------------
 Smallest overlap matrix eigenvalue = 3.23E-04
 Guess MOs from SCF MO coefficient file
 Reading MOs from coefficient file
 Reading MOs from coefficient file
 A restricted hybrid HF-DFT SCF calculation will be
 performed using Geometric Direct Minimization
 Exchange:     0.6800 Hartree-Fock + 0.3200 PBE
 Correlation:  0.4900 PBE
 Using Euler-Maclaurin-Lebedev (99,590) quadrature formula
 Dispersion:   Grimme D3
 SCF converges when RMS gradient is below 1.0E-08
Using Q-Chem read-in guess as SCF_GUESS READ specified.

 using 8 threads for integral computing
 -------------------------------------------------------
 OpenMP Integral computing Module                
 Release: version 2.0, May 2017, Q-Chem Inc. Pleasanton 
 -------------------------------------------------------
TIMEINFO->: J/JK contribution 14.75 sec.
 -------------------------------------------------------
 OpenMP BLAS3 based DFT computing Module                
 Release: version 1.0, May 2013, Q-Chem Inc. Pittsburgh 
 -------------------------------------------------------
 ---------------------------------------
  Cycle       Energy        RMS Gradient
 ---------------------------------------
    1    -514.2764667140      5.67E-04 Normal BFGS step
TIMEINFO->: J/JK contribution 14.46 sec.
    2    -514.2764673500      3.96E-04 Normal BFGS step
TIMEINFO->: J/JK contribution 14.48 sec.
    3    -514.2764674957      1.28E-04 Normal BFGS step
TIMEINFO->: J/JK contribution 14.36 sec.
    4    -514.2764675119      6.79E-05 Normal BFGS step
TIMEINFO->: J/JK contribution 14.32 sec.
    5    -514.2764675233      1.66E-05 Normal BFGS step
TIMEINFO->: J/JK contribution 14.28 sec.
    6    -514.2764675236      6.47E-06 Normal BFGS step
TIMEINFO->: J/JK contribution 14.35 sec.
    7    -514.2764675237      1.84E-06 Normal BFGS step
TIMEINFO->: J/JK contribution 14.07 sec.
    8    -514.2764675237      7.17E-07 Normal BFGS step
TIMEINFO->: J/JK contribution 13.98 sec.
    9    -514.2764675237      2.22E-08 Normal BFGS step
TIMEINFO->: J/JK contribution 13.63 sec.
   10    -514.2764675237      6.46E-09 Convergence criterion met
 ---------------------------------------
 SCF time:  CPU 180.94 s  wall 22.80 s
 SCF   energy in the final basis set = -514.27646752
 Total energy in the final basis set = -514.27646752
 
 Components of the MP2 correlation energy:
        aaaa  correlation energy =        -0.0150208713 au
        abab  correlation energy =        -0.3229549827 au
        bbbb  correlation energy =        -0.0120660596 au
        non-Brillouin singles    =        -0.0054674532 au

 Total  MP2   correlation energy =                    -0.35550937 au
        MP2         total energy =                  -514.63197689 au
 
 --------------------------------------------------------------
 
                    Orbital Energies (a.u.)
 --------------------------------------------------------------
 
 Alpha MOs
 -- Occupied --
******* -15.191 -10.186  -7.766  -7.763  -7.763  -1.188  -0.893
 -0.549  -0.521  -0.521  -0.437  -0.437
 -- Virtual --
  0.042   0.080   0.089   0.090   0.113   0.137   0.139   0.148
  0.250   0.263   0.263   0.351   0.351   0.427   0.467   0.467
  0.488   0.521   0.522   0.556   0.556   0.655   0.726   0.761
  0.761   0.772   0.772   0.834   0.845   0.834   0.968   1.060
  1.060   1.138   1.138   1.234   1.309   1.310   1.449   1.449
  1.437   1.437   1.574   1.652   1.652   1.707   1.734   1.734
  1.999   2.000   2.000   2.214   2.214   2.283   2.283   2.473
  2.618   2.618   2.878   2.878   2.909   2.909   2.941   2.941
  2.966   3.033   3.325   3.325   3.448   3.973   4.615   4.667
  4.667   4.772   4.772   4.818   4.818   4.953   4.953   5.146
  5.146   5.362   5.467  10.045  10.045  10.088  10.088  10.352
 12.362  12.363  12.811  17.869  20.295  20.295  21.002  21.866
 36.383  36.383  36.387  36.387  36.389  36.389  36.404  38.635
 38.635  38.728  38.728  38.807  45.907  45.907  45.933  45.933
 46.068  54.373  54.373  54.896 102.900 108.099 108.099 108.750
114.603
 
 Beta MOs
 -- Occupied --
******* -15.144 -10.183  -7.765  -7.758  -7.758  -1.121  -0.777
 -0.488  -0.470  -0.470
 -- Virtual --
  0.037   0.037   0.052   0.088   0.092   0.093   0.120   0.148
  0.150   0.164   0.258   0.272   0.272   0.372   0.373   0.440
  0.492   0.492   0.501   0.542   0.543   0.567   0.568   0.661
  0.747   0.772   0.772   0.799   0.799   0.880   0.857   0.881
  0.986   1.067   1.067   1.154   1.154   1.265   1.335   1.335
  1.484   1.484   1.533   1.533   1.589   1.679   1.679   1.724
  1.758   1.758   2.020   2.027   2.027   2.222   2.222   2.293
  2.294   2.497   2.635   2.635   2.888   2.888   2.917   2.917
  2.992   2.992   2.971   3.049   3.397   3.397   3.460   4.025
  4.659   4.762   4.762   4.840   4.840   4.955   4.955   4.998
  4.998   5.220   5.220   5.410   5.505  10.048  10.048  10.090
 10.090  10.354  12.368  12.368  12.813  17.872  20.361  20.361
 21.027  21.902  36.384  36.384  36.388  36.388  36.389  36.389
 36.405  38.695  38.695  38.761  38.761  38.832  45.911  45.911
 45.935  45.935  46.069  54.376  54.376  54.897 102.902 108.116
108.116 108.755 114.618
 --------------------------------------------------------------
 
          Ground-State Mulliken Net Atomic Charges

     Atom                 Charge (a.u.)
  ----------------------------------------
      1 N                    -0.288789
      2 Cl                    0.288789
  ----------------------------------------
  Sum of atomic charges =    -0.000000

 -----------------------------------------------------------------
                    Cartesian Multipole Moments
 -----------------------------------------------------------------
    Charge (ESU x 10^10)
                -0.0000
    Dipole Moment (Debye)
         X      -0.0000      Y       0.0000      Z       0.7762
       Tot       0.7762
    Quadrupole Moments (Debye-Ang)
        XX     -17.8595     XY       0.0000     YY     -17.8663
        XZ       0.0000     YZ       0.0000     ZZ     -16.4901
    Octopole Moments (Debye-Ang^2)
       XXX      -0.0000    XXY       0.0000    XYY       0.0000
       YYY       0.0000    XXZ     -20.1372    XYZ       0.0000
       YYZ     -20.1458    XZZ      -0.0000    YZZ       0.0000
       ZZZ     -53.2877
    Hexadecapole Moments (Debye-Ang^3)
      XXXX     -18.7119   XXXY       0.0000   XXYY      -6.2412
      XYYY       0.0000   YYYY     -18.7356   XXXZ      -0.0000
      XXYZ       0.0000   XYYZ       0.0000   YYYZ       0.0000
      XXZZ     -39.0518   XYZZ       0.0000   YYZZ     -39.0708
      XZZZ      -0.0000   YZZZ       0.0000   ZZZZ    -188.7576
 -----------------------------------------------------------------
Archival summary:
1\1\n0094.mhg0\SP\ROProcedureUnspecified\BasisUnspecified\l11(3)\yhljason\WedNov1114:37:522020WedNov1114:37:522020\0\\#,ROProcedureUnspecified,BasisUnspecified,\\0,3\N\Cl,1,1.6107\\\@

 Total job time:  58.70s(wall), 461.34s(cpu) 
 Wed Nov 11 14:37:52 2020

        *************************************************************
        *                                                           *
        *  Thank you very much for using Q-Chem.  Have a nice day.  *
        *                                                           *
        *************************************************************


 
User input: 5 of 7 
 
Q-Chem Developer Version!
                  Welcome to Q-Chem
     A Quantum Leap Into The Future Of Chemistry


 Q-Chem 5.1, Q-Chem, Inc., Pleasanton, CA (2018)

 Yihan Shao,  Zhengting Gan,  E. Epifanovsky,  A. T. B. Gilbert,  M. Wormit,  
 J. Kussmann,  A. W. Lange,  A. Behn,  Jia Deng,  Xintian Feng,  D. Ghosh,  
 M. Goldey,  P. R. Horn,  L. D. Jacobson,  I. Kaliman,  T. Kus,  A. Landau,  
 Jie Liu,  E. I. Proynov,  R. M. Richard,  R. P. Steele,  E. J. Sundstrom,  
 H. L. Woodcock III,  P. M. Zimmerman,  D. Zuev,  B. Albrecht,  E. Alguire,  
 S. A. Baeppler,  D. Barton,  Z. Benda,  Y. A. Bernard,  E. J. Berquist,  
 K. B. Bravaya,  H. Burton,  D. Casanova,  Chun-Min Chang,  Yunqing Chen,  
 A. Chien,  K. D. Closser,  M. P. Coons,  S. Coriani,  S. Dasgupta,  
 A. L. Dempwolff,  M. Diedenhofen,  Hainam Do,  R. G. Edgar,  Po-Tung Fang,  
 S. Faraji,  S. Fatehi,  Qingguo Feng,  K. D. Fenk,  J. Fosso-Tande,  
 Qinghui Ge,  A. Ghysels,  G. Gidofalvi,  J. Gomes,  J. Gonthier,  A. Gunina,  
 D. Hait,  M. W. D. Hanson-Heine,  P. H. P. Harbach,  A. W. Hauser,  
 J. E. Herr,  E. G. Hohenstein,  Z. C. Holden,  Kerwin Hui,  B. C. Huynh,  
 T.-C. Jagau,  Hyunjun Ji,  B. Kaduk,  K. Khistyaev,  Jaehoon Kim,  
 P. Klunzinger,  K. Koh,  D. Kosenkov,  L. Koulias,  T. Kowalczyk,  
 C. M. Krauter,  A. Kunitsa,  Ka Un Lao,  A. Laurent,  K. V. Lawler,  
 Joonho Lee,  D. Lefrancois,  S. Lehtola,  D. S. Levine,  Yi-Pei Li,  
 You-Sheng Lin,  Fenglai Liu,  E. Livshits,  A. Luenser,  P. Manohar,  
 E. Mansoor,  S. F. Manzer,  Shan-Ping Mao,  Yuezhi Mao,  N. Mardirossian,  
 A. V. Marenich,  T. Markovich,  L. A. Martinez-Martinez,  S. A. Maurer,  
 N. J. Mayhall,  S. C. McKenzie,  J.-M. Mewes,  A. F. Morrison,  
 J. W. Mullinax,  K. Nanda,  T. S. Nguyen-Beck,  R. Olivares-Amaya,  
 J. A. Parkhill,  T. M. Perrine,  F. Plasser,  P. Pokhilko,  S. Prager,  
 A. Prociuk,  E. Ramos,  D. R. Rehn,  F. Rob,  M. Schneider,  N. Sergueev,  
 S. M. Sharada,  S. Sharma,  D. W. Small,  T. Stauch,  T. Stein,  
 Yu-Chuan Su,  A. J. W. Thom,  A. Tkatchenko,  T. Tsuchimochi,  N. M. Tubman,  
 L. Vogt,  M. L. Vidal,  O. Vydrov,  M. A. Watson,  J. Wenzel,  
 M. de Wergifosse,  T. A. Wesolowski,  A. White,  J. Witte,  A. Yamada,  
 Jun Yang,  K. Yao,  S. Yeganeh,  S. R. Yost,  Zhi-Qiang You,  A. Zech,  
 Igor Ying Zhang,  Xing Zhang,  Yan Zhao,  Ying Zhu,  B. R. Brooks,  
 G. K. L. Chan,  C. J. Cramer,  M. S. Gordon,  W. J. Hehre,  A. Klamt,  
 M. W. Schmidt,  C. D. Sherrill,  D. G. Truhlar,  A. Aspuru-Guzik,  R. Baer,  
 A. T. Bell,  N. A. Besley,  Jeng-Da Chai,  A. E. DePrince, III,  
 R. A. DiStasio Jr.,  A. Dreuw,  B. D. Dunietz,  T. R. Furlani,  
 Chao-Ping Hsu,  Yousung Jung,  Jing Kong,  D. S. Lambrecht,  WanZhen Liang,  
 C. Ochsenfeld,  V. A. Rassolov,  L. V. Slipchenko,  J. E. Subotnik,  
 T. Van Voorhis,  J. M. Herbert,  A. I. Krylov,  P. M. W. Gill,  M. Head-Gordon

 Contributors to earlier versions of Q-Chem not listed above: 
 R. D. Adamson,  B. Austin,  J. Baker,  G. J. O. Beran,  K. Brandhorst,  
 S. T. Brown,  E. F. C. Byrd,  A. K. Chakraborty,  C.-L. Cheng,  
 Siu Hung Chien,  D. M. Chipman,  D. L. Crittenden,  H. Dachsel,  
 R. J. Doerksen,  A. D. Dutoi,  L. Fusti-Molnar,  W. A. Goddard III,  
 A. Golubeva-Zadorozhnaya,  S. R. Gwaltney,  G. Hawkins,  A. Heyden,  
 S. Hirata,  G. Kedziora,  F. J. Keil,  C. Kelley,  Jihan Kim,  R. A. King,  
 R. Z. Khaliullin,  P. P. Korambath,  W. Kurlancheek,  A. M. Lee,  M. S. Lee,  
 S. V. Levchenko,  Ching Yeh Lin,  D. Liotard,  R. C. Lochan,  I. Lotan,  
 P. E. Maslen,  N. Nair,  D. P. O'Neill,  D. Neuhauser,  E. Neuscamman,  
 C. M. Oana,  R. Olson,  B. Peters,  R. Peverati,  P. A. Pieniazek,  
 Y. M. Rhee,  J. Ritchie,  M. A. Rohrdanz,  E. Rosta,  N. J. Russ,  
 H. F. Schaefer III,  N. E. Schultz,  N. Shenvi,  A. C. Simmonett,  A. Sodt,  
 D. Stuck,  K. S. Thanthiriwatte,  V. Vanovschi,  Tao Wang,  A. Warshel,  
 C. F. Williams,  Q. Wu,  X. Xu,  W. Zhang

 Please cite Q-Chem as follows:
 Y. Shao et al., Mol. Phys. 113, 184-215 (2015)
 DOI: 10.1080/00268976.2014.952696

 Q-Chem 5.1.1 for Intel X86 EM64T Linux

 Parts of Q-Chem use Armadillo 8.300.2 (Tropical Shenanigans).
 http://arma.sourceforge.net/

 Q-Chem begins on Wed Nov 11 14:37:52 2020  

Host: n0094.mhg0
0

     Scratch files written to /local/scratch/users/yhljason/NCl_DSD-PBEPBE-D3_aug-cc-pcVTZ.inp20201111140432//
The previous job contains 0 fragments, simply inherited here
Input Ideriv = 0
Curr. Ideriv = -1
Max.  Ideriv = 0
Input Ideriv = 1
Curr. Ideriv = 0
Max.  Ideriv = 0

Checking the input file for inconsistencies... 	...done.

--------------------------------------------------------------
User input:
--------------------------------------------------------------
$molecule
read
$end

$rem
jobtype sp
exchange DSD-PBEPBE-D3
xc_grid 000099000590
basis aug-cc-pcVTZ

max_scf_cycles 200
thresh 14
scf_convergence 8
mem_total 128000
cc_memory 96000
cc_backend xm
mem_static 1500
symmetry false
sym_ignore true
scf_guess read
unrestricted false
scf_algorithm gdm
n_frozen_core 0
$end



$multipole_field
YY -0.0001
$end


--------------------------------------------------------------
 Adding empirical dispersion correction 
 ----------------------------------------------------------------
 Doing -D3(BJ) with
 s6 =   0.78000
 s8 =   0.00000
 a1 =   0.00000
 a2 =   6.10000
 -D3 energy without 3body term =     -0.0006656522 hartrees
 ----------------------------------------------------------------
             Standard Nuclear Orientation (Angstroms)
    I     Atom           X                Y                Z
 ----------------------------------------------------------------
    1      N       0.0000000000     0.0000000000     0.0000000000
    2      Cl      0.0000000000     0.0000000000     1.6107000000
 ----------------------------------------------------------------
 Nuclear Repulsion Energy =    39.0954342331 hartrees
 There are       13 alpha and       11 beta electrons
 Requested basis set is aug-cc-pCVTZ
 There are 42 shells and 134 basis functions

 Total QAlloc Memory Limit 128000 MB
 Mega-Array Size      1467 MB
 MEM_STATIC part      1500 MB

                       Distance Matrix (Angstroms)
             N (  1)
   Cl(  2)  1.610700
 
 Applying Cartesian multipole field
    Component          Value
    ---------          -----
     (0,2,0)       -1.00000E-04
 A cutoff of  1.0D-14 yielded    883 shell pairs
 There are      9061 function pairs (     12669 Cartesian)
 
 -------------------------------------------------------
 OpenMP Integral Computing Module                       
 Release: version 1.0, May 2013, Q-Chem Inc. Pittsburgh 
 -------------------------------------------------------
 Integral Job Info:
 Integral job number is                      11
 Integral operator is                         1
 short-range coefficients                     0
 long-range coefficients              100000000
 Omega coefficients                           0
 if combine SR and LR in K                    0
 Integral screening is                        0
 Integral computing path is                   2
 max size of driver memory is            800000
 size of driver memory is                776718
 size of scratch memory is             29531563
 max col of scratch BK array              10000
 max len of scratch array in speh3          662
 max len of scratch index in speh4           32
 max int batch size is                      520
 min int batch size is                       52
 fixed nKL is                                31
 max L of basis functions is                  3
 order of int derivative is                   0
 number of shells is                         42
 number of basis is                         158
 number of cartesian basis is               158
 number of contracted shell pairs           883
 number of primitive shell pairs           5031
 maxK2 (contraction) of shell pair          169
 max number of K2 of shell pair               1
 max number of CS2 of shell pair             98
[...]
 36.382  36.382  36.386  36.386  36.388  36.388  36.404  38.635
 38.635  38.727  38.727  38.806  45.906  45.906  45.932  45.932
 46.067  54.372  54.372  54.896 102.899 108.098 108.098 108.749
114.603
 
 Beta MOs
 -- Occupied --
******* -15.144 -10.184  -7.766  -7.759  -7.759  -1.121  -0.777
 -0.489  -0.471  -0.471
 -- Virtual --
  0.037   0.037   0.048   0.087   0.092   0.092   0.118   0.149
  0.149   0.162   0.257   0.272   0.272   0.371   0.371   0.439
  0.492   0.492   0.499   0.542   0.542   0.567   0.567   0.660
  0.747   0.771   0.771   0.798   0.798   0.857   0.880   0.880
  0.985   1.067   1.067   1.153   1.153   1.264   1.334   1.334
  1.483   1.483   1.533   1.533   1.588   1.679   1.679   1.723
  1.757   1.757   2.019   2.026   2.026   2.222   2.222   2.293
  2.293   2.496   2.634   2.634   2.887   2.887   2.916   2.916
  2.991   2.991   2.970   3.049   3.397   3.397   3.459   4.025
  4.658   4.762   4.762   4.839   4.839   4.955   4.955   4.997
  4.997   5.219   5.219   5.409   5.504  10.047  10.047  10.090
 10.090  10.353  12.367  12.367  12.812  17.872  20.361  20.361
 21.026  21.901  36.383  36.383  36.387  36.387  36.389  36.389
 36.404  38.695  38.695  38.760  38.760  38.831  45.910  45.910
 45.935  45.935  46.069  54.375  54.375  54.897 102.901 108.115
108.115 108.754 114.617
 --------------------------------------------------------------
 
          Ground-State Mulliken Net Atomic Charges

     Atom                 Charge (a.u.)
  ----------------------------------------
      1 N                    -0.287709
      2 Cl                    0.287709
  ----------------------------------------
  Sum of atomic charges =    -0.000000

 -----------------------------------------------------------------
                    Cartesian Multipole Moments
 -----------------------------------------------------------------
    Charge (ESU x 10^10)
                -0.0000
    Dipole Moment (Debye)
         X       0.0000      Y       0.0000      Z       0.7497
       Tot       0.7497
    Quadrupole Moments (Debye-Ang)
        XX     -17.8599     XY      -0.0000     YY     -17.8599
        XZ       0.0000     YZ      -0.0000     ZZ     -16.5669
    Octopole Moments (Debye-Ang^2)
       XXX      -0.0000    XXY      -0.0000    XYY      -0.0000
       YYY       0.0000    XXZ     -20.1548    XYZ      -0.0000
       YYZ     -20.1548    XZZ       0.0000    YZZ      -0.0000
       ZZZ     -53.5119
    Hexadecapole Moments (Debye-Ang^3)
      XXXX     -18.7146   XXXY      -0.0000   XXYY      -6.2382
      XYYY      -0.0000   YYYY     -18.7146   XXXZ      -0.0000
      XXYZ      -0.0000   XYYZ       0.0000   YYYZ       0.0000
      XXZZ     -39.1029   XYZZ      -0.0000   YYZZ     -39.1029
      XZZZ       0.0000   YZZZ      -0.0000   ZZZZ    -189.4024
 -----------------------------------------------------------------
Archival summary:
1\1\n0094.mhg0\SP\ROProcedureUnspecified\BasisUnspecified\l11(3)\yhljason\WedNov1114:39:572020WedNov1114:39:572020\0\\#,ROProcedureUnspecified,BasisUnspecified,\\0,3\N\Cl,1,1.6107\\\@

 Total job time:  61.03s(wall), 478.59s(cpu) 
 Wed Nov 11 14:39:57 2020

        *************************************************************
        *                                                           *
        *  Thank you very much for using Q-Chem.  Have a nice day.  *
        *                                                           *
        *************************************************************


 
User input: 7 of 7 
 
Q-Chem Developer Version!
                  Welcome to Q-Chem
     A Quantum Leap Into The Future Of Chemistry


 Q-Chem 5.1, Q-Chem, Inc., Pleasanton, CA (2018)

 Yihan Shao,  Zhengting Gan,  E. Epifanovsky,  A. T. B. Gilbert,  M. Wormit,  
 J. Kussmann,  A. W. Lange,  A. Behn,  Jia Deng,  Xintian Feng,  D. Ghosh,  
 M. Goldey,  P. R. Horn,  L. D. Jacobson,  I. Kaliman,  T. Kus,  A. Landau,  
 Jie Liu,  E. I. Proynov,  R. M. Richard,  R. P. Steele,  E. J. Sundstrom,  
 H. L. Woodcock III,  P. M. Zimmerman,  D. Zuev,  B. Albrecht,  E. Alguire,  
 S. A. Baeppler,  D. Barton,  Z. Benda,  Y. A. Bernard,  E. J. Berquist,  
 K. B. Bravaya,  H. Burton,  D. Casanova,  Chun-Min Chang,  Yunqing Chen,  
 A. Chien,  K. D. Closser,  M. P. Coons,  S. Coriani,  S. Dasgupta,  
 A. L. Dempwolff,  M. Diedenhofen,  Hainam Do,  R. G. Edgar,  Po-Tung Fang,  
 S. Faraji,  S. Fatehi,  Qingguo Feng,  K. D. Fenk,  J. Fosso-Tande,  
 Qinghui Ge,  A. Ghysels,  G. Gidofalvi,  J. Gomes,  J. Gonthier,  A. Gunina,  
 D. Hait,  M. W. D. Hanson-Heine,  P. H. P. Harbach,  A. W. Hauser,  
 J. E. Herr,  E. G. Hohenstein,  Z. C. Holden,  Kerwin Hui,  B. C. Huynh,  
 T.-C. Jagau,  Hyunjun Ji,  B. Kaduk,  K. Khistyaev,  Jaehoon Kim,  
 P. Klunzinger,  K. Koh,  D. Kosenkov,  L. Koulias,  T. Kowalczyk,  
 C. M. Krauter,  A. Kunitsa,  Ka Un Lao,  A. Laurent,  K. V. Lawler,  
 Joonho Lee,  D. Lefrancois,  S. Lehtola,  D. S. Levine,  Yi-Pei Li,  
 You-Sheng Lin,  Fenglai Liu,  E. Livshits,  A. Luenser,  P. Manohar,  
 E. Mansoor,  S. F. Manzer,  Shan-Ping Mao,  Yuezhi Mao,  N. Mardirossian,  
 A. V. Marenich,  T. Markovich,  L. A. Martinez-Martinez,  S. A. Maurer,  
 N. J. Mayhall,  S. C. McKenzie,  J.-M. Mewes,  A. F. Morrison,  
 J. W. Mullinax,  K. Nanda,  T. S. Nguyen-Beck,  R. Olivares-Amaya,  
 J. A. Parkhill,  T. M. Perrine,  F. Plasser,  P. Pokhilko,  S. Prager,  
 A. Prociuk,  E. Ramos,  D. R. Rehn,  F. Rob,  M. Schneider,  N. Sergueev,  
 S. M. Sharada,  S. Sharma,  D. W. Small,  T. Stauch,  T. Stein,  
 Yu-Chuan Su,  A. J. W. Thom,  A. Tkatchenko,  T. Tsuchimochi,  N. M. Tubman,  
 L. Vogt,  M. L. Vidal,  O. Vydrov,  M. A. Watson,  J. Wenzel,  
 M. de Wergifosse,  T. A. Wesolowski,  A. White,  J. Witte,  A. Yamada,  
 Jun Yang,  K. Yao,  S. Yeganeh,  S. R. Yost,  Zhi-Qiang You,  A. Zech,  
 Igor Ying Zhang,  Xing Zhang,  Yan Zhao,  Ying Zhu,  B. R. Brooks,  
 G. K. L. Chan,  C. J. Cramer,  M. S. Gordon,  W. J. Hehre,  A. Klamt,  
 M. W. Schmidt,  C. D. Sherrill,  D. G. Truhlar,  A. Aspuru-Guzik,  R. Baer,  
 A. T. Bell,  N. A. Besley,  Jeng-Da Chai,  A. E. DePrince, III,  
 R. A. DiStasio Jr.,  A. Dreuw,  B. D. Dunietz,  T. R. Furlani,  
 Chao-Ping Hsu,  Yousung Jung,  Jing Kong,  D. S. Lambrecht,  WanZhen Liang,  
 C. Ochsenfeld,  V. A. Rassolov,  L. V. Slipchenko,  J. E. Subotnik,  
 T. Van Voorhis,  J. M. Herbert,  A. I. Krylov,  P. M. W. Gill,  M. Head-Gordon

 Contributors to earlier versions of Q-Chem not listed above: 
 R. D. Adamson,  B. Austin,  J. Baker,  G. J. O. Beran,  K. Brandhorst,  
 S. T. Brown,  E. F. C. Byrd,  A. K. Chakraborty,  C.-L. Cheng,  
 Siu Hung Chien,  D. M. Chipman,  D. L. Crittenden,  H. Dachsel,  
 R. J. Doerksen,  A. D. Dutoi,  L. Fusti-Molnar,  W. A. Goddard III,  
 A. Golubeva-Zadorozhnaya,  S. R. Gwaltney,  G. Hawkins,  A. Heyden,  
 S. Hirata,  G. Kedziora,  F. J. Keil,  C. Kelley,  Jihan Kim,  R. A. King,  
 R. Z. Khaliullin,  P. P. Korambath,  W. Kurlancheek,  A. M. Lee,  M. S. Lee,  
 S. V. Levchenko,  Ching Yeh Lin,  D. Liotard,  R. C. Lochan,  I. Lotan,  
 P. E. Maslen,  N. Nair,  D. P. O'Neill,  D. Neuhauser,  E. Neuscamman,  
 C. M. Oana,  R. Olson,  B. Peters,  R. Peverati,  P. A. Pieniazek,  
 Y. M. Rhee,  J. Ritchie,  M. A. Rohrdanz,  E. Rosta,  N. J. Russ,  
 H. F. Schaefer III,  N. E. Schultz,  N. Shenvi,  A. C. Simmonett,  A. Sodt,  
 D. Stuck,  K. S. Thanthiriwatte,  V. Vanovschi,  Tao Wang,  A. Warshel,  
 C. F. Williams,  Q. Wu,  X. Xu,  W. Zhang

 Please cite Q-Chem as follows:
 Y. Shao et al., Mol. Phys. 113, 184-215 (2015)
 DOI: 10.1080/00268976.2014.952696

 Q-Chem 5.1.1 for Intel X86 EM64T Linux

 Parts of Q-Chem use Armadillo 8.300.2 (Tropical Shenanigans).
 http://arma.sourceforge.net/

 Q-Chem begins on Wed Nov 11 14:39:57 2020  

Host: n0094.mhg0
0

     Scratch files written to /local/scratch/users/yhljason/NCl_DSD-PBEPBE-D3_aug-cc-pcVTZ.inp20201111140432//
The previous job contains 0 fragments, simply inherited here
Input Ideriv = 0
Curr. Ideriv = -1
Max.  Ideriv = 0
Input Ideriv = 1
Curr. Ideriv = 0
Max.  Ideriv = 0

Checking the input file for inconsistencies... 	...done.

--------------------------------------------------------------
User input:
--------------------------------------------------------------
$molecule
read
$end

$rem
jobtype sp
exchange DSD-PBEPBE-D3
xc_grid 000099000590
basis aug-cc-pcVTZ

max_scf_cycles 200
thresh 14
scf_convergence 8
mem_total 128000
cc_memory 96000
cc_backend xm
mem_static 1500
symmetry false
sym_ignore true
scf_guess read
unrestricted false
scf_algorithm gdm
n_frozen_core 0
$end



$multipole_field
ZZ -0.0001
$end

--------------------------------------------------------------
 Adding empirical dispersion correction 
 ----------------------------------------------------------------
 Doing -D3(BJ) with
 s6 =   0.78000
 s8 =   0.00000
 a1 =   0.00000
 a2 =   6.10000
 -D3 energy without 3body term =     -0.0006656522 hartrees
 ----------------------------------------------------------------
             Standard Nuclear Orientation (Angstroms)
    I     Atom           X                Y                Z
 ----------------------------------------------------------------
    1      N       0.0000000000     0.0000000000     0.0000000000
    2      Cl      0.0000000000     0.0000000000     1.6107000000
 ----------------------------------------------------------------
 Nuclear Repulsion Energy =    39.0954342331 hartrees
 There are       13 alpha and       11 beta electrons
 Requested basis set is aug-cc-pCVTZ
 There are 42 shells and 134 basis functions

 Total QAlloc Memory Limit 128000 MB
 Mega-Array Size      1467 MB
 MEM_STATIC part      1500 MB

                       Distance Matrix (Angstroms)
             N (  1)
   Cl(  2)  1.610700
 
 Applying Cartesian multipole field
    Component          Value
    ---------          -----
     (0,0,2)       -1.00000E-04
 Nucleus-field energy     =    -0.0157498337 hartrees
 A cutoff of  1.0D-14 yielded    883 shell pairs
 There are      9061 function pairs (     12669 Cartesian)
 
 -------------------------------------------------------
 OpenMP Integral Computing Module                       
 Release: version 1.0, May 2013, Q-Chem Inc. Pittsburgh 
 -------------------------------------------------------
 Integral Job Info:
 Integral job number is                      11
 Integral operator is                         1
 short-range coefficients                     0
 long-range coefficients              100000000
 Omega coefficients                           0
 if combine SR and LR in K                    0
 Integral screening is                        0
 Integral computing path is                   2
 max size of driver memory is            800000
 size of driver memory is                776718
 size of scratch memory is             29531563
 max col of scratch BK array              10000
 max len of scratch array in speh3          662
 max len of scratch index in speh4           32
 max int batch size is                      520
 min int batch size is                       52
 fixed nKL is                                31
 max L of basis functions is                  3
 order of int derivative is                   0
 number of shells is                         42
 number of basis is                         158
 number of cartesian basis is               158
 number of contracted shell pairs           883
 number of primitive shell pairs           5031
 maxK2 (contraction) of shell pair          169
 max number of K2 of shell pair               1
 max number of CS2 of shell pair             98
 max number of PS2 of shell pair           1014
 mem total for path MDJ                  562256
 -------------------------------------------------------
 Smallest overlap matrix eigenvalue = 3.23E-04
 Guess MOs from SCF MO coefficient file
 Reading MOs from coefficient file
 Reading MOs from coefficient file
 A restricted hybrid HF-DFT SCF calculation will be
 performed using Geometric Direct Minimization
 Exchange:     0.6800 Hartree-Fock + 0.3200 PBE
 Correlation:  0.4900 PBE
 Using Euler-Maclaurin-Lebedev (99,590) quadrature formula
 Dispersion:   Grimme D3
 SCF converges when RMS gradient is below 1.0E-08
Using Q-Chem read-in guess as SCF_GUESS READ specified.

 using 8 threads for integral computing
 -------------------------------------------------------
 OpenMP Integral computing Module                
 Release: version 2.0, May 2017, Q-Chem Inc. Pleasanton 
 -------------------------------------------------------
TIMEINFO->: J/JK contribution 14.86 sec.
 -------------------------------------------------------
 OpenMP BLAS3 based DFT computing Module                
 Release: version 1.0, May 2013, Q-Chem Inc. Pittsburgh 
 -------------------------------------------------------
 ---------------------------------------
  Cycle       Energy        RMS Gradient
 ---------------------------------------
    1    -514.2739048855      1.92E-03 Normal BFGS step
TIMEINFO->: J/JK contribution 14.76 sec.
    2    -514.2739108389      1.73E-03 Normal BFGS step
TIMEINFO->: J/JK contribution 14.53 sec.
    3    -514.2739160972      3.94E-04 Normal BFGS step
TIMEINFO->: J/JK contribution 14.36 sec.
    4    -514.2739165573      2.07E-04 Normal BFGS step
TIMEINFO->: J/JK contribution 14.35 sec.
    5    -514.2739166623      4.85E-05 Normal BFGS step
TIMEINFO->: J/JK contribution 14.59 sec.
    6    -514.2739166640      2.74E-05 Normal BFGS step
TIMEINFO->: J/JK contribution 14.40 sec.
    7    -514.2739166649      2.00E-06 Normal BFGS step
TIMEINFO->: J/JK contribution 14.45 sec.
    8    -514.2739166649      5.00E-07 Normal BFGS step
TIMEINFO->: J/JK contribution 14.72 sec.
    9    -514.2739166649      1.57E-07 Normal BFGS step
TIMEINFO->: J/JK contribution 14.30 sec.
   GDM::WARNING energy changes are now smaller than effective accuracy.
   GDM::        calculation will continue, but THRESH should be increased
   GDM::        or SCF_CONVERGENCE decreased.
   GDM::        effective_thresh =   7.638690392025582E-010
   10    -514.2739166649      5.64E-08 Normal BFGS step
TIMEINFO->: J/JK contribution 13.78 sec.
   GDM::WARNING energy changes are now smaller than effective accuracy.
   GDM::        calculation will continue, but THRESH should be increased
   GDM::        or SCF_CONVERGENCE decreased.
   GDM::        effective_thresh =   7.638690392025582E-010
   11    -514.2739166649      2.66E-08 Normal BFGS step
TIMEINFO->: J/JK contribution 13.52 sec.
   GDM::WARNING energy changes are now smaller than effective accuracy.
   GDM::        calculation will continue, but THRESH should be increased
   GDM::        or SCF_CONVERGENCE decreased.
   GDM::        effective_thresh =   7.638690392025582E-010
   12    -514.2739166649      2.13E-09 Convergence criterion met
 ---------------------------------------
 SCF time:  CPU 219.16 s  wall 27.63 s
 SCF   energy in the final basis set = -514.27391666
 Total energy in the final basis set = -514.27391666
 
 Components of the MP2 correlation energy:
        aaaa  correlation energy =        -0.0150205101 au
        abab  correlation energy =        -0.3229891063 au
        bbbb  correlation energy =        -0.0120708381 au
        non-Brillouin singles    =        -0.0054721040 au

 Total  MP2   correlation energy =                    -0.35555256 au
        MP2         total energy =                  -514.62946922 au
 
 --------------------------------------------------------------
 
                    Orbital Energies (a.u.)
 --------------------------------------------------------------
 
 Alpha MOs
 -- Occupied --
******* -15.190 -10.184  -7.765  -7.762  -7.762  -1.186  -0.892
 -0.547  -0.520  -0.520  -0.436  -0.436
 -- Virtual --
  0.046   0.083   0.093   0.093   0.116   0.141   0.141   0.152
  0.253   0.264   0.264   0.353   0.353   0.429   0.468   0.468
  0.491   0.523   0.523   0.558   0.558   0.658   0.727   0.762
  0.762   0.774   0.774   0.835   0.835   0.847   0.970   1.061
  1.061   1.139   1.139   1.235   1.311   1.311   1.450   1.450
  1.438   1.438   1.576   1.653   1.653   1.708   1.736   1.736
  2.000   2.002   2.002   2.215   2.215   2.284   2.284   2.474
  2.619   2.619   2.879   2.879   2.910   2.910   2.942   2.942
  2.967   3.034   3.327   3.327   3.450   3.975   4.616   4.668
  4.668   4.773   4.773   4.819   4.819   4.954   4.954   5.147
  5.147   5.363   5.468  10.046  10.046  10.089  10.089  10.353
 12.364  12.364  12.812  17.870  20.296  20.296  21.003  21.867
 36.384  36.384  36.388  36.388  36.390  36.390  36.406  38.636
 38.636  38.729  38.729  38.808  45.908  45.908  45.934  45.934
 46.069  54.374  54.374  54.898 102.901 108.100 108.100 108.751
114.605
 
 Beta MOs
 -- Occupied --
******* -15.142 -10.182  -7.764  -7.757  -7.757  -1.120  -0.775
 -0.487  -0.469  -0.469
 -- Virtual --
  0.038   0.038   0.057   0.090   0.096   0.096   0.123   0.152
  0.152   0.168   0.262   0.274   0.274   0.374   0.374   0.443
  0.493   0.493   0.504   0.544   0.544   0.570   0.570   0.664
  0.749   0.773   0.773   0.801   0.801   0.882   0.882   0.859
  0.988   1.069   1.069   1.155   1.155   1.266   1.337   1.337
  1.485   1.485   1.534   1.534   1.591   1.681   1.681   1.725
  1.759   1.759   2.022   2.028   2.028   2.223   2.223   2.295
  2.295   2.498   2.636   2.636   2.889   2.889   2.918   2.918
  2.993   2.993   2.972   3.051   3.399   3.399   3.461   4.027
  4.660   4.763   4.763   4.841   4.841   4.956   4.956   4.999
  4.999   5.221   5.221   5.411   5.506  10.049  10.049  10.091
 10.091  10.355  12.369  12.369  12.814  17.874  20.362  20.362
 21.028  21.903  36.385  36.385  36.389  36.389  36.391  36.391
 36.406  38.697  38.697  38.762  38.762  38.833  45.912  45.912
 45.937  45.937  46.071  54.377  54.377  54.898 102.903 108.117
108.117 108.756 114.619
 --------------------------------------------------------------
 
          Ground-State Mulliken Net Atomic Charges

     Atom                 Charge (a.u.)
  ----------------------------------------
      1 N                    -0.290582
      2 Cl                    0.290582
  ----------------------------------------
  Sum of atomic charges =    -0.000000

 -----------------------------------------------------------------
                    Cartesian Multipole Moments
 -----------------------------------------------------------------
    Charge (ESU x 10^10)
                -0.0000
    Dipole Moment (Debye)
         X       0.0000      Y       0.0000      Z       0.8039
       Tot       0.8039
    Quadrupole Moments (Debye-Ang)
        XX     -17.8549     XY      -0.0000     YY     -17.8549
        XZ       0.0000     YZ      -0.0000     ZZ     -16.4087
    Octopole Moments (Debye-Ang^2)
       XXX      -0.0000    XXY       0.0000    XYY       0.0000
       YYY       0.0000    XXZ     -20.1139    XYZ       0.0000
       YYZ     -20.1139    XZZ       0.0000    YZZ      -0.0000
       ZZZ     -53.0491
    Hexadecapole Moments (Debye-Ang^3)
      XXXX     -18.6913   XXXY      -0.0000   XXYY      -6.2304
      XYYY      -0.0000   YYYY     -18.6913   XXXZ       0.0000
      XXYZ       0.0000   XYYZ       0.0000   YYYZ       0.0000
      XXZZ     -38.9860   XYZZ       0.0000   YYZZ     -38.9860
      XZZZ       0.0000   YZZZ      -0.0000   ZZZZ    -188.0574
 -----------------------------------------------------------------
Archival summary:
1\1\n0094.mhg0\SP\ROProcedureUnspecified\BasisUnspecified\l11(3)\yhljason\WedNov1114:41:002020WedNov1114:41:002020\0\\#,ROProcedureUnspecified,BasisUnspecified,\\0,3\N\Cl,1,1.6107\\\@

 Total job time:  63.58s(wall), 499.80s(cpu) 
 Wed Nov 11 14:41:00 2020

        *************************************************************
        *                                                           *
        *  Thank you very much for using Q-Chem.  Have a nice day.  *
        *                                                           *
        *************************************************************


