Q-Chem Developer Version!
                  Welcome to Q-Chem
     A Quantum Leap Into The Future Of Chemistry


 Q-Chem 5.1, Q-Chem, Inc., Pleasanton, CA (2018)

 Yihan Shao,  Zhengting Gan,  E. Epifanovsky,  A. T. B. Gilbert,  M. Wormit,  
 J. Kussmann,  A. W. Lange,  A. Behn,  Jia Deng,  Xintian Feng,  D. Ghosh,  
 M. Goldey,  P. R. Horn,  L. D. Jacobson,  I. Kaliman,  T. Kus,  A. Landau,  
 Jie Liu,  E. I. Proynov,  R. M. Richard,  R. P. Steele,  E. J. Sundstrom,  
 H. L. Woodcock III,  P. M. Zimmerman,  D. Zuev,  B. Albrecht,  E. Alguire,  
 S. A. Baeppler,  D. Barton,  Z. Benda,  Y. A. Bernard,  E. J. Berquist,  
 K. B. Bravaya,  H. Burton,  D. Casanova,  Chun-Min Chang,  Yunqing Chen,  
 A. Chien,  K. D. Closser,  M. P. Coons,  S. Coriani,  S. Dasgupta,  
 A. L. Dempwolff,  M. Diedenhofen,  Hainam Do,  R. G. Edgar,  Po-Tung Fang,  
 S. Faraji,  S. Fatehi,  Qingguo Feng,  K. D. Fenk,  J. Fosso-Tande,  
 Qinghui Ge,  A. Ghysels,  G. Gidofalvi,  J. Gomes,  J. Gonthier,  A. Gunina,  
 D. Hait,  M. W. D. Hanson-Heine,  P. H. P. Harbach,  A. W. Hauser,  
 J. E. Herr,  E. G. Hohenstein,  Z. C. Holden,  Kerwin Hui,  B. C. Huynh,  
 T.-C. Jagau,  Hyunjun Ji,  B. Kaduk,  K. Khistyaev,  Jaehoon Kim,  
 P. Klunzinger,  K. Koh,  D. Kosenkov,  L. Koulias,  T. Kowalczyk,  
 C. M. Krauter,  A. Kunitsa,  Ka Un Lao,  A. Laurent,  K. V. Lawler,  
 Joonho Lee,  D. Lefrancois,  S. Lehtola,  D. S. Levine,  Yi-Pei Li,  
 You-Sheng Lin,  Fenglai Liu,  E. Livshits,  A. Luenser,  P. Manohar,  
 E. Mansoor,  S. F. Manzer,  Shan-Ping Mao,  Yuezhi Mao,  N. Mardirossian,  
 A. V. Marenich,  T. Markovich,  L. A. Martinez-Martinez,  S. A. Maurer,  
 N. J. Mayhall,  S. C. McKenzie,  J.-M. Mewes,  A. F. Morrison,  
 J. W. Mullinax,  K. Nanda,  T. S. Nguyen-Beck,  R. Olivares-Amaya,  
 J. A. Parkhill,  T. M. Perrine,  F. Plasser,  P. Pokhilko,  S. Prager,  
 A. Prociuk,  E. Ramos,  D. R. Rehn,  F. Rob,  M. Schneider,  N. Sergueev,  
 S. M. Sharada,  S. Sharma,  D. W. Small,  T. Stauch,  T. Stein,  
 Yu-Chuan Su,  A. J. W. Thom,  A. Tkatchenko,  T. Tsuchimochi,  N. M. Tubman,  
 L. Vogt,  M. L. Vidal,  O. Vydrov,  M. A. Watson,  J. Wenzel,  
 M. de Wergifosse,  T. A. Wesolowski,  A. White,  J. Witte,  A. Yamada,  
 Jun Yang,  K. Yao,  S. Yeganeh,  S. R. Yost,  Zhi-Qiang You,  A. Zech,  
 Igor Ying Zhang,  Xing Zhang,  Yan Zhao,  Ying Zhu,  B. R. Brooks,  
 G. K. L. Chan,  C. J. Cramer,  M. S. Gordon,  W. J. Hehre,  A. Klamt,  
 M. W. Schmidt,  C. D. Sherrill,  D. G. Truhlar,  A. Aspuru-Guzik,  R. Baer,  
 A. T. Bell,  N. A. Besley,  Jeng-Da Chai,  A. E. DePrince, III,  
 R. A. DiStasio Jr.,  A. Dreuw,  B. D. Dunietz,  T. R. Furlani,  
 Chao-Ping Hsu,  Yousung Jung,  Jing Kong,  D. S. Lambrecht,  WanZhen Liang,  
 C. Ochsenfeld,  V. A. Rassolov,  L. V. Slipchenko,  J. E. Subotnik,  
 T. Van Voorhis,  J. M. Herbert,  A. I. Krylov,  P. M. W. Gill,  M. Head-Gordon

 Contributors to earlier versions of Q-Chem not listed above: 
 R. D. Adamson,  B. Austin,  J. Baker,  G. J. O. Beran,  K. Brandhorst,  
 S. T. Brown,  E. F. C. Byrd,  A. K. Chakraborty,  C.-L. Cheng,  
 Siu Hung Chien,  D. M. Chipman,  D. L. Crittenden,  H. Dachsel,  
 R. J. Doerksen,  A. D. Dutoi,  L. Fusti-Molnar,  W. A. Goddard III,  
 A. Golubeva-Zadorozhnaya,  S. R. Gwaltney,  G. Hawkins,  A. Heyden,  
 S. Hirata,  G. Kedziora,  F. J. Keil,  C. Kelley,  Jihan Kim,  R. A. King,  
 R. Z. Khaliullin,  P. P. Korambath,  W. Kurlancheek,  A. M. Lee,  M. S. Lee,  
 S. V. Levchenko,  Ching Yeh Lin,  D. Liotard,  R. C. Lochan,  I. Lotan,  
 P. E. Maslen,  N. Nair,  D. P. O'Neill,  D. Neuhauser,  E. Neuscamman,  
 C. M. Oana,  R. Olson,  B. Peters,  R. Peverati,  P. A. Pieniazek,  
 Y. M. Rhee,  J. Ritchie,  M. A. Rohrdanz,  E. Rosta,  N. J. Russ,  
 H. F. Schaefer III,  N. E. Schultz,  N. Shenvi,  A. C. Simmonett,  A. Sodt,  
 D. Stuck,  K. S. Thanthiriwatte,  V. Vanovschi,  Tao Wang,  A. Warshel,  
 C. F. Williams,  Q. Wu,  X. Xu,  W. Zhang

 Please cite Q-Chem as follows:
 Y. Shao et al., Mol. Phys. 113, 184-215 (2015)
 DOI: 10.1080/00268976.2014.952696

 Q-Chem 5.1.1 for Intel X86 EM64T Linux

 Parts of Q-Chem use Armadillo 8.300.2 (Tropical Shenanigans).
 http://arma.sourceforge.net/

 Q-Chem begins on Mon Nov 16 03:40:47 2020  

Host: n0075.mhg0
0

     Scratch files written to /local/scratch/users/yhljason/NF_PWPB95-D3_aug-cc-pcV5Z.inp20201116034045//
Input Ideriv = 0
Curr. Ideriv = -1
Max.  Ideriv = 0
Input Ideriv = 0
Curr. Ideriv = 0
Max.  Ideriv = 0

Checking the input file for inconsistencies... 	...done.

--------------------------------------------------------------
User input:
--------------------------------------------------------------
$molecule
0 3
N1      0.0000  0.0000  0.0000
F2      0.0000  0.0000  1.3170
$end

$rem
jobtype sp
exchange PWPB95-D3
xc_grid 000099000590
basis aug-cc-pcV5Z

max_scf_cycles 200
thresh 14
scf_convergence 8
scf_algorithm gdm
symmetry false
sym_ignore true
unrestricted false
gen_scfman true
internal_stability_iter 15
internal_stability_davidson_iter 200
mem_total 128000
cc_memory 96000
cc_backend xm
mem_static 1500
n_frozen_core 500
$end



--------------------------------------------------------------
 Adding empirical dispersion correction 
 ----------------------------------------------------------------
 Doing -D3(0) with
 s6  =   0.82000
 s8  =   0.70500
 rs6 =   1.55700
 rs8 =   1.00000
 -D3 energy without 3body term =     -0.0000013616 hartrees
 ----------------------------------------------------------------
             Standard Nuclear Orientation (Angstroms)
    I     Atom           X                Y                Z
 ----------------------------------------------------------------
    1      N       0.0000000000     0.0000000000     0.0000000000
    2      F       0.0000000000     0.0000000000     1.3170000000
 ----------------------------------------------------------------
 Nuclear Repulsion Energy =    25.3137148726 hartrees
 There are        9 alpha and        7 beta electrons
 Requested basis set is aug-cc-pCV5Z
 There are 82 shells and 362 basis functions

 Total QAlloc Memory Limit 128000 MB
 Mega-Array Size      1467 MB
 MEM_STATIC part      1500 MB

                       Distance Matrix (Angstroms)
             N (  1)
   F (  2)  1.317000
 
 A cutoff of  1.0D-14 yielded   3184 shell pairs
 There are     63666 function pairs (    123893 Cartesian)
 
 -------------------------------------------------------
 OpenMP Integral Computing Module                       
 Release: version 1.0, May 2013, Q-Chem Inc. Pittsburgh 
 -------------------------------------------------------
 Integral Job Info:
 Integral job number is                      11
 Integral operator is                         1
 short-range coefficients                     0
 long-range coefficients              100000000
 Omega coefficients                           0
 if combine SR and LR in K                    0
 Integral screening is                        0
 Integral computing path is                   2
 max size of driver memory is           6400000
 size of driver memory is               5498286
 size of scratch memory is             29551430
 max col of scratch BK array             194481
 max len of scratch array in speh3         5572
 max len of scratch index in speh4           72
 max int batch size is                      520
 min int batch size is                       52
 fixed nKL is                                30
 max L of basis functions is                  5
 order of int derivative is                   0
 number of shells is                         82
 number of basis is                         502
 number of cartesian basis is               502
 number of contracted shell pairs          3184
 number of primitive shell pairs           6624
 maxK2 (contraction) of shell pair          100
 max number of K2 of shell pair               1
 max number of CS2 of shell pair            309
 max number of PS2 of shell pair            600
 mem total for path MDJ                  998666
 -------------------------------------------------------
 Smallest overlap matrix eigenvalue = 1.79E-05

 Scale SEOQF with 1.000000e-01/1.000000e-01/1.000000e-01

 Standard Electronic Orientation quadrupole field applied
 Nucleus-field energy     =    -0.0000000017 hartrees
 Guess from superposition of atomic densities
 Warning:  Energy on first SCF cycle will be non-variational
 SAD guess density has 16.000000 electrons

 -----------------------------------------------------------------------
  General SCF calculation program by
  Eric Jon Sundstrom, Paul Horn, Yuezhi Mao, Dmitri Zuev, Alec White,
  David Stuck, Shaama M.S., Shane Yost, Joonho Lee, David Small,
  Daniel Levine, Susi Lehtola, Hugh Burton, Evgeny Epifanovsky
 -----------------------------------------------------------------------
 Exchange:     0.5000 Hartree-Fock + 1.0000 PWPB95-D3
 Correlation:  0.7310 PWPB95-D3
 Using Euler-Maclaurin-Lebedev (99,590) quadrature formula
 Dispersion:   Grimme D3
Running Object-Oriented ROKS (ROHF)
ROHF occupied orbitals are orthonormal
ROHF occupied orbitals are orthogonal to virtual orbitals
ROHF virtual orbitals are orthonormal
 LTot/LBra/LKet=          16           6          10

 Q-Chem warning:

 in GenH1, ket side, handled with new code

We will preform up to 15 macro iterations over saddle points until a stable solution is found
Energy prior to optimization (guess energy) = -152.863674063572
Begin Timing: Total SCF Calculation
Begin Timing: SCF Single Stationary Point Calculation
begin iterations for algorithm: GDM          
the SCF tolerance is set to 1.00e-08
 LTot/LBra/LBra=          18           9           9

 Q-Chem warning:

 in GenH1, bra side, handled with new code

    1    -152.8636740636      4.63e-01     00000  Descent step
    2    -153.1884968678      6.12e-01     00000  Descent step
    3    -153.4616248949      1.24e+00     00000  Descent step
    4    -153.7548321927      1.53e-01     00000  Dog-leg BFGS step
    5    -153.8269485828      2.90e-01     00000  Dog-leg BFGS step
    6    -153.9371513218      3.97e-01     00000  Descent step
    7    -154.0307819830      2.54e-01     00000  Descent step
    8    -154.0576149310      1.47e-01     00000  Normal BFGS step
    9    -154.0719594431      6.95e-02     00000  Normal BFGS step
   10    -154.0724715499      5.92e-02     00000  Normal BFGS step
   11    -154.0734818176      1.77e-02     00000  Normal BFGS step
   12    -154.0718170387      5.62e-02     00000 Line search: overstep
   13    -154.0736302053      9.76e-03     00000  Normal BFGS step
   14    -154.0736561914      1.16e-03     00000  Normal BFGS step
   15    -154.0736600983      6.34e-04     00000  Normal BFGS step
   16    -154.0736605204      9.68e-05     00000  Normal BFGS step
   17    -154.0736605277      1.58e-05     00000  Normal BFGS step
   18    -154.0736605287      1.25e-05     00000  Normal BFGS step
   19    -154.0736605290      2.90e-06     00000  Normal BFGS step
   20    -154.0736605290      3.38e-06     00000  Normal BFGS step
   21    -154.0736605290      3.00e-06     00000  Normal BFGS step
   22    -154.0736605290      3.30e-06     00000  Normal BFGS step
   23    -154.0736605292      4.59e-06     00000  Normal BFGS step
   24    -154.0736605294      7.98e-06     00000  Normal BFGS step
   25    -154.0736605301      1.17e-05     00000  Normal BFGS step
   26    -154.0736605310      1.32e-05     00000  Normal BFGS step
   27    -154.0736605318      9.13e-06     00000  Normal BFGS step
   28    -154.0736605321      2.83e-06     00000  Normal BFGS step
   29    -154.0736605322      2.80e-07     00000  Normal BFGS step
   30    -154.0736605322      4.94e-07     00000  Normal BFGS step
   31    -154.0736605322      9.00e-07     00000  Normal BFGS step
   32    -154.0736605322      1.71e-06     00000  Normal BFGS step
   33    -154.0736605322      3.25e-06     00000  Normal BFGS step
   34    -154.0736605322      6.52e-06     00000  Normal BFGS step
   35    -154.0736605323      1.28e-05     00000  Normal BFGS step
   36    -154.0736605327      2.54e-05     00000  Normal BFGS step
   37    -154.0736605342      5.07e-05     00000  Normal BFGS step
   38    -154.0736605400      1.01e-04     00000 Line search: understep
   39    -154.0736607658      5.51e-04     00000 Line search: understep
   40    -154.0736768089      4.61e-03     00000 Line search: understep
Fro norm of D 1.394515111691e+00
transformation scaled by 2
   41    -154.0749569851      4.12e-02     00000 Line search: understep
   42    -154.1424473128      3.26e-01     00000  Descent step
Fro norm of D 1.295152620373e+00
transformation scaled by 2
   43    -154.2562391341      6.26e-01     00000  Descent step
   44    -154.2768405706      4.93e-01     00000  Descent step
Fro norm of D 1.220697536911e+00
transformation scaled by 2
   45    -154.2979014080      4.80e-01     00000  Descent step
   46    -154.1840910424      1.06e+00     00000 Line search: overstep
   47    -154.3287893735      7.27e-02     00000  Dog-leg BFGS step
   48    -154.2686866760      5.25e-01     00000 Line search: overstep
   49    -154.3299554729      5.36e-02     00000  Dog-leg BFGS step
   50    -154.2834885412      4.11e-01     00000 Line search: overstep
   51    -154.3330363300      1.31e-02     00000  Normal BFGS step
   52    -154.3220562184      1.26e-01     00000 Line search: overstep
   53    -154.3332808571      1.04e-02     00000  Normal BFGS step
   54    -154.3336302643      8.16e-03     00000  Normal BFGS step
   55    -154.3337658657      3.15e-03     00000  Normal BFGS step
   56    -154.3337730600      1.59e-03     00000  Normal BFGS step
   57    -154.3337762655      3.83e-04     00000  Normal BFGS step
   58    -154.3337763611      2.14e-04     00000  Normal BFGS step
   59    -154.3337764185      2.92e-05     00000  Normal BFGS step
   60    -154.3337764239      1.85e-05     00000  Normal BFGS step
   61    -154.3337764251      4.03e-06     00000  Normal BFGS step
   62    -154.3337764251      6.69e-07     00000  Normal BFGS step
   63    -154.3337764251      4.26e-07     00000  Normal BFGS step
   64    -154.3337764251      1.95e-07     00000  Normal BFGS step
   65    -154.3337764251      7.52e-08     00000  Normal BFGS step
   66    -154.3337764251      1.13e-07     00000  Normal BFGS step
   67    -154.3337764251      1.35e-08     00000  Normal BFGS step
   68    -154.3337764251      4.30e-09     00000 Convergence criterion met
The disked orbital energies are calculated using alpha and beta Focks
Timing for Single Stationary Point: 8068.00s (wall), 128298.59s (cpu)
Begin Timing: Stability
===================================================
Beginning Test for Internal Stability
===================================================
generating davidson guess vectors based on koopmans-like excitations
    1      6.57e-01     00000 Davidson Iteration
    2      2.29e-01     00000 Davidson Iteration
    3      1.27e-01     00000 Davidson Iteration
    4      1.45e-01     00000 Davidson Iteration
    5      1.14e-01     00000 Davidson Iteration
    6      3.80e-02     00000 Davidson Iteration
    7      1.32e-02     00000 Davidson Iteration
    8      1.80e-03     00000 Davidson Iteration
    9      3.15e-04     00000 Davidson Iteration
   10      1.08e-04     00000 Davidson Iteration
   11      6.84e-05     00000 Davidson Iteration
   12      3.46e-05     00000 Davidson Converged
converged_eigenvalues
   0.4814
   0.4814
Threshold for negative eigenvalues: -1.0e-05
solution was a local minimum (stable)
===================================================
End Test for Internal Stability
===================================================
Our SCF solution is stable!
The disked orbital energies are calculated using alpha and beta Focks
Timing for Total SCF: 10251.00s (wall), 160880.65s (cpu)
 Total energy in the final basis set =     -154.3337764251
<S^2> =          2.000000000
    ==================================================
              The end of Object-Oriented SCFman       
    ==================================================

 Q-Chem fatal error occurred in module libmdc/qalloc.C, line 49:

 Illegal memory length in mega_alloc


 Please submit a crash report at q-chem.com/reporter 
 
 
 
User input: 2 of 2 
 
Q-Chem Developer Version!
                  Welcome to Q-Chem
     A Quantum Leap Into The Future Of Chemistry


 Q-Chem 5.1, Q-Chem, Inc., Pleasanton, CA (2018)

 Yihan Shao,  Zhengting Gan,  E. Epifanovsky,  A. T. B. Gilbert,  M. Wormit,  
 J. Kussmann,  A. W. Lange,  A. Behn,  Jia Deng,  Xintian Feng,  D. Ghosh,  
 M. Goldey,  P. R. Horn,  L. D. Jacobson,  I. Kaliman,  T. Kus,  A. Landau,  
 Jie Liu,  E. I. Proynov,  R. M. Richard,  R. P. Steele,  E. J. Sundstrom,  
 H. L. Woodcock III,  P. M. Zimmerman,  D. Zuev,  B. Albrecht,  E. Alguire,  
 S. A. Baeppler,  D. Barton,  Z. Benda,  Y. A. Bernard,  E. J. Berquist,  
 K. B. Bravaya,  H. Burton,  D. Casanova,  Chun-Min Chang,  Yunqing Chen,  
 A. Chien,  K. D. Closser,  M. P. Coons,  S. Coriani,  S. Dasgupta,  
 A. L. Dempwolff,  M. Diedenhofen,  Hainam Do,  R. G. Edgar,  Po-Tung Fang,  
 S. Faraji,  S. Fatehi,  Qingguo Feng,  K. D. Fenk,  J. Fosso-Tande,  
 Qinghui Ge,  A. Ghysels,  G. Gidofalvi,  J. Gomes,  J. Gonthier,  A. Gunina,  
 D. Hait,  M. W. D. Hanson-Heine,  P. H. P. Harbach,  A. W. Hauser,  
 J. E. Herr,  E. G. Hohenstein,  Z. C. Holden,  Kerwin Hui,  B. C. Huynh,  
 T.-C. Jagau,  Hyunjun Ji,  B. Kaduk,  K. Khistyaev,  Jaehoon Kim,  
 P. Klunzinger,  K. Koh,  D. Kosenkov,  L. Koulias,  T. Kowalczyk,  
 C. M. Krauter,  A. Kunitsa,  Ka Un Lao,  A. Laurent,  K. V. Lawler,  
 Joonho Lee,  D. Lefrancois,  S. Lehtola,  D. S. Levine,  Yi-Pei Li,  
 You-Sheng Lin,  Fenglai Liu,  E. Livshits,  A. Luenser,  P. Manohar,  
 E. Mansoor,  S. F. Manzer,  Shan-Ping Mao,  Yuezhi Mao,  N. Mardirossian,  
 A. V. Marenich,  T. Markovich,  L. A. Martinez-Martinez,  S. A. Maurer,  
 N. J. Mayhall,  S. C. McKenzie,  J.-M. Mewes,  A. F. Morrison,  
 J. W. Mullinax,  K. Nanda,  T. S. Nguyen-Beck,  R. Olivares-Amaya,  
 J. A. Parkhill,  T. M. Perrine,  F. Plasser,  P. Pokhilko,  S. Prager,  
 A. Prociuk,  E. Ramos,  D. R. Rehn,  F. Rob,  M. Schneider,  N. Sergueev,  
 S. M. Sharada,  S. Sharma,  D. W. Small,  T. Stauch,  T. Stein,  
 Yu-Chuan Su,  A. J. W. Thom,  A. Tkatchenko,  T. Tsuchimochi,  N. M. Tubman,  
 L. Vogt,  M. L. Vidal,  O. Vydrov,  M. A. Watson,  J. Wenzel,  
 M. de Wergifosse,  T. A. Wesolowski,  A. White,  J. Witte,  A. Yamada,  
 Jun Yang,  K. Yao,  S. Yeganeh,  S. R. Yost,  Zhi-Qiang You,  A. Zech,  
 Igor Ying Zhang,  Xing Zhang,  Yan Zhao,  Ying Zhu,  B. R. Brooks,  
 G. K. L. Chan,  C. J. Cramer,  M. S. Gordon,  W. J. Hehre,  A. Klamt,  
 M. W. Schmidt,  C. D. Sherrill,  D. G. Truhlar,  A. Aspuru-Guzik,  R. Baer,  
 A. T. Bell,  N. A. Besley,  Jeng-Da Chai,  A. E. DePrince, III,  
 R. A. DiStasio Jr.,  A. Dreuw,  B. D. Dunietz,  T. R. Furlani,  
 Chao-Ping Hsu,  Yousung Jung,  Jing Kong,  D. S. Lambrecht,  WanZhen Liang,  
 C. Ochsenfeld,  V. A. Rassolov,  L. V. Slipchenko,  J. E. Subotnik,  
 T. Van Voorhis,  J. M. Herbert,  A. I. Krylov,  P. M. W. Gill,  M. Head-Gordon

 Contributors to earlier versions of Q-Chem not listed above: 
 R. D. Adamson,  B. Austin,  J. Baker,  G. J. O. Beran,  K. Brandhorst,  
 S. T. Brown,  E. F. C. Byrd,  A. K. Chakraborty,  C.-L. Cheng,  
 Siu Hung Chien,  D. M. Chipman,  D. L. Crittenden,  H. Dachsel,  
 R. J. Doerksen,  A. D. Dutoi,  L. Fusti-Molnar,  W. A. Goddard III,  
 A. Golubeva-Zadorozhnaya,  S. R. Gwaltney,  G. Hawkins,  A. Heyden,  
 S. Hirata,  G. Kedziora,  F. J. Keil,  C. Kelley,  Jihan Kim,  R. A. King,  
 R. Z. Khaliullin,  P. P. Korambath,  W. Kurlancheek,  A. M. Lee,  M. S. Lee,  
 S. V. Levchenko,  Ching Yeh Lin,  D. Liotard,  R. C. Lochan,  I. Lotan,  
 P. E. Maslen,  N. Nair,  D. P. O'Neill,  D. Neuhauser,  E. Neuscamman,  
 C. M. Oana,  R. Olson,  B. Peters,  R. Peverati,  P. A. Pieniazek,  
 Y. M. Rhee,  J. Ritchie,  M. A. Rohrdanz,  E. Rosta,  N. J. Russ,  
 H. F. Schaefer III,  N. E. Schultz,  N. Shenvi,  A. C. Simmonett,  A. Sodt,  
 D. Stuck,  K. S. Thanthiriwatte,  V. Vanovschi,  Tao Wang,  A. Warshel,  
 C. F. Williams,  Q. Wu,  X. Xu,  W. Zhang

 Please cite Q-Chem as follows:
 Y. Shao et al., Mol. Phys. 113, 184-215 (2015)
 DOI: 10.1080/00268976.2014.952696

 Q-Chem 5.1.1 for Intel X86 EM64T Linux

 Parts of Q-Chem use Armadillo 8.300.2 (Tropical Shenanigans).
 http://arma.sourceforge.net/

 Q-Chem begins on Mon Nov 16 06:32:22 2020  

Host: n0075.mhg0
0

     Scratch files written to /local/scratch/users/yhljason/NF_PWPB95-D3_aug-cc-pcV5Z.inp20201116034045//
The previous job contains 0 fragments, simply inherited here
Input Ideriv = 1
Curr. Ideriv = -1
Max.  Ideriv = 1

Checking the input file for inconsistencies... 	...done.

--------------------------------------------------------------
User input:
--------------------------------------------------------------
$molecule
read
$end

$rem

jobtype sp
method HF
xc_grid 000099000590
basis aug-cc-pcV5Z
max_scf_cycles 0
scf_guess read
thresh 14
scf_convergence 8
mem_total 128000
cc_memory 96000
cc_backend xm
mem_static 1500
symmetry false
sym_ignore true
scf_guess read
unrestricted false
scf_algorithm gdm
n_frozen_core 0
$end


--------------------------------------------------------------
 ----------------------------------------------------------------
             Standard Nuclear Orientation (Angstroms)
    I     Atom           X                Y                Z
 ----------------------------------------------------------------
    1      N       0.0000000000     0.0000000000     0.0000000000
    2      F       0.0000000000     0.0000000000     1.3170000000
 ----------------------------------------------------------------
 Nuclear Repulsion Energy =    25.3137162342 hartrees
 There are        9 alpha and        7 beta electrons
 Requested basis set is aug-cc-pCV5Z
 There are 82 shells and 362 basis functions

 Total QAlloc Memory Limit 128000 MB
 Mega-Array Size      1467 MB
 MEM_STATIC part      1500 MB

                       Distance Matrix (Angstroms)
             N (  1)
   F (  2)  1.317000
 
 A cutoff of  1.0D-14 yielded   3184 shell pairs
 There are     63666 function pairs (    123893 Cartesian)
 
 -------------------------------------------------------
 OpenMP Integral Computing Module                       
 Release: version 1.0, May 2013, Q-Chem Inc. Pittsburgh 
 -------------------------------------------------------
 Integral Job Info:
 Integral job number is                      11
 Integral operator is                         1
 short-range coefficients                     0
 long-range coefficients              100000000
 Omega coefficients                           0
 if combine SR and LR in K                    0
 Integral screening is                        0
 Integral computing path is                   2
 max size of driver memory is           6400000
 size of driver memory is               5498286
 size of scratch memory is             29551430
 max col of scratch BK array             194481
 max len of scratch array in speh3         5572
 max len of scratch index in speh4           72
 max int batch size is                      520
 min int batch size is                       52
 fixed nKL is                                30
 max L of basis functions is                  5
 order of int derivative is                   0
 number of shells is                         82
 number of basis is                         502
 number of cartesian basis is               502
 number of contracted shell pairs          3184
 number of primitive shell pairs           6624
 maxK2 (contraction) of shell pair          100
 max number of K2 of shell pair               1
 max number of CS2 of shell pair            309
 max number of PS2 of shell pair            600
 mem total for path MDJ                  998666
 -------------------------------------------------------
 Smallest overlap matrix eigenvalue = 1.79E-05

 Scale SEOQF with 1.000000e-01/1.000000e-01/1.000000e-01

 Standard Electronic Orientation quadrupole field applied
 Nucleus-field energy     =    -0.0000000017 hartrees
 Guess MOs from SCF MO coefficient file
 Reading MOs from coefficient file
 Reading MOs from coefficient file
 The restricted Hartree-Fock energy will be evaluated
 The orbitals will not be altered
Using Q-Chem read-in guess as SCF_GUESS READ specified.

 using 16 threads for integral computing
 -------------------------------------------------------
 OpenMP Integral computing Module                
 Release: version 2.0, May 2017, Q-Chem Inc. Pleasanton 
 -------------------------------------------------------
 LTot/LBra/LKet=          18           9           9
 LTot/LBra/LKet=          20          10          10

 Q-Chem warning:

 in GenH1, ket side, handled with new code


 Q-Chem warning:

 in GenH1, ket side, handled with new code

 LTot/LBra/LBra=          18           9           9

 Q-Chem warning:

 in GenH1, bra side, handled with new code

 LTot/LBra/LBra=          20          10          10

 Q-Chem warning:

 in GenH1, bra side, handled with new code

TIMEINFO->: J/JK contribution 1839.52 sec.
Avoiding writing the new MOs to disk !!! 
 ---------------------------------------
  Cycle       Energy        RMS Gradient
 ---------------------------------------
    1    -153.8333278773      5.46E-02 Convergence criterion met
 ---------------------------------------
 SCF time:  CPU 1843.79 s  wall 116.08 s
 SCF   energy in the final basis set = -153.83332788
 Total energy in the final basis set = -153.83332788
 
 --------------------------------------------------------------
 
                    Orbital Energies (a.u.)
 --------------------------------------------------------------
 
 Alpha MOs
 -- Occupied --
-25.377 -14.951  -1.466  -0.925  -0.628  -0.628  -0.604  -0.406
 -0.406
 -- Virtual --
  0.038   0.053   0.064   0.064   0.133   0.140   0.140   0.159
  0.240   0.240   0.237   0.304   0.304   0.313   0.328   0.328
  0.381   0.508   0.529   0.529   0.553   0.553   0.629   0.672
  0.672   0.707   0.707   0.737   0.798   0.798   0.820   0.838
  0.838   0.852   0.852   1.032   1.032   1.066   1.331   1.331
  1.284   1.284   1.379   1.494   1.499   1.499   1.578   1.578
  1.591   1.618   1.618   1.739   1.739   1.778   2.021   2.021
  2.068   2.068   2.135   2.124   2.124   2.209   2.209   2.222
  2.222   2.244   2.244   2.236   2.236   2.370   2.504   2.571
  2.571   2.716   2.716   3.051   3.216   3.216   3.321   3.330
  3.330   3.425   3.425   3.623   3.623   3.687   3.687   3.701
  3.768   3.768   3.834   3.833   3.833   3.842   3.842   4.134
  4.309   4.309   4.525   4.525   4.588   4.588   4.657   4.657
  4.669   4.811   4.811   5.194   5.194   5.233   5.233   5.354
  5.354   5.379   5.383   5.383   5.441   5.441   5.505   5.505
  5.533   5.533   5.667   5.695   5.695   5.832   5.832   5.915
  6.377   6.426   6.426   6.575   6.724   6.724   6.796   6.796
  7.717   7.717   7.745   7.745   7.930   7.930   8.419   8.543
  8.543   8.511   8.702   8.702   8.952   8.952   8.999   8.999
  9.027   9.027   9.186   9.186   9.212   9.326   9.326   9.392
  9.562   9.562  10.168  10.162  10.162  10.475  10.475  10.665
 10.665  10.975  10.975  11.702  11.702  11.757  11.977  11.977
 12.024  12.024  12.246  12.246  12.319  12.758  12.758  12.927
 12.952  12.952  13.477  13.976  13.976  14.138  14.138  14.241
 14.241  14.351  14.351  14.637  14.637  14.746  14.746  14.963
 15.907  15.907  15.991  16.702  16.702  16.795  16.795  17.968
 17.968  18.321  19.147  20.408  20.408  20.485  20.485  20.815
 20.815  21.157  21.157  21.218  21.218  21.273  23.590  23.911
 23.911  24.022  24.022  24.290  24.290  24.584  24.669  24.669
 24.894  24.894  25.326  25.326  25.828  25.828  26.509  27.661
 27.661  28.451  28.451  29.069  29.069  29.772  30.500  36.854
 46.069  46.069  47.795  49.469  49.469  50.232  50.232  50.677
 57.742  57.742  57.872  57.872  58.406  58.406  58.629  64.377
 78.504  78.504  79.096  79.096  79.787  81.741  81.741  82.908
 91.938  91.938  92.111  92.111  92.312  92.312  92.634 102.349
130.541 130.541 131.982 149.222 149.222 149.771 149.771 150.071
170.324 207.881 207.881 207.883 207.878 207.878 207.873 207.873
207.870 207.870 228.163 228.163 229.131 232.626 232.626 233.031
233.031 233.488 234.840 234.840 234.892 234.892 235.139 235.139
235.288 248.516 248.516 248.518 248.518 248.519 248.519 248.528
248.531 248.531 272.339 364.669 364.669 365.538 365.729 365.729
365.801 365.801 365.895 365.895 366.380 447.355 454.812 454.812
455.196 455.196 455.436 641.596 641.596 642.434 710.474 710.474
710.769 710.769 711.059 715.6191026.0491026.0491027.0861570.425
*******
 
 Beta MOs
 -- Occupied --
-25.369 -14.906  -1.436  -0.817  -0.578  -0.578  -0.534
 -- Virtual --
 -0.009  -0.009   0.042   0.063   0.074   0.074   0.137   0.143
  0.143   0.181   0.248   0.248   0.256   0.311   0.311   0.325
  0.348   0.348   0.396   0.516   0.532   0.532   0.557   0.557
  0.634   0.686   0.686   0.712   0.712   0.754   0.814   0.814
  0.826   0.844   0.844   0.886   0.886   1.070   1.070   1.083
  1.332   1.332   1.336   1.336   1.387   1.503   1.506   1.506
  1.585   1.585   1.595   1.624   1.624   1.747   1.747   1.804
  2.040   2.040   2.087   2.087   2.163   2.167   2.167   2.224
  2.224   2.246   2.246   2.274   2.274   2.329   2.329   2.400
  2.530   2.597   2.597   2.737   2.737   3.066   3.219   3.219
  3.344   3.352   3.352   3.501   3.501   3.631   3.631   3.693
  3.693   3.721   3.774   3.774   3.843   3.847   3.847   3.855
  3.855   4.153   4.325   4.325   4.565   4.565   4.607   4.607
  4.688   4.688   4.698   4.854   4.854   5.215   5.215   5.264
  5.264   5.393   5.393   5.410   5.446   5.446   5.489   5.489
  5.537   5.537   5.610   5.610   5.694   5.741   5.741   5.911
  5.911   5.945   6.403   6.457   6.457   6.604   6.750   6.750
  6.857   6.857   7.721   7.721   7.793   7.793   7.935   7.935
  8.437   8.552   8.552   8.559   8.709   8.709   8.964   8.964
  9.006   9.006   9.039   9.039   9.193   9.193   9.226   9.336
  9.336   9.410   9.573   9.573  10.184  10.231  10.231  10.491
 10.491  10.682  10.682  10.988  10.988  11.727  11.727  11.774
 12.049  12.049  12.081  12.081  12.293  12.293  12.355  12.799
 12.799  12.958  12.988  12.988  13.504  14.078  14.078  14.214
 14.214  14.299  14.299  14.408  14.408  14.695  14.695  14.785
 14.785  14.995  15.935  15.935  16.024  16.733  16.733  16.913
 16.913  18.032  18.032  18.345  19.174  20.416  20.416  20.491
 20.491  20.820  20.820  21.162  21.162  21.222  21.222  21.278
 23.645  23.922  23.922  24.030  24.030  24.296  24.296  24.591
 24.674  24.674  24.908  24.908  25.336  25.336  25.837  25.837
 26.517  27.677  27.677  28.486  28.486  29.131  29.131  29.781
 30.540  36.864  46.080  46.080  47.800  49.556  49.556  50.286
 50.286  50.718  57.846  57.846  57.943  57.943  58.456  58.456
 58.672  64.442  78.516  78.516  79.102  79.102  79.792  81.795
 81.795  82.931  91.955  91.955  92.123  92.123  92.321  92.321
 92.641 102.357 130.549 130.549 131.985 149.267 149.267 149.798
149.798 150.091 170.362 207.907 207.907 207.908 207.909 207.909
207.913 207.913 207.921 207.921 228.191 228.191 229.142 232.633
232.633 233.035 233.035 233.492 234.875 234.875 234.916 234.916
235.158 235.158 235.305 248.525 248.525 248.525 248.525 248.531
248.531 248.534 248.537 248.537 272.344 364.673 364.673 365.539
365.735 365.735 365.806 365.806 365.899 365.899 366.384 447.370
454.829 454.829 455.207 455.207 455.444 641.608 641.608 642.439
710.477 710.477 710.771 710.771 711.060 715.6211026.0511026.051
*******1570.4302520.054
 --------------------------------------------------------------
 
          Ground-State Mulliken Net Atomic Charges

     Atom                 Charge (a.u.)
  ----------------------------------------
      1 N                     0.183813
      2 F                    -0.183813
  ----------------------------------------
  Sum of atomic charges =    -0.000000

 -----------------------------------------------------------------
                    Cartesian Multipole Moments
 -----------------------------------------------------------------
    Charge (ESU x 10^10)
                -0.0000
    Dipole Moment (Debye)
         X       0.0000      Y      -0.0000      Z      -0.0889
       Tot       0.0889
    Quadrupole Moments (Debye-Ang)
        XX     -10.0589     XY       0.0000     YY     -10.0589
        XZ      -0.0000     YZ       0.0000     ZZ     -10.8349
    Octopole Moments (Debye-Ang^2)
       XXX       0.0000    XXY      -0.0000    XYY       0.0000
       YYY      -0.0000    XXZ      -6.0692    XYZ       0.0000
       YYZ      -6.0692    XZZ       0.0000    YZZ      -0.0000
       ZZZ     -19.3967
    Hexadecapole Moments (Debye-Ang^3)
      XXXX      -7.6762   XXXY       0.0000   XXYY      -2.5587
      XYYY       0.0000   YYYY      -7.6762   XXXZ      -0.0000
      XXYZ      -0.0000   XYYZ      -0.0000   YYYZ      -0.0000
      XXZZ     -10.8951   XYZZ       0.0000   YYZZ     -10.8951
      XZZZ       0.0000   YZZZ      -0.0000   ZZZZ     -56.7541
 -----------------------------------------------------------------
Archival summary:
1\1\n0075.mhg0\SP\ROHF\BasisUnspecified\11(3)\yhljason\MonNov1606:34:252020MonNov1606:34:252020\0\\#,ROHF,BasisUnspecified,\\0,3\N\F,1,1.317\\HF=-153.833328\\@

 Total job time:  122.97s(wall), 1869.10s(cpu) 
 Mon Nov 16 06:34:25 2020

        *************************************************************
        *                                                           *
        *  Thank you very much for using Q-Chem.  Have a nice day.  *
        *                                                           *
        *************************************************************


