                  Welcome to Q-Chem
     A Quantum Leap Into The Future Of Chemistry


 Q-Chem 5.3 (devel), Q-Chem, Inc., Pleasanton, CA (2020)

 Yihan Shao,  Zhengting Gan,  E. Epifanovsky,  A. T. B. Gilbert,  M. Wormit,  
 J. Kussmann,  A. W. Lange,  A. Behn,  Jia Deng,  Xintian Feng,  D. Ghosh,  
 M. Goldey,  P. R. Horn,  L. D. Jacobson,  I. Kaliman,  T. Kus,  A. Landau,  
 Jie Liu,  E. I. Proynov,  R. M. Richard,  R. P. Steele,  E. J. Sundstrom,  
 H. L. Woodcock III,  P. M. Zimmerman,  D. Zuev,  B. Alam,  B. Albrecht,  
 E. Alguire,  S. A. Baeppler,  D. Barton,  Z. Benda,  Y. A. Bernard,  
 E. J. Berquist,  K. B. Bravaya,  H. Burton,  K. Carter-Fenk,  D. Casanova,  
 Chun-Min Chang,  Yunqing Chen,  A. Chien,  K. D. Closser,  M. P. Coons,  
 S. Coriani,  S. Dasgupta,  A. L. Dempwolff,  M. Diedenhofen,  Hainam Do,  
 R. G. Edgar,  Po-Tung Fang,  S. Faraji,  S. Fatehi,  Qingguo Feng,  
 J. Fosso-Tande,  J. Gayvert,  Qinghui Ge,  A. Ghysels,  G. Gidofalvi,  
 J. Gomes,  J. Gonthier,  A. Gunina,  D. Hait,  M. W. D. Hanson-Heine,  
 P. H. P. Harbach,  A. W. Hauser,  M. F. Herbst,  J. E. Herr,  
 E. G. Hohenstein,  Z. C. Holden,  Kerwin Hui,  B. C. Huynh,  T.-C. Jagau,  
 Hyunjun Ji,  B. Kaduk,  K. Khistyaev,  Jaehoon Kim,  P. Klunzinger,  K. Koh,  
 D. Kosenkov,  L. Koulias,  T. Kowalczyk,  C. M. Krauter,  A. Kunitsa,  
 Ka Un Lao,  A. Laurent,  K. V. Lawler,  Joonho Lee,  D. Lefrancois,  
 S. Lehtola,  D. S. Levine,  Yi-Pei Li,  You-Sheng Lin,  Fenglai Liu,  
 Kuan-Yu Liu,  E. Livshits,  M. Loipersberger,  A. Luenser,  P. Manohar,  
 E. Mansoor,  S. F. Manzer,  Shan-Ping Mao,  Yuezhi Mao,  N. Mardirossian,  
 A. V. Marenich,  T. Markovich,  L. A. Martinez-Martinez,  S. A. Maurer,  
 N. J. Mayhall,  S. C. McKenzie,  J.-M. Mewes,  P. Morgante,  A. F. Morrison,  
 J. W. Mullinax,  K. Nanda,  T. S. Nguyen-Beck,  R. Olivares-Amaya,  
 K. J. Oosterbaan,  J. A. Parkhill,  S. K. Paul,  F. Pavosevic,  Zheng Pei,  
 T. M. Perrine,  F. Plasser,  P. Pokhilko,  S. Prager,  A. Prociuk,  
 E. Ramos,  B. Rana,  D. R. Rehn,  F. Rob,  M. Scheurer,  M. Schneider,  
 N. Sergueev,  S. M. Sharada,  S. Sharma,  D. W. Small,  T. Stauch,  
 C. J. Stein,  T. Stein,  Yu-Chuan Su,  S. P. Veccham,  Zhen Tao,  
 A. J. W. Thom,  A. Tkatchenko,  T. Tsuchimochi,  N. M. Tubman,  L. Vogt,  
 M. L. Vidal,  O. Vydrov,  M. A. Watson,  J. Wenzel,  M. de Wergifosse,  
 T. A. Wesolowski,  A. White,  J. Witte,  A. Yamada,  Jun Yang,  K. Yao,  
 S. Yeganeh,  S. R. Yost,  Zhi-Qiang You,  A. Zech,  Igor Ying Zhang,  
 Xing Zhang,  Yan Zhao,  Ying Zhu,  B. R. Brooks,  G. K. L. Chan,  
 C. J. Cramer,  M. S. Gordon,  W. J. Hehre,  A. Klamt,  M. W. Schmidt,  
 C. D. Sherrill,  D. G. Truhlar,  A. Aspuru-Guzik,  R. Baer,  A. T. Bell,  
 N. A. Besley,  Jeng-Da Chai,  A. E. DePrince, III,  R. A. DiStasio Jr.,  
 A. Dreuw,  B. D. Dunietz,  T. R. Furlani,  Chao-Ping Hsu,  Yousung Jung,  
 Jing Kong,  D. S. Lambrecht,  WanZhen Liang,  C. Ochsenfeld,  
 V. A. Rassolov,  L. V. Slipchenko,  J. E. Subotnik,  T. Van Voorhis,  
 J. M. Herbert,  A. I. Krylov,  P. M. W. Gill,  M. Head-Gordon

 Contributors to earlier versions of Q-Chem not listed above: 
 R. D. Adamson,  B. Austin,  J. Baker,  G. J. O. Beran,  K. Brandhorst,  
 S. T. Brown,  E. F. C. Byrd,  A. K. Chakraborty,  C.-L. Cheng,  
 Siu Hung Chien,  D. M. Chipman,  D. L. Crittenden,  H. Dachsel,  
 R. J. Doerksen,  A. D. Dutoi,  L. Fusti-Molnar,  W. A. Goddard III,  
 A. Golubeva-Zadorozhnaya,  S. R. Gwaltney,  G. Hawkins,  A. Heyden,  
 S. Hirata,  G. Kedziora,  F. J. Keil,  C. Kelley,  Jihan Kim,  R. A. King,  
 R. Z. Khaliullin,  P. P. Korambath,  W. Kurlancheek,  A. M. Lee,  M. S. Lee,  
 S. V. Levchenko,  Ching Yeh Lin,  D. Liotard,  R. C. Lochan,  I. Lotan,  
 P. E. Maslen,  N. Nair,  D. P. O'Neill,  D. Neuhauser,  E. Neuscamman,  
 C. M. Oana,  R. Olson,  B. Peters,  R. Peverati,  P. A. Pieniazek,  
 Y. M. Rhee,  J. Ritchie,  M. A. Rohrdanz,  E. Rosta,  N. J. Russ,  
 H. F. Schaefer III,  N. E. Schultz,  N. Shenvi,  A. C. Simmonett,  A. Sodt,  
 D. Stuck,  K. S. Thanthiriwatte,  V. Vanovschi,  Tao Wang,  A. Warshel,  
 C. F. Williams,  Q. Wu,  X. Xu,  W. Zhang

 Please cite Q-Chem as follows:
 Y. Shao et al., Mol. Phys. 113, 184-215 (2015)
 DOI: 10.1080/00268976.2014.952696

 Q-Chem 5.3.0 for Intel X86 EM64T Linux

 Parts of Q-Chem use Armadillo 9.800.1 (Horizon Scraper).
 http://arma.sourceforge.net/

 Q-Chem begins on Mon Nov 16 03:40:00 2020  

n0057.mhg0
Host: 0

     Scratch files written to /local/scratch/users/yhljason/NF_PWPB95-D3_aug-cc-pcVQZ.inp20201116033957//
Processing $rem in /clusterfs/mhg/diptarka/qchem_transmom//config/preferences:
Processing $rem in /global/home/users/yhljason/.qchemrc:

Checking the input file for inconsistencies... 	...done.

--------------------------------------------------------------
User input:
--------------------------------------------------------------
$molecule
0 3
N1      0.0000  0.0000  0.0000
F2      0.0000  0.0000  1.3170
$end

$rem
jobtype sp
exchange PWPB95-D3
xc_grid 000099000590
basis aug-cc-pcVQZ

max_scf_cycles 200
thresh 14
scf_convergence 8
scf_algorithm gdm
symmetry false
sym_ignore true
unrestricted false
gen_scfman true
internal_stability_iter 15
internal_stability_davidson_iter 200
mem_total 128000
cc_memory 96000
cc_backend xm
mem_static 1500
n_frozen_core 0
$end



--------------------------------------------------------------
 Adding empirical dispersion correction 
 ----------------------------------------------------------------
 Doing -D3(0) with
 s6  =   0.82000
 s8  =   0.70500
 rs6 =   1.55700
 rs8 =   1.00000
 -D3 energy without 3body term =     -0.0000013616 hartrees
 ----------------------------------------------------------------
             Standard Nuclear Orientation (Angstroms)
    I     Atom           X                Y                Z
 ----------------------------------------------------------------
    1      N       0.0000000000     0.0000000000     0.0000000000
    2      F       0.0000000000     0.0000000000     1.3170000000
 ----------------------------------------------------------------
 Nuclear Repulsion Energy =          25.31371487 hartrees
 There are        9 alpha and        7 beta electrons
 Requested basis set is aug-cc-pCVQZ
 There are 58 shells and 218 basis functions

 Total QAlloc Memory Limit 128000 MB
 Mega-Array Size      1467 MB
 MEM_STATIC part      1500 MB

                       Distance Matrix (Angstroms)
             N (  1)
   F (  2)  1.317000

 A cutoff of  1.0D-14 yielded   1630 shell pairs
 There are     23510 function pairs (     38633 Cartesian)
 Smallest overlap matrix eigenvalue = 1.24E-04

 Scale SEOQF with 1.000000e-01/1.000000e-01/1.000000e-01

 Standard Electronic Orientation quadrupole field applied
 Nucleus-field energy     =    -0.0000000017 hartrees
 Guess from superposition of atomic densities
 Warning:  Energy on first SCF cycle will be non-variational
 SAD guess density has 16.000000 electrons

 -----------------------------------------------------------------------
  General SCF calculation program by
  Eric Jon Sundstrom, Paul Horn, Yuezhi Mao, Dmitri Zuev, Alec White,
  David Stuck, Shaama M.S., Shane Yost, Joonho Lee, David Small,
  Daniel Levine, Susi Lehtola, Hugh Burton, Evgeny Epifanovsky,
  Bang C. Huynh
 -----------------------------------------------------------------------
 Exchange:     0.5000 Hartree-Fock + 1.0000 PWPB95-D3
 Correlation:  0.7310 PWPB95-D3
 Using Euler-Maclaurin-Lebedev (99,590) quadrature formula
 Dispersion:   Grimme D3
Running Object-Oriented ROKS (ROHF)
 Orthonormalizing orbitals
 using 16 threads for integral computing
 -------------------------------------------------------
 OpenMP Integral computing Module                
 Release: version 2.0, May 2017, Q-Chem Inc. Pleasanton 
 -------------------------------------------------------
We will preform up to 15 macro iterations over saddle points until a stable solution is found
Energy prior to optimization (guess energy) = -152.861499335866
Begin Timing: Total SCF Calculation
Begin Timing: SCF Single Stationary Point Calculation
begin iterations for algorithm: GDM          
the SCF tolerance is set to 1.00e-08
Fro norm of D 1.079233022678e+00
transformation scaled by 2
    1    -152.8614993359      1.55e+00     00000  Descent step
    2    -153.5416800753      2.94e-01     00000  Descent step
    3    -153.7320320193      3.87e-01     00000  Descent step
    4    -153.9602226502      3.72e-01     00000  Descent step
    5    -154.0479907273      1.05e-01     00000  Dog-leg BFGS step
    6    -154.0497931681      1.38e-01     00000  Dog-leg BFGS step
    7    -154.0478011447      1.65e-01     00000 Line search: overstep
    8    -154.0703230519      1.45e-02     00000  Normal BFGS step
    9    -154.0676213575      3.96e-02     00000 Line search: overstep
   10    -154.0705574371      9.37e-03     00000  Normal BFGS step
   11    -154.0586659043      9.69e-02     00000 Line search: overstep
   12    -154.0709407743      6.81e-03     00000  Normal BFGS step
   13    -154.0544853129      1.06e-01     00000 Line search: overstep
   14    -154.0709729863      5.08e-03     00000  Normal BFGS step
   15    -154.0710659682      2.58e-03     00000  Normal BFGS step
   16    -154.0710777577      1.34e-03     00000  Normal BFGS step
   17    -154.0710832047      4.87e-04     00000  Normal BFGS step
   18    -154.0710837632      1.22e-04     00000  Normal BFGS step
   19    -154.0710837923      6.85e-05     00000  Normal BFGS step
   20    -154.0710837951      1.06e-05     00000  Normal BFGS step
   21    -154.0710837953      3.17e-06     00000  Normal BFGS step
   22    -154.0710837953      3.17e-06     00000  Normal BFGS step
   23    -154.0710837953      3.17e-06     00000  Normal BFGS step
   24    -154.0710837954      1.27e-05     00000  Normal BFGS step
   25    -154.0710838574      1.26e-03     00000 Line search: understep
   26    -154.0710890019      1.24e-02     00000 Line search: understep
   27    -154.0709505439      1.07e-01     00000 Line search: overstep
   28    -154.0710998756      2.25e-02     00000 Line search: understep
   29    -154.0710377178      9.91e-02     00000 Line search: overstep
   30    -154.0711118290      3.05e-02     00000  Normal BFGS step
   31    -154.0711552396      2.30e-02     00000  Normal BFGS step
Fro norm of D 1.009704484677e+00
transformation scaled by 2
   32    -154.0712877339      4.10e-02     00000 Line search: understep
   33    -154.0665291750      1.58e-01     00000 Line search: overstep
   34    -154.0713916739      5.66e-02     00000  Dog-leg BFGS step
Fro norm of D 1.220773103902e+00
transformation scaled by 2
   35    -154.0798041339      3.14e-01     00000  Descent step
   36    -154.2711477118      2.43e-01     00000  Dog-leg BFGS step
   37    -154.3218682825      5.82e-02     00000  Dog-leg BFGS step
   38    -154.3052071268      1.32e-01     00000 Line search: overstep
   39    -154.3265629104      3.77e-02     00000  Dog-leg BFGS step
   40    -154.2864198258      9.39e-02     00000 Line search: overstep
   41    -154.3293800910      3.38e-02     00000  Dog-leg BFGS step
   42    -154.2950194007      9.61e-02     00000 Line search: overstep
   43    -154.3302881849      2.13e-02     00000  Normal BFGS step
   44    -154.3304627869      1.48e-02     00000  Normal BFGS step
   45    -154.3311800856      4.97e-03     00000  Normal BFGS step
   46    -154.3309290438      1.07e-02     00000 Line search: overstep
   47    -154.3312532697      3.32e-03     00000  Normal BFGS step
   48    -154.3312590898      2.07e-03     00000  Normal BFGS step
   49    -154.3312722683      3.10e-04     00000  Normal BFGS step
   50    -154.3312725794      1.84e-04     00000  Normal BFGS step
   51    -154.3312726541      9.73e-05     00000  Normal BFGS step
   52    -154.3312726923      7.11e-05     00000  Normal BFGS step
   53    -154.3312726892      6.40e-05     00000  Normal BFGS step
   54    -154.3312726966      9.71e-06     00000  Normal BFGS step
   55    -154.3312726967      7.82e-06     00000  Normal BFGS step
   56    -154.3312726967      4.30e-07     00000  Normal BFGS step
   57    -154.3312726967      2.78e-07     00000  Normal BFGS step
   58    -154.3312726968      5.42e-08     00000  Normal BFGS step
   59    -154.3312726968      3.61e-08     00000  Normal BFGS step
   60    -154.3312726968      5.96e-09     00000 Convergence criterion met
Timing for Single Stationary Point: 343.00s (wall), 5115.08s (cpu)
Begin Timing: Stability
===================================================
Beginning Test for Internal Stability
===================================================
generating davidson guess vectors based on koopmans-like excitations
    1      6.67e-01     00000 Davidson Iteration
    2      2.11e-01     00000 Davidson Iteration
    3      1.31e-01     00000 Davidson Iteration
    4      1.39e-01     00000 Davidson Iteration
    5      1.12e-01     00000 Davidson Iteration
    6      3.36e-02     00000 Davidson Iteration
    7      1.16e-02     00000 Davidson Iteration
    8      1.82e-03     00000 Davidson Iteration
    9      3.32e-04     00000 Davidson Iteration
   10      1.59e-04     00000 Davidson Iteration
   11      7.12e-05     00000 Davidson Iteration
   12      4.29e-05     00000 Davidson Converged
converged_eigenvalues
   0.4816
   0.4816
Threshold for negative eigenvalues: -1.0e-05
solution was a local minimum (stable)
===================================================
End Test for Internal Stability
===================================================
Timing for Internal Stability: 140.00s (wall), 2099.72s (cpu)
Our SCF solution is stable!
The disked orbital energies are calculated using alpha and beta Focks
Timing for Total SCF: 483.00s (wall), 7214.80s (cpu)
 Total energy in the final basis set =     -154.3312726968
<S^2> =          2.000000000
    ==================================================
              The end of Object-Oriented SCFman       
    ==================================================

 Components of the MP2 correlation energy:
        aaaa  correlation energy =         0.0000000000 au
        abab  correlation energy =        -0.1332871122 au
        bbbb  correlation energy =         0.0000000000 au
        non-Brillouin singles    =        -0.0035990236 au

 Total  MP2   correlation energy =                    -0.13688614 au
        MP2         total energy =                  -154.46815883 au

 --------------------------------------------------------------

                    Orbital Energies (a.u.)
 --------------------------------------------------------------

 Alpha MOs
 -- Occupied --
-25.3779 -14.9516  -1.4657  -0.9231  -0.6278  -0.6278  -0.6067  -0.4064
 -0.4064
 -- Virtual --
  0.0466   0.0628   0.0798   0.0798   0.1556   0.1676   0.1676   0.1695
  0.2761   0.2761   0.2903   0.3643   0.3643   0.3762   0.4698   0.4698
  0.5199   0.6012   0.6279   0.6279   0.6952   0.6952   0.8372   0.8865
  0.8865   0.9105   0.9105   0.9545   0.9644   0.9644   1.0424   1.0678
  1.0678   1.0696   1.0696   1.3443   1.3443   1.4513   1.6690   1.8003
  1.8003   1.8630   1.8630   1.8577   1.8577   1.9994   2.0472   2.0472
  2.1559   2.1559   2.3548   2.5691   2.6433   2.6433   2.6543   2.6543
  2.7825   2.8323   2.8323   2.9050   2.9050   2.9235   2.9235   2.9131
  2.9131   2.9556   2.9556   2.9609   2.9609   3.0523   3.3340   3.3340
  3.3783   3.4655   3.4655   3.8438   4.3712   4.3712   4.5018   4.5018
  4.7784   4.8423   4.8423   5.1464   5.1464   5.1679   5.1679   5.1916
  5.2414   5.2414   5.4289   5.4289   5.5225   5.8537   5.8537   5.8874
  5.8874   5.9180   6.4474   6.4474   6.8101   7.2455   7.2455   7.8428
  7.8428   7.8979   7.8979   8.1997   8.2014   8.2014   8.3003   8.3078
  8.3078   8.6884   8.6884   8.8659   8.8659   9.1218   9.1218   9.2630
  9.2630   9.4484  10.0994  10.0994  10.9130  12.0150  12.0150  12.7756
 13.1856  13.1856  13.2062  13.3148  13.3148  13.6014  13.6014  13.6268
 13.6268  13.9586  15.2889  15.2889  15.4418  15.4418  15.9770  15.9770
 16.1680  16.1680  16.2124  16.5700  16.5700  17.4070  21.6024  25.6871
 25.6871  26.9888  36.2321  36.2321  36.6982  36.6982  37.3812  41.1198
 41.1198  42.1818  47.8955  59.4515  59.4515  59.6742  59.6742  60.1454
 79.1032  90.6752  90.6752  91.6366  97.1276  97.1276  97.1511  97.1512
 97.2420  97.2420  97.2749 111.1530 111.1530 111.1650 111.1650 111.1846
111.1846 111.2081 144.4141 144.4141 145.2657 155.5498 155.5498 155.8130
155.8130 156.1743 164.0209 249.6191 249.6191 249.7419 249.7419 249.9836
268.8472 307.5791 307.5791 308.3577 491.6385 491.6385 492.3301 683.7774
********

 Beta MOs
 -- Occupied --
-25.3701 -14.9067  -1.4361  -0.8186  -0.5781  -0.5781  -0.5317
 -- Virtual --
 -0.0088  -0.0088   0.0517   0.0755   0.0918   0.0918   0.1604   0.1710
  0.1710   0.2038   0.2860   0.2860   0.3035   0.3710   0.3710   0.3846
  0.5061   0.5061   0.5344   0.6143   0.6307   0.6307   0.7043   0.7043
  0.8495   0.9085   0.9085   0.9224   0.9224   0.9660   1.0229   1.0229
  1.0530   1.0775   1.0775   1.0818   1.0818   1.3748   1.3748   1.4663
  1.6839   1.8036   1.8036   1.8735   1.8735   1.9271   1.9271   2.0103
  2.0600   2.0600   2.1635   2.1635   2.3710   2.6119   2.6740   2.6740
  2.6882   2.6882   2.8263   2.8579   2.8579   2.9685   2.9685   2.9470
  2.9470   3.0185   3.0185   2.9917   2.9917   2.9964   2.9964   3.0746
  3.3732   3.3732   3.4095   3.4979   3.4979   3.8719   4.3984   4.3984
  4.5060   4.5060   4.7916   4.8500   4.8500   5.1590   5.1590   5.1816
  5.1816   5.2052   5.2496   5.2496   5.4371   5.4371   5.5323   5.8675
  5.8675   5.9058   5.9058   5.9302   6.4689   6.4689   6.8412   7.3357
  7.3357   7.9209   7.9209   7.9568   7.9568   8.2443   8.2499   8.2499
  8.3396   8.3530   8.3530   8.7866   8.7866   8.9361   8.9361   9.2457
  9.2457   9.3136   9.3136   9.4825  10.1570  10.1570  10.9468  12.0345
 12.0345  12.8378  13.1948  13.1948  13.2252  13.3216  13.3216  13.6075
 13.6075  13.6327  13.6327  13.9658  15.3030  15.3030  15.4516  15.4516
 15.9859  15.9859  16.1862  16.1862  16.2218  16.5812  16.5812  17.4169
 21.6151  25.7689  25.7689  27.0254  36.3163  36.3163  36.7465  36.7465
 37.4154  41.1309  41.1309  42.1864  47.9555  59.4649  59.4649  59.6818
 59.6818  60.1510  79.1105  90.7163  90.7163  91.6527  97.1442  97.1442
 97.1627  97.1627  97.2505  97.2505  97.2823 111.2086 111.2086 111.2044
111.2044 111.2142 111.2142 111.2345 144.4205 144.4205 145.2680 155.5806
155.5806 155.8310 155.8310 156.1873 164.0460 249.6246 249.6246 249.7452
249.7452 249.9860 268.8508 307.5951 307.5951 308.3638 491.6412 491.6412
492.3311 683.78601111.9537
 --------------------------------------------------------------

          Ground-State Mulliken Net Atomic Charges

     Atom                 Charge (a.u.)
  ----------------------------------------
      1 N                     0.196252
      2 F                    -0.196252
  ----------------------------------------
  Sum of atomic charges =     0.000000

 -----------------------------------------------------------------
                    Cartesian Multipole Moments
 -----------------------------------------------------------------
    Charge (ESU x 10^10)
                 0.0000
    Dipole Moment (Debye)
         X       0.0000      Y       0.0000      Z      -0.0892
       Tot       0.0892
    Quadrupole Moments (Debye-Ang)
        XX     -10.0639     XY       0.0000     YY     -10.0639
        XZ       0.0000     YZ       0.0000     ZZ     -10.8393
    Octopole Moments (Debye-Ang^2)
       XXX       0.0000    XXY       0.0000    XYY       0.0000
       YYY       0.0000    XXZ      -6.0737    XYZ      -0.0000
       YYZ      -6.0737    XZZ       0.0000    YZZ       0.0000
       ZZZ     -19.4045
    Hexadecapole Moments (Debye-Ang^3)
      XXXX      -7.6760   XXXY       0.0000   XXYY      -2.5587
      XYYY       0.0000   YYYY      -7.6760   XXXZ      -0.0000
      XXYZ       0.0000   XYYZ      -0.0000   YYYZ       0.0000
      XXZZ     -10.9084   XYZZ       0.0000   YYZZ     -10.9084
      XZZZ       0.0000   YZZZ       0.0000   ZZZZ     -56.7947
 -----------------------------------------------------------------
Archival summary:
1\1\n0057.mhg0\SP\ROProcedureUnspecified\BasisUnspecified\11(3)\yhljason\MonNov1603:51:402020MonNov1603:51:402020\0\\#,ROProcedureUnspecified,BasisUnspecified,\\0,3\N\F,1,1.317\\\@

 Total job time:  699.69s(wall), 9576.34s(cpu) 
 Mon Nov 16 03:51:40 2020

        *************************************************************
        *                                                           *
        *  Thank you very much for using Q-Chem.  Have a nice day.  *
        *                                                           *
        *************************************************************


 
User input: 2 of 7 
 
                  Welcome to Q-Chem
     A Quantum Leap Into The Future Of Chemistry


 Q-Chem 5.3 (devel), Q-Chem, Inc., Pleasanton, CA (2020)

 Yihan Shao,  Zhengting Gan,  E. Epifanovsky,  A. T. B. Gilbert,  M. Wormit,  
 J. Kussmann,  A. W. Lange,  A. Behn,  Jia Deng,  Xintian Feng,  D. Ghosh,  
 M. Goldey,  P. R. Horn,  L. D. Jacobson,  I. Kaliman,  T. Kus,  A. Landau,  
 Jie Liu,  E. I. Proynov,  R. M. Richard,  R. P. Steele,  E. J. Sundstrom,  
 H. L. Woodcock III,  P. M. Zimmerman,  D. Zuev,  B. Alam,  B. Albrecht,  
 E. Alguire,  S. A. Baeppler,  D. Barton,  Z. Benda,  Y. A. Bernard,  
 E. J. Berquist,  K. B. Bravaya,  H. Burton,  K. Carter-Fenk,  D. Casanova,  
 Chun-Min Chang,  Yunqing Chen,  A. Chien,  K. D. Closser,  M. P. Coons,  
 S. Coriani,  S. Dasgupta,  A. L. Dempwolff,  M. Diedenhofen,  Hainam Do,  
 R. G. Edgar,  Po-Tung Fang,  S. Faraji,  S. Fatehi,  Qingguo Feng,  
 J. Fosso-Tande,  J. Gayvert,  Qinghui Ge,  A. Ghysels,  G. Gidofalvi,  
 J. Gomes,  J. Gonthier,  A. Gunina,  D. Hait,  M. W. D. Hanson-Heine,  
 P. H. P. Harbach,  A. W. Hauser,  M. F. Herbst,  J. E. Herr,  
 E. G. Hohenstein,  Z. C. Holden,  Kerwin Hui,  B. C. Huynh,  T.-C. Jagau,  
 Hyunjun Ji,  B. Kaduk,  K. Khistyaev,  Jaehoon Kim,  P. Klunzinger,  K. Koh,  
 D. Kosenkov,  L. Koulias,  T. Kowalczyk,  C. M. Krauter,  A. Kunitsa,  
 Ka Un Lao,  A. Laurent,  K. V. Lawler,  Joonho Lee,  D. Lefrancois,  
 S. Lehtola,  D. S. Levine,  Yi-Pei Li,  You-Sheng Lin,  Fenglai Liu,  
 Kuan-Yu Liu,  E. Livshits,  M. Loipersberger,  A. Luenser,  P. Manohar,  
 E. Mansoor,  S. F. Manzer,  Shan-Ping Mao,  Yuezhi Mao,  N. Mardirossian,  
 A. V. Marenich,  T. Markovich,  L. A. Martinez-Martinez,  S. A. Maurer,  
 N. J. Mayhall,  S. C. McKenzie,  J.-M. Mewes,  P. Morgante,  A. F. Morrison,  
 J. W. Mullinax,  K. Nanda,  T. S. Nguyen-Beck,  R. Olivares-Amaya,  
 K. J. Oosterbaan,  J. A. Parkhill,  S. K. Paul,  F. Pavosevic,  Zheng Pei,  
 T. M. Perrine,  F. Plasser,  P. Pokhilko,  S. Prager,  A. Prociuk,  
 E. Ramos,  B. Rana,  D. R. Rehn,  F. Rob,  M. Scheurer,  M. Schneider,  
 N. Sergueev,  S. M. Sharada,  S. Sharma,  D. W. Small,  T. Stauch,  
 C. J. Stein,  T. Stein,  Yu-Chuan Su,  S. P. Veccham,  Zhen Tao,  
 A. J. W. Thom,  A. Tkatchenko,  T. Tsuchimochi,  N. M. Tubman,  L. Vogt,  
 M. L. Vidal,  O. Vydrov,  M. A. Watson,  J. Wenzel,  M. de Wergifosse,  
 T. A. Wesolowski,  A. White,  J. Witte,  A. Yamada,  Jun Yang,  K. Yao,  
 S. Yeganeh,  S. R. Yost,  Zhi-Qiang You,  A. Zech,  Igor Ying Zhang,  
 Xing Zhang,  Yan Zhao,  Ying Zhu,  B. R. Brooks,  G. K. L. Chan,  
 C. J. Cramer,  M. S. Gordon,  W. J. Hehre,  A. Klamt,  M. W. Schmidt,  
 C. D. Sherrill,  D. G. Truhlar,  A. Aspuru-Guzik,  R. Baer,  A. T. Bell,  
 N. A. Besley,  Jeng-Da Chai,  A. E. DePrince, III,  R. A. DiStasio Jr.,  
 A. Dreuw,  B. D. Dunietz,  T. R. Furlani,  Chao-Ping Hsu,  Yousung Jung,  
 Jing Kong,  D. S. Lambrecht,  WanZhen Liang,  C. Ochsenfeld,  
 V. A. Rassolov,  L. V. Slipchenko,  J. E. Subotnik,  T. Van Voorhis,  
 J. M. Herbert,  A. I. Krylov,  P. M. W. Gill,  M. Head-Gordon

 Contributors to earlier versions of Q-Chem not listed above: 
 R. D. Adamson,  B. Austin,  J. Baker,  G. J. O. Beran,  K. Brandhorst,  
 S. T. Brown,  E. F. C. Byrd,  A. K. Chakraborty,  C.-L. Cheng,  
 Siu Hung Chien,  D. M. Chipman,  D. L. Crittenden,  H. Dachsel,  
 R. J. Doerksen,  A. D. Dutoi,  L. Fusti-Molnar,  W. A. Goddard III,  
 A. Golubeva-Zadorozhnaya,  S. R. Gwaltney,  G. Hawkins,  A. Heyden,  
 S. Hirata,  G. Kedziora,  F. J. Keil,  C. Kelley,  Jihan Kim,  R. A. King,  
 R. Z. Khaliullin,  P. P. Korambath,  W. Kurlancheek,  A. M. Lee,  M. S. Lee,  
 S. V. Levchenko,  Ching Yeh Lin,  D. Liotard,  R. C. Lochan,  I. Lotan,  
 P. E. Maslen,  N. Nair,  D. P. O'Neill,  D. Neuhauser,  E. Neuscamman,  
 C. M. Oana,  R. Olson,  B. Peters,  R. Peverati,  P. A. Pieniazek,  
 Y. M. Rhee,  J. Ritchie,  M. A. Rohrdanz,  E. Rosta,  N. J. Russ,  
 H. F. Schaefer III,  N. E. Schultz,  N. Shenvi,  A. C. Simmonett,  A. Sodt,  
 D. Stuck,  K. S. Thanthiriwatte,  V. Vanovschi,  Tao Wang,  A. Warshel,  
 C. F. Williams,  Q. Wu,  X. Xu,  W. Zhang

 Please cite Q-Chem as follows:
 Y. Shao et al., Mol. Phys. 113, 184-215 (2015)
 DOI: 10.1080/00268976.2014.952696

 Q-Chem 5.3.0 for Intel X86 EM64T Linux

 Parts of Q-Chem use Armadillo 9.800.1 (Horizon Scraper).
 http://arma.sourceforge.net/

 Q-Chem begins on Mon Nov 16 03:51:40 2020  

n0057.mhg0
Host: 0

     Scratch files written to /local/scratch/users/yhljason/NF_PWPB95-D3_aug-cc-pcVQZ.inp20201116033957//
Processing $rem in /clusterfs/mhg/diptarka/qchem_transmom//config/preferences:
Processing $rem in /global/home/users/yhljason/.qchemrc:
The previous job contains 0 fragments, simply inherited here

Checking the input file for inconsistencies... 	...done.

--------------------------------------------------------------
User input:
--------------------------------------------------------------
$molecule
read
$end

$rem
jobtype sp
exchange PWPB95-D3
xc_grid 000099000590
basis aug-cc-pcVQZ

max_scf_cycles 200
thresh 14
scf_convergence 8
mem_total 128000
cc_memory 96000
cc_backend xm
mem_static 1500
symmetry false
sym_ignore true
scf_guess read
unrestricted false
scf_algorithm gdm
n_frozen_core 0
$end



$multipole_field
XX 0.0001
$end


--------------------------------------------------------------
 Adding empirical dispersion correction 
 ----------------------------------------------------------------
 Doing -D3(0) with
 s6  =   0.82000
 s8  =   0.70500
 rs6 =   1.55700
 rs8 =   1.00000
 -D3 energy without 3body term =     -0.0000013616 hartrees
 ----------------------------------------------------------------
             Standard Nuclear Orientation (Angstroms)
    I     Atom           X                Y                Z
 ----------------------------------------------------------------
    1      N       0.0000000000     0.0000000000     0.0000000000
    2      F       0.0000000000     0.0000000000     1.3170000000
 ----------------------------------------------------------------
 Nuclear Repulsion Energy =          25.31371487 hartrees
 There are        9 alpha and        7 beta electrons
 Requested basis set is aug-cc-pCVQZ
 There are 58 shells and 218 basis functions

 Total QAlloc Memory Limit 128000 MB
 Mega-Array Size      1467 MB
 MEM_STATIC part      1500 MB

                       Distance Matrix (Angstroms)
             N (  1)
   F (  2)  1.317000

 Applying Cartesian multipole field
    Component          Value
    ---------          -----
     (2,0,0)        1.00000E-04
 A cutoff of  1.0D-14 yielded   1630 shell pairs
 There are     23510 function pairs (     38633 Cartesian)
 Smallest overlap matrix eigenvalue = 1.24E-04
 Guess MOs from SCF MO coefficient file

 -----------------------------------------------------------------------
  General SCF calculation program by
  Eric Jon Sundstrom, Paul Horn, Yuezhi Mao, Dmitri Zuev, Alec White,
  David Stuck, Shaama M.S., Shane Yost, Joonho Lee, David Small,
  Daniel Levine, Susi Lehtola, Hugh Burton, Evgeny Epifanovsky,
  Bang C. Huynh
 -----------------------------------------------------------------------
 Exchange:     0.5000 Hartree-Fock + 1.0000 PWPB95-D3
 Correlation:  0.7310 PWPB95-D3
 Using Euler-Maclaurin-Lebedev (99,590) quadrature formula
 Dispersion:   Grimme D3
 Orthonormalizing orbitals
 using 16 threads for integral computing
 -------------------------------------------------------
 OpenMP Integral computing Module                
 Release: version 2.0, May 2017, Q-Chem Inc. Pleasanton 
 -------------------------------------------------------
 A restricted open-shell SCF calculation will be
 performed using GDM
 SCF converges when RMS gradient is below 1.0e-08
 ---------------------------------------
  Cycle       Energy        RMS Gradient
 ---------------------------------------
    1    -154.3320209198      3.19e-04   Normal BFGS step
    2    -154.3320210161      2.79e-04   Normal BFGS step
    3    -154.3320210607      2.89e-05   Normal BFGS step
    4    -154.3320210614      1.98e-05   Normal BFGS step
    5    -154.3320210618      7.74e-06   Normal BFGS step
    6    -154.3320210619      4.40e-06   Normal BFGS step
    7    -154.3320210619      1.34e-06   Normal BFGS step
    8    -154.3320210619      2.70e-07   Normal BFGS step
    9    -154.3320210619      4.09e-08   Normal BFGS step
   10    -154.3320210619      1.29e-08   Normal BFGS step
   11    -154.3320210619      2.97e-09  Convergence criterion met
The disked orbital energies are calculated using alpha and beta Focks
 ---------------------------------------
 SCF time:   CPU 966.70s  wall 64.00s 
<S^2> =          2.000000000
 SCF   energy in the final basis set =     -154.3320210619
 Total energy in the final basis set =     -154.3320210619

 Components of the MP2 correlation energy:
        aaaa  correlation energy =         0.0000000000 au
        abab  correlation energy =        -0.1332933569 au
        bbbb  correlation energy =         0.0000000000 au
        non-Brillouin singles    =        -0.0035989505 au

 Total  MP2   correlation energy =                    -0.13689231 au
        MP2         total energy =                  -154.46891337 au

 --------------------------------------------------------------

                    Orbital Energies (a.u.)
 --------------------------------------------------------------

 Alpha MOs
 -- Occupied --
-25.3781 -14.9518  -1.4658  -0.9233  -0.6280  -0.6279  -0.6068  -0.4066
 -0.4065
 -- Virtual --
  0.0456   0.0622   0.0776   0.0790   0.1548   0.1660   0.1670   0.1690
  0.2754   0.2754   0.2894   0.3632   0.3639   0.3756   0.4688   0.4695
  0.5195   0.6007   0.6275   0.6275   0.6945   0.6949   0.8367   0.8859
  0.8863   0.9100   0.9100   0.9541   0.9640   0.9640   1.0420   1.0673
  1.0676   1.0692   1.0692   1.3438   1.3441   1.4509   1.6687   1.8000
  1.8000   1.8627   1.8627   1.8574   1.8575   1.9992   2.0469   2.0470
  2.1556   2.1556   2.3545   2.5688   2.6429   2.6431   2.6540   2.6540
  2.7823   2.8321   2.8321   2.9048   2.9048   2.9232   2.9233   2.9128
  2.9128   2.9554   2.9554   2.9606   2.9607   3.0521   3.3337   3.3338
  3.3780   3.4653   3.4653   3.8436   4.3709   4.3710   4.5016   4.5016
  4.7782   4.8422   4.8422   5.1461   5.1462   5.1677   5.1677   5.1914
  5.2412   5.2412   5.4287   5.4287   5.5223   5.8535   5.8536   5.8872
  5.8872   5.9178   6.4472   6.4473   6.8099   7.2452   7.2453   7.8426
  7.8426   7.8977   7.8977   8.1995   8.2013   8.2013   8.3002   8.3076
  8.3077   8.6882   8.6882   8.8657   8.8657   9.1216   9.1216   9.2628
  9.2628   9.4482  10.0992  10.0993  10.9128  12.0148  12.0149  12.7754
 13.1854  13.1854  13.2060  13.3146  13.3146  13.6013  13.6013  13.6266
 13.6266  13.9584  15.2887  15.2887  15.4416  15.4416  15.9768  15.9768
 16.1678  16.1678  16.2123  16.5698  16.5699  17.4068  21.6022  25.6868
 25.6869  26.9886  36.2319  36.2319  36.6980  36.6980  37.3810  41.1195
 41.1196  42.1816  47.8953  59.4513  59.4513  59.6740  59.6740  60.1452
 79.1030  90.6750  90.6750  91.6364  97.1274  97.1274  97.1509  97.1509
 97.2418  97.2418  97.2747 111.1528 111.1528 111.1648 111.1648 111.1844
111.1844 111.2079 144.4139 144.4139 145.2655 155.5495 155.5495 155.8127
155.8127 156.1741 164.0206 249.6189 249.6189 249.7417 249.7417 249.9834
268.8470 307.5789 307.5789 308.3575 491.6382 491.6382 492.3299 683.7772
********

 Beta MOs
 -- Occupied --
-25.3703 -14.9069  -1.4363  -0.8188  -0.5783  -0.5782  -0.5319
 -- Virtual --
 -0.0091  -0.0089   0.0507   0.0748   0.0896   0.0910   0.1597   0.1694
  0.1705   0.2032   0.2853   0.2853   0.3027   0.3700   0.3707   0.3840
  0.5051   0.5057   0.5339   0.6139   0.6303   0.6303   0.7037   0.7041
  0.8490   0.9079   0.9082   0.9220   0.9220   0.9656   1.0225   1.0225
  1.0527   1.0770   1.0773   1.0815   1.0815   1.3743   1.3745   1.4660
  1.6837   1.8033   1.8033   1.8732   1.8732   1.9267   1.9269   2.0101
  2.0597   2.0599   2.1633   2.1633   2.3707   2.6116   2.6736   2.6738
  2.6879   2.6879   2.8261   2.8577   2.8577   2.9682   2.9682   2.9467
  2.9468   3.0182   3.0182   2.9915   2.9915   2.9961   2.9963   3.0744
  3.3730   3.3731   3.4093   3.4977   3.4977   3.8717   4.3981   4.3982
  4.5058   4.5058   4.7914   4.8499   4.8499   5.1587   5.1588   5.1814
  5.1814   5.2050   5.2494   5.2494   5.4369   5.4369   5.5321   5.8673
  5.8674   5.9056   5.9056   5.9300   6.4687   6.4688   6.8410   7.3355
  7.3355   7.9207   7.9207   7.9566   7.9566   8.2441   8.2498   8.2498
  8.3394   8.3528   8.3529   8.7864   8.7864   8.9359   8.9359   9.2455
  9.2455   9.3134   9.3134   9.4824  10.1568  10.1568  10.9466  12.0343
 12.0344  12.8376  13.1946  13.1946  13.2250  13.3215  13.3215  13.6073
 13.6073  13.6325  13.6325  13.9656  15.3028  15.3028  15.4515  15.4515
 15.9858  15.9858  16.1860  16.1860  16.2217  16.5810  16.5811  17.4167
 21.6149  25.7687  25.7687  27.0252  36.3161  36.3161  36.7462  36.7463
 37.4152  41.1306  41.1307  42.1863  47.9552  59.4647  59.4647  59.6816
 59.6816  60.1508  79.1103  90.7161  90.7161  91.6525  97.1440  97.1440
 97.1625  97.1625  97.2503  97.2503  97.2821 111.2084 111.2084 111.2042
111.2042 111.2140 111.2140 111.2343 144.4203 144.4203 145.2678 155.5804
155.5804 155.8308 155.8308 156.1870 164.0458 249.6244 249.6244 249.7449
249.7450 249.9858 268.8506 307.5949 307.5949 308.3636 491.6409 491.6409
492.3309 683.78581111.9535
 --------------------------------------------------------------

          Ground-State Mulliken Net Atomic Charges

     Atom                 Charge (a.u.)
  ----------------------------------------
      1 N                     0.195982
      2 F                    -0.195982
  ----------------------------------------
  Sum of atomic charges =     0.000000

 -----------------------------------------------------------------
                    Cartesian Multipole Moments
 -----------------------------------------------------------------
    Charge (ESU x 10^10)
                -0.0000
    Dipole Moment (Debye)
         X      -0.0000      Y      -0.0000      Z      -0.0888
       Tot       0.0888
    Quadrupole Moments (Debye-Ang)
        XX     -10.0677     XY       0.0000     YY     -10.0647
        XZ       0.0000     YZ       0.0000     ZZ     -10.8395
    Octopole Moments (Debye-Ang^2)
       XXX      -0.0000    XXY      -0.0000    XYY      -0.0000
       YYY      -0.0000    XXZ      -6.0746    XYZ      -0.0000
       YYZ      -6.0738    XZZ       0.0000    YZZ      -0.0000
       ZZZ     -19.4041
    Hexadecapole Moments (Debye-Ang^3)
      XXXX      -7.6877   XXXY       0.0000   XXYY      -2.5611
      XYYY       0.0000   YYYY      -7.6789   XXXZ       0.0000
      XXYZ       0.0000   XYYZ       0.0000   YYYZ       0.0000
      XXZZ     -10.9123   XYZZ       0.0000   YYZZ     -10.9095
      XZZZ       0.0000   YZZZ      -0.0000   ZZZZ     -56.7975
 -----------------------------------------------------------------
Archival summary:
1\1\n0057.mhg0\SP\ROProcedureUnspecified\BasisUnspecified\11(3)\yhljason\MonNov1603:56:182020MonNov1603:56:182020\0\\#,ROProcedureUnspecified,BasisUnspecified,\\0,3\N\F,1,1.317\\\@

 Total job time:  277.74s(wall), 3277.54s(cpu) 
 Mon Nov 16 03:56:18 2020

        *************************************************************
        *                                                           *
        *  Thank you very much for using Q-Chem.  Have a nice day.  *
        *                                                           *
        *************************************************************


 
User input: 3 of 7 
 
                  Welcome to Q-Chem
     A Quantum Leap Into The Future Of Chemistry


 Q-Chem 5.3 (devel), Q-Chem, Inc., Pleasanton, CA (2020)

 Yihan Shao,  Zhengting Gan,  E. Epifanovsky,  A. T. B. Gilbert,  M. Wormit,  
 J. Kussmann,  A. W. Lange,  A. Behn,  Jia Deng,  Xintian Feng,  D. Ghosh,  
 M. Goldey,  P. R. Horn,  L. D. Jacobson,  I. Kaliman,  T. Kus,  A. Landau,  
 Jie Liu,  E. I. Proynov,  R. M. Richard,  R. P. Steele,  E. J. Sundstrom,  
 H. L. Woodcock III,  P. M. Zimmerman,  D. Zuev,  B. Alam,  B. Albrecht,  
 E. Alguire,  S. A. Baeppler,  D. Barton,  Z. Benda,  Y. A. Bernard,  
 E. J. Berquist,  K. B. Bravaya,  H. Burton,  K. Carter-Fenk,  D. Casanova,  
 Chun-Min Chang,  Yunqing Chen,  A. Chien,  K. D. Closser,  M. P. Coons,  
 S. Coriani,  S. Dasgupta,  A. L. Dempwolff,  M. Diedenhofen,  Hainam Do,  
 R. G. Edgar,  Po-Tung Fang,  S. Faraji,  S. Fatehi,  Qingguo Feng,  
 J. Fosso-Tande,  J. Gayvert,  Qinghui Ge,  A. Ghysels,  G. Gidofalvi,  
 J. Gomes,  J. Gonthier,  A. Gunina,  D. Hait,  M. W. D. Hanson-Heine,  
 P. H. P. Harbach,  A. W. Hauser,  M. F. Herbst,  J. E. Herr,  
 E. G. Hohenstein,  Z. C. Holden,  Kerwin Hui,  B. C. Huynh,  T.-C. Jagau,  
 Hyunjun Ji,  B. Kaduk,  K. Khistyaev,  Jaehoon Kim,  P. Klunzinger,  K. Koh,  
 D. Kosenkov,  L. Koulias,  T. Kowalczyk,  C. M. Krauter,  A. Kunitsa,  
 Ka Un Lao,  A. Laurent,  K. V. Lawler,  Joonho Lee,  D. Lefrancois,  
 S. Lehtola,  D. S. Levine,  Yi-Pei Li,  You-Sheng Lin,  Fenglai Liu,  
 Kuan-Yu Liu,  E. Livshits,  M. Loipersberger,  A. Luenser,  P. Manohar,  
 E. Mansoor,  S. F. Manzer,  Shan-Ping Mao,  Yuezhi Mao,  N. Mardirossian,  
 A. V. Marenich,  T. Markovich,  L. A. Martinez-Martinez,  S. A. Maurer,  
 N. J. Mayhall,  S. C. McKenzie,  J.-M. Mewes,  P. Morgante,  A. F. Morrison,  
 J. W. Mullinax,  K. Nanda,  T. S. Nguyen-Beck,  R. Olivares-Amaya,  
 K. J. Oosterbaan,  J. A. Parkhill,  S. K. Paul,  F. Pavosevic,  Zheng Pei,  
 T. M. Perrine,  F. Plasser,  P. Pokhilko,  S. Prager,  A. Prociuk,  
 E. Ramos,  B. Rana,  D. R. Rehn,  F. Rob,  M. Scheurer,  M. Schneider,  
 N. Sergueev,  S. M. Sharada,  S. Sharma,  D. W. Small,  T. Stauch,  
 C. J. Stein,  T. Stein,  Yu-Chuan Su,  S. P. Veccham,  Zhen Tao,  
 A. J. W. Thom,  A. Tkatchenko,  T. Tsuchimochi,  N. M. Tubman,  L. Vogt,  
 M. L. Vidal,  O. Vydrov,  M. A. Watson,  J. Wenzel,  M. de Wergifosse,  
 T. A. Wesolowski,  A. White,  J. Witte,  A. Yamada,  Jun Yang,  K. Yao,  
 S. Yeganeh,  S. R. Yost,  Zhi-Qiang You,  A. Zech,  Igor Ying Zhang,  
 Xing Zhang,  Yan Zhao,  Ying Zhu,  B. R. Brooks,  G. K. L. Chan,  
 C. J. Cramer,  M. S. Gordon,  W. J. Hehre,  A. Klamt,  M. W. Schmidt,  
 C. D. Sherrill,  D. G. Truhlar,  A. Aspuru-Guzik,  R. Baer,  A. T. Bell,  
 N. A. Besley,  Jeng-Da Chai,  A. E. DePrince, III,  R. A. DiStasio Jr.,  
 A. Dreuw,  B. D. Dunietz,  T. R. Furlani,  Chao-Ping Hsu,  Yousung Jung,  
 Jing Kong,  D. S. Lambrecht,  WanZhen Liang,  C. Ochsenfeld,  
 V. A. Rassolov,  L. V. Slipchenko,  J. E. Subotnik,  T. Van Voorhis,  
 J. M. Herbert,  A. I. Krylov,  P. M. W. Gill,  M. Head-Gordon

 Contributors to earlier versions of Q-Chem not listed above: 
 R. D. Adamson,  B. Austin,  J. Baker,  G. J. O. Beran,  K. Brandhorst,  
 S. T. Brown,  E. F. C. Byrd,  A. K. Chakraborty,  C.-L. Cheng,  
 Siu Hung Chien,  D. M. Chipman,  D. L. Crittenden,  H. Dachsel,  
 R. J. Doerksen,  A. D. Dutoi,  L. Fusti-Molnar,  W. A. Goddard III,  
 A. Golubeva-Zadorozhnaya,  S. R. Gwaltney,  G. Hawkins,  A. Heyden,  
 S. Hirata,  G. Kedziora,  F. J. Keil,  C. Kelley,  Jihan Kim,  R. A. King,  
 R. Z. Khaliullin,  P. P. Korambath,  W. Kurlancheek,  A. M. Lee,  M. S. Lee,  
 S. V. Levchenko,  Ching Yeh Lin,  D. Liotard,  R. C. Lochan,  I. Lotan,  
 P. E. Maslen,  N. Nair,  D. P. O'Neill,  D. Neuhauser,  E. Neuscamman,  
 C. M. Oana,  R. Olson,  B. Peters,  R. Peverati,  P. A. Pieniazek,  
 Y. M. Rhee,  J. Ritchie,  M. A. Rohrdanz,  E. Rosta,  N. J. Russ,  
 H. F. Schaefer III,  N. E. Schultz,  N. Shenvi,  A. C. Simmonett,  A. Sodt,  
 D. Stuck,  K. S. Thanthiriwatte,  V. Vanovschi,  Tao Wang,  A. Warshel,  
 C. F. Williams,  Q. Wu,  X. Xu,  W. Zhang

 Please cite Q-Chem as follows:
 Y. Shao et al., Mol. Phys. 113, 184-215 (2015)
 DOI: 10.1080/00268976.2014.952696

 Q-Chem 5.3.0 for Intel X86 EM64T Linux

 Parts of Q-Chem use Armadillo 9.800.1 (Horizon Scraper).
 http://arma.sourceforge.net/

 Q-Chem begins on Mon Nov 16 03:56:18 2020  

n0057.mhg0
Host: 0

     Scratch files written to /local/scratch/users/yhljason/NF_PWPB95-D3_aug-cc-pcVQZ.inp20201116033957//
Processing $rem in /clusterfs/mhg/diptarka/qchem_transmom//config/preferences:
Processing $rem in /global/home/users/yhljason/.qchemrc:
The previous job contains 0 fragments, simply inherited here

Checking the input file for inconsistencies... 	...done.

--------------------------------------------------------------
User input:
--------------------------------------------------------------
$molecule
read
$end

$rem
jobtype sp
exchange PWPB95-D3
xc_grid 000099000590
basis aug-cc-pcVQZ

max_scf_cycles 200
thresh 14
scf_convergence 8
mem_total 128000
cc_memory 96000
cc_backend xm
mem_static 1500
symmetry false
sym_ignore true
scf_guess read
unrestricted false
scf_algorithm gdm
n_frozen_core 0
$end



$multipole_field
XX -0.0001
$end


--------------------------------------------------------------
 Adding empirical dispersion correction 
 ----------------------------------------------------------------
 Doing -D3(0) with
 s6  =   0.82000
 s8  =   0.70500
 rs6 =   1.55700
 rs8 =   1.00000
 -D3 energy without 3body term =     -0.0000013616 hartrees
 ----------------------------------------------------------------
             Standard Nuclear Orientation (Angstroms)
    I     Atom           X                Y                Z
 ----------------------------------------------------------------
    1      N       0.0000000000     0.0000000000     0.0000000000
    2      F       0.0000000000     0.0000000000     1.3170000000
 ----------------------------------------------------------------
 Nuclear Repulsion Energy =          25.31371487 hartrees
 There are        9 alpha and        7 beta electrons
 Requested basis set is aug-cc-pCVQZ
 There are 58 shells and 218 basis functions

 Total QAlloc Memory Limit 128000 MB
 Mega-Array Size      1467 MB
 MEM_STATIC part      1500 MB

                       Distance Matrix (Angstroms)
             N (  1)
   F (  2)  1.317000

 Applying Cartesian multipole field
    Component          Value
    ---------          -----
     (2,0,0)       -1.00000E-04
 A cutoff of  1.0D-14 yielded   1630 shell pairs
 There are     23510 function pairs (     38633 Cartesian)
 Smallest overlap matrix eigenvalue = 1.24E-04
 Guess MOs from SCF MO coefficient file

 -----------------------------------------------------------------------
  General SCF calculation program by
  Eric Jon Sundstrom, Paul Horn, Yuezhi Mao, Dmitri Zuev, Alec White,
  David Stuck, Shaama M.S., Shane Yost, Joonho Lee, David Small,
  Daniel Levine, Susi Lehtola, Hugh Burton, Evgeny Epifanovsky,
  Bang C. Huynh
 -----------------------------------------------------------------------
 Exchange:     0.5000 Hartree-Fock + 1.0000 PWPB95-D3
 Correlation:  0.7310 PWPB95-D3
 Using Euler-Maclaurin-Lebedev (99,590) quadrature formula
 Dispersion:   Grimme D3
 Orthonormalizing orbitals
 using 16 threads for integral computing
 -------------------------------------------------------
 OpenMP Integral computing Module                
 Release: version 2.0, May 2017, Q-Chem Inc. Pleasanton 
 -------------------------------------------------------
 A restricted open-shell SCF calculation will be
 performed using GDM
 SCF converges when RMS gradient is below 1.0e-08
 ---------------------------------------
  Cycle       Energy        RMS Gradient
 ---------------------------------------
    1    -154.3305240470      6.36e-04   Normal BFGS step
    2    -154.3305244358      5.45e-04   Normal BFGS step
    3    -154.3305246107      5.77e-05   Normal BFGS step
    4    -154.3305246136      3.80e-05   Normal BFGS step
    5    -154.3305246151      1.56e-05   Normal BFGS step
    6    -154.3305246155      8.83e-06   Normal BFGS step
    7    -154.3305246155      2.76e-06   Normal BFGS step
    8    -154.3305246156      5.15e-07   Normal BFGS step
    9    -154.3305246156      7.17e-08   Normal BFGS step
   10    -154.3305246156      2.54e-08   Normal BFGS step
   11    -154.3305246156      5.60e-09  Convergence criterion met
The disked orbital energies are calculated using alpha and beta Focks
 ---------------------------------------
 SCF time:   CPU 976.98s  wall 65.00s 
<S^2> =          2.000000000
 SCF   energy in the final basis set =     -154.3305246156
 Total energy in the final basis set =     -154.3305246156

 Components of the MP2 correlation energy:
        aaaa  correlation energy =         0.0000000000 au
        abab  correlation energy =        -0.1332808867 au
        bbbb  correlation energy =         0.0000000000 au
        non-Brillouin singles    =        -0.0035990980 au

 Total  MP2   correlation energy =                    -0.13687998 au
        MP2         total energy =                  -154.46740460 au

 --------------------------------------------------------------

                    Orbital Energies (a.u.)
 --------------------------------------------------------------

 Alpha MOs
 -- Occupied --
-25.3777 -14.9513  -1.4655  -0.9229  -0.6276  -0.6275  -0.6065  -0.4062
 -0.4062
 -- Virtual --
  0.0476   0.0635   0.0805   0.0819   0.1563   0.1681   0.1692   0.1700
  0.2768   0.2768   0.2912   0.3647   0.3654   0.3767   0.4702   0.4709
  0.5203   0.6017   0.6284   0.6284   0.6954   0.6958   0.8377   0.8868
  0.8871   0.9109   0.9109   0.9549   0.9647   0.9647   1.0427   1.0680
  1.0683   1.0699   1.0699   1.3445   1.3448   1.4516   1.6692   1.8006
  1.8006   1.8633   1.8633   1.8579   1.8581   1.9997   2.0473   2.0475
  2.1561   2.1561   2.3551   2.5693   2.6435   2.6437   2.6546   2.6546
  2.7827   2.8325   2.8325   2.9053   2.9053   2.9236   2.9237   2.9133
  2.9133   2.9558   2.9558   2.9610   2.9612   3.0525   3.3341   3.3342
  3.3785   3.4657   3.4657   3.8439   4.3713   4.3714   4.5020   4.5020
  4.7787   4.8425   4.8425   5.1465   5.1466   5.1681   5.1681   5.1917
  5.2416   5.2416   5.4291   5.4291   5.5226   5.8538   5.8539   5.8876
  5.8876   5.9182   6.4476   6.4477   6.8102   7.2456   7.2457   7.8430
  7.8430   7.8981   7.8981   8.1999   8.2016   8.2016   8.3005   8.3080
  8.3080   8.6885   8.6885   8.8660   8.8660   9.1220   9.1220   9.2632
  9.2632   9.4486  10.0996  10.0996  10.9132  12.0152  12.0153  12.7758
 13.1858  13.1858  13.2064  13.3150  13.3150  13.6016  13.6016  13.6269
 13.6269  13.9587  15.2891  15.2891  15.4420  15.4420  15.9772  15.9772
 16.1682  16.1682  16.2126  16.5702  16.5702  17.4072  21.6026  25.6872
 25.6873  26.9890  36.2323  36.2323  36.6984  36.6984  37.3814  41.1199
 41.1200  42.1820  47.8957  59.4517  59.4517  59.6744  59.6744  60.1456
 79.1034  90.6754  90.6755  91.6368  97.1278  97.1278  97.1513  97.1514
 97.2422  97.2422  97.2751 111.1532 111.1532 111.1652 111.1652 111.1849
111.1849 111.2083 144.4143 144.4143 145.2659 155.5500 155.5500 155.8132
155.8132 156.1745 164.0211 249.6193 249.6193 249.7421 249.7421 249.9838
268.8475 307.5793 307.5793 308.3579 491.6387 491.6387 492.3303 683.7776
********

 Beta MOs
 -- Occupied --
-25.3699 -14.9065  -1.4360  -0.8185  -0.5779  -0.5779  -0.5315
 -- Virtual --
 -0.0086  -0.0085   0.0527   0.0762   0.0925   0.0939   0.1611   0.1716
  0.1726   0.2044   0.2868   0.2868   0.3043   0.3714   0.3721   0.3852
  0.5065   0.5071   0.5348   0.6148   0.6312   0.6312   0.7045   0.7049
  0.8500   0.9087   0.9091   0.9229   0.9229   0.9664   1.0233   1.0233
  1.0534   1.0777   1.0780   1.0822   1.0822   1.3750   1.3752   1.4667
  1.6842   1.8039   1.8039   1.8738   1.8738   1.9273   1.9274   2.0105
  2.0602   2.0604   2.1638   2.1638   2.3712   2.6121   2.6742   2.6744
  2.6885   2.6885   2.8265   2.8582   2.8582   2.9687   2.9687   2.9472
  2.9473   3.0187   3.0187   2.9920   2.9920   2.9966   2.9967   3.0748
  3.3733   3.3734   3.4097   3.4981   3.4981   3.8721   4.3985   4.3986
  4.5062   4.5062   4.7918   4.8502   4.8502   5.1591   5.1592   5.1818
  5.1818   5.2054   5.2498   5.2498   5.4372   5.4372   5.5325   5.8677
  5.8677   5.9060   5.9060   5.9304   6.4691   6.4692   6.8414   7.3359
  7.3360   7.9211   7.9211   7.9569   7.9569   8.2445   8.2501   8.2501
  8.3397   8.3532   8.3532   8.7868   8.7868   8.9363   8.9363   9.2459
  9.2459   9.3138   9.3138   9.4827  10.1572  10.1572  10.9469  12.0347
 12.0347  12.8380  13.1950  13.1950  13.2254  13.3218  13.3218  13.6077
 13.6077  13.6328  13.6329  13.9660  15.3031  15.3031  15.4518  15.4518
 15.9861  15.9861  16.1864  16.1864  16.2220  16.5814  16.5814  17.4170
 21.6152  25.7691  25.7692  27.0256  36.3165  36.3165  36.7467  36.7467
 37.4156  41.1310  41.1311  42.1866  47.9557  59.4651  59.4651  59.6820
 59.6820  60.1512  79.1107  90.7165  90.7165  91.6529  97.1444  97.1444
 97.1629  97.1629  97.2507  97.2507  97.2825 111.2088 111.2088 111.2046
111.2046 111.2144 111.2144 111.2347 144.4207 144.4207 145.2682 155.5808
155.5808 155.8313 155.8313 156.1875 164.0462 249.6248 249.6248 249.7454
249.7454 249.9862 268.8510 307.5953 307.5953 308.3640 491.6414 491.6414
492.3313 683.78621111.9539
 --------------------------------------------------------------

          Ground-State Mulliken Net Atomic Charges

     Atom                 Charge (a.u.)
  ----------------------------------------
      1 N                     0.196521
      2 F                    -0.196521
  ----------------------------------------
  Sum of atomic charges =     0.000000

 -----------------------------------------------------------------
                    Cartesian Multipole Moments
 -----------------------------------------------------------------
    Charge (ESU x 10^10)
                -0.0000
    Dipole Moment (Debye)
         X       0.0000      Y      -0.0000      Z      -0.0895
       Tot       0.0895
    Quadrupole Moments (Debye-Ang)
        XX     -10.0600     XY      -0.0000     YY     -10.0630
        XZ      -0.0000     YZ      -0.0000     ZZ     -10.8392
    Octopole Moments (Debye-Ang^2)
       XXX       0.0000    XXY       0.0000    XYY       0.0000
       YYY       0.0000    XXZ      -6.0729    XYZ      -0.0000
       YYZ      -6.0736    XZZ       0.0000    YZZ      -0.0000
       ZZZ     -19.4048
    Hexadecapole Moments (Debye-Ang^3)
      XXXX      -7.6645   XXXY      -0.0000   XXYY      -2.5563
      XYYY      -0.0000   YYYY      -7.6732   XXXZ       0.0000
      XXYZ      -0.0000   XYYZ       0.0000   YYYZ      -0.0000
      XXZZ     -10.9044   XYZZ      -0.0000   YYZZ     -10.9072
      XZZZ      -0.0000   YZZZ      -0.0000   ZZZZ     -56.7919
 -----------------------------------------------------------------
Archival summary:
1\1\n0057.mhg0\SP\ROProcedureUnspecified\BasisUnspecified\11(3)\yhljason\MonNov1604:00:562020MonNov1604:00:562020\0\\#,ROProcedureUnspecified,BasisUnspecified,\\0,3\N\F,1,1.317\\\@

 Total job time:  278.00s(wall), 3278.11s(cpu) 
 Mon Nov 16 04:00:56 2020

        *************************************************************
        *                                                           *
        *  Thank you very much for using Q-Chem.  Have a nice day.  *
        *                                                           *
        *************************************************************


 
User input: 4 of 7 
 
                  Welcome to Q-Chem
     A Quantum Leap Into The Future Of Chemistry


 Q-Chem 5.3 (devel), Q-Chem, Inc., Pleasanton, CA (2020)

 Yihan Shao,  Zhengting Gan,  E. Epifanovsky,  A. T. B. Gilbert,  M. Wormit,  
 J. Kussmann,  A. W. Lange,  A. Behn,  Jia Deng,  Xintian Feng,  D. Ghosh,  
 M. Goldey,  P. R. Horn,  L. D. Jacobson,  I. Kaliman,  T. Kus,  A. Landau,  
 Jie Liu,  E. I. Proynov,  R. M. Richard,  R. P. Steele,  E. J. Sundstrom,  
 H. L. Woodcock III,  P. M. Zimmerman,  D. Zuev,  B. Alam,  B. Albrecht,  
 E. Alguire,  S. A. Baeppler,  D. Barton,  Z. Benda,  Y. A. Bernard,  
 E. J. Berquist,  K. B. Bravaya,  H. Burton,  K. Carter-Fenk,  D. Casanova,  
 Chun-Min Chang,  Yunqing Chen,  A. Chien,  K. D. Closser,  M. P. Coons,  
 S. Coriani,  S. Dasgupta,  A. L. Dempwolff,  M. Diedenhofen,  Hainam Do,  
 R. G. Edgar,  Po-Tung Fang,  S. Faraji,  S. Fatehi,  Qingguo Feng,  
 J. Fosso-Tande,  J. Gayvert,  Qinghui Ge,  A. Ghysels,  G. Gidofalvi,  
 J. Gomes,  J. Gonthier,  A. Gunina,  D. Hait,  M. W. D. Hanson-Heine,  
 P. H. P. Harbach,  A. W. Hauser,  M. F. Herbst,  J. E. Herr,  
 E. G. Hohenstein,  Z. C. Holden,  Kerwin Hui,  B. C. Huynh,  T.-C. Jagau,  
 Hyunjun Ji,  B. Kaduk,  K. Khistyaev,  Jaehoon Kim,  P. Klunzinger,  K. Koh,  
 D. Kosenkov,  L. Koulias,  T. Kowalczyk,  C. M. Krauter,  A. Kunitsa,  
 Ka Un Lao,  A. Laurent,  K. V. Lawler,  Joonho Lee,  D. Lefrancois,  
 S. Lehtola,  D. S. Levine,  Yi-Pei Li,  You-Sheng Lin,  Fenglai Liu,  
 Kuan-Yu Liu,  E. Livshits,  M. Loipersberger,  A. Luenser,  P. Manohar,  
 E. Mansoor,  S. F. Manzer,  Shan-Ping Mao,  Yuezhi Mao,  N. Mardirossian,  
 A. V. Marenich,  T. Markovich,  L. A. Martinez-Martinez,  S. A. Maurer,  
 N. J. Mayhall,  S. C. McKenzie,  J.-M. Mewes,  P. Morgante,  A. F. Morrison,  
 J. W. Mullinax,  K. Nanda,  T. S. Nguyen-Beck,  R. Olivares-Amaya,  
 K. J. Oosterbaan,  J. A. Parkhill,  S. K. Paul,  F. Pavosevic,  Zheng Pei,  
 T. M. Perrine,  F. Plasser,  P. Pokhilko,  S. Prager,  A. Prociuk,  
 E. Ramos,  B. Rana,  D. R. Rehn,  F. Rob,  M. Scheurer,  M. Schneider,  
 N. Sergueev,  S. M. Sharada,  S. Sharma,  D. W. Small,  T. Stauch,  
 C. J. Stein,  T. Stein,  Yu-Chuan Su,  S. P. Veccham,  Zhen Tao,  
 A. J. W. Thom,  A. Tkatchenko,  T. Tsuchimochi,  N. M. Tubman,  L. Vogt,  
 M. L. Vidal,  O. Vydrov,  M. A. Watson,  J. Wenzel,  M. de Wergifosse,  
 T. A. Wesolowski,  A. White,  J. Witte,  A. Yamada,  Jun Yang,  K. Yao,  
 S. Yeganeh,  S. R. Yost,  Zhi-Qiang You,  A. Zech,  Igor Ying Zhang,  
 Xing Zhang,  Yan Zhao,  Ying Zhu,  B. R. Brooks,  G. K. L. Chan,  
 C. J. Cramer,  M. S. Gordon,  W. J. Hehre,  A. Klamt,  M. W. Schmidt,  
 C. D. Sherrill,  D. G. Truhlar,  A. Aspuru-Guzik,  R. Baer,  A. T. Bell,  
 N. A. Besley,  Jeng-Da Chai,  A. E. DePrince, III,  R. A. DiStasio Jr.,  
 A. Dreuw,  B. D. Dunietz,  T. R. Furlani,  Chao-Ping Hsu,  Yousung Jung,  
 Jing Kong,  D. S. Lambrecht,  WanZhen Liang,  C. Ochsenfeld,  
 V. A. Rassolov,  L. V. Slipchenko,  J. E. Subotnik,  T. Van Voorhis,  
 J. M. Herbert,  A. I. Krylov,  P. M. W. Gill,  M. Head-Gordon

 Contributors to earlier versions of Q-Chem not listed above: 
 R. D. Adamson,  B. Austin,  J. Baker,  G. J. O. Beran,  K. Brandhorst,  
 S. T. Brown,  E. F. C. Byrd,  A. K. Chakraborty,  C.-L. Cheng,  
 Siu Hung Chien,  D. M. Chipman,  D. L. Crittenden,  H. Dachsel,  
 R. J. Doerksen,  A. D. Dutoi,  L. Fusti-Molnar,  W. A. Goddard III,  
 A. Golubeva-Zadorozhnaya,  S. R. Gwaltney,  G. Hawkins,  A. Heyden,  
 S. Hirata,  G. Kedziora,  F. J. Keil,  C. Kelley,  Jihan Kim,  R. A. King,  
 R. Z. Khaliullin,  P. P. Korambath,  W. Kurlancheek,  A. M. Lee,  M. S. Lee,  
 S. V. Levchenko,  Ching Yeh Lin,  D. Liotard,  R. C. Lochan,  I. Lotan,  
 P. E. Maslen,  N. Nair,  D. P. O'Neill,  D. Neuhauser,  E. Neuscamman,  
 C. M. Oana,  R. Olson,  B. Peters,  R. Peverati,  P. A. Pieniazek,  
 Y. M. Rhee,  J. Ritchie,  M. A. Rohrdanz,  E. Rosta,  N. J. Russ,  
 H. F. Schaefer III,  N. E. Schultz,  N. Shenvi,  A. C. Simmonett,  A. Sodt,  
 D. Stuck,  K. S. Thanthiriwatte,  V. Vanovschi,  Tao Wang,  A. Warshel,  
 C. F. Williams,  Q. Wu,  X. Xu,  W. Zhang

 Please cite Q-Chem as follows:
 Y. Shao et al., Mol. Phys. 113, 184-215 (2015)
 DOI: 10.1080/00268976.2014.952696

 Q-Chem 5.3.0 for Intel X86 EM64T Linux

 Parts of Q-Chem use Armadillo 9.800.1 (Horizon Scraper).
 http://arma.sourceforge.net/

 Q-Chem begins on Mon Nov 16 04:00:56 2020  

n0057.mhg0
Host: 0

     Scratch files written to /local/scratch/users/yhljason/NF_PWPB95-D3_aug-cc-pcVQZ.inp20201116033957//
Processing $rem in /clusterfs/mhg/diptarka/qchem_transmom//config/preferences:
Processing $rem in /global/home/users/yhljason/.qchemrc:
The previous job contains 0 fragments, simply inherited here

Checking the input file for inconsistencies... 	...done.

--------------------------------------------------------------
User input:
--------------------------------------------------------------
$molecule
read
$end

$rem
jobtype sp
exchange PWPB95-D3
xc_grid 000099000590
basis aug-cc-pcVQZ

max_scf_cycles 200
thresh 14
scf_convergence 8
mem_total 128000
cc_memory 96000
cc_backend xm
mem_static 1500
symmetry false
sym_ignore true
scf_guess read
unrestricted false
scf_algorithm gdm
n_frozen_core 0
$end



$multipole_field
YY 0.0001
$end


--------------------------------------------------------------
 Adding empirical dispersion correction 
 ----------------------------------------------------------------
 Doing -D3(0) with
 s6  =   0.82000
 s8  =   0.70500
 rs6 =   1.55700
 rs8 =   1.00000
 -D3 energy without 3body term =     -0.0000013616 hartrees
 ----------------------------------------------------------------
             Standard Nuclear Orientation (Angstroms)
    I     Atom           X                Y                Z
 ----------------------------------------------------------------
    1      N       0.0000000000     0.0000000000     0.0000000000
    2      F       0.0000000000     0.0000000000     1.3170000000
 ----------------------------------------------------------------
 Nuclear Repulsion Energy =          25.31371487 hartrees
 There are        9 alpha and        7 beta electrons
 Requested basis set is aug-cc-pCVQZ
 There are 58 shells and 218 basis functions

 Total QAlloc Memory Limit 128000 MB
 Mega-Array Size      1467 MB
 MEM_STATIC part      1500 MB

                       Distance Matrix (Angstroms)
             N (  1)
   F (  2)  1.317000

 Applying Cartesian multipole field
    Component          Value
    ---------          -----
     (0,2,0)        1.00000E-04
 A cutoff of  1.0D-14 yielded   1630 shell pairs
 There are     23510 function pairs (     38633 Cartesian)
 Smallest overlap matrix eigenvalue = 1.24E-04
 Guess MOs from SCF MO coefficient file

 -----------------------------------------------------------------------
  General SCF calculation program by
  Eric Jon Sundstrom, Paul Horn, Yuezhi Mao, Dmitri Zuev, Alec White,
  David Stuck, Shaama M.S., Shane Yost, Joonho Lee, David Small,
  Daniel Levine, Susi Lehtola, Hugh Burton, Evgeny Epifanovsky,
  Bang C. Huynh
 -----------------------------------------------------------------------
 Exchange:     0.5000 Hartree-Fock + 1.0000 PWPB95-D3
 Correlation:  0.7310 PWPB95-D3
 Using Euler-Maclaurin-Lebedev (99,590) quadrature formula
 Dispersion:   Grimme D3
 Orthonormalizing orbitals
 using 16 threads for integral computing
 -------------------------------------------------------
 OpenMP Integral computing Module                
 Release: version 2.0, May 2017, Q-Chem Inc. Pleasanton 
 -------------------------------------------------------
 A restricted open-shell SCF calculation will be
 performed using GDM
 SCF converges when RMS gradient is below 1.0e-08
 ---------------------------------------
  Cycle       Energy        RMS Gradient
 ---------------------------------------
    1    -154.3320207159      4.25e-04   Normal BFGS step
    2    -154.3320208970      4.13e-04   Normal BFGS step
    3    -154.3320210602      2.35e-05   Normal BFGS step
    4    -154.3320210603      3.30e-05   Normal BFGS step
    5    -154.3320210618      6.33e-06   Normal BFGS step
    6    -154.3320210619      2.74e-06   Normal BFGS step
    7    -154.3320210619      2.51e-07   Normal BFGS step
    8    -154.3320210619      9.14e-08   Normal BFGS step
    9    -154.3320210619      1.17e-08   Normal BFGS step
   10    -154.3320210619      6.80e-09  Convergence criterion met
The disked orbital energies are calculated using alpha and beta Focks
 ---------------------------------------
 SCF time:   CPU 892.19s  wall 60.00s 
<S^2> =          2.000000000
 SCF   energy in the final basis set =     -154.3320210619
 Total energy in the final basis set =     -154.3320210619

 Components of the MP2 correlation energy:
        aaaa  correlation energy =         0.0000000000 au
        abab  correlation energy =        -0.1332933569 au
        bbbb  correlation energy =         0.0000000000 au
        non-Brillouin singles    =        -0.0035989505 au

 Total  MP2   correlation energy =                    -0.13689231 au
        MP2         total energy =                  -154.46891337 au

 --------------------------------------------------------------

                    Orbital Energies (a.u.)
 --------------------------------------------------------------

 Alpha MOs
 -- Occupied --
-25.3781 -14.9518  -1.4658  -0.9233  -0.6280  -0.6279  -0.6068  -0.4066
 -0.4065
 -- Virtual --
  0.0456   0.0622   0.0776   0.0790   0.1548   0.1660   0.1670   0.1690
  0.2754   0.2754   0.2894   0.3632   0.3639   0.3756   0.4688   0.4695
  0.5195   0.6007   0.6275   0.6275   0.6945   0.6949   0.8367   0.8859
  0.8863   0.9100   0.9100   0.9541   0.9640   0.9640   1.0420   1.0673
  1.0676   1.0692   1.0692   1.3438   1.3441   1.4509   1.6687   1.8000
  1.8000   1.8627   1.8627   1.8574   1.8575   1.9992   2.0469   2.0470
  2.1556   2.1556   2.3545   2.5688   2.6429   2.6431   2.6540   2.6540
  2.7823   2.8321   2.8321   2.9048   2.9048   2.9232   2.9233   2.9128
  2.9128   2.9554   2.9554   2.9606   2.9607   3.0521   3.3337   3.3338
  3.3780   3.4653   3.4653   3.8436   4.3709   4.3710   4.5016   4.5016
  4.7782   4.8422   4.8422   5.1461   5.1462   5.1677   5.1677   5.1914
  5.2412   5.2412   5.4287   5.4287   5.5223   5.8535   5.8536   5.8872
  5.8872   5.9178   6.4472   6.4473   6.8099   7.2452   7.2453   7.8426
  7.8426   7.8977   7.8977   8.1995   8.2013   8.2013   8.3002   8.3076
  8.3077   8.6882   8.6882   8.8657   8.8657   9.1216   9.1216   9.2628
  9.2628   9.4482  10.0992  10.0993  10.9128  12.0148  12.0149  12.7754
 13.1854  13.1854  13.2060  13.3146  13.3146  13.6013  13.6013  13.6266
 13.6266  13.9584  15.2887  15.2887  15.4416  15.4416  15.9768  15.9768
 16.1678  16.1678  16.2123  16.5698  16.5699  17.4068  21.6022  25.6868
 25.6869  26.9886  36.2319  36.2319  36.6980  36.6980  37.3810  41.1195
 41.1196  42.1816  47.8953  59.4513  59.4513  59.6740  59.6740  60.1452
 79.1030  90.6750  90.6750  91.6364  97.1274  97.1274  97.1509  97.1509
 97.2418  97.2418  97.2747 111.1528 111.1528 111.1648 111.1648 111.1844
111.1844 111.2079 144.4139 144.4139 145.2655 155.5495 155.5495 155.8127
155.8127 156.1741 164.0206 249.6189 249.6189 249.7417 249.7417 249.9834
268.8470 307.5789 307.5789 308.3575 491.6382 491.6382 492.3299 683.7772
********

 Beta MOs
 -- Occupied --
-25.3703 -14.9069  -1.4363  -0.8188  -0.5783  -0.5782  -0.5319
 -- Virtual --
 -0.0091  -0.0089   0.0507   0.0748   0.0896   0.0910   0.1597   0.1694
  0.1705   0.2032   0.2853   0.2853   0.3027   0.3700   0.3707   0.3840
  0.5051   0.5057   0.5339   0.6139   0.6303   0.6303   0.7037   0.7041
  0.8490   0.9079   0.9082   0.9220   0.9220   0.9656   1.0225   1.0225
  1.0527   1.0770   1.0773   1.0815   1.0815   1.3743   1.3745   1.4660
  1.6837   1.8033   1.8033   1.8732   1.8732   1.9267   1.9269   2.0101
  2.0597   2.0599   2.1633   2.1633   2.3707   2.6116   2.6736   2.6738
  2.6879   2.6879   2.8261   2.8577   2.8577   2.9682   2.9682   2.9467
  2.9468   3.0182   3.0182   2.9915   2.9915   2.9961   2.9963   3.0744
  3.3730   3.3731   3.4093   3.4977   3.4977   3.8717   4.3981   4.3982
  4.5058   4.5058   4.7914   4.8499   4.8499   5.1587   5.1588   5.1814
  5.1814   5.2050   5.2494   5.2494   5.4369   5.4369   5.5321   5.8673
  5.8674   5.9056   5.9056   5.9300   6.4687   6.4688   6.8410   7.3355
  7.3355   7.9207   7.9207   7.9566   7.9566   8.2441   8.2498   8.2498
  8.3394   8.3528   8.3529   8.7864   8.7864   8.9359   8.9359   9.2455
  9.2455   9.3134   9.3134   9.4824  10.1568  10.1568  10.9466  12.0343
 12.0344  12.8376  13.1946  13.1946  13.2250  13.3215  13.3215  13.6073
 13.6073  13.6325  13.6325  13.9656  15.3028  15.3028  15.4515  15.4515
 15.9858  15.9858  16.1860  16.1860  16.2217  16.5810  16.5811  17.4167
 21.6149  25.7687  25.7687  27.0252  36.3161  36.3161  36.7462  36.7463
 37.4152  41.1306  41.1307  42.1863  47.9552  59.4647  59.4647  59.6816
 59.6816  60.1508  79.1103  90.7161  90.7161  91.6525  97.1440  97.1440
 97.1625  97.1625  97.2503  97.2503  97.2821 111.2084 111.2084 111.2042
111.2042 111.2140 111.2140 111.2343 144.4203 144.4203 145.2678 155.5804
155.5804 155.8308 155.8308 156.1870 164.0458 249.6244 249.6244 249.7449
249.7450 249.9858 268.8506 307.5949 307.5949 308.3636 491.6409 491.6409
492.3309 683.78581111.9535
 --------------------------------------------------------------

          Ground-State Mulliken Net Atomic Charges

     Atom                 Charge (a.u.)
  ----------------------------------------
      1 N                     0.195982
      2 F                    -0.195982
  ----------------------------------------
  Sum of atomic charges =     0.000000

 -----------------------------------------------------------------
                    Cartesian Multipole Moments
 -----------------------------------------------------------------
    Charge (ESU x 10^10)
                -0.0000
    Dipole Moment (Debye)
         X       0.0000      Y      -0.0000      Z      -0.0888
       Tot       0.0888
    Quadrupole Moments (Debye-Ang)
        XX     -10.0647     XY       0.0000     YY     -10.0677
        XZ       0.0000     YZ      -0.0000     ZZ     -10.8395
    Octopole Moments (Debye-Ang^2)
       XXX       0.0000    XXY       0.0000    XYY      -0.0000
       YYY      -0.0000    XXZ      -6.0738    XYZ       0.0000
       YYZ      -6.0746    XZZ       0.0000    YZZ      -0.0000
       ZZZ     -19.4041
    Hexadecapole Moments (Debye-Ang^3)
      XXXX      -7.6789   XXXY       0.0000   XXYY      -2.5611
      XYYY       0.0000   YYYY      -7.6877   XXXZ       0.0000
      XXYZ      -0.0000   XYYZ       0.0000   YYYZ      -0.0000
      XXZZ     -10.9095   XYZZ      -0.0000   YYZZ     -10.9123
      XZZZ       0.0000   YZZZ      -0.0000   ZZZZ     -56.7975
 -----------------------------------------------------------------
Archival summary:
1\1\n0057.mhg0\SP\ROProcedureUnspecified\BasisUnspecified\11(3)\yhljason\MonNov1604:05:292020MonNov1604:05:292020\0\\#,ROProcedureUnspecified,BasisUnspecified,\\0,3\N\F,1,1.317\\\@

 Total job time:  273.27s(wall), 3199.88s(cpu) 
 Mon Nov 16 04:05:29 2020

        *************************************************************
        *                                                           *
        *  Thank you very much for using Q-Chem.  Have a nice day.  *
        *                                                           *
        *************************************************************


 
User input: 5 of 7 
 
                  Welcome to Q-Chem
     A Quantum Leap Into The Future Of Chemistry


 Q-Chem 5.3 (devel), Q-Chem, Inc., Pleasanton, CA (2020)

 Yihan Shao,  Zhengting Gan,  E. Epifanovsky,  A. T. B. Gilbert,  M. Wormit,  
 J. Kussmann,  A. W. Lange,  A. Behn,  Jia Deng,  Xintian Feng,  D. Ghosh,  
 M. Goldey,  P. R. Horn,  L. D. Jacobson,  I. Kaliman,  T. Kus,  A. Landau,  
 Jie Liu,  E. I. Proynov,  R. M. Richard,  R. P. Steele,  E. J. Sundstrom,  
 H. L. Woodcock III,  P. M. Zimmerman,  D. Zuev,  B. Alam,  B. Albrecht,  
 E. Alguire,  S. A. Baeppler,  D. Barton,  Z. Benda,  Y. A. Bernard,  
 E. J. Berquist,  K. B. Bravaya,  H. Burton,  K. Carter-Fenk,  D. Casanova,  
 Chun-Min Chang,  Yunqing Chen,  A. Chien,  K. D. Closser,  M. P. Coons,  
 S. Coriani,  S. Dasgupta,  A. L. Dempwolff,  M. Diedenhofen,  Hainam Do,  
 R. G. Edgar,  Po-Tung Fang,  S. Faraji,  S. Fatehi,  Qingguo Feng,  
 J. Fosso-Tande,  J. Gayvert,  Qinghui Ge,  A. Ghysels,  G. Gidofalvi,  
 J. Gomes,  J. Gonthier,  A. Gunina,  D. Hait,  M. W. D. Hanson-Heine,  
 P. H. P. Harbach,  A. W. Hauser,  M. F. Herbst,  J. E. Herr,  
 E. G. Hohenstein,  Z. C. Holden,  Kerwin Hui,  B. C. Huynh,  T.-C. Jagau,  
 Hyunjun Ji,  B. Kaduk,  K. Khistyaev,  Jaehoon Kim,  P. Klunzinger,  K. Koh,  
 D. Kosenkov,  L. Koulias,  T. Kowalczyk,  C. M. Krauter,  A. Kunitsa,  
 Ka Un Lao,  A. Laurent,  K. V. Lawler,  Joonho Lee,  D. Lefrancois,  
 S. Lehtola,  D. S. Levine,  Yi-Pei Li,  You-Sheng Lin,  Fenglai Liu,  
 Kuan-Yu Liu,  E. Livshits,  M. Loipersberger,  A. Luenser,  P. Manohar,  
 E. Mansoor,  S. F. Manzer,  Shan-Ping Mao,  Yuezhi Mao,  N. Mardirossian,  
 A. V. Marenich,  T. Markovich,  L. A. Martinez-Martinez,  S. A. Maurer,  
 N. J. Mayhall,  S. C. McKenzie,  J.-M. Mewes,  P. Morgante,  A. F. Morrison,  
 J. W. Mullinax,  K. Nanda,  T. S. Nguyen-Beck,  R. Olivares-Amaya,  
 K. J. Oosterbaan,  J. A. Parkhill,  S. K. Paul,  F. Pavosevic,  Zheng Pei,  
 T. M. Perrine,  F. Plasser,  P. Pokhilko,  S. Prager,  A. Prociuk,  
 E. Ramos,  B. Rana,  D. R. Rehn,  F. Rob,  M. Scheurer,  M. Schneider,  
 N. Sergueev,  S. M. Sharada,  S. Sharma,  D. W. Small,  T. Stauch,  
 C. J. Stein,  T. Stein,  Yu-Chuan Su,  S. P. Veccham,  Zhen Tao,  
 A. J. W. Thom,  A. Tkatchenko,  T. Tsuchimochi,  N. M. Tubman,  L. Vogt,  
 M. L. Vidal,  O. Vydrov,  M. A. Watson,  J. Wenzel,  M. de Wergifosse,  
 T. A. Wesolowski,  A. White,  J. Witte,  A. Yamada,  Jun Yang,  K. Yao,  
 S. Yeganeh,  S. R. Yost,  Zhi-Qiang You,  A. Zech,  Igor Ying Zhang,  
 Xing Zhang,  Yan Zhao,  Ying Zhu,  B. R. Brooks,  G. K. L. Chan,  
 C. J. Cramer,  M. S. Gordon,  W. J. Hehre,  A. Klamt,  M. W. Schmidt,  
 C. D. Sherrill,  D. G. Truhlar,  A. Aspuru-Guzik,  R. Baer,  A. T. Bell,  
 N. A. Besley,  Jeng-Da Chai,  A. E. DePrince, III,  R. A. DiStasio Jr.,  
 A. Dreuw,  B. D. Dunietz,  T. R. Furlani,  Chao-Ping Hsu,  Yousung Jung,  
 Jing Kong,  D. S. Lambrecht,  WanZhen Liang,  C. Ochsenfeld,  
 V. A. Rassolov,  L. V. Slipchenko,  J. E. Subotnik,  T. Van Voorhis,  
 J. M. Herbert,  A. I. Krylov,  P. M. W. Gill,  M. Head-Gordon

 Contributors to earlier versions of Q-Chem not listed above: 
 R. D. Adamson,  B. Austin,  J. Baker,  G. J. O. Beran,  K. Brandhorst,  
 S. T. Brown,  E. F. C. Byrd,  A. K. Chakraborty,  C.-L. Cheng,  
 Siu Hung Chien,  D. M. Chipman,  D. L. Crittenden,  H. Dachsel,  
 R. J. Doerksen,  A. D. Dutoi,  L. Fusti-Molnar,  W. A. Goddard III,  
 A. Golubeva-Zadorozhnaya,  S. R. Gwaltney,  G. Hawkins,  A. Heyden,  
 S. Hirata,  G. Kedziora,  F. J. Keil,  C. Kelley,  Jihan Kim,  R. A. King,  
 R. Z. Khaliullin,  P. P. Korambath,  W. Kurlancheek,  A. M. Lee,  M. S. Lee,  
 S. V. Levchenko,  Ching Yeh Lin,  D. Liotard,  R. C. Lochan,  I. Lotan,  
 P. E. Maslen,  N. Nair,  D. P. O'Neill,  D. Neuhauser,  E. Neuscamman,  
 C. M. Oana,  R. Olson,  B. Peters,  R. Peverati,  P. A. Pieniazek,  
 Y. M. Rhee,  J. Ritchie,  M. A. Rohrdanz,  E. Rosta,  N. J. Russ,  
 H. F. Schaefer III,  N. E. Schultz,  N. Shenvi,  A. C. Simmonett,  A. Sodt,  
 D. Stuck,  K. S. Thanthiriwatte,  V. Vanovschi,  Tao Wang,  A. Warshel,  
 C. F. Williams,  Q. Wu,  X. Xu,  W. Zhang

 Please cite Q-Chem as follows:
 Y. Shao et al., Mol. Phys. 113, 184-215 (2015)
 DOI: 10.1080/00268976.2014.952696

 Q-Chem 5.3.0 for Intel X86 EM64T Linux

 Parts of Q-Chem use Armadillo 9.800.1 (Horizon Scraper).
 http://arma.sourceforge.net/

 Q-Chem begins on Mon Nov 16 04:05:29 2020  

n0057.mhg0
Host: 0

     Scratch files written to /local/scratch/users/yhljason/NF_PWPB95-D3_aug-cc-pcVQZ.inp20201116033957//
Processing $rem in /clusterfs/mhg/diptarka/qchem_transmom//config/preferences:
Processing $rem in /global/home/users/yhljason/.qchemrc:
The previous job contains 0 fragments, simply inherited here

Checking the input file for inconsistencies... 	...done.

--------------------------------------------------------------
User input:
--------------------------------------------------------------
$molecule
read
$end

$rem
jobtype sp
exchange PWPB95-D3
xc_grid 000099000590
basis aug-cc-pcVQZ

max_scf_cycles 200
thresh 14
scf_convergence 8
mem_total 128000
cc_memory 96000
cc_backend xm
mem_static 1500
symmetry false
sym_ignore true
scf_guess read
unrestricted false
scf_algorithm gdm
n_frozen_core 0
$end



$multipole_field
YY -0.0001
$end


--------------------------------------------------------------
 Adding empirical dispersion correction 
 ----------------------------------------------------------------
 Doing -D3(0) with
 s6  =   0.82000
 s8  =   0.70500
 rs6 =   1.55700
 rs8 =   1.00000
 -D3 energy without 3body term =     -0.0000013616 hartrees
 ----------------------------------------------------------------
             Standard Nuclear Orientation (Angstroms)
    I     Atom           X                Y                Z
 ----------------------------------------------------------------
    1      N       0.0000000000     0.0000000000     0.0000000000
    2      F       0.0000000000     0.0000000000     1.3170000000
 ----------------------------------------------------------------
 Nuclear Repulsion Energy =          25.31371487 hartrees
 There are        9 alpha and        7 beta electrons
 Requested basis set is aug-cc-pCVQZ
 There are 58 shells and 218 basis functions

 Total QAlloc Memory Limit 128000 MB
 Mega-Array Size      1467 MB
 MEM_STATIC part      1500 MB

                       Distance Matrix (Angstroms)
             N (  1)
   F (  2)  1.317000

 Applying Cartesian multipole field
    Component          Value
    ---------          -----
     (0,2,0)       -1.00000E-04
 A cutoff of  1.0D-14 yielded   1630 shell pairs
 There are     23510 function pairs (     38633 Cartesian)
 Smallest overlap matrix eigenvalue = 1.24E-04
 Guess MOs from SCF MO coefficient file

 -----------------------------------------------------------------------
  General SCF calculation program by
  Eric Jon Sundstrom, Paul Horn, Yuezhi Mao, Dmitri Zuev, Alec White,
  David Stuck, Shaama M.S., Shane Yost, Joonho Lee, David Small,
  Daniel Levine, Susi Lehtola, Hugh Burton, Evgeny Epifanovsky,
  Bang C. Huynh
 -----------------------------------------------------------------------
 Exchange:     0.5000 Hartree-Fock + 1.0000 PWPB95-D3
 Correlation:  0.7310 PWPB95-D3
 Using Euler-Maclaurin-Lebedev (99,590) quadrature formula
 Dispersion:   Grimme D3
 Orthonormalizing orbitals
 using 16 threads for integral computing
 -------------------------------------------------------
 OpenMP Integral computing Module                
 Release: version 2.0, May 2017, Q-Chem Inc. Pleasanton 
 -------------------------------------------------------
 A restricted open-shell SCF calculation will be
 performed using GDM
 SCF converges when RMS gradient is below 1.0e-08
 ---------------------------------------
  Cycle       Energy        RMS Gradient
 ---------------------------------------
    1    -154.3305240470      6.36e-04   Normal BFGS step
    2    -154.3305244358      5.45e-04   Normal BFGS step
    3    -154.3305246107      5.77e-05   Normal BFGS step
    4    -154.3305246136      3.80e-05   Normal BFGS step
    5    -154.3305246151      1.56e-05   Normal BFGS step
    6    -154.3305246155      8.83e-06   Normal BFGS step
    7    -154.3305246155      2.76e-06   Normal BFGS step
    8    -154.3305246156      5.15e-07   Normal BFGS step
    9    -154.3305246156      7.17e-08   Normal BFGS step
   10    -154.3305246156      2.54e-08   Normal BFGS step
   11    -154.3305246156      5.60e-09  Convergence criterion met
The disked orbital energies are calculated using alpha and beta Focks
 ---------------------------------------
 SCF time:   CPU 977.22s  wall 66.00s 
<S^2> =          2.000000000
 SCF   energy in the final basis set =     -154.3305246156
 Total energy in the final basis set =     -154.3305246156

 Components of the MP2 correlation energy:
        aaaa  correlation energy =         0.0000000000 au
        abab  correlation energy =        -0.1332808867 au
        bbbb  correlation energy =         0.0000000000 au
        non-Brillouin singles    =        -0.0035990980 au

 Total  MP2   correlation energy =                    -0.13687998 au
        MP2         total energy =                  -154.46740460 au

 --------------------------------------------------------------

                    Orbital Energies (a.u.)
 --------------------------------------------------------------

 Alpha MOs
 -- Occupied --
-25.3777 -14.9513  -1.4655  -0.9229  -0.6276  -0.6275  -0.6065  -0.4062
 -0.4062
 -- Virtual --
  0.0476   0.0635   0.0805   0.0819   0.1563   0.1681   0.1692   0.1700
  0.2768   0.2768   0.2912   0.3647   0.3654   0.3767   0.4702   0.4709
  0.5203   0.6017   0.6284   0.6284   0.6954   0.6958   0.8377   0.8868
  0.8871   0.9109   0.9109   0.9549   0.9647   0.9647   1.0427   1.0680
  1.0683   1.0699   1.0699   1.3445   1.3448   1.4516   1.6692   1.8006
  1.8006   1.8633   1.8633   1.8579   1.8581   1.9997   2.0473   2.0475
  2.1561   2.1561   2.3551   2.5693   2.6435   2.6437   2.6546   2.6546
  2.7827   2.8325   2.8325   2.9053   2.9053   2.9236   2.9237   2.9133
  2.9133   2.9558   2.9558   2.9610   2.9612   3.0525   3.3341   3.3342
  3.3785   3.4657   3.4657   3.8439   4.3713   4.3714   4.5020   4.5020
  4.7787   4.8425   4.8425   5.1465   5.1466   5.1681   5.1681   5.1917
  5.2416   5.2416   5.4291   5.4291   5.5226   5.8538   5.8539   5.8876
  5.8876   5.9182   6.4476   6.4477   6.8102   7.2456   7.2457   7.8430
  7.8430   7.8981   7.8981   8.1999   8.2016   8.2016   8.3005   8.3080
  8.3080   8.6885   8.6885   8.8660   8.8660   9.1220   9.1220   9.2632
  9.2632   9.4486  10.0996  10.0996  10.9132  12.0152  12.0153  12.7758
 13.1858  13.1858  13.2064  13.3150  13.3150  13.6016  13.6016  13.6269
 13.6269  13.9587  15.2891  15.2891  15.4420  15.4420  15.9772  15.9772
 16.1682  16.1682  16.2126  16.5702  16.5702  17.4072  21.6026  25.6872
 25.6873  26.9890  36.2323  36.2323  36.6984  36.6984  37.3814  41.1199
 41.1200  42.1820  47.8957  59.4517  59.4517  59.6744  59.6744  60.1456
 79.1034  90.6754  90.6755  91.6368  97.1278  97.1278  97.1513  97.1514
 97.2422  97.2422  97.2751 111.1532 111.1532 111.1652 111.1652 111.1849
111.1849 111.2083 144.4143 144.4143 145.2659 155.5500 155.5500 155.8132
155.8132 156.1745 164.0211 249.6193 249.6193 249.7421 249.7421 249.9838
268.8475 307.5793 307.5793 308.3579 491.6387 491.6387 492.3303 683.7776
********

 Beta MOs
 -- Occupied --
-25.3699 -14.9065  -1.4360  -0.8185  -0.5779  -0.5779  -0.5315
 -- Virtual --
 -0.0086  -0.0085   0.0527   0.0762   0.0925   0.0939   0.1611   0.1716
  0.1726   0.2044   0.2868   0.2868   0.3043   0.3714   0.3721   0.3852
  0.5065   0.5071   0.5348   0.6148   0.6312   0.6312   0.7045   0.7049
  0.8500   0.9087   0.9091   0.9229   0.9229   0.9664   1.0233   1.0233
  1.0534   1.0777   1.0780   1.0822   1.0822   1.3750   1.3752   1.4667
  1.6842   1.8039   1.8039   1.8738   1.8738   1.9273   1.9274   2.0105
  2.0602   2.0604   2.1638   2.1638   2.3712   2.6121   2.6742   2.6744
  2.6885   2.6885   2.8265   2.8582   2.8582   2.9687   2.9687   2.9472
  2.9473   3.0187   3.0187   2.9920   2.9920   2.9966   2.9967   3.0748
  3.3733   3.3734   3.4097   3.4981   3.4981   3.8721   4.3985   4.3986
  4.5062   4.5062   4.7918   4.8502   4.8502   5.1591   5.1592   5.1818
[...]
268.8467 307.5787 307.5787 308.3573 491.6379 491.6379 492.3296 683.7770
********

 Beta MOs
 -- Occupied --
-25.3707 -14.9071  -1.4367  -0.8192  -0.5787  -0.5787  -0.5322
 -- Virtual --
 -0.0091  -0.0091   0.0496   0.0740   0.0911   0.0911   0.1578   0.1691
  0.1691   0.2025   0.2857   0.2857   0.3019   0.3700   0.3700   0.3831
  0.5055   0.5055   0.5333   0.6129   0.6299   0.6299   0.7028   0.7028
  0.8480   0.9078   0.9078   0.9222   0.9222   0.9645   1.0226   1.0226
  1.0524   1.0769   1.0769   1.0813   1.0813   1.3740   1.3740   1.4655
  1.6832   1.8029   1.8029   1.8728   1.8728   1.9265   1.9265   2.0092
  2.0591   2.0591   2.1627   2.1627   2.3697   2.6114   2.6733   2.6733
  2.6880   2.6880   2.8257   2.8576   2.8576   2.9682   2.9682   2.9464
  2.9464   3.0182   3.0182   2.9914   2.9914   2.9960   2.9960   3.0740
  3.3726   3.3726   3.4088   3.4974   3.4974   3.8714   4.3978   4.3978
  4.5054   4.5054   4.7908   4.8494   4.8494   5.1582   5.1582   5.1810
  5.1810   5.2046   5.2490   5.2490   5.4363   5.4363   5.5315   5.8668
  5.8668   5.9051   5.9051   5.9295   6.4683   6.4683   6.8406   7.3354
  7.3354   7.9206   7.9206   7.9564   7.9564   8.2438   8.2496   8.2496
  8.3392   8.3526   8.3526   8.7863   8.7863   8.9357   8.9357   9.2453
  9.2454   9.3132   9.3132   9.4821  10.1565  10.1565  10.9463  12.0340
 12.0340  12.8373  13.1942  13.1942  13.2246  13.3210  13.3210  13.6069
 13.6069  13.6321  13.6321  13.9652  15.3024  15.3024  15.4511  15.4511
 15.9854  15.9854  16.1856  16.1856  16.2212  16.5806  16.5806  17.4163
 21.6145  25.7685  25.7685  27.0249  36.3159  36.3159  36.7460  36.7460
 37.4150  41.1303  41.1303  42.1859  47.9550  59.4643  59.4643  59.6812
 59.6812  60.1504  79.1100  90.7159  90.7159  91.6523  97.1436  97.1436
 97.1621  97.1621  97.2499  97.2499  97.2818 111.2082 111.2082 111.2040
111.2040 111.2138 111.2138 111.2341 144.4200 144.4200 145.2674 155.5802
155.5802 155.8306 155.8306 156.1868 164.0456 249.6240 249.6240 249.7446
249.7446 249.9855 268.8503 307.5947 307.5947 308.3634 491.6406 491.6406
492.3305 683.78561111.9531
 --------------------------------------------------------------

          Ground-State Mulliken Net Atomic Charges

     Atom                 Charge (a.u.)
  ----------------------------------------
      1 N                     0.197294
      2 F                    -0.197294
  ----------------------------------------
  Sum of atomic charges =     0.000000

 -----------------------------------------------------------------
                    Cartesian Multipole Moments
 -----------------------------------------------------------------
    Charge (ESU x 10^10)
                -0.0000
    Dipole Moment (Debye)
         X       0.0000      Y       0.0000      Z      -0.0961
       Tot       0.0961
    Quadrupole Moments (Debye-Ang)
        XX     -10.0640     XY       0.0000     YY     -10.0640
        XZ      -0.0000     YZ       0.0000     ZZ     -10.8568
    Octopole Moments (Debye-Ang^2)
       XXX       0.0000    XXY      -0.0000    XYY       0.0000
       YYY      -0.0000    XXZ      -6.0767    XYZ      -0.0000
       YYZ      -6.0767    XZZ      -0.0000    YZZ       0.0000
       ZZZ     -19.4424
    Hexadecapole Moments (Debye-Ang^3)
      XXXX      -7.6768   XXXY       0.0000   XXYY      -2.5589
      XYYY       0.0000   YYYY      -7.6768   XXXZ      -0.0000
      XXYZ       0.0000   XYYZ      -0.0000   YYYZ       0.0000
      XXZZ     -10.9163   XYZZ       0.0000   YYZZ     -10.9163
      XZZZ      -0.0000   YZZZ       0.0000   ZZZZ     -56.8886
 -----------------------------------------------------------------
Archival summary:
1\1\n0057.mhg0\SP\ROProcedureUnspecified\BasisUnspecified\11(3)\yhljason\MonNov1604:14:472020MonNov1604:14:472020\0\\#,ROProcedureUnspecified,BasisUnspecified,\\0,3\N\F,1,1.317\\\@

 Total job time:  278.85s(wall), 3277.05s(cpu) 
 Mon Nov 16 04:14:47 2020

        *************************************************************
        *                                                           *
        *  Thank you very much for using Q-Chem.  Have a nice day.  *
        *                                                           *
        *************************************************************


 
User input: 7 of 7 
 
                  Welcome to Q-Chem
     A Quantum Leap Into The Future Of Chemistry


 Q-Chem 5.3 (devel), Q-Chem, Inc., Pleasanton, CA (2020)

 Yihan Shao,  Zhengting Gan,  E. Epifanovsky,  A. T. B. Gilbert,  M. Wormit,  
 J. Kussmann,  A. W. Lange,  A. Behn,  Jia Deng,  Xintian Feng,  D. Ghosh,  
 M. Goldey,  P. R. Horn,  L. D. Jacobson,  I. Kaliman,  T. Kus,  A. Landau,  
 Jie Liu,  E. I. Proynov,  R. M. Richard,  R. P. Steele,  E. J. Sundstrom,  
 H. L. Woodcock III,  P. M. Zimmerman,  D. Zuev,  B. Alam,  B. Albrecht,  
 E. Alguire,  S. A. Baeppler,  D. Barton,  Z. Benda,  Y. A. Bernard,  
 E. J. Berquist,  K. B. Bravaya,  H. Burton,  K. Carter-Fenk,  D. Casanova,  
 Chun-Min Chang,  Yunqing Chen,  A. Chien,  K. D. Closser,  M. P. Coons,  
 S. Coriani,  S. Dasgupta,  A. L. Dempwolff,  M. Diedenhofen,  Hainam Do,  
 R. G. Edgar,  Po-Tung Fang,  S. Faraji,  S. Fatehi,  Qingguo Feng,  
 J. Fosso-Tande,  J. Gayvert,  Qinghui Ge,  A. Ghysels,  G. Gidofalvi,  
 J. Gomes,  J. Gonthier,  A. Gunina,  D. Hait,  M. W. D. Hanson-Heine,  
 P. H. P. Harbach,  A. W. Hauser,  M. F. Herbst,  J. E. Herr,  
 E. G. Hohenstein,  Z. C. Holden,  Kerwin Hui,  B. C. Huynh,  T.-C. Jagau,  
 Hyunjun Ji,  B. Kaduk,  K. Khistyaev,  Jaehoon Kim,  P. Klunzinger,  K. Koh,  
 D. Kosenkov,  L. Koulias,  T. Kowalczyk,  C. M. Krauter,  A. Kunitsa,  
 Ka Un Lao,  A. Laurent,  K. V. Lawler,  Joonho Lee,  D. Lefrancois,  
 S. Lehtola,  D. S. Levine,  Yi-Pei Li,  You-Sheng Lin,  Fenglai Liu,  
 Kuan-Yu Liu,  E. Livshits,  M. Loipersberger,  A. Luenser,  P. Manohar,  
 E. Mansoor,  S. F. Manzer,  Shan-Ping Mao,  Yuezhi Mao,  N. Mardirossian,  
 A. V. Marenich,  T. Markovich,  L. A. Martinez-Martinez,  S. A. Maurer,  
 N. J. Mayhall,  S. C. McKenzie,  J.-M. Mewes,  P. Morgante,  A. F. Morrison,  
 J. W. Mullinax,  K. Nanda,  T. S. Nguyen-Beck,  R. Olivares-Amaya,  
 K. J. Oosterbaan,  J. A. Parkhill,  S. K. Paul,  F. Pavosevic,  Zheng Pei,  
 T. M. Perrine,  F. Plasser,  P. Pokhilko,  S. Prager,  A. Prociuk,  
 E. Ramos,  B. Rana,  D. R. Rehn,  F. Rob,  M. Scheurer,  M. Schneider,  
 N. Sergueev,  S. M. Sharada,  S. Sharma,  D. W. Small,  T. Stauch,  
 C. J. Stein,  T. Stein,  Yu-Chuan Su,  S. P. Veccham,  Zhen Tao,  
 A. J. W. Thom,  A. Tkatchenko,  T. Tsuchimochi,  N. M. Tubman,  L. Vogt,  
 M. L. Vidal,  O. Vydrov,  M. A. Watson,  J. Wenzel,  M. de Wergifosse,  
 T. A. Wesolowski,  A. White,  J. Witte,  A. Yamada,  Jun Yang,  K. Yao,  
 S. Yeganeh,  S. R. Yost,  Zhi-Qiang You,  A. Zech,  Igor Ying Zhang,  
 Xing Zhang,  Yan Zhao,  Ying Zhu,  B. R. Brooks,  G. K. L. Chan,  
 C. J. Cramer,  M. S. Gordon,  W. J. Hehre,  A. Klamt,  M. W. Schmidt,  
 C. D. Sherrill,  D. G. Truhlar,  A. Aspuru-Guzik,  R. Baer,  A. T. Bell,  
 N. A. Besley,  Jeng-Da Chai,  A. E. DePrince, III,  R. A. DiStasio Jr.,  
 A. Dreuw,  B. D. Dunietz,  T. R. Furlani,  Chao-Ping Hsu,  Yousung Jung,  
 Jing Kong,  D. S. Lambrecht,  WanZhen Liang,  C. Ochsenfeld,  
 V. A. Rassolov,  L. V. Slipchenko,  J. E. Subotnik,  T. Van Voorhis,  
 J. M. Herbert,  A. I. Krylov,  P. M. W. Gill,  M. Head-Gordon

 Contributors to earlier versions of Q-Chem not listed above: 
 R. D. Adamson,  B. Austin,  J. Baker,  G. J. O. Beran,  K. Brandhorst,  
 S. T. Brown,  E. F. C. Byrd,  A. K. Chakraborty,  C.-L. Cheng,  
 Siu Hung Chien,  D. M. Chipman,  D. L. Crittenden,  H. Dachsel,  
 R. J. Doerksen,  A. D. Dutoi,  L. Fusti-Molnar,  W. A. Goddard III,  
 A. Golubeva-Zadorozhnaya,  S. R. Gwaltney,  G. Hawkins,  A. Heyden,  
 S. Hirata,  G. Kedziora,  F. J. Keil,  C. Kelley,  Jihan Kim,  R. A. King,  
 R. Z. Khaliullin,  P. P. Korambath,  W. Kurlancheek,  A. M. Lee,  M. S. Lee,  
 S. V. Levchenko,  Ching Yeh Lin,  D. Liotard,  R. C. Lochan,  I. Lotan,  
 P. E. Maslen,  N. Nair,  D. P. O'Neill,  D. Neuhauser,  E. Neuscamman,  
 C. M. Oana,  R. Olson,  B. Peters,  R. Peverati,  P. A. Pieniazek,  
 Y. M. Rhee,  J. Ritchie,  M. A. Rohrdanz,  E. Rosta,  N. J. Russ,  
 H. F. Schaefer III,  N. E. Schultz,  N. Shenvi,  A. C. Simmonett,  A. Sodt,  
 D. Stuck,  K. S. Thanthiriwatte,  V. Vanovschi,  Tao Wang,  A. Warshel,  
 C. F. Williams,  Q. Wu,  X. Xu,  W. Zhang

 Please cite Q-Chem as follows:
 Y. Shao et al., Mol. Phys. 113, 184-215 (2015)
 DOI: 10.1080/00268976.2014.952696

 Q-Chem 5.3.0 for Intel X86 EM64T Linux

 Parts of Q-Chem use Armadillo 9.800.1 (Horizon Scraper).
 http://arma.sourceforge.net/

 Q-Chem begins on Mon Nov 16 04:14:47 2020  

n0057.mhg0
Host: 0

     Scratch files written to /local/scratch/users/yhljason/NF_PWPB95-D3_aug-cc-pcVQZ.inp20201116033957//
Processing $rem in /clusterfs/mhg/diptarka/qchem_transmom//config/preferences:
Processing $rem in /global/home/users/yhljason/.qchemrc:
The previous job contains 0 fragments, simply inherited here

Checking the input file for inconsistencies... 	...done.

--------------------------------------------------------------
User input:
--------------------------------------------------------------
$molecule
read
$end

$rem
jobtype sp
exchange PWPB95-D3
xc_grid 000099000590
basis aug-cc-pcVQZ

max_scf_cycles 200
thresh 14
scf_convergence 8
mem_total 128000
cc_memory 96000
cc_backend xm
mem_static 1500
symmetry false
sym_ignore true
scf_guess read
unrestricted false
scf_algorithm gdm
n_frozen_core 0
$end



$multipole_field
ZZ -0.0001
$end


--------------------------------------------------------------
 Adding empirical dispersion correction 
 ----------------------------------------------------------------
 Doing -D3(0) with
 s6  =   0.82000
 s8  =   0.70500
 rs6 =   1.55700
 rs8 =   1.00000
 -D3 energy without 3body term =     -0.0000013616 hartrees
 ----------------------------------------------------------------
             Standard Nuclear Orientation (Angstroms)
    I     Atom           X                Y                Z
 ----------------------------------------------------------------
    1      N       0.0000000000     0.0000000000     0.0000000000
    2      F       0.0000000000     0.0000000000     1.3170000000
 ----------------------------------------------------------------
 Nuclear Repulsion Energy =          25.31371487 hartrees
 There are        9 alpha and        7 beta electrons
 Requested basis set is aug-cc-pCVQZ
 There are 58 shells and 218 basis functions

 Total QAlloc Memory Limit 128000 MB
 Mega-Array Size      1467 MB
 MEM_STATIC part      1500 MB

                       Distance Matrix (Angstroms)
             N (  1)
   F (  2)  1.317000

 Applying Cartesian multipole field
    Component          Value
    ---------          -----
     (0,0,2)       -1.00000E-04
 Nucleus-field energy     =    -0.0055745754 hartrees
 A cutoff of  1.0D-14 yielded   1630 shell pairs
 There are     23510 function pairs (     38633 Cartesian)
 Smallest overlap matrix eigenvalue = 1.24E-04
 Guess MOs from SCF MO coefficient file

 -----------------------------------------------------------------------
  General SCF calculation program by
  Eric Jon Sundstrom, Paul Horn, Yuezhi Mao, Dmitri Zuev, Alec White,
  David Stuck, Shaama M.S., Shane Yost, Joonho Lee, David Small,
  Daniel Levine, Susi Lehtola, Hugh Burton, Evgeny Epifanovsky,
  Bang C. Huynh
 -----------------------------------------------------------------------
 Exchange:     0.5000 Hartree-Fock + 1.0000 PWPB95-D3
 Correlation:  0.7310 PWPB95-D3
 Using Euler-Maclaurin-Lebedev (99,590) quadrature formula
 Dispersion:   Grimme D3
 Orthonormalizing orbitals
 using 16 threads for integral computing
 -------------------------------------------------------
 OpenMP Integral computing Module                
 Release: version 2.0, May 2017, Q-Chem Inc. Pleasanton 
 -------------------------------------------------------
 A restricted open-shell SCF calculation will be
 performed using GDM
 SCF converges when RMS gradient is below 1.0e-08
 ---------------------------------------
  Cycle       Energy        RMS Gradient
 ---------------------------------------
    1    -154.3304648690      7.81e-04   Normal BFGS step
    2    -154.3304666147      6.22e-04   Normal BFGS step
    3    -154.3304672216      2.58e-04   Normal BFGS step
    4    -154.3304674381      7.95e-05   Normal BFGS step
    5    -154.3304674629      3.82e-05   Normal BFGS step
    6    -154.3304674664      1.72e-05   Normal BFGS step
    7    -154.3304674666      4.00e-06   Normal BFGS step
    8    -154.3304674667      6.75e-07   Normal BFGS step
    9    -154.3304674667      9.76e-08   Normal BFGS step
   10    -154.3304674667      2.24e-08   Normal BFGS step
   11    -154.3304674667      5.89e-09  Convergence criterion met
The disked orbital energies are calculated using alpha and beta Focks
 ---------------------------------------
 SCF time:   CPU 978.91s  wall 65.00s 
<S^2> =          2.000000000
 SCF   energy in the final basis set =     -154.3304674667
 Total energy in the final basis set =     -154.3304674667

 Components of the MP2 correlation energy:
        aaaa  correlation energy =         0.0000000000 au
        abab  correlation energy =        -0.1333035422 au
        bbbb  correlation energy =         0.0000000000 au
        non-Brillouin singles    =        -0.0035998808 au

 Total  MP2   correlation energy =                    -0.13690342 au
        MP2         total energy =                  -154.46737089 au

 --------------------------------------------------------------

                    Orbital Energies (a.u.)
 --------------------------------------------------------------

 Alpha MOs
 -- Occupied --
-25.3774 -14.9511  -1.4652  -0.9226  -0.6272  -0.6272  -0.6062  -0.4060
 -0.4060
 -- Virtual --
  0.0485   0.0643   0.0804   0.0804   0.1581   0.1695   0.1695   0.1708
  0.2764   0.2764   0.2920   0.3653   0.3653   0.3777   0.4705   0.4705
  0.5209   0.6027   0.6287   0.6287   0.6967   0.6967   0.8387   0.8871
  0.8871   0.9107   0.9107   0.9560   0.9646   0.9646   1.0430   1.0684
  1.0684   1.0701   1.0701   1.3451   1.3451   1.4521   1.6698   1.8009
  1.8009   1.8636   1.8636   1.8582   1.8582   2.0005   2.0482   2.0482
  2.1567   2.1567   2.3560   2.5696   2.6440   2.6440   2.6545   2.6545
  2.7830   2.8327   2.8327   2.9053   2.9053   2.9240   2.9240   2.9134
  2.9134   2.9560   2.9560   2.9613   2.9613   3.0528   3.3345   3.3345
  3.3789   3.4660   3.4660   3.8443   4.3717   4.3717   4.5024   4.5024
  4.7792   4.8430   4.8430   5.1471   5.1471   5.1684   5.1684   5.1922
  5.2420   5.2420   5.4296   5.4296   5.5233   5.8544   5.8544   5.8880
  5.8880   5.9188   6.4481   6.4481   6.8106   7.2458   7.2458   7.8431
  7.8431   7.8983   7.8983   8.2002   8.2018   8.2018   8.3008   8.3082
  8.3082   8.6887   8.6887   8.8662   8.8662   9.1222   9.1222   9.2634
  9.2634   9.4489  10.0999  10.0999  10.9135  12.0156  12.0156  12.7761
 13.1862  13.1862  13.2068  13.3154  13.3154  13.6021  13.6021  13.6274
 13.6274  13.9592  15.2894  15.2894  15.4424  15.4424  15.9776  15.9776
 16.1685  16.1685  16.2130  16.5706  16.5706  17.4076  21.6030  25.6875
 25.6875  26.9892  36.2325  36.2325  36.6986  36.6986  37.3816  41.1203
 41.1203  42.1824  47.8959  59.4521  59.4521  59.6748  59.6748  60.1460
 79.1037  90.6757  90.6757  91.6370  97.1282  97.1282  97.1517  97.1517
 97.2426  97.2426  97.2755 111.1534 111.1534 111.1654 111.1654 111.1851
111.1851 111.2085 144.4146 144.4146 145.2663 155.5502 155.5502 155.8134
155.8134 156.1747 164.0213 249.6197 249.6197 249.7425 249.7425 249.9842
268.8478 307.5795 307.5795 308.3581 491.6390 491.6390 492.3307 683.7778
********

 Beta MOs
 -- Occupied --
-25.3696 -14.9063  -1.4356  -0.8181  -0.5775  -0.5775  -0.5312
 -- Virtual --
 -0.0085  -0.0085   0.0538   0.0771   0.0925   0.0925   0.1630   0.1729
  0.1729   0.2050   0.2863   0.2863   0.3051   0.3721   0.3721   0.3861
  0.5067   0.5067   0.5354   0.6158   0.6315   0.6315   0.7058   0.7058
  0.8510   0.9091   0.9091   0.9226   0.9226   0.9674   1.0231   1.0231
  1.0537   1.0781   1.0781   1.0824   1.0824   1.3755   1.3755   1.4671
  1.6847   1.8042   1.8042   1.8741   1.8741   1.9276   1.9276   2.0114
  2.0610   2.0610   2.1644   2.1644   2.3722   2.6124   2.6747   2.6747
  2.6884   2.6884   2.8268   2.8583   2.8583   2.9687   2.9687   2.9476
  2.9476   3.0188   3.0188   2.9921   2.9921   2.9968   2.9968   3.0751
  3.3738   3.3738   3.4101   3.4984   3.4984   3.8724   4.3989   4.3989
  4.5066   4.5066   4.7924   4.8507   4.8507   5.1597   5.1597   5.1822
  5.1822   5.2058   5.2503   5.2503   5.4378   5.4378   5.5331   5.8682
  5.8682   5.9064   5.9064   5.9310   6.4696   6.4696   6.8418   7.3361
  7.3361   7.9212   7.9212   7.9571   7.9571   8.2447   8.2503   8.2503
  8.3400   8.3534   8.3534   8.7869   8.7869   8.9364   8.9364   9.2460
  9.2460   9.3140   9.3140   9.4830  10.1575  10.1575  10.9472  12.0351
 12.0351  12.8383  13.1954  13.1954  13.2258  13.3222  13.3222  13.6081
 13.6081  13.6333  13.6333  13.9664  15.3035  15.3035  15.4522  15.4522
 15.9865  15.9865  16.1868  16.1868  16.2224  16.5818  16.5818  17.4175
 21.6156  25.7693  25.7693  27.0258  36.3167  36.3167  36.7469  36.7469
 37.4158  41.1314  41.1314  42.1870  47.9559  59.4655  59.4655  59.6823
 59.6823  60.1516  79.1111  90.7167  90.7167  91.6531  97.1448  97.1448
 97.1632  97.1633  97.2511  97.2511  97.2829 111.2090 111.2090 111.2048
111.2048 111.2147 111.2147 111.2349 144.4211 144.4211 145.2685 155.5810
155.5810 155.8315 155.8315 156.1877 164.0464 249.6252 249.6252 249.7457
249.7457 249.9866 268.8514 307.5955 307.5955 308.3643 491.6417 491.6417
492.3317 683.78641111.9542
 --------------------------------------------------------------

          Ground-State Mulliken Net Atomic Charges

     Atom                 Charge (a.u.)
  ----------------------------------------
      1 N                     0.195210
      2 F                    -0.195210
  ----------------------------------------
  Sum of atomic charges =     0.000000

 -----------------------------------------------------------------
                    Cartesian Multipole Moments
 -----------------------------------------------------------------
    Charge (ESU x 10^10)
                -0.0000
    Dipole Moment (Debye)
         X      -0.0000      Y      -0.0000      Z      -0.0822
       Tot       0.0822
    Quadrupole Moments (Debye-Ang)
        XX     -10.0637     XY      -0.0000     YY     -10.0637
        XZ      -0.0000     YZ       0.0000     ZZ     -10.8219
    Octopole Moments (Debye-Ang^2)
       XXX       0.0000    XXY       0.0000    XYY       0.0000
       YYY      -0.0000    XXZ      -6.0707    XYZ      -0.0000
       YYZ      -6.0707    XZZ      -0.0000    YZZ       0.0000
       ZZZ     -19.3666
    Hexadecapole Moments (Debye-Ang^3)
      XXXX      -7.6753   XXXY       0.0000   XXYY      -2.5584
      XYYY       0.0000   YYYY      -7.6753   XXXZ      -0.0000
      XXYZ       0.0000   XYYZ       0.0000   YYYZ       0.0000
      XXZZ     -10.9005   XYZZ       0.0000   YYZZ     -10.9005
      XZZZ      -0.0000   YZZZ       0.0000   ZZZZ     -56.7013
 -----------------------------------------------------------------
Archival summary:
1\1\n0057.mhg0\SP\ROProcedureUnspecified\BasisUnspecified\11(3)\yhljason\MonNov1604:19:252020MonNov1604:19:252020\0\\#,ROProcedureUnspecified,BasisUnspecified,\\0,3\N\F,1,1.317\\\@

 Total job time:  278.47s(wall), 3287.26s(cpu) 
 Mon Nov 16 04:19:25 2020

        *************************************************************
        *                                                           *
        *  Thank you very much for using Q-Chem.  Have a nice day.  *
        *                                                           *
        *************************************************************


