Q-Chem Developer Version!
                  Welcome to Q-Chem
     A Quantum Leap Into The Future Of Chemistry


 Q-Chem 5.1, Q-Chem, Inc., Pleasanton, CA (2018)

 Yihan Shao,  Zhengting Gan,  E. Epifanovsky,  A. T. B. Gilbert,  M. Wormit,  
 J. Kussmann,  A. W. Lange,  A. Behn,  Jia Deng,  Xintian Feng,  D. Ghosh,  
 M. Goldey,  P. R. Horn,  L. D. Jacobson,  I. Kaliman,  T. Kus,  A. Landau,  
 Jie Liu,  E. I. Proynov,  R. M. Richard,  R. P. Steele,  E. J. Sundstrom,  
 H. L. Woodcock III,  P. M. Zimmerman,  D. Zuev,  B. Albrecht,  E. Alguire,  
 S. A. Baeppler,  D. Barton,  Z. Benda,  Y. A. Bernard,  E. J. Berquist,  
 K. B. Bravaya,  H. Burton,  D. Casanova,  Chun-Min Chang,  Yunqing Chen,  
 A. Chien,  K. D. Closser,  M. P. Coons,  S. Coriani,  S. Dasgupta,  
 A. L. Dempwolff,  M. Diedenhofen,  Hainam Do,  R. G. Edgar,  Po-Tung Fang,  
 S. Faraji,  S. Fatehi,  Qingguo Feng,  K. D. Fenk,  J. Fosso-Tande,  
 Qinghui Ge,  A. Ghysels,  G. Gidofalvi,  J. Gomes,  J. Gonthier,  A. Gunina,  
 D. Hait,  M. W. D. Hanson-Heine,  P. H. P. Harbach,  A. W. Hauser,  
 J. E. Herr,  E. G. Hohenstein,  Z. C. Holden,  Kerwin Hui,  B. C. Huynh,  
 T.-C. Jagau,  Hyunjun Ji,  B. Kaduk,  K. Khistyaev,  Jaehoon Kim,  
 P. Klunzinger,  K. Koh,  D. Kosenkov,  L. Koulias,  T. Kowalczyk,  
 C. M. Krauter,  A. Kunitsa,  Ka Un Lao,  A. Laurent,  K. V. Lawler,  
 Joonho Lee,  D. Lefrancois,  S. Lehtola,  D. S. Levine,  Yi-Pei Li,  
 You-Sheng Lin,  Fenglai Liu,  E. Livshits,  A. Luenser,  P. Manohar,  
 E. Mansoor,  S. F. Manzer,  Shan-Ping Mao,  Yuezhi Mao,  N. Mardirossian,  
 A. V. Marenich,  T. Markovich,  L. A. Martinez-Martinez,  S. A. Maurer,  
 N. J. Mayhall,  S. C. McKenzie,  J.-M. Mewes,  A. F. Morrison,  
 J. W. Mullinax,  K. Nanda,  T. S. Nguyen-Beck,  R. Olivares-Amaya,  
 J. A. Parkhill,  T. M. Perrine,  F. Plasser,  P. Pokhilko,  S. Prager,  
 A. Prociuk,  E. Ramos,  D. R. Rehn,  F. Rob,  M. Schneider,  N. Sergueev,  
 S. M. Sharada,  S. Sharma,  D. W. Small,  T. Stauch,  T. Stein,  
 Yu-Chuan Su,  A. J. W. Thom,  A. Tkatchenko,  T. Tsuchimochi,  N. M. Tubman,  
 L. Vogt,  M. L. Vidal,  O. Vydrov,  M. A. Watson,  J. Wenzel,  
 M. de Wergifosse,  T. A. Wesolowski,  A. White,  J. Witte,  A. Yamada,  
 Jun Yang,  K. Yao,  S. Yeganeh,  S. R. Yost,  Zhi-Qiang You,  A. Zech,  
 Igor Ying Zhang,  Xing Zhang,  Yan Zhao,  Ying Zhu,  B. R. Brooks,  
 G. K. L. Chan,  C. J. Cramer,  M. S. Gordon,  W. J. Hehre,  A. Klamt,  
 M. W. Schmidt,  C. D. Sherrill,  D. G. Truhlar,  A. Aspuru-Guzik,  R. Baer,  
 A. T. Bell,  N. A. Besley,  Jeng-Da Chai,  A. E. DePrince, III,  
 R. A. DiStasio Jr.,  A. Dreuw,  B. D. Dunietz,  T. R. Furlani,  
 Chao-Ping Hsu,  Yousung Jung,  Jing Kong,  D. S. Lambrecht,  WanZhen Liang,  
 C. Ochsenfeld,  V. A. Rassolov,  L. V. Slipchenko,  J. E. Subotnik,  
 T. Van Voorhis,  J. M. Herbert,  A. I. Krylov,  P. M. W. Gill,  M. Head-Gordon

 Contributors to earlier versions of Q-Chem not listed above: 
 R. D. Adamson,  B. Austin,  J. Baker,  G. J. O. Beran,  K. Brandhorst,  
 S. T. Brown,  E. F. C. Byrd,  A. K. Chakraborty,  C.-L. Cheng,  
 Siu Hung Chien,  D. M. Chipman,  D. L. Crittenden,  H. Dachsel,  
 R. J. Doerksen,  A. D. Dutoi,  L. Fusti-Molnar,  W. A. Goddard III,  
 A. Golubeva-Zadorozhnaya,  S. R. Gwaltney,  G. Hawkins,  A. Heyden,  
 S. Hirata,  G. Kedziora,  F. J. Keil,  C. Kelley,  Jihan Kim,  R. A. King,  
 R. Z. Khaliullin,  P. P. Korambath,  W. Kurlancheek,  A. M. Lee,  M. S. Lee,  
 S. V. Levchenko,  Ching Yeh Lin,  D. Liotard,  R. C. Lochan,  I. Lotan,  
 P. E. Maslen,  N. Nair,  D. P. O'Neill,  D. Neuhauser,  E. Neuscamman,  
 C. M. Oana,  R. Olson,  B. Peters,  R. Peverati,  P. A. Pieniazek,  
 Y. M. Rhee,  J. Ritchie,  M. A. Rohrdanz,  E. Rosta,  N. J. Russ,  
 H. F. Schaefer III,  N. E. Schultz,  N. Shenvi,  A. C. Simmonett,  A. Sodt,  
 D. Stuck,  K. S. Thanthiriwatte,  V. Vanovschi,  Tao Wang,  A. Warshel,  
 C. F. Williams,  Q. Wu,  X. Xu,  W. Zhang

 Please cite Q-Chem as follows:
 Y. Shao et al., Mol. Phys. 113, 184-215 (2015)
 DOI: 10.1080/00268976.2014.952696

 Q-Chem 5.1.1 for Intel X86 EM64T Linux

 Parts of Q-Chem use Armadillo 8.300.2 (Tropical Shenanigans).
 http://arma.sourceforge.net/

 Q-Chem begins on Wed Nov 11 18:30:53 2020  

Host: n0067.mhg0
0

     Scratch files written to /local/scratch/users/yhljason/PF_B2PLYP_aug-cc-pcV5Z.inp20201111142616//
Input Ideriv = 0
Curr. Ideriv = -1
Max.  Ideriv = 0
Input Ideriv = 0
Curr. Ideriv = 0
Max.  Ideriv = 0

Checking the input file for inconsistencies... 	...done.

--------------------------------------------------------------
User input:
--------------------------------------------------------------
$molecule
0 3
P1      0.0000  0.0000  0.0000
F2      0.0000  0.0000  1.5897
$end

$rem
jobtype sp
exchange B2PLYP
xc_grid 000099000590
basis aug-cc-pcV5Z

max_scf_cycles 200
thresh 14
scf_convergence 8
scf_algorithm gdm
symmetry false
sym_ignore true
unrestricted false
gen_scfman true
internal_stability_iter 15
internal_stability_davidson_iter 200
mem_total 128000
cc_memory 96000
cc_backend xm
mem_static 1500
n_frozen_core 500
$end



--------------------------------------------------------------
 ----------------------------------------------------------------
             Standard Nuclear Orientation (Angstroms)
    I     Atom           X                Y                Z
 ----------------------------------------------------------------
    1      P       0.0000000000     0.0000000000     0.0000000000
    2      F       0.0000000000     0.0000000000     1.5897000000
 ----------------------------------------------------------------
 Nuclear Repulsion Energy =    44.9386195244 hartrees
 There are       13 alpha and       11 beta electrons
 Requested basis set is aug-cc-pCV5Z
 There are 88 shells and 398 basis functions

 Total QAlloc Memory Limit 128000 MB
 Mega-Array Size      1467 MB
 MEM_STATIC part      1500 MB

                       Distance Matrix (Angstroms)
             P (  1)
   F (  2)  1.589700
 
 A cutoff of  1.0D-14 yielded   3596 shell pairs
 There are     75640 function pairs (    150370 Cartesian)
 
 -------------------------------------------------------
 OpenMP Integral Computing Module                       
 Release: version 1.0, May 2013, Q-Chem Inc. Pittsburgh 
 -------------------------------------------------------
 Integral Job Info:
 Integral job number is                      11
 Integral operator is                         1
 short-range coefficients                     0
 long-range coefficients              100000000
 Omega coefficients                           0
 if combine SR and LR in K                    0
 Integral screening is                        0
 Integral computing path is                   2
 max size of driver memory is           6400000
 size of driver memory is               5498286
 size of scratch memory is             29792225
 max col of scratch BK array             194481
 max len of scratch array in speh3         5572
 max len of scratch index in speh4           72
 max int batch size is                      520
 min int batch size is                       52
 fixed nKL is                                25
 max L of basis functions is                  5
 order of int derivative is                   0
 number of shells is                         88
 number of basis is                         558
 number of cartesian basis is               558
 number of contracted shell pairs          3596
 number of primitive shell pairs           7210
 maxK2 (contraction) of shell pair          121
 max number of K2 of shell pair               1
 max number of CS2 of shell pair            335
 max number of PS2 of shell pair            363
 mem total for path MDJ                 1108732
 -------------------------------------------------------
 Smallest overlap matrix eigenvalue = 1.95E-05

 Scale SEOQF with 1.000000e-01/1.000000e-01/1.000000e-01

 Standard Electronic Orientation quadrupole field applied
 Nucleus-field energy     =    -0.0000000024 hartrees
 Guess from superposition of atomic densities
 Warning:  Energy on first SCF cycle will be non-variational
 SAD guess density has 24.000000 electrons

 -----------------------------------------------------------------------
  General SCF calculation program by
  Eric Jon Sundstrom, Paul Horn, Yuezhi Mao, Dmitri Zuev, Alec White,
  David Stuck, Shaama M.S., Shane Yost, Joonho Lee, David Small,
  Daniel Levine, Susi Lehtola, Hugh Burton, Evgeny Epifanovsky
 -----------------------------------------------------------------------
 Exchange:     0.5300 Hartree-Fock + 0.4700 B88
 Correlation:  0.7300 LYP
 Using Euler-Maclaurin-Lebedev (99,590) quadrature formula
Running Object-Oriented ROKS (ROHF)
ROHF occupied orbitals are orthonormal
ROHF occupied orbitals are orthogonal to virtual orbitals
ROHF virtual orbitals are orthonormal
 LTot/LBra/LKet=          16           6          10

 Q-Chem warning:

 in GenH1, ket side, handled with new code

We will preform up to 15 macro iterations over saddle points until a stable solution is found
Energy prior to optimization (guess energy) = -440.673741102156
Begin Timing: Total SCF Calculation
Begin Timing: SCF Single Stationary Point Calculation
begin iterations for algorithm: GDM          
the SCF tolerance is set to 1.00e-08
 LTot/LBra/LBra=          20          10          10

 Q-Chem warning:

 in GenH1, bra side, handled with new code

    1    -440.6737411022      3.84e-01     00000  Descent step
    2    -440.8588379947      1.79e-01     00000  Descent step
    3    -440.9311943893      3.42e-02     00000  Normal BFGS step
    4    -440.9347989222      3.69e-02     00000  Normal BFGS step
    5    -440.9356349004      1.23e-02     00000  Normal BFGS step
    6    -440.9360811670      1.47e-03     00000  Normal BFGS step
    7    -440.9360912254      4.93e-04     00000  Normal BFGS step
    8    -440.9360918221      1.11e-04     00000  Normal BFGS step
    9    -440.9360918704      1.77e-05     00000  Normal BFGS step
   10    -440.9360918714      1.78e-06     00000  Normal BFGS step
   11    -440.9360918715      4.35e-07     00000  Normal BFGS step
   12    -440.9360918715      8.51e-08     00000  Normal BFGS step
   13    -440.9360918715      1.31e-08     00000  Normal BFGS step
   14    -440.9360918715      5.48e-09     00000 Convergence criterion met
The disked orbital energies are calculated using alpha and beta Focks
Timing for Single Stationary Point: 4996.00s (wall), 39774.55s (cpu)
Begin Timing: Stability
===================================================
Beginning Test for Internal Stability
===================================================
generating davidson guess vectors based on koopmans-like excitations
    1      7.90e-01     00000 Davidson Iteration
    2      4.17e-01     00000 Davidson Iteration
    3      2.09e-01     00000 Davidson Iteration
    4      8.19e-02     00000 Davidson Iteration
    5      2.70e-02     00000 Davidson Iteration
    6      1.41e-02     00000 Davidson Iteration
    7      3.36e-03     00000 Davidson Iteration
    8      6.07e-04     00000 Davidson Iteration
    9      7.75e-05     00000 Davidson Iteration
   10      4.17e-05     00000 Davidson Converged
converged_eigenvalues
   0.2623
   0.2623
Threshold for negative eigenvalues: -1.0e-05
solution was a local minimum (stable)
===================================================
End Test for Internal Stability
===================================================
Our SCF solution is stable!
The disked orbital energies are calculated using alpha and beta Focks
Timing for Total SCF: 10045.00s (wall), 79918.81s (cpu)
 Total energy in the final basis set =     -440.9360918715
<S^2> =          2.000000000
    ==================================================
              The end of Object-Oriented SCFman       
    ==================================================

 Q-Chem fatal error occurred in module libmdc/qalloc.C, line 49:

 Illegal memory length in mega_alloc


 Please submit a crash report at q-chem.com/reporter 
 
 
 
User input: 2 of 2 
 
Q-Chem Developer Version!
                  Welcome to Q-Chem
     A Quantum Leap Into The Future Of Chemistry


 Q-Chem 5.1, Q-Chem, Inc., Pleasanton, CA (2018)

 Yihan Shao,  Zhengting Gan,  E. Epifanovsky,  A. T. B. Gilbert,  M. Wormit,  
 J. Kussmann,  A. W. Lange,  A. Behn,  Jia Deng,  Xintian Feng,  D. Ghosh,  
 M. Goldey,  P. R. Horn,  L. D. Jacobson,  I. Kaliman,  T. Kus,  A. Landau,  
 Jie Liu,  E. I. Proynov,  R. M. Richard,  R. P. Steele,  E. J. Sundstrom,  
 H. L. Woodcock III,  P. M. Zimmerman,  D. Zuev,  B. Albrecht,  E. Alguire,  
 S. A. Baeppler,  D. Barton,  Z. Benda,  Y. A. Bernard,  E. J. Berquist,  
 K. B. Bravaya,  H. Burton,  D. Casanova,  Chun-Min Chang,  Yunqing Chen,  
 A. Chien,  K. D. Closser,  M. P. Coons,  S. Coriani,  S. Dasgupta,  
 A. L. Dempwolff,  M. Diedenhofen,  Hainam Do,  R. G. Edgar,  Po-Tung Fang,  
 S. Faraji,  S. Fatehi,  Qingguo Feng,  K. D. Fenk,  J. Fosso-Tande,  
 Qinghui Ge,  A. Ghysels,  G. Gidofalvi,  J. Gomes,  J. Gonthier,  A. Gunina,  
 D. Hait,  M. W. D. Hanson-Heine,  P. H. P. Harbach,  A. W. Hauser,  
 J. E. Herr,  E. G. Hohenstein,  Z. C. Holden,  Kerwin Hui,  B. C. Huynh,  
 T.-C. Jagau,  Hyunjun Ji,  B. Kaduk,  K. Khistyaev,  Jaehoon Kim,  
 P. Klunzinger,  K. Koh,  D. Kosenkov,  L. Koulias,  T. Kowalczyk,  
 C. M. Krauter,  A. Kunitsa,  Ka Un Lao,  A. Laurent,  K. V. Lawler,  
 Joonho Lee,  D. Lefrancois,  S. Lehtola,  D. S. Levine,  Yi-Pei Li,  
 You-Sheng Lin,  Fenglai Liu,  E. Livshits,  A. Luenser,  P. Manohar,  
 E. Mansoor,  S. F. Manzer,  Shan-Ping Mao,  Yuezhi Mao,  N. Mardirossian,  
 A. V. Marenich,  T. Markovich,  L. A. Martinez-Martinez,  S. A. Maurer,  
 N. J. Mayhall,  S. C. McKenzie,  J.-M. Mewes,  A. F. Morrison,  
 J. W. Mullinax,  K. Nanda,  T. S. Nguyen-Beck,  R. Olivares-Amaya,  
 J. A. Parkhill,  T. M. Perrine,  F. Plasser,  P. Pokhilko,  S. Prager,  
 A. Prociuk,  E. Ramos,  D. R. Rehn,  F. Rob,  M. Schneider,  N. Sergueev,  
 S. M. Sharada,  S. Sharma,  D. W. Small,  T. Stauch,  T. Stein,  
 Yu-Chuan Su,  A. J. W. Thom,  A. Tkatchenko,  T. Tsuchimochi,  N. M. Tubman,  
 L. Vogt,  M. L. Vidal,  O. Vydrov,  M. A. Watson,  J. Wenzel,  
 M. de Wergifosse,  T. A. Wesolowski,  A. White,  J. Witte,  A. Yamada,  
 Jun Yang,  K. Yao,  S. Yeganeh,  S. R. Yost,  Zhi-Qiang You,  A. Zech,  
 Igor Ying Zhang,  Xing Zhang,  Yan Zhao,  Ying Zhu,  B. R. Brooks,  
 G. K. L. Chan,  C. J. Cramer,  M. S. Gordon,  W. J. Hehre,  A. Klamt,  
 M. W. Schmidt,  C. D. Sherrill,  D. G. Truhlar,  A. Aspuru-Guzik,  R. Baer,  
 A. T. Bell,  N. A. Besley,  Jeng-Da Chai,  A. E. DePrince, III,  
 R. A. DiStasio Jr.,  A. Dreuw,  B. D. Dunietz,  T. R. Furlani,  
 Chao-Ping Hsu,  Yousung Jung,  Jing Kong,  D. S. Lambrecht,  WanZhen Liang,  
 C. Ochsenfeld,  V. A. Rassolov,  L. V. Slipchenko,  J. E. Subotnik,  
 T. Van Voorhis,  J. M. Herbert,  A. I. Krylov,  P. M. W. Gill,  M. Head-Gordon

 Contributors to earlier versions of Q-Chem not listed above: 
 R. D. Adamson,  B. Austin,  J. Baker,  G. J. O. Beran,  K. Brandhorst,  
 S. T. Brown,  E. F. C. Byrd,  A. K. Chakraborty,  C.-L. Cheng,  
 Siu Hung Chien,  D. M. Chipman,  D. L. Crittenden,  H. Dachsel,  
 R. J. Doerksen,  A. D. Dutoi,  L. Fusti-Molnar,  W. A. Goddard III,  
 A. Golubeva-Zadorozhnaya,  S. R. Gwaltney,  G. Hawkins,  A. Heyden,  
 S. Hirata,  G. Kedziora,  F. J. Keil,  C. Kelley,  Jihan Kim,  R. A. King,  
 R. Z. Khaliullin,  P. P. Korambath,  W. Kurlancheek,  A. M. Lee,  M. S. Lee,  
 S. V. Levchenko,  Ching Yeh Lin,  D. Liotard,  R. C. Lochan,  I. Lotan,  
 P. E. Maslen,  N. Nair,  D. P. O'Neill,  D. Neuhauser,  E. Neuscamman,  
 C. M. Oana,  R. Olson,  B. Peters,  R. Peverati,  P. A. Pieniazek,  
 Y. M. Rhee,  J. Ritchie,  M. A. Rohrdanz,  E. Rosta,  N. J. Russ,  
 H. F. Schaefer III,  N. E. Schultz,  N. Shenvi,  A. C. Simmonett,  A. Sodt,  
 D. Stuck,  K. S. Thanthiriwatte,  V. Vanovschi,  Tao Wang,  A. Warshel,  
 C. F. Williams,  Q. Wu,  X. Xu,  W. Zhang

 Please cite Q-Chem as follows:
 Y. Shao et al., Mol. Phys. 113, 184-215 (2015)
 DOI: 10.1080/00268976.2014.952696

 Q-Chem 5.1.1 for Intel X86 EM64T Linux

 Parts of Q-Chem use Armadillo 8.300.2 (Tropical Shenanigans).
 http://arma.sourceforge.net/

 Q-Chem begins on Wed Nov 11 21:19:49 2020  

Host: n0067.mhg0
0

     Scratch files written to /local/scratch/users/yhljason/PF_B2PLYP_aug-cc-pcV5Z.inp20201111142616//
The previous job contains 0 fragments, simply inherited here
Input Ideriv = 1
Curr. Ideriv = -1
Max.  Ideriv = 1

Checking the input file for inconsistencies... 	...done.

--------------------------------------------------------------
User input:
--------------------------------------------------------------
$molecule
read
$end

$rem

jobtype sp
method HF
xc_grid 000099000590
basis aug-cc-pcV5Z
max_scf_cycles 0
scf_guess read
thresh 14
scf_convergence 8
mem_total 128000
cc_memory 96000
cc_backend xm
mem_static 1500
symmetry false
sym_ignore true
scf_guess read
unrestricted false
scf_algorithm gdm
n_frozen_core 0
$end


--------------------------------------------------------------
 ----------------------------------------------------------------
             Standard Nuclear Orientation (Angstroms)
    I     Atom           X                Y                Z
 ----------------------------------------------------------------
    1      P       0.0000000000     0.0000000000     0.0000000000
    2      F       0.0000000000     0.0000000000     1.5897000000
 ----------------------------------------------------------------
 Nuclear Repulsion Energy =    44.9386195244 hartrees
 There are       13 alpha and       11 beta electrons
 Requested basis set is aug-cc-pCV5Z
 There are 88 shells and 398 basis functions

 Total QAlloc Memory Limit 128000 MB
 Mega-Array Size      1467 MB
 MEM_STATIC part      1500 MB

                       Distance Matrix (Angstroms)
             P (  1)
   F (  2)  1.589700
 
 A cutoff of  1.0D-14 yielded   3596 shell pairs
 There are     75640 function pairs (    150370 Cartesian)
 
 -------------------------------------------------------
 OpenMP Integral Computing Module                       
 Release: version 1.0, May 2013, Q-Chem Inc. Pittsburgh 
 -------------------------------------------------------
 Integral Job Info:
 Integral job number is                      11
 Integral operator is                         1
 short-range coefficients                     0
 long-range coefficients              100000000
 Omega coefficients                           0
 if combine SR and LR in K                    0
 Integral screening is                        0
 Integral computing path is                   2
 max size of driver memory is           6400000
 size of driver memory is               5498286
 size of scratch memory is             29792225
 max col of scratch BK array             194481
 max len of scratch array in speh3         5572
 max len of scratch index in speh4           72
 max int batch size is                      520
 min int batch size is                       52
 fixed nKL is                                25
 max L of basis functions is                  5
 order of int derivative is                   0
 number of shells is                         88
 number of basis is                         558
 number of cartesian basis is               558
 number of contracted shell pairs          3596
 number of primitive shell pairs           7210
 maxK2 (contraction) of shell pair          121
 max number of K2 of shell pair               1
 max number of CS2 of shell pair            335
 max number of PS2 of shell pair            363
 mem total for path MDJ                 1108732
 -------------------------------------------------------
 Smallest overlap matrix eigenvalue = 1.95E-05

 Scale SEOQF with 1.000000e-01/1.000000e-01/1.000000e-01

 Standard Electronic Orientation quadrupole field applied
 Nucleus-field energy     =    -0.0000000024 hartrees
 Guess MOs from SCF MO coefficient file
 Reading MOs from coefficient file
 Reading MOs from coefficient file
 The restricted Hartree-Fock energy will be evaluated
 The orbitals will not be altered
Using Q-Chem read-in guess as SCF_GUESS READ specified.

 using 8 threads for integral computing
 -------------------------------------------------------
 OpenMP Integral computing Module                
 Release: version 2.0, May 2017, Q-Chem Inc. Pleasanton 
 -------------------------------------------------------
 LTot/LBra/LKet=          20          10          10
 LTot/LBra/LKet=          19           9          10

 Q-Chem warning:

 in GenH1, ket side, handled with new code

 LTot/LBra/LKet=          19           9          10

 Q-Chem warning:

 in GenH1, ket side, handled with new code


 Q-Chem warning:

 in GenH1, ket side, handled with new code

 LTot/LBra/LKet=          19           9          10

 Q-Chem warning:

 in GenH1, ket side, handled with new code

 LTot/LBra/LBra=          20          10          10

 Q-Chem warning:

 in GenH1, bra side, handled with new code

TIMEINFO->: J/JK contribution 2833.55 sec.
Avoiding writing the new MOs to disk !!! 
 ---------------------------------------
  Cycle       Energy        RMS Gradient
 ---------------------------------------
    1    -440.2261367693      3.12E-02 Convergence criterion met
 ---------------------------------------
 SCF time:  CPU 2835.59 s  wall 356.17 s
 SCF   energy in the final basis set = -440.22613677
 Total energy in the final basis set = -440.22613677
 
 --------------------------------------------------------------
 
                    Orbital Energies (a.u.)
 --------------------------------------------------------------
 
 Alpha MOs
 -- Occupied --
-78.339 -25.386  -7.006  -5.054  -5.061  -5.061  -1.401  -0.732
 -0.581  -0.581  -0.539  -0.295  -0.295
 -- Virtual --
  0.007   0.026   0.044   0.044   0.072   0.112   0.132   0.132
  0.124   0.124   0.187   0.187   0.202   0.217   0.254   0.254
  0.277   0.318   0.318   0.323   0.323   0.364   0.387   0.387
  0.348   0.348   0.414   0.412   0.412   0.575   0.575   0.577
  0.616   0.616   0.627   0.728   0.728   0.731   0.824   0.824
  0.826   0.826   0.870   0.870   0.898   0.880   0.880   0.940
  0.943   0.943   0.945   0.945   0.951   0.951   0.996   0.996
  1.017   1.017   1.050   1.215   1.366   1.366   1.438   1.438
  1.437   1.565   1.565   1.597   1.641   1.641   1.711   1.788
  1.788   1.871   1.871   2.034   2.034   2.022   2.022   2.010
  2.010   2.038   2.038   2.081   2.081   2.095   2.119   2.166
  2.166   2.172   2.172   2.224   2.229   2.229   2.234   2.234
  2.253   2.253   2.433   2.433   2.541   2.574   2.574   2.587
  2.587   2.810   2.810   3.078   3.289   3.272   3.272   3.306
  3.306   3.516   3.516   3.607   3.712   3.712   3.837   3.837
  3.849   3.849   3.875   3.890   3.890   4.004   4.004   4.034
  4.348   4.348   4.371   4.371   4.367   4.367   4.472   4.574
  4.640   4.640   4.746   4.746   4.783   4.783   4.903   5.003
  5.003   5.001   5.001   5.046   5.046   5.067   5.067   5.122
  5.122   5.140   5.140   5.181   5.272   5.272   5.467   5.631
  5.631   6.192   6.192   6.461   6.461   6.589   7.169   7.169
  7.342   7.619   7.619   7.759   7.759   7.790   7.790   8.080
  8.087   8.087   8.576   8.576   8.785   8.785   8.853   8.853
  8.886   9.051   9.051   9.361   9.361   9.399   9.399   9.471
  9.615   9.615   9.792   9.792  10.043  10.043  10.147  10.733
 10.733  10.884  10.884  11.085  11.299  11.299  11.667  12.896
 13.109  13.736  13.736  13.775  13.775  14.205  14.205  14.909
 16.371  16.371  17.432  18.205  18.205  18.692  18.692  19.699
 20.543  20.543  20.555  20.555  20.684  20.684  20.982  20.982
 21.252  21.252  21.288  24.089  24.089  24.213  24.213  24.366
 24.366  24.376  24.376  24.501  25.074  25.074  25.299  25.299
 25.619  25.619  25.957  26.083  26.083  27.006  27.900  27.900
 28.193  28.193  28.382  28.901  28.901  28.901  28.901  28.952
 28.952  29.166  29.166  29.306  32.403  36.499  39.836  39.836
 39.859  39.859  40.075  40.075  40.358  43.189  43.189  43.598
 43.598  44.534  46.260  46.260  47.113  67.104  67.104  67.961
 72.191  72.191  72.192  72.192  72.192  72.192  72.192  72.192
 72.192  72.193  72.193  78.751  78.751  78.955  78.955  79.246
 84.122  90.839  90.839  90.838  90.838  90.859  90.859  90.930
 90.930  90.940  92.118  92.118  92.215  92.215  92.509  92.509
 92.528  99.127  99.127  99.466  99.466 100.135 102.168 106.669
106.669 106.686 106.686 106.832 106.832 107.071 130.739 130.739
131.463 178.715 178.715 179.444 224.610 224.610 224.892 224.892
225.465 230.425 232.881 232.881 233.028 233.028 233.235 248.702
248.702 248.702 248.702 248.703 248.703 248.703 248.703 248.706
272.222 364.924 364.924 365.479 365.963 365.963 366.003 366.003
366.134 366.134 366.225 572.026 572.026 572.708 710.843 710.843
710.946 710.946 711.073 715.6091012.6811026.4811026.4811027.008
*******
 
 Beta MOs
 -- Occupied --
-78.329 -25.381  -6.995  -5.049  -5.036  -5.036  -1.388  -0.683
 -0.555  -0.555  -0.461
 -- Virtual --
 -0.039  -0.039   0.017   0.028   0.048   0.048   0.086   0.116
  0.132   0.132   0.138   0.138   0.193   0.193   0.204   0.218
  0.270   0.270   0.289   0.319   0.319   0.327   0.327   0.370
  0.389   0.389   0.406   0.406   0.424   0.445   0.445   0.577
  0.577   0.581   0.620   0.620   0.633   0.739   0.739   0.741
  0.828   0.828   0.836   0.836   0.889   0.889   0.905   0.912
  0.912   0.949   0.951   0.951   0.955   0.955   0.972   0.972
  1.027   1.027   1.060   1.060   1.065   1.235   1.381   1.381
  1.439   1.439   1.439   1.569   1.569   1.604   1.645   1.645
  1.714   1.792   1.792   1.878   1.878   2.051   2.051   2.058
  2.058   2.063   2.063   2.064   2.064   2.100   2.100   2.112
  2.140   2.197   2.197   2.216   2.216   2.242   2.245   2.245
  2.248   2.248   2.273   2.273   2.447   2.447   2.550   2.596
  2.596   2.614   2.614   2.827   2.827   3.091   3.295   3.302
  3.302   3.308   3.308   3.524   3.524   3.614   3.717   3.717
  3.840   3.840   3.856   3.856   3.888   3.896   3.896   4.009
  4.009   4.042   4.360   4.360   4.393   4.393   4.406   4.406
  4.482   4.593   4.653   4.653   4.758   4.758   4.800   4.800
  4.920   5.044   5.044   5.054   5.054   5.077   5.077   5.120
  5.120   5.159   5.159   5.169   5.169   5.191   5.293   5.293
  5.486   5.653   5.653   6.206   6.206   6.470   6.470   6.602
  7.197   7.197   7.348   7.636   7.636   7.761   7.761   7.791
  7.791   8.088   8.091   8.091   8.581   8.581   8.789   8.789
  8.859   8.859   8.891   9.054   9.054   9.365   9.365   9.403
  9.403   9.473   9.623   9.623   9.813   9.813  10.049  10.049
 10.153  10.743  10.743  10.891  10.891  11.092  11.305  11.305
 11.678  12.901  13.117  13.745  13.745  13.781  13.781  14.210
 14.210  14.915  16.378  16.378  17.436  18.221  18.221  18.701
 18.701  19.705  20.549  20.549  20.559  20.559  20.688  20.688
 20.985  20.985  21.255  21.255  21.291  24.098  24.098  24.220
 24.220  24.372  24.372  24.380  24.380  24.505  25.085  25.085
 25.306  25.306  25.630  25.630  25.961  26.091  26.091  27.010
 27.911  27.911  28.199  28.199  28.386  28.903  28.903  28.904
 28.904  28.954  28.954  29.168  29.168  29.308  32.412  36.504
 39.846  39.846  39.866  39.866  40.080  40.080  40.363  43.203
 43.203  43.606  43.606  44.540  46.266  46.266  47.115  67.116
 67.116  67.964  72.194  72.194  72.194  72.194  72.194  72.194
 72.194  72.195  72.195  72.198  72.198  78.758  78.758  78.958
 78.958  79.248  84.131  90.848  90.848  90.850  90.850  90.866
 90.866  90.936  90.936  90.945  92.125  92.125  92.219  92.219
 92.512  92.512  92.531  99.141  99.141  99.474  99.474 100.142
102.172 106.686 106.686 106.697 106.697 106.840 106.840 107.078
130.742 130.742 131.465 178.726 178.726 179.448 224.622 224.622
224.899 224.899 225.470 230.432 232.884 232.884 233.029 233.029
233.236 248.704 248.704 248.706 248.706 248.706 248.706 248.708
248.708 248.708 272.224 364.926 364.926 365.480 365.966 365.966
366.005 366.005 366.136 366.136 366.226 572.031 572.031 572.709
710.844 710.844 710.947 710.947 711.073 715.6091012.6831026.482
*******1027.0082519.793
 --------------------------------------------------------------
 
          Ground-State Mulliken Net Atomic Charges

     Atom                 Charge (a.u.)
  ----------------------------------------
      1 P                     0.446982
      2 F                    -0.446982
  ----------------------------------------
  Sum of atomic charges =    -0.000000

 -----------------------------------------------------------------
                    Cartesian Multipole Moments
 -----------------------------------------------------------------
    Charge (ESU x 10^10)
                -0.0000
    Dipole Moment (Debye)
         X      -0.0000      Y       0.0000      Z      -0.8955
       Tot       0.8955
    Quadrupole Moments (Debye-Ang)
        XX     -17.9613     XY       0.0000     YY     -17.9613
        XZ      -0.0000     YZ       0.0000     ZZ     -19.4078
    Octopole Moments (Debye-Ang^2)
       XXX      -0.0000    XXY      -0.0000    XYY      -0.0000
       YYY      -0.0000    XXZ      -6.7086    XYZ      -0.0000
       YYZ      -6.7086    XZZ      -0.0000    YZZ      -0.0000
       ZZZ     -27.5184
    Hexadecapole Moments (Debye-Ang^3)
      XXXX     -24.6289   XXXY       0.0000   XXYY      -8.2096
      XYYY       0.0000   YYYY     -24.6289   XXXZ      -0.0000
      XXYZ       0.0000   XYYZ      -0.0000   YYYZ       0.0000
      XXZZ     -19.5316   XYZZ       0.0000   YYZZ     -19.5316
      XZZZ      -0.0000   YZZZ       0.0000   ZZZZ     -99.9320
 -----------------------------------------------------------------
Archival summary:
1\1\n0067.mhg0\SP\ROHF\BasisUnspecified\11(3)\yhljason\WedNov1121:25:562020WedNov1121:25:562020\0\\#,ROHF,BasisUnspecified,\\0,3\P\F,1,1.5897\\HF=-440.226137\\@

 Total job time:  367.35s(wall), 2855.74s(cpu) 
 Wed Nov 11 21:25:56 2020

        *************************************************************
        *                                                           *
        *  Thank you very much for using Q-Chem.  Have a nice day.  *
        *                                                           *
        *************************************************************


