Q-Chem Developer Version!
                  Welcome to Q-Chem
     A Quantum Leap Into The Future Of Chemistry


 Q-Chem 5.1, Q-Chem, Inc., Pleasanton, CA (2018)

 Yihan Shao,  Zhengting Gan,  E. Epifanovsky,  A. T. B. Gilbert,  M. Wormit,  
 J. Kussmann,  A. W. Lange,  A. Behn,  Jia Deng,  Xintian Feng,  D. Ghosh,  
 M. Goldey,  P. R. Horn,  L. D. Jacobson,  I. Kaliman,  T. Kus,  A. Landau,  
 Jie Liu,  E. I. Proynov,  R. M. Richard,  R. P. Steele,  E. J. Sundstrom,  
 H. L. Woodcock III,  P. M. Zimmerman,  D. Zuev,  B. Albrecht,  E. Alguire,  
 S. A. Baeppler,  D. Barton,  Z. Benda,  Y. A. Bernard,  E. J. Berquist,  
 K. B. Bravaya,  H. Burton,  D. Casanova,  Chun-Min Chang,  Yunqing Chen,  
 A. Chien,  K. D. Closser,  M. P. Coons,  S. Coriani,  S. Dasgupta,  
 A. L. Dempwolff,  M. Diedenhofen,  Hainam Do,  R. G. Edgar,  Po-Tung Fang,  
 S. Faraji,  S. Fatehi,  Qingguo Feng,  K. D. Fenk,  J. Fosso-Tande,  
 Qinghui Ge,  A. Ghysels,  G. Gidofalvi,  J. Gomes,  J. Gonthier,  A. Gunina,  
 D. Hait,  M. W. D. Hanson-Heine,  P. H. P. Harbach,  A. W. Hauser,  
 J. E. Herr,  E. G. Hohenstein,  Z. C. Holden,  Kerwin Hui,  B. C. Huynh,  
 T.-C. Jagau,  Hyunjun Ji,  B. Kaduk,  K. Khistyaev,  Jaehoon Kim,  
 P. Klunzinger,  K. Koh,  D. Kosenkov,  L. Koulias,  T. Kowalczyk,  
 C. M. Krauter,  A. Kunitsa,  Ka Un Lao,  A. Laurent,  K. V. Lawler,  
 Joonho Lee,  D. Lefrancois,  S. Lehtola,  D. S. Levine,  Yi-Pei Li,  
 You-Sheng Lin,  Fenglai Liu,  E. Livshits,  A. Luenser,  P. Manohar,  
 E. Mansoor,  S. F. Manzer,  Shan-Ping Mao,  Yuezhi Mao,  N. Mardirossian,  
 A. V. Marenich,  T. Markovich,  L. A. Martinez-Martinez,  S. A. Maurer,  
 N. J. Mayhall,  S. C. McKenzie,  J.-M. Mewes,  A. F. Morrison,  
 J. W. Mullinax,  K. Nanda,  T. S. Nguyen-Beck,  R. Olivares-Amaya,  
 J. A. Parkhill,  T. M. Perrine,  F. Plasser,  P. Pokhilko,  S. Prager,  
 A. Prociuk,  E. Ramos,  D. R. Rehn,  F. Rob,  M. Schneider,  N. Sergueev,  
 S. M. Sharada,  S. Sharma,  D. W. Small,  T. Stauch,  T. Stein,  
 Yu-Chuan Su,  A. J. W. Thom,  A. Tkatchenko,  T. Tsuchimochi,  N. M. Tubman,  
 L. Vogt,  M. L. Vidal,  O. Vydrov,  M. A. Watson,  J. Wenzel,  
 M. de Wergifosse,  T. A. Wesolowski,  A. White,  J. Witte,  A. Yamada,  
 Jun Yang,  K. Yao,  S. Yeganeh,  S. R. Yost,  Zhi-Qiang You,  A. Zech,  
 Igor Ying Zhang,  Xing Zhang,  Yan Zhao,  Ying Zhu,  B. R. Brooks,  
 G. K. L. Chan,  C. J. Cramer,  M. S. Gordon,  W. J. Hehre,  A. Klamt,  
 M. W. Schmidt,  C. D. Sherrill,  D. G. Truhlar,  A. Aspuru-Guzik,  R. Baer,  
 A. T. Bell,  N. A. Besley,  Jeng-Da Chai,  A. E. DePrince, III,  
 R. A. DiStasio Jr.,  A. Dreuw,  B. D. Dunietz,  T. R. Furlani,  
 Chao-Ping Hsu,  Yousung Jung,  Jing Kong,  D. S. Lambrecht,  WanZhen Liang,  
 C. Ochsenfeld,  V. A. Rassolov,  L. V. Slipchenko,  J. E. Subotnik,  
 T. Van Voorhis,  J. M. Herbert,  A. I. Krylov,  P. M. W. Gill,  M. Head-Gordon

 Contributors to earlier versions of Q-Chem not listed above: 
 R. D. Adamson,  B. Austin,  J. Baker,  G. J. O. Beran,  K. Brandhorst,  
 S. T. Brown,  E. F. C. Byrd,  A. K. Chakraborty,  C.-L. Cheng,  
 Siu Hung Chien,  D. M. Chipman,  D. L. Crittenden,  H. Dachsel,  
 R. J. Doerksen,  A. D. Dutoi,  L. Fusti-Molnar,  W. A. Goddard III,  
 A. Golubeva-Zadorozhnaya,  S. R. Gwaltney,  G. Hawkins,  A. Heyden,  
 S. Hirata,  G. Kedziora,  F. J. Keil,  C. Kelley,  Jihan Kim,  R. A. King,  
 R. Z. Khaliullin,  P. P. Korambath,  W. Kurlancheek,  A. M. Lee,  M. S. Lee,  
 S. V. Levchenko,  Ching Yeh Lin,  D. Liotard,  R. C. Lochan,  I. Lotan,  
 P. E. Maslen,  N. Nair,  D. P. O'Neill,  D. Neuhauser,  E. Neuscamman,  
 C. M. Oana,  R. Olson,  B. Peters,  R. Peverati,  P. A. Pieniazek,  
 Y. M. Rhee,  J. Ritchie,  M. A. Rohrdanz,  E. Rosta,  N. J. Russ,  
 H. F. Schaefer III,  N. E. Schultz,  N. Shenvi,  A. C. Simmonett,  A. Sodt,  
 D. Stuck,  K. S. Thanthiriwatte,  V. Vanovschi,  Tao Wang,  A. Warshel,  
 C. F. Williams,  Q. Wu,  X. Xu,  W. Zhang

 Please cite Q-Chem as follows:
 Y. Shao et al., Mol. Phys. 113, 184-215 (2015)
 DOI: 10.1080/00268976.2014.952696

 Q-Chem 5.1.1 for Intel X86 EM64T Linux

 Parts of Q-Chem use Armadillo 8.300.2 (Tropical Shenanigans).
 http://arma.sourceforge.net/

 Q-Chem begins on Tue Oct 27 03:57:24 2020  

Host: n0051.mhg0
0

     Scratch files written to /local/scratch/users/yhljason/BHF2_wB97M2_aug-cc-pcVQZ.inp20201027035722//
Input Ideriv = 2
Curr. Ideriv = -1
Max.  Ideriv = 2
Input Ideriv = 1
Curr. Ideriv = 2
Max.  Ideriv = 1

Checking the input file for inconsistencies... 	...done.

--------------------------------------------------------------
User input:
--------------------------------------------------------------
$molecule
0 1
B1      0.0000  0.0000  0.4547
H2      0.0000  0.0000  1.6437
F3      0.0000  1.1255  -0.2176
F4      0.0000  -1.1255 -0.2176
$end

$rem
jobtype sp
method wB97M-V
xc_grid 000099000590
basis aug-cc-pcVQZ
max_scf_cycles 200
thresh 14
scf_convergence 8
scf_algorithm gdm
symmetry false
sym_ignore true
unrestricted false
gen_scfman true
internal_stability_iter 15
internal_stability_davidson_iter 200
mem_total 128000
n_frozen_core 0
$end



--------------------------------------------------------------
 ----------------------------------------------------------------
             Standard Nuclear Orientation (Angstroms)
    I     Atom           X                Y                Z
 ----------------------------------------------------------------
    1      B       0.0000000000     0.0000000000     0.4547000000
    2      H       0.0000000000     0.0000000000     1.6437000000
    3      F       0.0000000000     1.1255000000    -0.2176000000
    4      F       0.0000000000    -1.1255000000    -0.2176000000
 ----------------------------------------------------------------
 Nuclear Repulsion Energy =    61.9741374107 hartrees
 There are       12 alpha and       12 beta electrons
 Requested basis set is aug-cc-pCVQZ
 There are 101 shells and 373 basis functions

 Total QAlloc2 of 8 
 
Q-Chem Developer Version!
                  Welcome to Q-Chem
     A Quantum Leap Into The Future Of Chemistry


 Q-Chem 5.1, Q-Chem, Inc., Pleasanton, CA (2018)

 Yihan Shao,  Zhengting Gan,  E. Epifanovsky,  A. T. B. Gilbert,  M. Wormit,  
 J. Kussmann,  A. W. Lange,  A. Behn,  Jia Deng,  Xintian Feng,  D. Ghosh,  
 M. Goldey,  P. R. Horn,  L. D. Jacobson,  I. Kaliman,  T. Kus,  A. Landau,  
 Jie Liu,  E. I. Proynov,  R. M. Richard,  R. P. Steele,  E. J. Sundstrom,  
 H. L. Woodcock III,  P. M. Zimmerman,  D. Zuev,  B. Albrecht,  E. Alguire,  
 S. A. Baeppler,  D. Barton,  Z. Benda,  Y. A. Bernard,  E. J. Berquist,  
 K. B. Bravaya,  H. Burton,  D. Casanova,  Chun-Min Chang,  Yunqing Chen,  
 A. Chien,  K. D. Closser,  M. P. Coons,  S. Coriani,  S. Dasgupta,  
 A. L. Dempwolff,  M. Diedenhofen,  Hainam Do,  R. G. Edgar,  Po-Tung Fang,  
 S. Faraji,  S. Fatehi,  Qingguo Feng,  K. D. Fenk,  J. Fosso-Tande,  
 Qinghui Ge,  A. Ghysels,  G. Gidofalvi,  J. Gomes,  J. Gonthier,  A. Gunina,  
 D. Hait,  M. W. D. Hanson-Heine,  P. H. P. Harbach,  A. W. Hauser,  
 J. E. Herr,  E. G. Hohenstein,  Z. C. Holden,  Kerwin Hui,  B. C. Huynh,  
 T.-C. Jagau,  Hyunjun Ji,  B. Kaduk,  K. Khistyaev,  Jaehoon Kim,  
 P. Klunzinger,  K. Koh,  D. Kosenkov,  L. Koulias,  T. Kowalczyk,  
 C. M. Krauter,  A. Kunitsa,  Ka Un Lao,  A. Laurent,  K. V. Lawler,  
 Joonho Lee,  D. Lefrancois,  S. Lehtola,  D. S. Levine,  Yi-Pei Li,  
 You-Sheng Lin,  Fenglai Liu,  E. Livshits,  A. Luenser,  P. Manohar,  
 E. Mansoor,  S. F. Manzer,  Shan-Ping Mao,  Yuezhi Mao,  N. Mardirossian,  
 A. V. Marenich,  T. Markovich,  L. A. Martinez-Martinez,  S. A. Maurer,  
 N. J. Mayhall,  S. C. McKenzie,  J.-M. Mewes,  A. F. Morrison,  
 J. W. Mullinax,  K. Nanda,  T. S. Nguyen-Beck,  R. Olivares-Amaya,  
 J. A. Parkhill,  T. M. Perrine,  F. Plasser,  P. Pokhilko,  S. Prager,  
 A. Prociuk,  E. Ramos,  D. R. Rehn,  F. Rob,  M. Schneider,  N. Sergueev,  
 S. M. Sharada,  S. Sharma,  D. W. Small,  T. Stauch,  T. Stein,  
 Yu-Chuan Su,  A. J. W. Thom,  A. Tkatchenko,  T. Tsuchimochi,  N. M. Tubman,  
 L. Vogt,  M. L. Vidal,  O. Vydrov,  M. A. Watson,  J. Wenzel,  
 M. de Wergifosse,  T. A. Wesolowski,  A. White,  J. Witte,  A. Yamada,  
 Jun Yang,  K. Yao,  S. Yeganeh,  S. R. Yost,  Zhi-Qiang You,  A. Zech,  
 Igor Ying Zhang,  Xing Zhang,  Yan Zhao,  Ying Zhu,  B. R. Brooks,  
 G. K. L. Chan,  C. J. Cramer,  M. S. Gordon,  W. J. Hehre,  A. Klamt,  
 M. W. Schmidt,  C. D. Sherrill,  D. G. Truhlar,  A. Aspuru-Guzik,  R. Baer,  
 A. T. Bell,  N. A. Besley,  Jeng-Da Chai,  A. E. DePrince, III,  
 R. A. DiStasio Jr.,  A. Dreuw,  B. D. Dunietz,  T. R. Furlani,  
 Chao-Ping Hsu,  Yousung Jung,  Jing Kong,  D. S. Lambrecht,  WanZhen Liang,  
 C. Ochsenfeld,  V. A. Rassolov,  L. V. Slipchenko,  J. E. Subotnik,  
 T. Van Voorhis,  J. M. Herbert,  A. I. Krylov,  P. M. W. Gill,  M. Head-Gordon

 Contributors to earlier versions of Q-Chem not listed above: 
 R. D. Adamson,  B. Austin,  J. Baker,  G. J. O. Beran,  K. Brandhorst,  
 S. T. Brown,  E. F. C. Byrd,  A. K. Chakraborty,  C.-L. Cheng,  
 Siu Hung Chien,  D. M. Chipman,  D. L. Crittenden,  H. Dachsel,  
 R. J. Doerksen,  A. D. Dutoi,  L. Fusti-Molnar,  W. A. Goddard III,  
 A. Golubeva-Zadorozhnaya,  S. R. Gwaltney,  G. Hawkins,  A. Heyden,  
 S. Hirata,  G. Kedziora,  F. J. Keil,  C. Kelley,  Jihan Kim,  R. A. King,  
 R. Z. Khaliullin,  P. P. Korambath,  W. Kurlancheek,  A. M. Lee,  M. S. Lee,  
 S. V. Levchenko,  Ching Yeh Lin,  D. Liotard,  R. C. Lochan,  I. Lotan,  
 P. E. Maslen,  N. Nair,  D. P. O'Neill,  D. Neuhauser,  E. Neuscamman,  
 C. M. Oana,  R. Olson,  B. Peters,  R. Peverati,  P. A. Pieniazek,  
 Y. M. Rhee,  J. Ritchie,  M. A. Rohrdanz,  E. Rosta,  N. J. Russ,  
 H. F. Schaefer III,  N. E. Schultz,  N. Shenvi,  A. C. Simmonett,  A. Sodt,  
 D. Stuck,  K. S. Thanthiriwatte,  V. Vanovschi,  Tao Wang,  A. Warshel,  
 C. F. Williams,  Q. Wu,  X. Xu,  W. Zhang

 Please cite Q-Chem as follows:
 Y. Shao et al., Mol. Phys. 113, 184-215 (2015)
 DOI: 10.1080/00268976.2014.952696

 Q-Chem 5.1.1 for Intel X86 EM64T Linux

 Parts of Q-Chem use Armadillo 8.300.2 (Tropical Shenanigans).
 http://arma.sourceforge.net/

 Q-Chem begins on Tue Oct 27 06:31:59 2020  

Host: n0051.mhg0
0

     Scratch files written to /local/scratch/users/yhljason/BHF2_wB97M2_aug-cc-pcVQZ.inp20201027035722//
The previous job contains 0 fragments, simply inherited here
Input Ideriv = 0
Curr. Ideriv = -1
Max.  Ideriv = 0
Analytic post-HF gradients are not available with non-HF exchange
Input Ideriv = 0
Curr. Ideriv = 0
Max.  Ideriv = 0

Checking the input file for inconsistencies... 	...done.

--------------------------------------------------------------
User input:
--------------------------------------------------------------
$molecule
read
$end

$rem
jobtype sp
exchange wB97M(2)
xc_grid 000099000590
basis aug-cc-pcVQZ
max_scf_cycles 200
thresh 14
scf_convergence 8
scf_algorithm gdm
symmetry false
sym_ignore true
unrestricted false
gen_scfman false
mem_total 128000
cc_memory 96000
cc_backend xm
mem_static 1500
n_frozen_core 0
scf_guess read
$end



--------------------------------------------------------------
 ----------------------------------------------------------------
             Standard Nuclear Orientation (Angstroms)
    I     Atom           X                Y                Z
 ----------------------------------------------------------------
    1      B       0.0000000000     0.0000000000     0.4547000000
    2      H       0.0000000000     0.0000000000     1.6437000000
    3      F       0.0000000000     1.1255000000    -0.2176000000
    4      F       0.0000000000    -1.1255000000    -0.2176000000
 ----------------------------------------------------------------
 Nuclear Repulsion Energy =    61.9741374107 hartrees
 There are       12 alpha and       12 beta electrons
 Requested basis set is aug-cc-pCVQZ
 There are 101 shells and 373 basis functions

 Total QAlloc Memory Limit 128000 MB
 Mega-Array Size      1467 MB
 MEM_STATIC part      1500 MB

                       Distance Matrix (Angstroms)
             B (  1)   H (  2)   F (  3)
   H (  2)  1.189000
   F (  3)  1.311006  2.175129
   F (  4)  1.311006  2.175129  2.251000
 
 A cutoff of  1.0D-14 yielded   4816 shell pairs
 There are     67164 function pairs (    108498 Cartesian)
 
 -------------------------------------------------------
 OpenMP Integral Computing Module                       
 Release: version 1.0, May 2013, Q-Chem Inc. Pittsburgh 
 -------------------------------------------------------
 Integral Job Info:
 Integral job number is                      11
 Integral operator is                         1
 short-range coefficients              15000000
 long-range coefficients              100000000
 Omega coefficients                         300
 if combine SR and LR in K                    1
 Integral screening is                        0
 Integral computing path is                   2
 max size of driver memory is           3200000
 size of driver memory is               1704330
 size of scratch memory is             18852824
 max col of scratch BK array              50625
 max len of scratch array in speh3         2114
 max len of scratch index in speh4           50
 max int batch size is                      520
 min int batch size is                       52
 fixed nKL is                                52
 max L of basis functions is                  4
 order of int derivative is                   0
 number of shells is                        101
 number of basis is                         472
 number of cartesian basis is               472
 number of contracted shell pairs          4816
 number of primitive shell pairs          10031
 maxK2 (contraction) of shell pair           81
 max number of K2 of shell pair               1
 max number of CS2 of shell pair            594
 max number of PS2 of shell pair           1035
 mem total for path MDJ                  855280
 -------------------------------------------------------
 Smallest overlap matrix eigenvalue = 3.60E-05

 Scale SEOQF with 1.000000e-01/1.000000e-01/1.000000e-01

 Standard Electronic Orientation quadrupole field applied
 Nucleus-field energy     =     0.0000000011 hartrees
 Guess MOs from SCF MO coefficient file
 Reading MOs from coefficient file
 Reading MOs from coefficient file
 Long-range K will be added via erf
 Coulomb attenuation parameter = 0.3 bohr**(-1)
 A restricted hybrid HF-DFT SCF calculation will be
 performed using Geometric Direct Minimization
 Exchange:     0.1500 Hartree-Fock + 1.0000 wB97M-V + LR-HF
 Correlation:  1.0000 wB97M-V
 Using Euler-Maclaurin-Lebedev (99,590) quadrature formula
 Nonlocal Correlation:  VV10 with C = 0.0100 and b = 6.00 and scale = 1.00000
 Grid used for NLC:  SG-1 standard quadrature
 SCF converges when RMS gradient is below 1.0E-08
Using Q-Chem read-in guess as SCF_GUESS READ specified.

 using 8 threads for integral computing
 -------------------------------------------------------
 OpenMP Integral computing Module                
 Release: version 1.0, May 2013, Q-Chem Inc. Pittsburgh 
 -------------------------------------------------------
 using 8 threads for integral computing
 -------------------------------------------------------
 OpenMP Integral computing Module                
 Release: version 1.0, May 2013, Q-Chem Inc. Pittsburgh 
 -------------------------------------------------------
TIMEINFO->: J/JK contribution 416.65 sec.
 -------------------------------------------------------
 OpenMP BLAS3 based DFT computing Module                
 Release: version 1.0, May 2013, Q-Chem Inc. Pittsburgh 
 -------------------------------------------------------
 -------------------------------------------------------
 OpenMP BLAS3 based DFT computing Module                
 Release: version 1.0, May 2013, Q-Chem Inc. Pittsburgh 
 -------------------------------------------------------
 -------------------------------------------------------
 OpenMP BLAS3 based DFT computing Module                
 Release: version 1.0, May 2013, Q-Chem Inc. Pittsburgh 
 -------------------------------------------------------
 ---------------------------------------
  Cycle       Energy        RMS Gradient
 ---------------------------------------
    1    -225.2989662723      1.67E-09 Normal BFGS step
TIMEINFO->: J/JK contribution 418.44 sec.
   GDM::WARNING energy changes are now smaller than effective accuracy.
   GDM::        calculation will continue, but THRESH should be increased
   GDM::        or SCF_CONVERGENCE decreased.
   GDM::        effective_thresh =   1.200000000000000E-010
 Nonlocal correlation =     0.0324430538
    2    -225.2989662723      5.45E-10 Convergence criterion met
 ---------------------------------------
 wB97M-V orbitals are now ready for the wB97M(2) calculation.
 wB97M(2) energy = Exch (0.62194 SRHF + 1.0 LRHF + wB97M(2)_EXCH) + 
               Corr (wB97M(2)_CORR + 0.34096 MP2 + 0.65904 VV10(b=10))
 SCF time:  CPU 1706.05 s  wall 215.35 s
 SCF   energy in the final basis set = -225.14005861
 Total energy in the final basis set = -225.14005861
 
 Components of the MP2 correlation energy:
        aaaa  correlation energy =        -0.0374449427 au
        abab  correlation energy =        -0.2553579833 au
        bbbb  correlation energy =        -0.0374449427 au
        non-Brillouin singles    =        -0.0000000000 au

 Total  MP2   correlation energy =                    -0.33024787 au
        MP2         total energy =                  -225.47030648 au
 
 --------------------------------------------------------------
 
                    Orbital Energies (a.u.)
 --------------------------------------------------------------
 
 Alpha MOs
 -- Occupied --
-24.929 -24.929  -7.008  -1.387  -1.358  -0.712  -0.659  -0.639
 -0.619  -0.562  -0.547  -0.489
 -- Virtual --
  0.017   0.024   0.029   0.030   0.072   0.075   0.101   0.104
  0.115   0.118   0.124   0.130   0.144   0.188   0.190   0.202
  0.219   0.231   0.235   0.243   0.246   0.275   0.284   0.294
  0.337   0.359   0.385   0.392   0.419   0.454   0.460   0.461
  0.476   0.486   0.505   0.523   0.551   0.552   0.556   0.659
  0.665   0.673   0.675   0.703   0.715   0.722   0.753   0.757
  0.767   0.779   0.796   0.837   0.864   0.871   0.874   0.881
  0.919   0.935   1.004   1.015   1.058   1.089   1.103   1.107
  1.143   1.153   1.189   1.268   1.329   1.347   1.357   1.370
  1.390   1.404   1.407   1.422   1.434   1.451   1.462   1.493
  1.526   1.600   1.680   1.686   1.693   1.715   1.766   1.794
  1.812   1.822   1.885   1.888   1.913   1.947   1.989   2.012
  2.056   2.069   2.080   2.136   2.153   2.159   2.217   2.223
  2.224   2.262   2.270   2.294   2.302   2.328   2.353   2.466
  2.483   2.518   2.561   2.575   2.620   2.707   2.737   2.769
  2.790   2.808   2.838   2.844   2.939   2.948   3.133   3.150
  3.153   3.269   3.273   3.341   3.474   3.478   3.478   3.668
  3.752   3.784   3.810   3.818   3.847   3.881   3.898   3.906
  3.944   3.978   4.025   4.052   4.140   4.238   4.320   4.385
  4.389   4.488   4.573   4.578   4.592   4.604   4.755   4.790
  4.798   4.854   4.880   5.003   5.006   5.055   5.067   5.206
  5.227   5.273   5.333   5.365   5.403   5.405   5.431   5.461
  5.513   5.516   5.542   5.561   5.565   5.616   5.685   5.689
  5.734   5.749   5.835   5.849   5.953   6.018   6.049   6.130
  6.162   6.235   6.298   6.413   6.436   6.493   6.501   6.629
  6.698   6.881   6.977   6.995   7.075   7.080   7.202   7.279
  7.369   7.448   7.643   7.809   8.033   8.083   8.272   8.632
  8.714   8.785   8.929   8.933   9.365   9.547   9.681  10.987
 11.818  11.930  12.319  12.433  12.749  13.044  13.054  13.255
 13.257  13.259  13.260  13.404  13.410  13.484  13.500  13.567
 13.572  13.646  13.648  13.669  13.674  13.689  13.721  13.810
 13.908  14.069  14.222  15.406  15.414  15.448  15.453  15.560
 15.669  15.712  15.738  15.828  15.913  16.107  16.197  16.326
 16.352  16.443  16.517  16.542  16.629  16.794  16.794  16.921
 17.154  17.311  17.332  19.527  19.707  20.244  20.547  20.590
 22.148  22.356  25.573  41.101  41.118  41.455  41.527  42.143
 42.223  44.446  45.742  45.835  59.595  59.620  59.666  59.705
 59.797  59.799  59.883  60.000  60.112  60.152  75.365  75.365
 75.370  75.371  75.372  75.404  75.426  79.461  79.541  83.770
 85.614  85.693  86.147  86.292  86.343  97.236  97.237  97.243
 97.245  97.262  97.278  97.287  97.292  97.317  97.326  97.356
 97.356  97.411  97.421 144.527 144.552 144.811 144.862 145.358
145.427 152.205 153.275 153.345 250.232 250.248 250.272 250.295
250.342 250.345 250.393 250.454 250.511 250.534 270.127 270.177
352.599 494.080 494.106 494.309 494.350 494.750 494.8061121.902
*******
 --------------------------------------------------------------
 
          Ground-State Mulliken Net Atomic Charges

     Atom                 Charge (a.u.)
  ----------------------------------------
      1 B                     1.113926
      2 H                    -0.131338
      3 F                    -0.491294
      4 F                    -0.491294
  ----------------------------------------
  Sum of atomic charges =    -0.000000

 -----------------------------------------------------------------
                    Cartesian Multipole Moments
 -----------------------------------------------------------------
    Charge (ESU x 10^10)
                -0.0000
    Dipole Moment (Debye)
         X      -0.0000      Y      -0.0000      Z       0.8751
       Tot       0.8751
    Quadrupole Moments (Debye-Ang)
        XX     -14.6747     XY       0.0000     YY     -18.5196
        XZ       0.0000     YZ       0.0000     ZZ     -16.1219
    Octopole Moments (Debye-Ang^2)
       XXX      -0.0000    XXY       0.0000    XYY      -0.0000
       YYY       0.0000    XXZ      -1.4902    XYZ      -0.0000
       YYZ      -1.3311    XZZ      -0.0000    YZZ       0.0000
       ZZZ      -5.8045
    Hexadecapole Moments (Debye-Ang^3)
      XXXX     -11.8217   XXXY       0.0000   XXYY     -16.9370
      XYYY       0.0000   YYYY     -91.7229   XXXZ       0.0000
      XXYZ      -0.0000   XYYZ      -0.0000   YYYZ       0.0000
      XXZZ      -8.7724   XYZZ       0.0000   YYZZ     -21.3415
      XZZZ       0.0000   YZZZ      -0.0000   ZZZZ     -39.8912
 -----------------------------------------------------------------
Archival summary:
1\1\n0051.mhg0\SP\ProcedureUnspecified\BasisUnspecified\211\yhljason\TueOct2706:56:472020TueOct2706:56:472020\0\\#,ProcedureUnspecified,BasisUnspecified,\\0,1\F\B,1,1.31101\H,2,1.189,1,120.851\F,2,1.31101,1,118.297,3,-180,0\\\@

 Total job time:  1488.70s(wall), 11779.25s(cpu) 
 Tue Oct 27 06:56:47 2020

        *************************************************************
        *                                                           *
        *  Thank you very much for using Q-Chem.  Have a nice day.  *
        *                                                           *
        *************************************************************


 
User input: 3 of 8 
 
Q-Chem Developer Version!
                  Welcome to Q-Chem
     A Quantum Leap Into The Future Of Chemistry


 Q-Chem 5.1, Q-Chem, Inc., Pleasanton, CA (2018)

 Yihan Shao,  Zhengting Gan,  E. Epifanovsky,  A. T. B. Gilbert,  M. Wormit,  
 J. Kussmann,  A. W. Lange,  A. Behn,  Jia Deng,  Xintian Feng,  D. Ghosh,  
 M. Goldey,  P. R. Horn,  L. D. Jacobson,  I. Kaliman,  T. Kus,  A. Landau,  
 Jie Liu,  E. I. Proynov,  R. M. Richard,  R. P. Steele,  E. J. Sundstrom,  
 H. L. Woodcock III,  P. M. Zimmerman,  D. Zuev,  B. Albrecht,  E. Alguire,  
 S. A. Baeppler,  D. Barton,  Z. Benda,  Y. A. Bernard,  E. J. Berquist,  
 K. B. Bravaya,  H. Burton,  D. Casanova,  Chun-Min Chang,  Yunqing Chen,  
 A. Chien,  K. D. Closser,  M. P. Coons,  S. Coriani,  S. Dasgupta,  
 A. L. Dempwolff,  M. Diedenhofen,  Hainam Do,  R. G. Edgar,  Po-Tung Fang,  
 S. Faraji,  S. Fatehi,  Qingguo Feng,  K. D. Fenk,  J. Fosso-Tande,  
 Qinghui Ge,  A. Ghysels,  G. Gidofalvi,  J. Gomes,  J. Gonthier,  A. Gunina,  
 D. Hait,  M. W. D. Hanson-Heine,  P. H. P. Harbach,  A. W. Hauser,  
 J. E. Herr,  E. G. Hohenstein,  Z. C. Holden,  Kerwin Hui,  B. C. Huynh,  
 T.-C. Jagau,  Hyunjun Ji,  B. Kaduk,  K. Khistyaev,  Jaehoon Kim,  
 P. Klunzinger,  K. Koh,  D. Kosenkov,  L. Koulias,  T. Kowalczyk,  
 C. M. Krauter,  A. Kunitsa,  Ka Un Lao,  A. Laurent,  K. V. Lawler,  
 Joonho Lee,  D. Lefrancois,  S. Lehtola,  D. S. Levine,  Yi-Pei Li,  
 You-Sheng Lin,  Fenglai Liu,  E. Livshits,  A. Luenser,  P. Manohar,  
 E. Mansoor,  S. F. Manzer,  Shan-Ping Mao,  Yuezhi Mao,  N. Mardirossian,  
 A. V. Marenich,  T. Markovich,  L. A. Martinez-Martinez,  S. A. Maurer,  
 N. J. Mayhall,  S. C. McKenzie,  J.-M. Mewes,  A. F. Morrison,  
 J. W. Mullinax,  K. Nanda,  T. S. Nguyen-Beck,  R. Olivares-Amaya,  
 J. A. Parkhill,  T. M. Perrine,  F. Plasser,  P. Pokhilko,  S. Prager,  
 A. Prociuk,  E. Ramos,  D. R. Rehn,  F. Rob,  M. Schneider,  N. Sergueev,  
 S. M. Sharada,  S. Sharma,  D. W. Small,  T. Stauch,  T. Stein,  
 Yu-Chuan Su,  A. J. W. Thom,  A. Tkatchenko,  T. Tsuchimochi,  N. M. Tubman,  
 L. Vogt,  M. L. Vidal,  O. Vydrov,  M. A. Watson,  J. Wenzel,  
 M. de Wergifosse,  T. A. Wesolowski,  A. White,  J. Witte,  A. Yamada,  
 Jun Yang,  K. Yao,  S. Yeganeh,  S. R. Yost,  Zhi-Qiang You,  A. Zech,  
 Igor Ying Zhang,  Xing Zhang,  Yan Zhao,  Ying Zhu,  B. R. Brooks,  
 G. K. L. Chan,  C. J. Cramer,  M. S. Gordon,  W. J. Hehre,  A. Klamt,  
 M. W. Schmidt,  C. D. Sherrill,  D. G. Truhlar,  A. Aspuru-Guzik,  R. Baer,  
 A. T. Bell,  N. A. Besley,  Jeng-Da Chai,  A. E. DePrince, III,  
 R. A. DiStasio Jr.,  A. Dreuw,  B. D. Dunietz,  T. R. Furlani,  
 Chao-Ping Hsu,  Yousung Jung,  Jing Kong,  D. S. Lambrecht,  WanZhen Liang,  
 C. Ochsenfeld,  V. A. Rassolov,  L. V. Slipchenko,  J. E. Subotnik,  
 T. Van Voorhis,  J. M. Herbert,  A. I. Krylov,  P. M. W. Gill,  M. Head-Gordon

 Contributors to earlier versions of Q-Chem not listed above: 
 R. D. Adamson,  B. Austin,  J. Baker,  G. J. O. Beran,  K. Brandhorst,  
 S. T. Brown,  E. F. C. Byrd,  A. K. Chakraborty,  C.-L. Cheng,  
 Siu Hung Chien,  D. M. Chipman,  D. L. Crittenden,  H. Dachsel,  
 R. J. Doerksen,  A. D. Dutoi,  L. Fusti-Molnar,  W. A. Goddard III,  
 A. Golubeva-Zadorozhnaya,  S. R. Gwaltney,  G. Hawkins,  A. Heyden,  
 S. Hirata,  G. Kedziora,  F. J. Keil,  C. Kelley,  Jihan Kim,  R. A. King,  
 R. Z. Khaliullin,  P. P. Korambath,  W. Kurlancheek,  A. M. Lee,  M. S. Lee,  
 S. V. Levchenko,  Ching Yeh Lin,  D. Liotard,  R. C. Lochan,  I. Lotan,  
 P. E. Maslen,  N. Nair,  D. P. O'Neill,  D. Neuhauser,  E. Neuscamman,  
 C. M. Oana,  R. Olson,  B. Peters,  R. Peverati,  P. A. Pieniazek,  
 Y. M. Rhee,  J. Ritchie,  M. A. Rohrdanz,  E. Rosta,  N. J. Russ,  
 H. F. Schaefer III,  N. E. Schultz,  N. Shenvi,  A. C. Simmonett,  A. Sodt,  
 D. Stuck,  K. S. Thanthiriwatte,  V. Vanovschi,  Tao Wang,  A. Warshel,  
 C. F. Williams,  Q. Wu,  X. Xu,  W. Zhang

 Please cite Q-Chem as follows:
 Y. Shao et al., Mol. Phys. 113, 184-215 (2015)
 DOI: 10.1080/00268976.2014.952696

 Q-Chem 5.1.1 for Intel X86 EM64T Linux

 Parts of Q-Chem use Armadillo 8.300.2 (Tropical Shenanigans).
 http://arma.sourceforge.net/

 Q-Chem begins on Tue Oct 27 06:56:48 2020  

Host: n0051.mhg0
0

     Scratch files written to /local/scratch/users/yhljason/BHF2_wB97M2_aug-cc-pcVQZ.inp20201027035722//
The previous job contains 0 fragments, simply inherited here
Input Ideriv = 0
Curr. Ideriv = -1
Max.  Ideriv = 0
Analytic post-HF gradients are not available with non-HF exchange
Input Ideriv = 0
Curr. Ideriv = 0
Max.  Ideriv = 0

Checking the input file for inconsistencies... 	...done.

--------------------------------------------------------------
User input:
--------------------------------------------------------------
$molecule
read
$end

$rem
jobtype sp
exchange wB97M(2)
xc_grid 000099000590
basis aug-cc-pcVQZ

max_scf_cycles 200
thresh 14
scf_convergence 8
mem_total 128000
cc_memory 96000
cc_backend xm
mem_static 1500
symmetry false
sym_ignore true
scf_guess read
unrestricted false
scf_algorithm gdm
n_frozen_core 0
$end



$multipole_field
XX 0.0001
$end


--------------------------------------------------------------
 ----------------------------------------------------------------
             Standard Nuclear Orientation (Angstroms)
    I     Atom           X                Y                Z
 ----------------------------------------------------------------
    1      B       0.0000000000     0.0000000000     0.4547000000
    2      H       0.0000000000     0.0000000000     1.6437000000
    3      F       0.0000000000     1.1255000000    -0.2176000000
    4      F       0.0000000000    -1.1255000000    -0.2176000000
 ----------------------------------------------------------------
 Nuclear Repulsion Energy =    61.9741374107 hartrees
 There are       12 alpha and       12 beta electrons
 Requested basis set is aug-cc-pCVQZ
 There are 101 shells and 373 basis functions

 Total QAlloc Memory Limit 128000 MB
 Mega-Array Size      1467 MB
 MEM_STATIC part      1500 MB

                       Distance Matrix (Angstroms)
             B (  1)   H (  2)   F (  3)
   H (  2)  1.189000
   F (  3)  1.311006  2.175129
   F (  4)  1.311006  2.175129  2.251000
 
 Applying Cartesian multipole field
    Component          Value
    ---------          -----
     (2,0,0)        1.00000E-04
 A cutoff of  1.0D-14 yielded   4816 shell pairs
 There are     67164 function pairs (    108498 Cartesian)
 
 -------------------------------------------------------
 OpenMP Integral Computing Module                       
 Release: version 1.0, May 2013, Q-Chem Inc. Pittsburgh 
 -------------------------------------------------------
 Integral Job Info:
 Integral job number is                      11
 Integral operator is                         1
 short-range coefficients              15000000
 long-range coefficients              100000000
 Omega coefficients                         300
 if combine SR and LR in K                    1
 Integral screening is                        0
 Integral computing path is                   2
 max size of driver memory is           3200000
 size of driver memory is               1704330
 size of scratch memory is             18852824
 max col of scratch BK array              50625
 max len of scratch array in speh3         2114
 max len of scratch index in speh4           50
 max int batch size is                      520
 min int batch size is                       52
 fixed nKL is                                52
 max L of basis functions is                  4
 order of int derivative is                   0
 number of shells is                        101
 number of basis is                         472
 number of cartesian basis is               472
 number of contracted shell pairs          4816
 number of primitive shell pairs          10031
 maxK2 (contraction) of shell pair           81
 max number of K2 of shell pair               1
 max number of CS2 of shell pair            594
 max number of PS2 of shell pair           1035
 mem total for path MDJ                  855280
 -------------------------------------------------------
 Smallest overlap matrix eigenvalue = 3.60E-05
 Guess MOs from SCF MO coefficient file
 Reading MOs from coefficient file
 Reading MOs from coefficient file
 Long-range K will be added via erf
 Coulomb attenuation parameter = 0.3 bohr**(-1)
 A restricted hybrid HF-DFT SCF calculation will be
 performed using Geometric Direct Minimization
 Exchange:     0.1500 Hartree-Fock + 1.0000 wB97M-V + LR-HF
 Correlation:  1.0000 wB97M-V
 Using Euler-Maclaurin-Lebedev (99,590) quadrature formula
 Nonlocal Correlation:  VV10 with C = 0.0100 and b = 6.00 and scale = 1.00000
 Grid used for NLC:  SG-1 standard quadrature
 SCF converges when RMS gradient is below 1.0E-08
Using Q-Chem read-in guess as SCF_GUESS READ specified.

 using 8 threads for integral computing
 -------------------------------------------------------
 OpenMP Integral computing Module                
 Release: version 1.0, May 2013, Q-Chem Inc. Pittsburgh 
 -------------------------------------------------------
 using 8 threads for integral computing
 -------------------------------------------------------
 OpenMP Integral computing Module                
 Release: version 1.0, May 2013, Q-Chem Inc. Pittsburgh 
 -------------------------------------------------------
TIMEINFO->: J/JK contribution 415.23 sec.
 -------------------------------------------------------
 OpenMP BLAS3 based DFT computing Module                
 Release: version 1.0, May 2013, Q-Chem Inc. Pittsburgh 
 -------------------------------------------------------
 -------------------------------------------------------
 OpenMP BLAS3 based DFT computing Module                
 Release: version 1.0, May 2013, Q-Chem Inc. Pittsburgh 
 -------------------------------------------------------
 -------------------------------------------------------
 OpenMP BLAS3 based DFT computing Module                
 Release: version 1.0, May 2013, Q-Chem Inc. Pittsburgh 
 -------------------------------------------------------
 ---------------------------------------
  Cycle       Energy        RMS Gradient
 ---------------------------------------
    1    -225.3000573008      1.48E-04 Normal BFGS step
TIMEINFO->: J/JK contribution 412.45 sec.
    2    -225.3000575278      4.11E-05 Normal BFGS step
TIMEINFO->: J/JK contribution 378.42 sec.
    3    -225.3000575501      3.16E-05 Normal BFGS step
TIMEINFO->: J/JK contribution 371.09 sec.
    4    -225.3000575609      2.77E-06 Normal BFGS step
TIMEINFO->: J/JK contribution 368.97 sec.
    5    -225.3000575610      1.03E-06 Normal BFGS step
TIMEINFO->: J/JK contribution 349.09 sec.
    6    -225.3000575610      2.89E-07 Normal BFGS step
TIMEINFO->: J/JK contribution 329.82 sec.
    7    -225.3000575610      4.89E-08 Normal BFGS step
TIMEINFO->: J/JK contribution 308.84 sec.
 Nonlocal correlation =     0.0324427260
    8    -225.3000575610      4.78E-09 Convergence criterion met
 ---------------------------------------
 wB97M-V orbitals are now ready for the wB97M(2) calculation.
 wB97M(2) energy = Exch (0.62194 SRHF + 1.0 LRHF + wB97M(2)_EXCH) + 
               Corr (wB97M(2)_CORR + 0.34096 MP2 + 0.65904 VV10(b=10))
 SCF time:  CPU 4134.81 s  wall 523.01 s
 SCF   energy in the final basis set = -225.14112654
 Total energy in the final basis set = -225.14112654
 
 Components of the MP2 correlation energy:
        aaaa  correlation energy =        -0.0374478864 au
        abab  correlation energy =        -0.2553682464 au
        bbbb  correlation energy =        -0.0374478864 au
        non-Brillouin singles    =        -0.0000000000 au

 Total  MP2   correlation energy =                    -0.33026402 au
        MP2         total energy =                  -225.47139056 au
 
 --------------------------------------------------------------
 
                    Orbital Energies (a.u.)
 --------------------------------------------------------------
 
 Alpha MOs
 -- Occupied --
-24.929 -24.929  -7.008  -1.387  -1.359  -0.712  -0.659  -0.639
 -0.619  -0.562  -0.548  -0.489
 -- Virtual --
  0.015   0.020   0.027   0.028   0.070   0.073   0.100   0.103
  0.113   0.116   0.122   0.129   0.143   0.185   0.189   0.201
  0.218   0.229   0.234   0.241   0.245   0.274   0.283   0.293
  0.336   0.359   0.384   0.391   0.418   0.454   0.459   0.461
  0.475   0.485   0.504   0.522   0.550   0.552   0.555   0.658
  0.664   0.672   0.675   0.702   0.714   0.721   0.752   0.756
  0.767   0.779   0.795   0.836   0.863   0.871   0.873   0.881
  0.919   0.935   1.004   1.014   1.057   1.088   1.103   1.107
  1.142   1.153   1.189   1.267   1.329   1.346   1.357   1.370
  1.390   1.404   1.406   1.422   1.434   1.451   1.462   1.492
  1.525   1.599   1.679   1.686   1.693   1.715   1.766   1.794
  1.812   1.822   1.884   1.887   1.912   1.947   1.989   2.011
  2.056   2.069   2.080   2.136   2.153   2.158   2.217   2.223
  2.223   2.262   2.270   2.293   2.302   2.327   2.353   2.466
  2.483   2.518   2.560   2.575   2.620   2.706   2.737   2.768
  2.790   2.808   2.837   2.844   2.939   2.948   3.133   3.150
  3.153   3.269   3.273   3.341   3.474   3.477   3.477   3.667
  3.752   3.784   3.810   3.817   3.847   3.881   3.898   3.905
  3.944   3.978   4.025   4.051   4.140   4.237   4.320   4.385
  4.389   4.488   4.573   4.578   4.592   4.603   4.755   4.789
  4.798   4.853   4.880   5.002   5.006   5.055   5.066   5.205
  5.227   5.273   5.332   5.365   5.403   5.405   5.431   5.461
  5.513   5.516   5.542   5.561   5.565   5.616   5.685   5.689
  5.734   5.749   5.835   5.849   5.953   6.018   6.048   6.130
  6.162   6.235   6.298   6.413   6.435   6.493   6.501   6.629
  6.697   6.880   6.977   6.995   7.074   7.080   7.202   7.279
  7.369   7.448   7.643   7.809   8.033   8.083   8.272   8.632
  8.713   8.785   8.929   8.933   9.365   9.546   9.681  10.987
 11.818  11.930  12.319  12.433  12.749  13.044  13.054  13.255
 13.257  13.258  13.260  13.404  13.410  13.483  13.500  13.567
 13.572  13.645  13.648  13.669  13.673  13.689  13.721  13.809
 13.908  14.069  14.222  15.406  15.414  15.448  15.453  15.559
 15.669  15.712  15.738  15.828  15.912  16.107  16.197  16.326
 16.352  16.443  16.516  16.542  16.629  16.794  16.794  16.921
 17.154  17.311  17.331  19.527  19.707  20.244  20.547  20.590
 22.148  22.355  25.573  41.100  41.118  41.455  41.527  42.142
 42.222  44.446  45.742  45.835  59.595  59.620  59.665  59.705
 59.797  59.799  59.883  60.000  60.112  60.151  75.365  75.365
 75.370  75.371  75.372  75.404  75.426  79.461  79.541  83.770
 85.614  85.693  86.147  86.292  86.343  97.236  97.237  97.243
 97.245  97.262  97.278  97.287  97.291  97.316  97.326  97.356
 97.356  97.411  97.421 144.527 144.552 144.811 144.862 145.358
145.427 152.205 153.274 153.345 250.232 250.248 250.272 250.295
250.342 250.344 250.392 250.454 250.511 250.534 270.127 270.177
352.599 494.080 494.105 494.309 494.350 494.750 494.8061121.901
*******
 --------------------------------------------------------------
 
          Ground-State Mulliken Net Atomic Charges

     Atom                 Charge (a.u.)
  ----------------------------------------
      1 B                     1.111032
      2 H                    -0.129523
      3 F                    -0.490754
      4 F                    -0.490754
  ----------------------------------------
  Sum of atomic charges =    -0.000000

 -----------------------------------------------------------------
                    Cartesian Multipole Moments
 -----------------------------------------------------------------
    Charge (ESU x 10^10)
                -0.0000
    Dipole Moment (Debye)
         X      -0.0000      Y      -0.0000      Z       0.8751
       Tot       0.8751
    Quadrupole Moments (Debye-Ang)
        XX     -14.6817     XY       0.0000     YY     -18.5201
        XZ       0.0000     YZ       0.0000     ZZ     -16.1225
    Octopole Moments (Debye-Ang^2)
       XXX      -0.0000    XXY       0.0000    XYY      -0.0000
       YYY      -0.0000    XXZ      -1.4932    XYZ       0.0000
       YYZ      -1.3320    XZZ      -0.0000    YZZ      -0.0000
       ZZZ      -5.8047
    Hexadecapole Moments (Debye-Ang^3)
      XXXX     -11.8456   XXXY       0.0000   XXYY     -16.9453
      XYYY       0.0000   YYYY     -91.7291   XXXZ       0.0000
      XXYZ      -0.0000   XYYZ      -0.0000   YYYZ       0.0000
      XXZZ      -8.7813   XYZZ       0.0000   YYZZ     -21.3442
      XZZZ       0.0000   YZZZ       0.0000   ZZZZ     -39.8974
 -----------------------------------------------------------------
Archival summary:
1\1\n0051.mhg0\SP\ProcedureUnspecified\BasisUnspecified\211\yhljason\TueOct2707:26:432020TueOct2707:26:432020\0\\#,ProcedureUnspecified,BasisUnspecified,\\0,1\F\B,1,1.31101\H,2,1.189,1,120.851\F,2,1.31101,1,118.297,3,-180,0\\\@

 Total job time:  1795.68s(wall), 14203.29s(cpu) 
 Tue Oct 27 07:26:43 2020

        *************************************************************
        *                                                           *
        *  Thank you very much for using Q-Chem.  Have a nice day.  *
        *                                                           *
        *************************************************************


 
User input: 4 of 8 
 
Q-Chem Developer Version!
                  Welcome to Q-Chem
     A Quantum Leap Into The Future Of Chemistry


 Q-Chem 5.1, Q-Chem, Inc., Pleasanton, CA (2018)

 Yihan Shao,  Zhengting Gan,  E. Epifanovsky,  A. T. B. Gilbert,  M. Wormit,  
 J. Kussmann,  A. W. Lange,  A. Behn,  Jia Deng,  Xintian Feng,  D. Ghosh,  
 M. Goldey,  P. R. Horn,  L. D. Jacobson,  I. Kaliman,  T. Kus,  A. Landau,  
 Jie Liu,  E. I. Proynov,  R. M. Richard,  R. P. Steele,  E. J. Sundstrom,  
 H. L. Woodcock III,  P. M. Zimmerman,  D. Zuev,  B. Albrecht,  E. Alguire,  
 S. A. Baeppler,  D. Barton,  Z. Benda,  Y. A. Bernard,  E. J. Berquist,  
 K. B. Bravaya,  H. Burton,  D. Casanova,  Chun-Min Chang,  Yunqing Chen,  
 A. Chien,  K. D. Closser,  M. P. Coons,  S. Coriani,  S. Dasgupta,  
 A. L. Dempwolff,  M. Diedenhofen,  Hainam Do,  R. G. Edgar,  Po-Tung Fang,  
 S. Faraji,  S. Fatehi,  Qingguo Feng,  K. D. Fenk,  J. Fosso-Tande,  
 Qinghui Ge,  A. Ghysels,  G. Gidofalvi,  J. Gomes,  J. Gonthier,  A. Gunina,  
 D. Hait,  M. W. D. Hanson-Heine,  P. H. P. Harbach,  A. W. Hauser,  
 J. E. Herr,  E. G. Hohenstein,  Z. C. Holden,  Kerwin Hui,  B. C. Huynh,  
 T.-C. Jagau,  Hyunjun Ji,  B. Kaduk,  K. Khistyaev,  Jaehoon Kim,  
 P. Klunzinger,  K. Koh,  D. Kosenkov,  L. Koulias,  T. Kowalczyk,  
 C. M. Krauter,  A. Kunitsa,  Ka Un Lao,  A. Laurent,  K. V. Lawler,  
 Joonho Lee,  D. Lefrancois,  S. Lehtola,  D. S. Levine,  Yi-Pei Li,  
 You-Sheng Lin,  Fenglai Liu,  E. Livshits,  A. Luenser,  P. Manohar,  
 E. Mansoor,  S. F. Manzer,  Shan-Ping Mao,  Yuezhi Mao,  N. Mardirossian,  
 A. V. Marenich,  T. Markovich,  L. A. Martinez-Martinez,  S. A. Maurer,  
 N. J. Mayhall,  S. C. McKenzie,  J.-M. Mewes,  A. F. Morrison,  
 J. W. Mullinax,  K. Nanda,  T. S. Nguyen-Beck,  R. Olivares-Amaya,  
 J. A. Parkhill,  T. M. Perrine,  F. Plasser,  P. Pokhilko,  S. Prager,  
 A. Prociuk,  E. Ramos,  D. R. Rehn,  F. Rob,  M. Schneider,  N. Sergueev,  
 S. M. Sharada,  S. Sharma,  D. W. Small,  T. Stauch,  T. Stein,  
 Yu-Chuan Su,  A. J. W. Thom,  A. Tkatchenko,  T. Tsuchimochi,  N. M. Tubman,  
 L. Vogt,  M. L. Vidal,  O. Vydrov,  M. A. Watson,  J. Wenzel,  
 M. de Wergifosse,  T. A. Wesolowski,  A. White,  J. Witte,  A. Yamada,  
 Jun Yang,  K. Yao,  S. Yeganeh,  S. R. Yost,  Zhi-Qiang You,  A. Zech,  
 Igor Ying Zhang,  Xing Zhang,  Yan Zhao,  Ying Zhu,  B. R. Brooks,  
 G. K. L. Chan,  C. J. Cramer,  M. S. Gordon,  W. J. Hehre,  A. Klamt,  
 M. W. Schmidt,  C. D. Sherrill,  D. G. Truhlar,  A. Aspuru-Guzik,  R. Baer,  
 A. T. Bell,  N. A. Besley,  Jeng-Da Chai,  A. E. DePrince, III,  
 R. A. DiStasio Jr.,  A. Dreuw,  B. D. Dunietz,  T. R. Furlani,  
 Chao-Ping Hsu,  Yousung Jung,  Jing Kong,  D. S. Lambrecht,  WanZhen Liang,  
 C. Ochsenfeld,  V. A. Rassolov,  L. V. Slipchenko,  J. E. Subotnik,  
 T. Van Voorhis,  J. M. Herbert,  A. I. Krylov,  P. M. W. Gill,  M. Head-Gordon

 Contributors to earlier versions of Q-Chem not listed above: 
 R. D. Adamson,  B. Austin,  J. Baker,  G. J. O. Beran,  K. Brandhorst,  
 S. T. Brown,  E. F. C. Byrd,  A. K. Chakraborty,  C.-L. Cheng,  
 Siu Hung Chien,  D. M. Chipman,  D. L. Crittenden,  H. Dachsel,  
 R. J. Doerksen,  A. D. Dutoi,  L. Fusti-Molnar,  W. A. Goddard III,  
 A. Golubeva-Zadorozhnaya,  S. R. Gwaltney,  G. Hawkins,  A. Heyden,  
 S. Hirata,  G. Kedziora,  F. J. Keil,  C. Kelley,  Jihan Kim,  R. A. King,  
 R. Z. Khaliullin,  P. P. Korambath,  W. Kurlancheek,  A. M. Lee,  M. S. Lee,  
 S. V. Levchenko,  Ching Yeh Lin,  D. Liotard,  R. C. Lochan,  I. Lotan,  
 P. E. Maslen,  N. Nair,  D. P. O'Neill,  D. Neuhauser,  E. Neuscamman,  
 C. M. Oana,  R. Olson,  B. Peters,  R. Peverati,  P. A. Pieniazek,  
 Y. M. Rhee,  J. Ritchie,  M. A. Rohrdanz,  E. Rosta,  N. J. Russ,  
 H. F. Schaefer III,  N. E. Schultz,  N. Shenvi,  A. C. Simmonett,  A. Sodt,  
 D. Stuck,  K. S. Thanthiriwatte,  V. Vanovschi,  Tao Wang,  A. Warshel,  
 C. F. Williams,  Q. Wu,  X. Xu,  W. Zhang

 Please cite Q-Chem as follows:
 Y. Shao et al., Mol. Phys. 113, 184-215 (2015)
 DOI: 10.1080/00268976.2014.952696

 Q-Chem 5.1.1 for Intel X86 EM64T Linux

 Parts of Q-Chem use Armadillo 8.300.2 (Tropical Shenanigans).
 http://arma.sourceforge.net/

 Q-Chem begins on Tue Oct 27 07:26:44 2020  

Host: n0051.mhg0
0

     Scratch files written to /local/scratch/users/yhljason/BHF2_wB97M2_aug-cc-pcVQZ.inp20201027035722//
The previous job contains 0 fragments, simply inherited here
Input Ideriv = 0
Curr. Ideriv = -1
Max.  Ideriv = 0
Analytic post-HF gradients are not available with non-HF exchange
Input Ideriv = 0
Curr. Ideriv = 0
Max.  Ideriv = 0

Checking the input file for inconsistencies... 	...done.

--------------------------------------------------------------
User input:
--------------------------------------------------------------
$molecule
read
$end

$rem
jobtype sp
exchange wB97M(2)
xc_grid 000099000590
basis aug-cc-pcVQZ

max_scf_cycles 200
thresh 14
scf_convergence 8
mem_total 128000
cc_memory 96000
cc_backend xm
mem_static 1500
symmetry false
sym_ignore true
scf_guess read
unrestricted false
scf_algorithm gdm
n_frozen_core 0
$end



$multipole_field
XX -0.0001
$end


--------------------------------------------------------------
 ----------------------------------------------------------------
             Standard Nuclear Orientation (Angstroms)
    I     Atom           X                Y                Z
 ----------------------------------------------------------------
    1      B       0.0000000000     0.0000000000     0.4547000000
    2      H       0.0000000000     0.0000000000     1.6437000000
    3      F       0.0000000000     1.1255000000    -0.2176000000
    4      F       0.0000000000    -1.1255000000    -0.2176000000
 ----------------------------------------------------------------
 Nuclear Repulsion Energy =    61.9741374107 hartrees
 There are       12 alpha and       12 beta electrons
 Requested basis set is aug-cc-pCVQZ
 There are 101 shells and 373 basis functions

 Total QAlloc Memory Limit 128000 MB
 Mega-Array Size      1467 MB
 MEM_STATIC part      1500 MB

                       Distance Matrix (Angstroms)
             B (  1)   H (  2)   F (  3)
   H (  2)  1.189000
   F (  3)  1.311006  2.175129
   F (  4)  1.311006  2.175129  2.251000
 
 Applying Cartesian multipole field
    Component          Value
    ---------          -----
     (2,0,0)       -1.00000E-04
 A cutoff of  1.0D-14 yielded   4816 shell pairs
 There are     67164 function pairs (    108498 Cartesian)
 
 -------------------------------------------------------
 OpenMP Integral Computing Module                       
 Release: version 1.0, May 2013, Q-Chem Inc. Pittsburgh 
 -------------------------------------------------------
 Integral Job Info:
 Integral job number is                      11
 Integral operator is                         1
 short-range coefficients              15000000
 long-range coefficients              100000000
 Omega coefficients                         300
 if combine SR and LR in K                    1
 Integral screening is                        0
 Integral computing path is                   2
 max size of driver memory is           3200000
 size of driver memory is               1704330
 size of scratch memory is             18852824
 max col of scratch BK array              50625
 max len of scratch array in speh3         2114
 max len of scratch index in speh4           50
 max int batch size is                      520
 min int batch size is                       52
 fixed nKL is                                52
 max L of basis functions is                  4
 order of int derivative is                   0
 number of shells is                        101
 number of basis is                         472
 number of cartesian basis is               472
 number of contracted shell pairs          4816
 number of primitive shell pairs          10031
 maxK2 (contraction) of shell pair           81
 max number of K2 of shell pair               1
 max number of CS2 of shell pair            594
 max number of PS2 of shell pair           1035
 mem total for path MDJ                  855280
 -------------------------------------------------------
 Smallest overlap matrix eigenvalue = 3.60E-05
 Guess MOs from SCF MO coefficient file
 Reading MOs from coefficient file
 Reading MOs from coefficient file
 Long-range K will be added via erf
 Coulomb attenuation parameter = 0.3 bohr**(-1)
 A restricted hybrid HF-DFT SCF calculation will be
 performed using Geometric Direct Minimization
 Exchange:     0.1500 Hartree-Fock + 1.0000 wB97M-V + LR-HF
 Correlation:  1.0000 wB97M-V
 Using Euler-Maclaurin-Lebedev (99,590) quadrature formula
 Nonlocal Correlation:  VV10 with C = 0.0100 and b = 6.00 and scale = 1.00000
 Grid used for NLC:  SG-1 standard quadrature
 SCF converges when RMS gradient is below 1.0E-08
Using Q-Chem read-in guess as SCF_GUESS READ specified.

 using 8 threads for integral computing
 -------------------------------------------------------
 OpenMP Integral computing Module                
 Release: version 1.0, May 2013, Q-Chem Inc. Pittsburgh 
 -------------------------------------------------------
 using 8 threads for integral computing
 -------------------------------------------------------
 OpenMP Integral computing Module                
 Release: version 1.0, May 2013, Q-Chem Inc. Pittsburgh 
 -------------------------------------------------------
TIMEINFO->: J/JK contribution 415.84 sec.
 -------------------------------------------------------
 OpenMP BLAS3 based DFT computing Module                
 Release: version 1.0, May 2013, Q-Chem Inc. Pittsburgh 
 -------------------------------------------------------
 -------------------------------------------------------
 OpenMP BLAS3 based DFT computing Module                
 Release: version 1.0, May 2013, Q-Chem Inc. Pittsburgh 
 -------------------------------------------------------
 -------------------------------------------------------
 OpenMP BLAS3 based DFT computing Module                
 Release: version 1.0, May 2013, Q-Chem Inc. Pittsburgh 
 -------------------------------------------------------
 ---------------------------------------
  Cycle       Energy        RMS Gradient
 ---------------------------------------
    1    -225.2978744621      3.13E-04 Normal BFGS step
TIMEINFO->: J/JK contribution 414.00 sec.
    2    -225.2978753711      8.22E-05 Normal BFGS step
TIMEINFO->: J/JK contribution 385.16 sec.
    3    -225.2978754596      6.30E-05 Normal BFGS step
TIMEINFO->: J/JK contribution 375.03 sec.
    4    -225.2978755029      5.53E-06 Normal BFGS step
TIMEINFO->: J/JK contribution 367.51 sec.
    5    -225.2978755033      2.02E-06 Normal BFGS step
TIMEINFO->: J/JK contribution 351.60 sec.
    6    -225.2978755034      5.72E-07 Normal BFGS step
TIMEINFO->: J/JK contribution 327.22 sec.
    7    -225.2978755034      9.83E-08 Normal BFGS step
TIMEINFO->: J/JK contribution 314.91 sec.
   GDM::WARNING energy changes are now smaller than effective accuracy.
   GDM::        calculation will continue, but THRESH should be increased
   GDM::        or SCF_CONVERGENCE decreased.
   GDM::        effective_thresh =   1.200000000000000E-010
 Nonlocal correlation =     0.0324433806
    8    -225.2978755034      9.66E-09 Convergence criterion met
 ---------------------------------------
 wB97M-V orbitals are now ready for the wB97M(2) calculation.
 wB97M(2) energy = Exch (0.62194 SRHF + 1.0 LRHF + wB97M(2)_EXCH) + 
               Corr (wB97M(2)_CORR + 0.34096 MP2 + 0.65904 VV10(b=10))
 SCF time:  CPU 4145.77 s  wall 525.34 s
 SCF   energy in the final basis set = -225.13899112
 Total energy in the final basis set = -225.13899112
 
 Components of the MP2 correlation energy:
        aaaa  correlation energy =        -0.0374420082 au
        abab  correlation energy =        -0.2553477497 au
        bbbb  correlation energy =        -0.0374420082 au
        non-Brillouin singles    =        -0.0000000000 au

 Total  MP2   correlation energy =                    -0.33023177 au
        MP2         total energy =                  -225.46922288 au
 
 --------------------------------------------------------------
 
                    Orbital Energies (a.u.)
 --------------------------------------------------------------
 
 Alpha MOs
 -- Occupied --
-24.928 -24.928  -7.008  -1.387  -1.358  -0.712  -0.659  -0.639
 -0.619  -0.562  -0.547  -0.488
 -- Virtual --
  0.019   0.028   0.031   0.032   0.074   0.077   0.102   0.106
  0.117   0.120   0.126   0.132   0.145   0.190   0.191   0.202
  0.221   0.233   0.236   0.245   0.247   0.276   0.285   0.295
  0.339   0.360   0.386   0.393   0.420   0.455   0.461   0.462
  0.477   0.486   0.507   0.524   0.552   0.553   0.557   0.659
  0.665   0.674   0.675   0.703   0.716   0.723   0.754   0.758
  0.768   0.780   0.796   0.837   0.864   0.872   0.875   0.881
  0.920   0.936   1.005   1.015   1.058   1.090   1.104   1.108
  1.144   1.154   1.189   1.268   1.330   1.347   1.358   1.371
  1.391   1.405   1.407   1.423   1.434   1.452   1.462   1.493
  1.526   1.600   1.680   1.687   1.693   1.716   1.767   1.794
  1.812   1.822   1.885   1.888   1.913   1.948   1.990   2.012
  2.056   2.070   2.081   2.137   2.154   2.159   2.217   2.223
  2.224   2.263   2.270   2.294   2.303   2.328   2.353   2.467
  2.483   2.518   2.561   2.576   2.620   2.707   2.737   2.769
  2.791   2.809   2.838   2.844   2.940   2.949   3.133   3.150
  3.154   3.270   3.274   3.341   3.475   3.478   3.478   3.668
  3.752   3.784   3.811   3.818   3.848   3.881   3.898   3.906
  3.945   3.978   4.025   4.052   4.140   4.238   4.320   4.385
  4.389   4.488   4.573   4.578   4.592   4.604   4.755   4.790
  4.798   4.854   4.880   5.003   5.007   5.055   5.067   5.206
  5.227   5.274   5.333   5.365   5.404   5.405   5.432   5.462
  5.514   5.516   5.542   5.561   5.566   5.617   5.686   5.690
  5.734   5.750   5.836   5.849   5.953   6.018   6.049   6.130
  6.163   6.235   6.299   6.413   6.436   6.494   6.501   6.629
  6.698   6.881   6.978   6.995   7.075   7.081   7.203   7.279
  7.370   7.448   7.644   7.810   8.033   8.083   8.272   8.632
  8.714   8.785   8.929   8.933   9.365   9.547   9.682  10.987
 11.818  11.930  12.319  12.433  12.749  13.044  13.054  13.255
 13.257  13.259  13.260  13.404  13.410  13.484  13.500  13.568
 13.572  13.646  13.648  13.669  13.674  13.689  13.721  13.810
 13.909  14.069  14.222  15.406  15.414  15.448  15.454  15.560
 15.670  15.712  15.738  15.828  15.913  16.107  16.198  16.326
 16.353  16.443  16.517  16.543  16.629  16.794  16.794  16.921
 17.154  17.312  17.332  19.528  19.707  20.244  20.547  20.590
 22.149  22.356  25.573  41.101  41.118  41.455  41.527  42.143
 42.223  44.446  45.742  45.835  59.595  59.620  59.666  59.705
 59.797  59.800  59.884  60.000  60.113  60.152  75.365  75.366
 75.370  75.371  75.372  75.404  75.426  79.461  79.542  83.770
 85.615  85.693  86.147  86.292  86.343  97.237  97.238  97.243
 97.245  97.262  97.278  97.288  97.292  97.317  97.327  97.356
 97.356  97.411  97.421 144.527 144.552 144.812 144.862 145.358
145.427 152.205 153.275 153.345 250.232 250.248 250.272 250.295
250.342 250.345 250.393 250.454 250.511 250.534 270.127 270.177
352.600 494.080 494.106 494.310 494.350 494.750 494.8071121.902
*******
 --------------------------------------------------------------
 
          Ground-State Mulliken Net Atomic Charges

     Atom                 Charge (a.u.)
  ----------------------------------------
      1 B                     1.116846
      2 H                    -0.133172
      3 F                    -0.491837
      4 F                    -0.491837
  ----------------------------------------
  Sum of atomic charges =    -0.000000

 -----------------------------------------------------------------
                    Cartesian Multipole Moments
 -----------------------------------------------------------------
    Charge (ESU x 10^10)
                -0.0000
    Dipole Moment (Debye)
         X      -0.0000      Y       0.0000      Z       0.8752
       Tot       0.8752
    Quadrupole Moments (Debye-Ang)
        XX     -14.6677     XY      -0.0000     YY     -18.5192
        XZ      -0.0000     YZ       0.0000     ZZ     -16.1212
    Octopole Moments (Debye-Ang^2)
       XXX      -0.0000    XXY      -0.0000    XYY       0.0000
       YYY       0.0000    XXZ      -1.4873    XYZ      -0.0000
       YYZ      -1.3302    XZZ      -0.0000    YZZ      -0.0000
       ZZZ      -5.8043
    Hexadecapole Moments (Debye-Ang^3)
      XXXX     -11.7979   XXXY       0.0000   XXYY     -16.9288
      XYYY      -0.0000   YYYY     -91.7167   XXXZ       0.0000
      XXYZ       0.0000   XYYZ      -0.0000   YYYZ       0.0000
      XXZZ      -8.7635   XYZZ       0.0000   YYZZ     -21.3389
      XZZZ       0.0000   YZZZ       0.0000   ZZZZ     -39.8850
 -----------------------------------------------------------------
Archival summary:
1\1\n0051.mhg0\SP\ProcedureUnspecified\BasisUnspecified\211\yhljason\TueOct2707:56:352020TueOct2707:56:352020\0\\#,ProcedureUnspecified,BasisUnspecified,\\0,1\F\B,1,1.31101\H,2,1.189,1,120.851\F,2,1.31101,1,118.297,3,-180,0\\\@

 Total job time:  1791.14s(wall), 14168.14s(cpu) 
 Tue Oct 27 07:56:35 2020

        *************************************************************
        *                                                           *
        *  Thank you very much for using Q-Chem.  Have a nice day.  *
        *                                                           *
        *************************************************************


 
User input: 5 of 8 
 
Q-Chem Developer Version!
                  Welcome to Q-Chem
     A Quantum Leap Into The Future Of Chemistry


 Q-Chem 5.1, Q-Chem, Inc., Pleasanton, CA (2018)

 Yihan Shao,  Zhengting Gan,  E. Epifanovsky,  A. T. B. Gilbert,  M. Wormit,  
 J. Kussmann,  A. W. Lange,  A. Behn,  Jia Deng,  Xintian Feng,  D. Ghosh,  
 M. Goldey,  P. R. Horn,  L. D. Jacobson,  I. Kaliman,  T. Kus,  A. Landau,  
 Jie Liu,  E. I. Proynov,  R. M. Richard,  R. P. Steele,  E. J. Sundstrom,  
 H. L. Woodcock III,  P. M. Zimmerman,  D. Zuev,  B. Albrecht,  E. Alguire,  
 S. A. Baeppler,  D. Barton,  Z. Benda,  Y. A. Bernard,  E. J. Berquist,  
 K. B. Bravaya,  H. Burton,  D. Casanova,  Chun-Min Chang,  Yunqing Chen,  
 A. Chien,  K. D. Closser,  M. P. Coons,  S. Coriani,  S. Dasgupta,  
 A. L. Dempwolff,  M. Diedenhofen,  Hainam Do,  R. G. Edgar,  Po-Tung Fang,  
 S. Faraji,  S. Fatehi,  Qingguo Feng,  K. D. Fenk,  J. Fosso-Tande,  
 Qinghui Ge,  A. Ghysels,  G. Gidofalvi,  J. Gomes,  J. Gonthier,  A. Gunina,  
 D. Hait,  M. W. D. Hanson-Heine,  P. H. P. Harbach,  A. W. Hauser,  
 J. E. Herr,  E. G. Hohenstein,  Z. C. Holden,  Kerwin Hui,  B. C. Huynh,  
 T.-C. Jagau,  Hyunjun Ji,  B. Kaduk,  K. Khistyaev,  Jaehoon Kim,  
 P. Klunzinger,  K. Koh,  D. Kosenkov,  L. Koulias,  T. Kowalczyk,  
 C. M. Krauter,  A. Kunitsa,  Ka Un Lao,  A. Laurent,  K. V. Lawler,  
 Joonho Lee,  D. Lefrancois,  S. Lehtola,  D. S. Levine,  Yi-Pei Li,  
 You-Sheng Lin,  Fenglai Liu,  E. Livshits,  A. Luenser,  P. Manohar,  
 E. Mansoor,  S. F. Manzer,  Shan-Ping Mao,  Yuezhi Mao,  N. Mardirossian,  
 A. V. Marenich,  T. Markovich,  L. A. Martinez-Martinez,  S. A. Maurer,  
 N. J. Mayhall,  S. C. McKenzie,  J.-M. Mewes,  A. F. Morrison,  
 J. W. Mullinax,  K. Nanda,  T. S. Nguyen-Beck,  R. Olivares-Amaya,  
 J. A. Parkhill,  T. M. Perrine,  F. Plasser,  P. Pokhilko,  S. Prager,  
 A. Prociuk,  E. Ramos,  D. R. Rehn,  F. Rob,  M. Schneider,  N. Sergueev,  
 S. M. Sharada,  S. Sharma,  D. W. Small,  T. Stauch,  T. Stein,  
 Yu-Chuan Su,  A. J. W. Thom,  A. Tkatchenko,  T. Tsuchimochi,  N. M. Tubman,  
 L. Vogt,  M. L. Vidal,  O. Vydrov,  M. A. Watson,  J. Wenzel,  
 M. de Wergifosse,  T. A. Wesolowski,  A. White,  J. Witte,  A. Yamada,  
 Jun Yang,  K. Yao,  S. Yeganeh,  S. R. Yost,  Zhi-Qiang You,  A. Zech,  
 Igor Ying Zhang,  Xing Zhang,  Yan Zhao,  Ying Zhu,  B. R. Brooks,  
 G. K. L. Chan,  C. J. Cramer,  M. S. Gordon,  W. J. Hehre,  A. Klamt,  
 M. W. Schmidt,  C. D. Sherrill,  D. G. Truhlar,  A. Aspuru-Guzik,  R. Baer,  
 A. T. Bell,  N. A. Besley,  Jeng-Da Chai,  A. E. DePrince, III,  
 R. A. DiStasio Jr.,  A. Dreuw,  B. D. Dunietz,  T. R. Furlani,  
 Chao-Ping Hsu,  Yousung Jung,  Jing Kong,  D. S. Lambrecht,  WanZhen Liang,  
 C. Ochsenfeld,  V. A. Rassolov,  L. V. Slipchenko,  J. E. Subotnik,  
 T. Van Voorhis,  J. M. Herbert,  A. I. Krylov,  P. M. W. Gill,  M. Head-Gordon

 Contributors to earlier versions of Q-Chem not listed above: 
 R. D. Adamson,  B. Austin,  J. Baker,  G. J. O. Beran,  K. Brandhorst,  
 S. T. Brown,  E. F. C. Byrd,  A. K. Chakraborty,  C.-L. Cheng,  
 Siu Hung Chien,  D. M. Chipman,  D. L. Crittenden,  H. Dachsel,  
 R. J. Doerksen,  A. D. Dutoi,  L. Fusti-Molnar,  W. A. Goddard III,  
 A. Golubeva-Zadorozhnaya,  S. R. Gwaltney,  G. Hawkins,  A. Heyden,  
 S. Hirata,  G. Kedziora,  F. J. Keil,  C. Kelley,  Jihan Kim,  R. A. King,  
 R. Z. Khaliullin,  P. P. Korambath,  W. Kurlancheek,  A. M. Lee,  M. S. Lee,  
 S. V. Levchenko,  Ching Yeh Lin,  D. Liotard,  R. C. Lochan,  I. Lotan,  
 P. E. Maslen,  N. Nair,  D. P. O'Neill,  D. Neuhauser,  E. Neuscamman,  
 C. M. Oana,  R. Olson,  B. Peters,  R. Peverati,  P. A. Pieniazek,  
 Y. M. Rhee,  J. Ritchie,  M. A. Rohrdanz,  E. Rosta,  N. J. Russ,  
 H. F. Schaefer III,  N. E. Schultz,  N. Shenvi,  A. C. Simmonett,  A. Sodt,  
 D. Stuck,  K. S. Thanthiriwatte,  V. Vanovschi,  Tao Wang,  A. Warshel,  
 C. F. Williams,  Q. Wu,  X. Xu,  W. Zhang

 Please cite Q-Chem as follows:
 Y. Shao et al., Mol. Phys. 113, 184-215 (2015)
 DOI: 10.1080/00268976.2014.952696

 Q-Chem 5.1.1 for Intel X86 EM64T Linux

 Parts of Q-Chem use Armadillo 8.300.2 (Tropical Shenanigans).
 http://arma.sourceforge.net/

 Q-Chem begins on Tue Oct 27 07:56:35 2020  

Host: n0051.mhg0
0

     Scratch files written to /local/scratch/users/yhljason/BHF2_wB97M2_aug-cc-pcVQZ.inp20201027035722//
The previous job contains 0 fragments, simply inherited here
Input Ideriv = 0
Curr. Ideriv = -1
Max.  Ideriv = 0
Analytic post-HF gradients are not available with non-HF exchange
Input Ideriv = 0
Curr. Ideriv = 0
Max.  Ideriv = 0

Checking the input file for inconsistencies... 	...done.

--------------------------------------------------------------
User input:
--------------------------------------------------------------
$molecule
read
$end

$rem
jobtype sp
exchange wB97M(2)
xc_grid 000099000590
basis aug-cc-pcVQZ

max_scf_cycles 200
thresh 14
scf_convergence 8
mem_total 128000
cc_memory 96000
cc_backend xm
mem_static 1500
symmetry false
sym_ignore true
scf_guess read
unrestricted false
scf_algorithm gdm
n_frozen_core 0
$end



$multipole_field
YY 0.0001
$end


--------------------------------------------------------------
 ----------------------------------------------------------------
             Standard Nuclear Orientation (Angstroms)
    I     Atom           X                Y                Z
 ----------------------------------------------------------------
    1      B       0.0000000000     0.0000000000     0.4547000000
    2      H       0.0000000000     0.0000000000     1.6437000000
    3      F       0.0000000000     1.1255000000    -0.2176000000
    4      F       0.0000000000    -1.1255000000    -0.2176000000
 ----------------------------------------------------------------
 Nuclear Repulsion Energy =    61.9741374107 hartrees
 There are       12 alpha and       12 beta electrons
 Requested basis set is aug-cc-pCVQZ
 There are 101 shells and 373 basis functions

 Total QAlloc Memory Limit 128000 MB
 Mega-Array Size      1467 MB
 MEM_STATIC part      1500 MB

                       Distance Matrix (Angstroms)
             B (  1)   H (  2)   F (  3)
   H (  2)  1.189000
   F (  3)  1.311006  2.175129
   F (  4)  1.311006  2.175129  2.251000
 
 Applying Cartesian multipole field
    Component          Value
    ---------          -----
     (0,2,0)        1.00000E-04
 Nucleus-field energy     =     0.0081425651 hartrees
 A cutoff of  1.0D-14 yielded   4816 shell pairs
 There are     67164 function pairs (    108498 Cartesian)
 
 -------------------------------------------------------
 OpenMP Integral Computing Module                       
 Release: version 1.0, May 2013, Q-Chem Inc. Pittsburgh 
 -------------------------------------------------------
 Integral Job Info:
 Integral job number is                      11
 Integral operator is                         1
 short-range coefficients              15000000
 long-range coefficients              100000000
 Omega coefficients                         300
 if combine SR and LR in K                    1
 Integral screening is                        0
 Integral computing path is                   2
 max size of driver memory is           3200000
 size of driver memory is               1704330
 size of scratch memory is             18852824
 max col of scratch BK array              50625
 max len of scratch array in speh3         2114
 max len of scratch index in speh4           50
 max int batch size is                      520
 min int batch size is                       52
 fixed nKL is                                52
 max L of basis functions is                  4
 order of int derivative is                   0
 number of shells is                        101
 number of basis is                         472
 number of cartesian basis is               472
 number of contracted shell pairs          4816
 number of primitive shell pairs          10031
 maxK2 (contraction) of shell pair           81
 max number of K2 of shell pair               1
 max number of CS2 of shell pair            594
 max number of PS2 of shell pair           1035
 mem total for path MDJ                  855280
 -------------------------------------------------------
 Smallest overlap matrix eigenvalue = 3.60E-05
 Guess MOs from SCF MO coefficient file
 Reading MOs from coefficient file
 Reading MOs from coefficient file
 Long-range K will be added via erf
 Coulomb attenuation parameter = 0.3 bohr**(-1)
 A restricted hybrid HF-DFT SCF calculation will be
 performed using Geometric Direct Minimization
 Exchange:     0.1500 Hartree-Fock + 1.0000 wB97M-V + LR-HF
 Correlation:  1.0000 wB97M-V
 Using Euler-Maclaurin-Lebedev (99,590) quadrature formula
 Nonlocal Correlation:  VV10 with C = 0.0100 and b = 6.00 and scale = 1.00000
 Grid used for NLC:  SG-1 standard quadrature
 SCF converges when RMS gradient is below 1.0E-08
Using Q-Chem read-in guess as SCF_GUESS READ specified.

 using 8 threads for integral computing
 -------------------------------------------------------
 OpenMP Integral computing Module                
 Release: version 1.0, May 2013, Q-Chem Inc. Pittsburgh 
 -------------------------------------------------------
 using 8 threads for integral computing
 -------------------------------------------------------
 OpenMP Integral computing Module                
 Release: version 1.0, May 2013, Q-Chem Inc. Pittsburgh 
 -------------------------------------------------------
TIMEINFO->: J/JK contribution 410.84 sec.
 -------------------------------------------------------
 OpenMP BLAS3 based DFT computing Module                
 Release: version 1.0, May 2013, Q-Chem Inc. Pittsburgh 
 -------------------------------------------------------
 -------------------------------------------------------
 OpenMP BLAS3 based DFT computing Module                
 Release: version 1.0, May 2013, Q-Chem Inc. Pittsburgh 
 -------------------------------------------------------
 -------------------------------------------------------
 OpenMP BLAS3 based DFT computing Module                
 Release: version 1.0, May 2013, Q-Chem Inc. Pittsburgh 
 -------------------------------------------------------
 ---------------------------------------
  Cycle       Energy        RMS Gradient
 ---------------------------------------
    1    -225.3003428707      2.79E-04 Normal BFGS step
TIMEINFO->: J/JK contribution 410.19 sec.
    2    -225.3003440196      6.46E-05 Normal BFGS step
TIMEINFO->: J/JK contribution 376.02 sec.
    3    -225.3003441092      1.83E-05 Normal BFGS step
TIMEINFO->: J/JK contribution 371.58 sec.
    4    -225.3003441127      1.76E-05 Normal BFGS step
TIMEINFO->: J/JK contribution 365.05 sec.
    5    -225.3003441150      1.46E-06 Normal BFGS step
TIMEINFO->: J/JK contribution 356.47 sec.
    6    -225.3003441150      2.58E-07 Normal BFGS step
TIMEINFO->: J/JK contribution 340.67 sec.
    7    -225.3003441150      5.03E-08 Normal BFGS step
TIMEINFO->: J/JK contribution 322.20 sec.
 Nonlocal correlation =     0.0324430092
    8    -225.3003441150      7.25E-09 Convergence criterion met
 ---------------------------------------
 wB97M-V orbitals are now ready for the wB97M(2) calculation.
 wB97M(2) energy = Exch (0.62194 SRHF + 1.0 LRHF + wB97M(2)_EXCH) + 
               Corr (wB97M(2)_CORR + 0.34096 MP2 + 0.65904 VV10(b=10))
 SCF time:  CPU 4156.34 s  wall 525.69 s
 SCF   energy in the final basis set = -225.14144073
 Total energy in the final basis set = -225.14144073
 
 Components of the MP2 correlation energy:
        aaaa  correlation energy =        -0.0374430455 au
        abab  correlation energy =        -0.2553490590 au
        bbbb  correlation energy =        -0.0374430455 au
        non-Brillouin singles    =        -0.0000000000 au

 Total  MP2   correlation energy =                    -0.33023515 au
        MP2         total energy =                  -225.47167588 au
 
 --------------------------------------------------------------
 
                    Orbital Energies (a.u.)
 --------------------------------------------------------------
 
 Alpha MOs
 -- Occupied --
-24.929 -24.929  -7.008  -1.388  -1.359  -0.713  -0.660  -0.640
 -0.619  -0.563  -0.548  -0.489
 -- Virtual --
  0.015   0.023   0.025   0.028   0.071   0.074   0.098   0.101
  0.113   0.117   0.123   0.127   0.143   0.186   0.188   0.199
  0.218   0.229   0.233   0.242   0.245   0.274   0.283   0.292
  0.336   0.357   0.384   0.391   0.418   0.454   0.459   0.461
  0.474   0.484   0.504   0.522   0.551   0.551   0.555   0.658
  0.664   0.672   0.674   0.702   0.714   0.721   0.752   0.756
  0.766   0.779   0.795   0.836   0.863   0.870   0.873   0.880
  0.919   0.934   1.003   1.013   1.057   1.089   1.102   1.107
  1.142   1.153   1.188   1.267   1.329   1.346   1.357   1.370
  1.390   1.404   1.406   1.422   1.434   1.451   1.461   1.492
  1.525   1.600   1.679   1.686   1.692   1.715   1.766   1.794
  1.811   1.822   1.884   1.887   1.912   1.947   1.989   2.011
  2.055   2.069   2.080   2.136   2.153   2.158   2.216   2.222
  2.223   2.261   2.269   2.293   2.302   2.327   2.352   2.466
  2.482   2.517   2.560   2.575   2.619   2.706   2.736   2.768
  2.790   2.807   2.837   2.843   2.939   2.948   3.132   3.150
  3.153   3.269   3.273   3.341   3.474   3.477   3.477   3.667
  3.752   3.783   3.810   3.817   3.847   3.880   3.897   3.905
  3.944   3.978   4.024   4.051   4.140   4.237   4.320   4.384
  4.388   4.487   4.572   4.577   4.592   4.603   4.754   4.789
  4.798   4.853   4.880   5.002   5.006   5.055   5.066   5.205
  5.226   5.273   5.332   5.364   5.403   5.404   5.431   5.461
  5.513   5.515   5.541   5.560   5.565   5.616   5.685   5.689
  5.733   5.749   5.835   5.848   5.952   6.017   6.048   6.130
  6.162   6.235   6.298   6.413   6.435   6.493   6.501   6.628
  6.697   6.880   6.977   6.994   7.074   7.080   7.202   7.279
  7.369   7.448   7.643   7.809   8.032   8.083   8.272   8.632
  8.713   8.784   8.929   8.933   9.365   9.546   9.681  10.987
 11.818  11.930  12.318  12.432  12.749  13.044  13.053  13.254
 13.257  13.258  13.259  13.403  13.409  13.483  13.500  13.567
 13.571  13.645  13.647  13.668  13.673  13.689  13.720  13.809
 13.908  14.068  14.222  15.405  15.413  15.447  15.453  15.559
 15.669  15.711  15.737  15.827  15.912  16.106  16.197  16.325
 16.352  16.442  16.516  16.542  16.628  16.793  16.794  16.920
 17.153  17.311  17.331  19.527  19.706  20.244  20.546  20.590
 22.148  22.355  25.573  41.100  41.117  41.455  41.526  42.142
 42.222  44.445  45.741  45.834  59.594  59.619  59.665  59.704
 59.796  59.799  59.883  59.999  60.112  60.151  75.365  75.365
 75.369  75.371  75.371  75.403  75.426  79.460  79.541  83.770
 85.614  85.693  86.147  86.292  86.342  97.236  97.237  97.243
 97.244  97.261  97.277  97.287  97.291  97.316  97.326  97.355
 97.355  97.410  97.421 144.526 144.552 144.811 144.862 145.357
145.427 152.205 153.274 153.345 250.231 250.248 250.271 250.294
250.342 250.344 250.392 250.453 250.510 250.533 270.126 270.177
352.599 494.080 494.105 494.309 494.350 494.750 494.8061121.901
*******
 --------------------------------------------------------------
 
          Ground-State Mulliken Net Atomic Charges

     Atom                 Charge (a.u.)
  ----------------------------------------
      1 B                     1.116181
      2 H                    -0.130191
      3 F                    -0.492995
      4 F                    -0.492995
  ----------------------------------------
  Sum of atomic charges =    -0.000000

 -----------------------------------------------------------------
                    Cartesian Multipole Moments
 -----------------------------------------------------------------
    Charge (ESU x 10^10)
                -0.0000
    Dipole Moment (Debye)
         X       0.0000      Y       0.0000      Z       0.8768
       Tot       0.8768
    Quadrupole Moments (Debye-Ang)
        XX     -14.6751     XY      -0.0000     YY     -18.5453
        XZ       0.0000     YZ       0.0000     ZZ     -16.1202
    Octopole Moments (Debye-Ang^2)
       XXX      -0.0000    XXY      -0.0000    XYY       0.0000
       YYY      -0.0000    XXZ      -1.4897    XYZ      -0.0000
       YYZ      -1.3289    XZZ      -0.0000    YZZ      -0.0000
       ZZZ      -5.7985
    Hexadecapole Moments (Debye-Ang^3)
      XXXX     -11.8235   XXXY       0.0000   XXYY     -16.9506
      XYYY      -0.0000   YYYY     -91.8625   XXXZ       0.0000
      XXYZ       0.0000   XYYZ       0.0000   YYYZ      -0.0000
      XXZZ      -8.7726   XYZZ       0.0000   YYZZ     -21.3572
      XZZZ       0.0000   YZZZ       0.0000   ZZZZ     -39.8815
 -----------------------------------------------------------------
Archival summary:
1\1\n0051.mhg0\SP\ProcedureUnspecified\BasisUnspecified\211\yhljason\TueOct2708:26:342020TueOct2708:26:342020\0\\#,ProcedureUnspecified,BasisUnspecified,\\0,1\F\B,1,1.31101\H,2,1.189,1,120.851\F,2,1.31101,1,118.297,3,-180,0\\\@

 Total job time:  1798.87s(wall), 14239.58s(cpu) 
 Tue Oct 27 08:26:34 2020

        *************************************************************
        *                                                           *
        *  Thank you very much for using Q-Chem.  Have a nice day.  *
        *                                                           *
        *************************************************************


 
User input: 6 of 8 
 
Q-Chem Developer Version!
                  Welcome to Q-Chem
     A Quantum Leap Into The Future Of Chemistry


 Q-Chem 5.1, Q-Chem, Inc., Pleasanton, CA (2018)

 Yihan Shao,  Zhengting Gan,  E. Epifanovsky,  A. T. B. Gilbert,  M. Wormit,  
 J. Kussmann,  A. W. Lange,  A. Behn,  Jia Deng,  Xintian Feng,  D. Ghosh,  
 M. Goldey,  P. R. Horn,  L. D. Jacobson,  I. Kaliman,  T. Kus,  A. Landau,  
 Jie Liu,  E. I. Proynov,  R. M. Richard,  R. P. Steele,  E. J. Sundstrom,  
 H. L. Woodcock III,  P. M. Zimmerman,  D. Zuev,  B. Albrecht,  E. Alguire,  
 S. A. Baeppler,  D. Barton,  Z. Benda,  Y. A. Bernard,  E. J. Berquist,  
 K. B. Bravaya,  H. Burton,  D. Casanova,  Chun-Min Chang,  Yunqing Chen,  
 A. Chien,  K. D. Closser,  M. P. Coons,  S. Coriani,  S. Dasgupta,  
 A. L. Dempwolff,  M. Diedenhofen,  Hainam Do,  R. G. Edgar,  Po-Tung Fang,  
 S. Faraji,  S. Fatehi,  Qingguo Feng,  K. D. Fenk,  J. Fosso-Tande,  
 Qinghui Ge,  A. Ghysels,  G. Gidofalvi,  J. Gomes,  J. Gonthier,  A. Gunina,  
 D. Hait,  M. W. D. Hanson-Heine,  P. H. P. Harbach,  A. W. Hauser,  
 J. E. Herr,  E. G. Hohenstein,  Z. C. Holden,  Kerwin Hui,  B. C. Huynh,  
 T.-C. Jagau,  Hyunjun Ji,  B. Kaduk,  K. Khistyaev,  Jaehoon Kim,  
 P. Klunzinger,  K. Koh,  D. Kosenkov,  L. Koulias,  T. Kowalczyk,  
 C. M. Krauter,  A. Kunitsa,  Ka Un Lao,  A. Laurent,  K. V. Lawler,  
 Joonho Lee,  D. Lefrancois,  S. Lehtola,  D. S. Levine,  Yi-Pei Li,  
 You-Sheng Lin,  Fenglai Liu,  E. Livshits,  A. Luenser,  P. Manohar,  
 E. Mansoor,  S. F. Manzer,  Shan-Ping Mao,  Yuezhi Mao,  N. Mardirossian,  
 A. V. Marenich,  T. Markovich,  L. A. Martinez-Martinez,  S. A. Maurer,  
 N. J. Mayhall,  S. C. McKenzie,  J.-M. Mewes,  A. F. Morrison,  
 J. W. Mullinax,  K. Nanda,  T. S. Nguyen-Beck,  R. Olivares-Amaya,  
 J. A. Parkhill,  T. M. Perrine,  F. Plasser,  P. Pokhilko,  S. Prager,  
 A. Prociuk,  E. Ramos,  D. R. Rehn,  F. Rob,  M. Schneider,  N. Sergueev,  
 S. M. Sharada,  S. Sharma,  D. W. Small,  T. Stauch,  T. Stein,  
 Yu-Chuan Su,  A. J. W. Thom,  A. Tkatchenko,  T. Tsuchimochi,  N. M. Tubman,  
 L. Vogt,  M. L. Vidal,  O. Vydrov,  M. A. Watson,  J. Wenzel,  
 M. de Wergifosse,  T. A. Wesolowski,  A. White,  J. Witte,  A. Yamada,  
 Jun Yang,  K. Yao,  S. Yeganeh,  S. R. Yost,  Zhi-Qiang You,  A. Zech,  
 Igor Ying Zhang,  Xing Zhang,  Yan Zhao,  Ying Zhu,  B. R. Brooks,  
 G. K. L. Chan,  C. J. Cramer,  M. S. Gordon,  W. J. Hehre,  A. Klamt,  
 M. W. Schmidt,  C. D. Sherrill,  D. G. Truhlar,  A. Aspuru-Guzik,  R. Baer,  
 A. T. Bell,  N. A. Besley,  Jeng-Da Chai,  A. E. DePrince, III,  
 R. A. DiStasio Jr.,  A. Dreuw,  B. D. Dunietz,  T. R. Furlani,  
 Chao-Ping Hsu,  Yousung Jung,  Jing Kong,  D. S. Lambrecht,  WanZhen Liang,  
 C. Ochsenfeld,  V. A. Rassolov,  L. V. Slipchenko,  J. E. Subotnik,  
 T. Van Voorhis,  J. M. Herbert,  A. I. Krylov,  P. M. W. Gill,  M. Head-Gordon

 Contributors to earlier versions of Q-Chem not listed above: 
 R. D. Adamson,  B. Austin,  J. Baker,  G. J. O. Beran,  K. Brandhorst,  
 S. T. Brown,  E. F. C. Byrd,  A. K. Chakraborty,  C.-L. Cheng,  
 Siu Hung Chien,  D. M. Chipman,  D. L. Crittenden,  H. Dachsel,  
 R. J. Doerksen,  A. D. Dutoi,  L. Fusti-Molnar,  W. A. Goddard III,  
 A. Golubeva-Zadorozhnaya,  S. R. Gwaltney,  G. Hawkins,  A. Heyden,  
 S. Hirata,  G. Kedziora,  F. J. Keil,  C. Kelley,  Jihan Kim,  R. A. King,  
 R. Z. Khaliullin,  P. P. Korambath,  W. Kurlancheek,  A. M. Lee,  M. S. Lee,  
 S. V. Levchenko,  Ching Yeh Lin,  D. Liotard,  R. C. Lochan,  I. Lotan,  
 P. E. Maslen,  N. Nair,  D. P. O'Neill,  D. Neuhauser,  E. Neuscamman,  
 C. M. Oana,  R. Olson,  B. Peters,  R. Peverati,  P. A. Pieniazek,  
 Y. M. Rhee,  J. Ritchie,  M. A. Rohrdanz,  E. Rosta,  N. J. Russ,  
 H. F. Schaefer III,  N. E. Schultz,  N. Shenvi,  A. C. Simmonett,  A. Sodt,  
 D. Stuck,  K. S. Thanthiriwatte,  V. Vanovschi,  Tao Wang,  A. Warshel,  
 C. F. Williams,  Q. Wu,  X. Xu,  W. Zhang

 Please cite Q-Chem as follows:
 Y. Shao et al., Mol. Phys. 113, 184-215 (2015)
 DOI: 10.1080/00268976.2014.952696

 Q-Chem 5.1.1 for Intel X86 EM64T Linux

 Parts of Q-Chem use Armadillo 8.300.2 (Tropical Shenanigans).
 http://arma.sourceforge.net/

 Q-Chem begins on Tue Oct 27 08:26:34 2020  

Host: n0051.mhg0
0

     Scratch files written to /local/scratch/users/yhljason/BHF2_wB97M2_aug-cc-pcVQZ.inp20201027035722//
[...]

     Atom                 Charge (a.u.)
  ----------------------------------------
      1 B                     1.115106
      2 H                    -0.132567
      3 F                    -0.491269
      4 F                    -0.491269
  ----------------------------------------
  Sum of atomic charges =    -0.000000

 -----------------------------------------------------------------
                    Cartesian Multipole Moments
 -----------------------------------------------------------------
    Charge (ESU x 10^10)
                -0.0000
    Dipole Moment (Debye)
         X       0.0000      Y      -0.0000      Z       0.8672
       Tot       0.8672
    Quadrupole Moments (Debye-Ang)
        XX     -14.6754     XY       0.0000     YY     -18.5179
        XZ       0.0000     YZ       0.0000     ZZ     -16.1519
    Octopole Moments (Debye-Ang^2)
       XXX       0.0000    XXY      -0.0000    XYY       0.0000
       YYY      -0.0000    XXZ      -1.4944    XYZ       0.0000
       YYZ      -1.3347    XZZ       0.0000    YZZ      -0.0000
       ZZZ      -5.8737
    Hexadecapole Moments (Debye-Ang^3)
      XXXX     -11.8240   XXXY       0.0000   XXYY     -16.9376
      XYYY       0.0000   YYYY     -91.7180   XXXZ       0.0000
      XXYZ       0.0000   XYYZ       0.0000   YYYZ       0.0000
      XXZZ      -8.7890   XYZZ       0.0000   YYZZ     -21.3607
      XZZZ       0.0000   YZZZ       0.0000   ZZZZ     -40.1057
 -----------------------------------------------------------------
Archival summary:
1\1\n0051.mhg0\SP\ProcedureUnspecified\BasisUnspecified\211\yhljason\TueOct2709:28:002020TueOct2709:28:002020\0\\#,ProcedureUnspecified,BasisUnspecified,\\0,1\F\B,1,1.31101\H,2,1.189,1,120.851\F,2,1.31101,1,118.297,3,-180,0\\\@

 Total job time:  1845.43s(wall), 14604.80s(cpu) 
 Tue Oct 27 09:28:00 2020

        *************************************************************
        *                                                           *
        *  Thank you very much for using Q-Chem.  Have a nice day.  *
        *                                                           *
        *************************************************************


 
User input: 8 of 8 
 
Q-Chem Developer Version!
                  Welcome to Q-Chem
     A Quantum Leap Into The Future Of Chemistry


 Q-Chem 5.1, Q-Chem, Inc., Pleasanton, CA (2018)

 Yihan Shao,  Zhengting Gan,  E. Epifanovsky,  A. T. B. Gilbert,  M. Wormit,  
 J. Kussmann,  A. W. Lange,  A. Behn,  Jia Deng,  Xintian Feng,  D. Ghosh,  
 M. Goldey,  P. R. Horn,  L. D. Jacobson,  I. Kaliman,  T. Kus,  A. Landau,  
 Jie Liu,  E. I. Proynov,  R. M. Richard,  R. P. Steele,  E. J. Sundstrom,  
 H. L. Woodcock III,  P. M. Zimmerman,  D. Zuev,  B. Albrecht,  E. Alguire,  
 S. A. Baeppler,  D. Barton,  Z. Benda,  Y. A. Bernard,  E. J. Berquist,  
 K. B. Bravaya,  H. Burton,  D. Casanova,  Chun-Min Chang,  Yunqing Chen,  
 A. Chien,  K. D. Closser,  M. P. Coons,  S. Coriani,  S. Dasgupta,  
 A. L. Dempwolff,  M. Diedenhofen,  Hainam Do,  R. G. Edgar,  Po-Tung Fang,  
 S. Faraji,  S. Fatehi,  Qingguo Feng,  K. D. Fenk,  J. Fosso-Tande,  
 Qinghui Ge,  A. Ghysels,  G. Gidofalvi,  J. Gomes,  J. Gonthier,  A. Gunina,  
 D. Hait,  M. W. D. Hanson-Heine,  P. H. P. Harbach,  A. W. Hauser,  
 J. E. Herr,  E. G. Hohenstein,  Z. C. Holden,  Kerwin Hui,  B. C. Huynh,  
 T.-C. Jagau,  Hyunjun Ji,  B. Kaduk,  K. Khistyaev,  Jaehoon Kim,  
 P. Klunzinger,  K. Koh,  D. Kosenkov,  L. Koulias,  T. Kowalczyk,  
 C. M. Krauter,  A. Kunitsa,  Ka Un Lao,  A. Laurent,  K. V. Lawler,  
 Joonho Lee,  D. Lefrancois,  S. Lehtola,  D. S. Levine,  Yi-Pei Li,  
 You-Sheng Lin,  Fenglai Liu,  E. Livshits,  A. Luenser,  P. Manohar,  
 E. Mansoor,  S. F. Manzer,  Shan-Ping Mao,  Yuezhi Mao,  N. Mardirossian,  
 A. V. Marenich,  T. Markovich,  L. A. Martinez-Martinez,  S. A. Maurer,  
 N. J. Mayhall,  S. C. McKenzie,  J.-M. Mewes,  A. F. Morrison,  
 J. W. Mullinax,  K. Nanda,  T. S. Nguyen-Beck,  R. Olivares-Amaya,  
 J. A. Parkhill,  T. M. Perrine,  F. Plasser,  P. Pokhilko,  S. Prager,  
 A. Prociuk,  E. Ramos,  D. R. Rehn,  F. Rob,  M. Schneider,  N. Sergueev,  
 S. M. Sharada,  S. Sharma,  D. W. Small,  T. Stauch,  T. Stein,  
 Yu-Chuan Su,  A. J. W. Thom,  A. Tkatchenko,  T. Tsuchimochi,  N. M. Tubman,  
 L. Vogt,  M. L. Vidal,  O. Vydrov,  M. A. Watson,  J. Wenzel,  
 M. de Wergifosse,  T. A. Wesolowski,  A. White,  J. Witte,  A. Yamada,  
 Jun Yang,  K. Yao,  S. Yeganeh,  S. R. Yost,  Zhi-Qiang You,  A. Zech,  
 Igor Ying Zhang,  Xing Zhang,  Yan Zhao,  Ying Zhu,  B. R. Brooks,  
 G. K. L. Chan,  C. J. Cramer,  M. S. Gordon,  W. J. Hehre,  A. Klamt,  
 M. W. Schmidt,  C. D. Sherrill,  D. G. Truhlar,  A. Aspuru-Guzik,  R. Baer,  
 A. T. Bell,  N. A. Besley,  Jeng-Da Chai,  A. E. DePrince, III,  
 R. A. DiStasio Jr.,  A. Dreuw,  B. D. Dunietz,  T. R. Furlani,  
 Chao-Ping Hsu,  Yousung Jung,  Jing Kong,  D. S. Lambrecht,  WanZhen Liang,  
 C. Ochsenfeld,  V. A. Rassolov,  L. V. Slipchenko,  J. E. Subotnik,  
 T. Van Voorhis,  J. M. Herbert,  A. I. Krylov,  P. M. W. Gill,  M. Head-Gordon

 Contributors to earlier versions of Q-Chem not listed above: 
 R. D. Adamson,  B. Austin,  J. Baker,  G. J. O. Beran,  K. Brandhorst,  
 S. T. Brown,  E. F. C. Byrd,  A. K. Chakraborty,  C.-L. Cheng,  
 Siu Hung Chien,  D. M. Chipman,  D. L. Crittenden,  H. Dachsel,  
 R. J. Doerksen,  A. D. Dutoi,  L. Fusti-Molnar,  W. A. Goddard III,  
 A. Golubeva-Zadorozhnaya,  S. R. Gwaltney,  G. Hawkins,  A. Heyden,  
 S. Hirata,  G. Kedziora,  F. J. Keil,  C. Kelley,  Jihan Kim,  R. A. King,  
 R. Z. Khaliullin,  P. P. Korambath,  W. Kurlancheek,  A. M. Lee,  M. S. Lee,  
 S. V. Levchenko,  Ching Yeh Lin,  D. Liotard,  R. C. Lochan,  I. Lotan,  
 P. E. Maslen,  N. Nair,  D. P. O'Neill,  D. Neuhauser,  E. Neuscamman,  
 C. M. Oana,  R. Olson,  B. Peters,  R. Peverati,  P. A. Pieniazek,  
 Y. M. Rhee,  J. Ritchie,  M. A. Rohrdanz,  E. Rosta,  N. J. Russ,  
 H. F. Schaefer III,  N. E. Schultz,  N. Shenvi,  A. C. Simmonett,  A. Sodt,  
 D. Stuck,  K. S. Thanthiriwatte,  V. Vanovschi,  Tao Wang,  A. Warshel,  
 C. F. Williams,  Q. Wu,  X. Xu,  W. Zhang

 Please cite Q-Chem as follows:
 Y. Shao et al., Mol. Phys. 113, 184-215 (2015)
 DOI: 10.1080/00268976.2014.952696

 Q-Chem 5.1.1 for Intel X86 EM64T Linux

 Parts of Q-Chem use Armadillo 8.300.2 (Tropical Shenanigans).
 http://arma.sourceforge.net/

 Q-Chem begins on Tue Oct 27 09:28:00 2020  

Host: n0051.mhg0
0

     Scratch files written to /local/scratch/users/yhljason/BHF2_wB97M2_aug-cc-pcVQZ.inp20201027035722//
The previous job contains 0 fragments, simply inherited here
Input Ideriv = 0
Curr. Ideriv = -1
Max.  Ideriv = 0
Analytic post-HF gradients are not available with non-HF exchange
Input Ideriv = 0
Curr. Ideriv = 0
Max.  Ideriv = 0

Checking the input file for inconsistencies... 	...done.

--------------------------------------------------------------
User input:
--------------------------------------------------------------
$molecule
read
$end

$rem
jobtype sp
exchange wB97M(2)
xc_grid 000099000590
basis aug-cc-pcVQZ

max_scf_cycles 200
thresh 14
scf_convergence 8
mem_total 128000
cc_memory 96000
cc_backend xm
mem_static 1500
symmetry false
sym_ignore true
scf_guess read
unrestricted false
scf_algorithm gdm
n_frozen_core 0
$end



$multipole_field
ZZ -0.0001
$end

--------------------------------------------------------------
 ----------------------------------------------------------------
             Standard Nuclear Orientation (Angstroms)
    I     Atom           X                Y                Z
 ----------------------------------------------------------------
    1      B       0.0000000000     0.0000000000     0.4547000000
    2      H       0.0000000000     0.0000000000     1.6437000000
    3      F       0.0000000000     1.1255000000    -0.2176000000
    4      F       0.0000000000    -1.1255000000    -0.2176000000
 ----------------------------------------------------------------
 Nuclear Repulsion Energy =    61.9741374107 hartrees
 There are       12 alpha and       12 beta electrons
 Requested basis set is aug-cc-pCVQZ
 There are 101 shells and 373 basis functions

 Total QAlloc Memory Limit 128000 MB
 Mega-Array Size      1467 MB
 MEM_STATIC part      1500 MB

                       Distance Matrix (Angstroms)
             B (  1)   H (  2)   F (  3)
   H (  2)  1.189000
   F (  3)  1.311006  2.175129
   F (  4)  1.311006  2.175129  2.251000
 
 Applying Cartesian multipole field
    Component          Value
    ---------          -----
     (0,0,2)       -1.00000E-04
 Nucleus-field energy     =    -0.0016383352 hartrees
 A cutoff of  1.0D-14 yielded   4816 shell pairs
 There are     67164 function pairs (    108498 Cartesian)
 
 -------------------------------------------------------
 OpenMP Integral Computing Module                       
 Release: version 1.0, May 2013, Q-Chem Inc. Pittsburgh 
 -------------------------------------------------------
 Integral Job Info:
 Integral job number is                      11
 Integral operator is                         1
 short-range coefficients              15000000
 long-range coefficients              100000000
 Omega coefficients                         300
 if combine SR and LR in K                    1
 Integral screening is                        0
 Integral computing path is                   2
 max size of driver memory is           3200000
 size of driver memory is               1704330
 size of scratch memory is             18852824
 max col of scratch BK array              50625
 max len of scratch array in speh3         2114
 max len of scratch index in speh4           50
 max int batch size is                      520
 min int batch size is                       52
 fixed nKL is                                52
 max L of basis functions is                  4
 order of int derivative is                   0
 number of shells is                        101
 number of basis is                         472
 number of cartesian basis is               472
 number of contracted shell pairs          4816
 number of primitive shell pairs          10031
 maxK2 (contraction) of shell pair           81
 max number of K2 of shell pair               1
 max number of CS2 of shell pair            594
 max number of PS2 of shell pair           1035
 mem total for path MDJ                  855280
 -------------------------------------------------------
 Smallest overlap matrix eigenvalue = 3.60E-05
 Guess MOs from SCF MO coefficient file
 Reading MOs from coefficient file
 Reading MOs from coefficient file
 Long-range K will be added via erf
 Coulomb attenuation parameter = 0.3 bohr**(-1)
 A restricted hybrid HF-DFT SCF calculation will be
 performed using Geometric Direct Minimization
 Exchange:     0.1500 Hartree-Fock + 1.0000 wB97M-V + LR-HF
 Correlation:  1.0000 wB97M-V
 Using Euler-Maclaurin-Lebedev (99,590) quadrature formula
 Nonlocal Correlation:  VV10 with C = 0.0100 and b = 6.00 and scale = 1.00000
 Grid used for NLC:  SG-1 standard quadrature
 SCF converges when RMS gradient is below 1.0E-08
Using Q-Chem read-in guess as SCF_GUESS READ specified.

 using 8 threads for integral computing
 -------------------------------------------------------
 OpenMP Integral computing Module                
 Release: version 1.0, May 2013, Q-Chem Inc. Pittsburgh 
 -------------------------------------------------------
 using 8 threads for integral computing
 -------------------------------------------------------
 OpenMP Integral computing Module                
 Release: version 1.0, May 2013, Q-Chem Inc. Pittsburgh 
 -------------------------------------------------------
TIMEINFO->: J/JK contribution 410.78 sec.
 -------------------------------------------------------
 OpenMP BLAS3 based DFT computing Module                
 Release: version 1.0, May 2013, Q-Chem Inc. Pittsburgh 
 -------------------------------------------------------
 -------------------------------------------------------
 OpenMP BLAS3 based DFT computing Module                
 Release: version 1.0, May 2013, Q-Chem Inc. Pittsburgh 
 -------------------------------------------------------
 -------------------------------------------------------
 OpenMP BLAS3 based DFT computing Module                
 Release: version 1.0, May 2013, Q-Chem Inc. Pittsburgh 
 -------------------------------------------------------
 ---------------------------------------
  Cycle       Energy        RMS Gradient
 ---------------------------------------
    1    -225.2977642972      7.71E-04 Normal BFGS step
TIMEINFO->: J/JK contribution 412.53 sec.
    2    -225.2977683795      1.28E-04 Normal BFGS step
TIMEINFO->: J/JK contribution 386.24 sec.
    3    -225.2977686852      7.60E-05 Normal BFGS step
TIMEINFO->: J/JK contribution 380.20 sec.
    4    -225.2977687506      3.32E-05 Normal BFGS step
TIMEINFO->: J/JK contribution 379.44 sec.
    5    -225.2977687595      4.91E-06 Normal BFGS step
TIMEINFO->: J/JK contribution 366.83 sec.
    6    -225.2977687600      5.84E-07 Normal BFGS step
TIMEINFO->: J/JK contribution 348.35 sec.
    7    -225.2977687600      1.54E-07 Normal BFGS step
TIMEINFO->: J/JK contribution 329.30 sec.
   GDM::WARNING energy changes are now smaller than effective accuracy.
   GDM::        calculation will continue, but THRESH should be increased
   GDM::        or SCF_CONVERGENCE decreased.
   GDM::        effective_thresh =   1.200000000000000E-010
    8    -225.2977687600      2.24E-08 Normal BFGS step
TIMEINFO->: J/JK contribution 304.91 sec.
 Nonlocal correlation =     0.0324431674
    9    -225.2977687600      3.38E-09 Convergence criterion met
 ---------------------------------------
 wB97M-V orbitals are now ready for the wB97M(2) calculation.
 wB97M(2) energy = Exch (0.62194 SRHF + 1.0 LRHF + wB97M(2)_EXCH) + 
               Corr (wB97M(2)_CORR + 0.34096 MP2 + 0.65904 VV10(b=10))
 SCF time:  CPU 4574.01 s  wall 578.85 s
 SCF   energy in the final basis set = -225.13888187
 Total energy in the final basis set = -225.13888187
 
 Components of the MP2 correlation energy:
        aaaa  correlation energy =        -0.0374430709 au
        abab  correlation energy =        -0.2553508617 au
        bbbb  correlation energy =        -0.0374430709 au
        non-Brillouin singles    =        -0.0000000000 au

 Total  MP2   correlation energy =                    -0.33023700 au
        MP2         total energy =                  -225.46911887 au
 
 --------------------------------------------------------------
 
                    Orbital Energies (a.u.)
 --------------------------------------------------------------
 
 Alpha MOs
 -- Occupied --
-24.928 -24.928  -7.008  -1.387  -1.358  -0.712  -0.659  -0.639
 -0.618  -0.562  -0.547  -0.488
 -- Virtual --
  0.020   0.025   0.032   0.034   0.073   0.079   0.103   0.106
  0.116   0.120   0.127   0.132   0.148   0.189   0.192   0.203
  0.221   0.232   0.236   0.245   0.248   0.277   0.285   0.296
  0.339   0.361   0.388   0.393   0.419   0.456   0.461   0.463
  0.477   0.487   0.506   0.524   0.552   0.553   0.556   0.660
  0.666   0.674   0.676   0.704   0.716   0.723   0.754   0.757
  0.768   0.781   0.797   0.838   0.864   0.873   0.875   0.882
  0.920   0.936   1.005   1.016   1.059   1.090   1.104   1.108
  1.144   1.154   1.190   1.268   1.330   1.347   1.358   1.371
  1.391   1.405   1.407   1.423   1.435   1.452   1.463   1.493
  1.527   1.601   1.680   1.688   1.694   1.716   1.767   1.795
  1.813   1.823   1.885   1.888   1.913   1.949   1.991   2.013
  2.057   2.070   2.081   2.137   2.154   2.159   2.217   2.224
  2.224   2.263   2.271   2.294   2.303   2.328   2.354   2.467
  2.484   2.519   2.561   2.576   2.620   2.707   2.738   2.770
  2.791   2.809   2.838   2.845   2.940   2.949   3.134   3.151
  3.154   3.270   3.274   3.342   3.475   3.478   3.478   3.668
  3.753   3.785   3.811   3.818   3.848   3.881   3.898   3.906
  3.945   3.979   4.025   4.052   4.141   4.238   4.321   4.385
  4.389   4.489   4.573   4.578   4.592   4.604   4.755   4.790
  4.799   4.854   4.881   5.003   5.007   5.056   5.067   5.206
  5.228   5.274   5.333   5.365   5.404   5.405   5.432   5.462
  5.514   5.516   5.542   5.561   5.566   5.617   5.686   5.690
  5.734   5.750   5.836   5.849   5.953   6.018   6.049   6.131
  6.163   6.236   6.299   6.414   6.436   6.494   6.502   6.630
  6.698   6.881   6.978   6.995   7.075   7.081   7.203   7.280
  7.370   7.449   7.644   7.810   8.033   8.084   8.273   8.633
  8.714   8.785   8.930   8.934   9.366   9.547   9.682  10.988
 11.819  11.930  12.319  12.433  12.750  13.045  13.054  13.255
 13.257  13.259  13.260  13.404  13.410  13.484  13.501  13.568
 13.572  13.646  13.648  13.669  13.674  13.690  13.721  13.810
 13.909  14.069  14.223  15.406  15.414  15.448  15.454  15.560
 15.670  15.712  15.738  15.828  15.913  16.107  16.198  16.326
 16.353  16.443  16.517  16.543  16.629  16.794  16.795  16.921
 17.154  17.312  17.332  19.528  19.707  20.245  20.547  20.591
 22.149  22.356  25.574  41.101  41.118  41.456  41.527  42.143
 42.223  44.446  45.742  45.835  59.595  59.620  59.666  59.705
 59.797  59.800  59.884  60.000  60.113  60.152  75.366  75.366
 75.370  75.372  75.372  75.404  75.427  79.461  79.542  83.771
 85.615  85.694  86.148  86.293  86.343  97.237  97.238  97.244
 97.245  97.262  97.278  97.288  97.292  97.317  97.327  97.356
 97.356  97.411  97.422 144.527 144.553 144.812 144.863 145.358
145.428 152.206 153.275 153.346 250.232 250.249 250.272 250.295
250.343 250.345 250.393 250.454 250.511 250.534 270.127 270.178
352.600 494.081 494.106 494.310 494.351 494.751 494.8071121.902
*******
 --------------------------------------------------------------
 
          Ground-State Mulliken Net Atomic Charges

     Atom                 Charge (a.u.)
  ----------------------------------------
      1 B                     1.112696
      2 H                    -0.130085
      3 F                    -0.491306
      4 F                    -0.491306
  ----------------------------------------
  Sum of atomic charges =    -0.000000

 -----------------------------------------------------------------
                    Cartesian Multipole Moments
 -----------------------------------------------------------------
    Charge (ESU x 10^10)
                -0.0000
    Dipole Moment (Debye)
         X      -0.0000      Y      -0.0000      Z       0.8830
       Tot       0.8830
    Quadrupole Moments (Debye-Ang)
        XX     -14.6741     XY      -0.0000     YY     -18.5213
        XZ       0.0000     YZ       0.0000     ZZ     -16.0921
    Octopole Moments (Debye-Ang^2)
       XXX      -0.0000    XXY      -0.0000    XYY      -0.0000
       YYY      -0.0000    XXZ      -1.4861    XYZ       0.0000
       YYZ      -1.3276    XZZ      -0.0000    YZZ      -0.0000
       ZZZ      -5.7361
    Hexadecapole Moments (Debye-Ang^3)
      XXXX     -11.8194   XXXY      -0.0000   XXYY     -16.9364
      XYYY      -0.0000   YYYY     -91.7278   XXXZ       0.0000
      XXYZ       0.0000   XYYZ       0.0000   YYYZ      -0.0000
      XXZZ      -8.7560   XYZZ      -0.0000   YYZZ     -21.3226
      XZZZ       0.0000   YZZZ       0.0000   ZZZZ     -39.6794
 -----------------------------------------------------------------
Archival summary:
1\1\n0051.mhg0\SP\ProcedureUnspecified\BasisUnspecified\211\yhljason\TueOct2709:58:432020TueOct2709:58:432020\0\\#,ProcedureUnspecified,BasisUnspecified,\\0,1\F\B,1,1.31101\H,2,1.189,1,120.851\F,2,1.31101,1,118.297,3,-180,0\\\@

 Total job time:  1842.88s(wall), 14585.63s(cpu) 
 Tue Oct 27 09:58:43 2020

        *************************************************************
        *                                                           *
        *  Thank you very much for using Q-Chem.  Have a nice day.  *
        *                                                           *
        *************************************************************


