Q-Chem Developer Version!
                  Welcome to Q-Chem
     A Quantum Leap Into The Future Of Chemistry


 Q-Chem 5.1, Q-Chem, Inc., Pleasanton, CA (2018)

 Yihan Shao,  Zhengting Gan,  E. Epifanovsky,  A. T. B. Gilbert,  M. Wormit,  
 J. Kussmann,  A. W. Lange,  A. Behn,  Jia Deng,  Xintian Feng,  D. Ghosh,  
 M. Goldey,  P. R. Horn,  L. D. Jacobson,  I. Kaliman,  T. Kus,  A. Landau,  
 Jie Liu,  E. I. Proynov,  R. M. Richard,  R. P. Steele,  E. J. Sundstrom,  
 H. L. Woodcock III,  P. M. Zimmerman,  D. Zuev,  B. Albrecht,  E. Alguire,  
 S. A. Baeppler,  D. Barton,  Z. Benda,  Y. A. Bernard,  E. J. Berquist,  
 K. B. Bravaya,  H. Burton,  D. Casanova,  Chun-Min Chang,  Yunqing Chen,  
 A. Chien,  K. D. Closser,  M. P. Coons,  S. Coriani,  S. Dasgupta,  
 A. L. Dempwolff,  M. Diedenhofen,  Hainam Do,  R. G. Edgar,  Po-Tung Fang,  
 S. Faraji,  S. Fatehi,  Qingguo Feng,  K. D. Fenk,  J. Fosso-Tande,  
 Qinghui Ge,  A. Ghysels,  G. Gidofalvi,  J. Gomes,  J. Gonthier,  A. Gunina,  
 D. Hait,  M. W. D. Hanson-Heine,  P. H. P. Harbach,  A. W. Hauser,  
 J. E. Herr,  E. G. Hohenstein,  Z. C. Holden,  Kerwin Hui,  B. C. Huynh,  
 T.-C. Jagau,  Hyunjun Ji,  B. Kaduk,  K. Khistyaev,  Jaehoon Kim,  
 P. Klunzinger,  K. Koh,  D. Kosenkov,  L. Koulias,  T. Kowalczyk,  
 C. M. Krauter,  A. Kunitsa,  Ka Un Lao,  A. Laurent,  K. V. Lawler,  
 Joonho Lee,  D. Lefrancois,  S. Lehtola,  D. S. Levine,  Yi-Pei Li,  
 You-Sheng Lin,  Fenglai Liu,  E. Livshits,  A. Luenser,  P. Manohar,  
 E. Mansoor,  S. F. Manzer,  Shan-Ping Mao,  Yuezhi Mao,  N. Mardirossian,  
 A. V. Marenich,  T. Markovich,  L. A. Martinez-Martinez,  S. A. Maurer,  
 N. J. Mayhall,  S. C. McKenzie,  J.-M. Mewes,  A. F. Morrison,  
 J. W. Mullinax,  K. Nanda,  T. S. Nguyen-Beck,  R. Olivares-Amaya,  
 J. A. Parkhill,  T. M. Perrine,  F. Plasser,  P. Pokhilko,  S. Prager,  
 A. Prociuk,  E. Ramos,  D. R. Rehn,  F. Rob,  M. Schneider,  N. Sergueev,  
 S. M. Sharada,  S. Sharma,  D. W. Small,  T. Stauch,  T. Stein,  
 Yu-Chuan Su,  A. J. W. Thom,  A. Tkatchenko,  T. Tsuchimochi,  N. M. Tubman,  
 L. Vogt,  M. L. Vidal,  O. Vydrov,  M. A. Watson,  J. Wenzel,  
 M. de Wergifosse,  T. A. Wesolowski,  A. White,  J. Witte,  A. Yamada,  
 Jun Yang,  K. Yao,  S. Yeganeh,  S. R. Yost,  Zhi-Qiang You,  A. Zech,  
 Igor Ying Zhang,  Xing Zhang,  Yan Zhao,  Ying Zhu,  B. R. Brooks,  
 G. K. L. Chan,  C. J. Cramer,  M. S. Gordon,  W. J. Hehre,  A. Klamt,  
 M. W. Schmidt,  C. D. Sherrill,  D. G. Truhlar,  A. Aspuru-Guzik,  R. Baer,  
 A. T. Bell,  N. A. Besley,  Jeng-Da Chai,  A. E. DePrince, III,  
 R. A. DiStasio Jr.,  A. Dreuw,  B. D. Dunietz,  T. R. Furlani,  
 Chao-Ping Hsu,  Yousung Jung,  Jing Kong,  D. S. Lambrecht,  WanZhen Liang,  
 C. Ochsenfeld,  V. A. Rassolov,  L. V. Slipchenko,  J. E. Subotnik,  
 T. Van Voorhis,  J. M. Herbert,  A. I. Krylov,  P. M. W. Gill,  M. Head-Gordon

 Contributors to earlier versions of Q-Chem not listed above: 
 R. D. Adamson,  B. Austin,  J. Baker,  G. J. O. Beran,  K. Brandhorst,  
 S. T. Brown,  E. F. C. Byrd,  A. K. Chakraborty,  C.-L. Cheng,  
 Siu Hung Chien,  D. M. Chipman,  D. L. Crittenden,  H. Dachsel,  
 R. J. Doerksen,  A. D. Dutoi,  L. Fusti-Molnar,  W. A. Goddard III,  
 A. Golubeva-Zadorozhnaya,  S. R. Gwaltney,  G. Hawkins,  A. Heyden,  
 S. Hirata,  G. Kedziora,  F. J. Keil,  C. Kelley,  Jihan Kim,  R. A. King,  
 R. Z. Khaliullin,  P. P. Korambath,  W. Kurlancheek,  A. M. Lee,  M. S. Lee,  
 S. V. Levchenko,  Ching Yeh Lin,  D. Liotard,  R. C. Lochan,  I. Lotan,  
 P. E. Maslen,  N. Nair,  D. P. O'Neill,  D. Neuhauser,  E. Neuscamman,  
 C. M. Oana,  R. Olson,  B. Peters,  R. Peverati,  P. A. Pieniazek,  
 Y. M. Rhee,  J. Ritchie,  M. A. Rohrdanz,  E. Rosta,  N. J. Russ,  
 H. F. Schaefer III,  N. E. Schultz,  N. Shenvi,  A. C. Simmonett,  A. Sodt,  
 D. Stuck,  K. S. Thanthiriwatte,  V. Vanovschi,  Tao Wang,  A. Warshel,  
 C. F. Williams,  Q. Wu,  X. Xu,  W. Zhang

 Please cite Q-Chem as follows:
 Y. Shao et al., Mol. Phys. 113, 184-215 (2015)
 DOI: 10.1080/00268976.2014.952696

 Q-Chem 5.1.1 for Intel X86 EM64T Linux

 Parts of Q-Chem use Armadillo 8.300.2 (Tropical Shenanigans).
 http://arma.sourceforge.net/

 Q-Chem begins on Tue Oct 27 03:57:31 2020  

Host: n0060.mhg0
0

     Scratch files written to /local/scratch/users/yhljason/C2H4_wB97M2_aug-cc-pcVQZ.inp20201027035727//
Input Ideriv = 2
Curr. Ideriv = -1
Max.  Ideriv = 2
Input Ideriv = 1
Curr. Ideriv = 2
Max.  Ideriv = 1

Checking the input file for inconsistencies... 	...done.

--------------------------------------------------------------
User input:
--------------------------------------------------------------
$molecule
0 1
C1      0.0000  0.0000  0.6695
C2      0.0000  0.0000  -0.6695
H3      0.0000  0.9289  1.2321
H4      0.0000  -0.9289 1.2321
H5      0.0000  0.9289  -1.2321
H6      0.0000  -0.9289 -1.2321
$end

$rem
jobtype sp
method wB97M-V
xc_grid 000099000590
basis aug-cc-pcVQZ
max_scf_cycles 200
thresh 14
scf_convergence 8
scf_algorithm gdm
symmetry false
sym_ignore true
unrestricted false
gen_scfman true
internal_stability_iter 15
internal_stability_davidson_iter 200
mem_total 128000
n_frozen_core 0
$end



--------------------------------------------------------------
 ----------------------------------------------------------------
             Standard Nuclear Orientation (Angstroms)
    I     Atom           X                Y                Z
 ----------------------------------------------------------------
    1      C       0.0000000000     0.0000000000     0.6695000000
    2      C       0.0000000000     0.0000000000    -0.6695000000
    3      H       0.0000000000     0.9289000000     1.2321000000
    4      H       0.0000000000    -0.9289000000     1.2321000000
    5      H       0.0000000000     0.9289000000    -1.2321000000
    6      H       0.0000000000    -0.9289000000    -1.2321000000
 ----------------------------------------------------------------
 Nuclear Repulsion Energy =    33.2650904736 hartrees
 There are        8 alpha and        8 beta electrons
 Requested basis set is aug-cc-pCVQZ
 There are 114 shells and 402 basis functions

 Total QAlloc2 of 8 
 
Q-Chem Developer Version!
                  Welcome to Q-Chem
     A Quantum Leap Into The Future Of Chemistry


 Q-Chem 5.1, Q-Chem, Inc., Pleasanton, CA (2018)

 Yihan Shao,  Zhengting Gan,  E. Epifanovsky,  A. T. B. Gilbert,  M. Wormit,  
 J. Kussmann,  A. W. Lange,  A. Behn,  Jia Deng,  Xintian Feng,  D. Ghosh,  
 M. Goldey,  P. R. Horn,  L. D. Jacobson,  I. Kaliman,  T. Kus,  A. Landau,  
 Jie Liu,  E. I. Proynov,  R. M. Richard,  R. P. Steele,  E. J. Sundstrom,  
 H. L. Woodcock III,  P. M. Zimmerman,  D. Zuev,  B. Albrecht,  E. Alguire,  
 S. A. Baeppler,  D. Barton,  Z. Benda,  Y. A. Bernard,  E. J. Berquist,  
 K. B. Bravaya,  H. Burton,  D. Casanova,  Chun-Min Chang,  Yunqing Chen,  
 A. Chien,  K. D. Closser,  M. P. Coons,  S. Coriani,  S. Dasgupta,  
 A. L. Dempwolff,  M. Diedenhofen,  Hainam Do,  R. G. Edgar,  Po-Tung Fang,  
 S. Faraji,  S. Fatehi,  Qingguo Feng,  K. D. Fenk,  J. Fosso-Tande,  
 Qinghui Ge,  A. Ghysels,  G. Gidofalvi,  J. Gomes,  J. Gonthier,  A. Gunina,  
 D. Hait,  M. W. D. Hanson-Heine,  P. H. P. Harbach,  A. W. Hauser,  
 J. E. Herr,  E. G. Hohenstein,  Z. C. Holden,  Kerwin Hui,  B. C. Huynh,  
 T.-C. Jagau,  Hyunjun Ji,  B. Kaduk,  K. Khistyaev,  Jaehoon Kim,  
 P. Klunzinger,  K. Koh,  D. Kosenkov,  L. Koulias,  T. Kowalczyk,  
 C. M. Krauter,  A. Kunitsa,  Ka Un Lao,  A. Laurent,  K. V. Lawler,  
 Joonho Lee,  D. Lefrancois,  S. Lehtola,  D. S. Levine,  Yi-Pei Li,  
 You-Sheng Lin,  Fenglai Liu,  E. Livshits,  A. Luenser,  P. Manohar,  
 E. Mansoor,  S. F. Manzer,  Shan-Ping Mao,  Yuezhi Mao,  N. Mardirossian,  
 A. V. Marenich,  T. Markovich,  L. A. Martinez-Martinez,  S. A. Maurer,  
 N. J. Mayhall,  S. C. McKenzie,  J.-M. Mewes,  A. F. Morrison,  
 J. W. Mullinax,  K. Nanda,  T. S. Nguyen-Beck,  R. Olivares-Amaya,  
 J. A. Parkhill,  T. M. Perrine,  F. Plasser,  P. Pokhilko,  S. Prager,  
 A. Prociuk,  E. Ramos,  D. R. Rehn,  F. Rob,  M. Schneider,  N. Sergueev,  
 S. M. Sharada,  S. Sharma,  D. W. Small,  T. Stauch,  T. Stein,  
 Yu-Chuan Su,  A. J. W. Thom,  A. Tkatchenko,  T. Tsuchimochi,  N. M. Tubman,  
 L. Vogt,  M. L. Vidal,  O. Vydrov,  M. A. Watson,  J. Wenzel,  
 M. de Wergifosse,  T. A. Wesolowski,  A. White,  J. Witte,  A. Yamada,  
 Jun Yang,  K. Yao,  S. Yeganeh,  S. R. Yost,  Zhi-Qiang You,  A. Zech,  
 Igor Ying Zhang,  Xing Zhang,  Yan Zhao,  Ying Zhu,  B. R. Brooks,  
 G. K. L. Chan,  C. J. Cramer,  M. S. Gordon,  W. J. Hehre,  A. Klamt,  
 M. W. Schmidt,  C. D. Sherrill,  D. G. Truhlar,  A. Aspuru-Guzik,  R. Baer,  
 A. T. Bell,  N. A. Besley,  Jeng-Da Chai,  A. E. DePrince, III,  
 R. A. DiStasio Jr.,  A. Dreuw,  B. D. Dunietz,  T. R. Furlani,  
 Chao-Ping Hsu,  Yousung Jung,  Jing Kong,  D. S. Lambrecht,  WanZhen Liang,  
 C. Ochsenfeld,  V. A. Rassolov,  L. V. Slipchenko,  J. E. Subotnik,  
 T. Van Voorhis,  J. M. Herbert,  A. I. Krylov,  P. M. W. Gill,  M. Head-Gordon

 Contributors to earlier versions of Q-Chem not listed above: 
 R. D. Adamson,  B. Austin,  J. Baker,  G. J. O. Beran,  K. Brandhorst,  
 S. T. Brown,  E. F. C. Byrd,  A. K. Chakraborty,  C.-L. Cheng,  
 Siu Hung Chien,  D. M. Chipman,  D. L. Crittenden,  H. Dachsel,  
 R. J. Doerksen,  A. D. Dutoi,  L. Fusti-Molnar,  W. A. Goddard III,  
 A. Golubeva-Zadorozhnaya,  S. R. Gwaltney,  G. Hawkins,  A. Heyden,  
 S. Hirata,  G. Kedziora,  F. J. Keil,  C. Kelley,  Jihan Kim,  R. A. King,  
 R. Z. Khaliullin,  P. P. Korambath,  W. Kurlancheek,  A. M. Lee,  M. S. Lee,  
 S. V. Levchenko,  Ching Yeh Lin,  D. Liotard,  R. C. Lochan,  I. Lotan,  
 P. E. Maslen,  N. Nair,  D. P. O'Neill,  D. Neuhauser,  E. Neuscamman,  
 C. M. Oana,  R. Olson,  B. Peters,  R. Peverati,  P. A. Pieniazek,  
 Y. M. Rhee,  J. Ritchie,  M. A. Rohrdanz,  E. Rosta,  N. J. Russ,  
 H. F. Schaefer III,  N. E. Schultz,  N. Shenvi,  A. C. Simmonett,  A. Sodt,  
 D. Stuck,  K. S. Thanthiriwatte,  V. Vanovschi,  Tao Wang,  A. Warshel,  
 C. F. Williams,  Q. Wu,  X. Xu,  W. Zhang

 Please cite Q-Chem as follows:
 Y. Shao et al., Mol. Phys. 113, 184-215 (2015)
 DOI: 10.1080/00268976.2014.952696

 Q-Chem 5.1.1 for Intel X86 EM64T Linux

 Parts of Q-Chem use Armadillo 8.300.2 (Tropical Shenanigans).
 http://arma.sourceforge.net/

 Q-Chem begins on Tue Oct 27 05:23:26 2020  

Host: n0060.mhg0
0

     Scratch files written to /local/scratch/users/yhljason/C2H4_wB97M2_aug-cc-pcVQZ.inp20201027035727//
The previous job contains 0 fragments, simply inherited here
Input Ideriv = 0
Curr. Ideriv = -1
Max.  Ideriv = 0
Analytic post-HF gradients are not available with non-HF exchange
Input Ideriv = 0
Curr. Ideriv = 0
Max.  Ideriv = 0

Checking the input file for inconsistencies... 	...done.

--------------------------------------------------------------
User input:
--------------------------------------------------------------
$molecule
read
$end

$rem
jobtype sp
exchange wB97M(2)
xc_grid 000099000590
basis aug-cc-pcVQZ
max_scf_cycles 200
thresh 14
scf_convergence 8
scf_algorithm gdm
symmetry false
sym_ignore true
unrestricted false
gen_scfman false
mem_total 128000
cc_memory 96000
cc_backend xm
mem_static 1500
n_frozen_core 0
scf_guess read
$end



--------------------------------------------------------------
 ----------------------------------------------------------------
             Standard Nuclear Orientation (Angstroms)
    I     Atom           X                Y                Z
 ----------------------------------------------------------------
    1      C       0.0000000000     0.0000000000     0.6695000000
    2      C       0.0000000000     0.0000000000    -0.6695000000
    3      H       0.0000000000     0.9289000000     1.2321000000
    4      H       0.0000000000    -0.9289000000     1.2321000000
    5      H       0.0000000000     0.9289000000    -1.2321000000
    6      H       0.0000000000    -0.9289000000    -1.2321000000
 ----------------------------------------------------------------
 Nuclear Repulsion Energy =    33.2650904736 hartrees
 There are        8 alpha and        8 beta electrons
 Requested basis set is aug-cc-pCVQZ
 There are 114 shells and 402 basis functions

 Total QAlloc Memory Limit 128000 MB
 Mega-Array Size      1467 MB
 MEM_STATIC part      1500 MB

                       Distance Matrix (Angstroms)
             C (  1)   C (  2)   H (  3)   H (  4)   H (  5)
   C (  2)  1.339000
   H (  3)  1.085990  2.116350
   H (  4)  1.085990  2.116350  1.857800
   H (  5)  2.116350  1.085990  2.464200  3.086050
   H (  6)  2.116350  1.085990  3.086050  2.464200  1.857800
 
 A cutoff of  1.0D-14 yielded   6461 shell pairs
 There are     81065 function pairs (    124847 Cartesian)
 
 -------------------------------------------------------
 OpenMP Integral Computing Module                       
 Release: version 1.0, May 2013, Q-Chem Inc. Pittsburgh 
 -------------------------------------------------------
 Integral Job Info:
 Integral job number is                      11
 Integral operator is                         1
 short-range coefficients              15000000
 long-range coefficients              100000000
 Omega coefficients                         300
 if combine SR and LR in K                    1
 Integral screening is                        0
 Integral computing path is                   2
 max size of driver memory is           3200000
 size of driver memory is               1704330
 size of scratch memory is             18852824
 max col of scratch BK array              50625
 max len of scratch array in speh3         2114
 max len of scratch index in speh4           50
 max int batch size is                      520
 min int batch size is                       52
 fixed nKL is                                52
 max L of basis functions is                  4
 order of int derivative is                   0
 number of shells is                        114
 number of basis is                         498
 number of cartesian basis is               498
 number of contracted shell pairs          6461
 number of primitive shell pairs          11470
 maxK2 (contraction) of shell pair           81
 max number of K2 of shell pair               1
 max number of CS2 of shell pair            904
 max number of PS2 of shell pair           1008
 mem total for path MDJ                  908728
 -------------------------------------------------------
 Smallest overlap matrix eigenvalue = 2.88E-06

 Scale SEOQF with 1.000000e-01/1.000000e-01/1.000000e-01

 Standard Electronic Orientation quadrupole field applied
 Nucleus-field energy     =    -0.0000000010 hartrees
 Guess MOs from SCF MO coefficient file
 Reading MOs from coefficient file
 Reading MOs from coefficient file
 Long-range K will be added via erf
 Coulomb attenuation parameter = 0.3 bohr**(-1)
 A restricted hybrid HF-DFT SCF calculation will be
 performed using Geometric Direct Minimization
 Exchange:     0.1500 Hartree-Fock + 1.0000 wB97M-V + LR-HF
 Correlation:  1.0000 wB97M-V
 Using Euler-Maclaurin-Lebedev (99,590) quadrature formula
 Nonlocal Correlation:  VV10 with C = 0.0100 and b = 6.00 and scale = 1.00000
 Grid used for NLC:  SG-1 standard quadrature
 SCF converges when RMS gradient is below 1.0E-08
Using Q-Chem read-in guess as SCF_GUESS READ specified.

 using 8 threads for integral computing
 -------------------------------------------------------
 OpenMP Integral computing Module                
 Release: version 1.0, May 2013, Q-Chem Inc. Pittsburgh 
 -------------------------------------------------------
 using 8 threads for integral computing
 -------------------------------------------------------
 OpenMP Integral computing Module                
 Release: version 1.0, May 2013, Q-Chem Inc. Pittsburgh 
 -------------------------------------------------------
TIMEINFO->: J/JK contribution 578.78 sec.
 -------------------------------------------------------
 OpenMP BLAS3 based DFT computing Module                
 Release: version 1.0, May 2013, Q-Chem Inc. Pittsburgh 
 -------------------------------------------------------
 -------------------------------------------------------
 OpenMP BLAS3 based DFT computing Module                
 Release: version 1.0, May 2013, Q-Chem Inc. Pittsburgh 
 -------------------------------------------------------
 -------------------------------------------------------
 OpenMP BLAS3 based DFT computing Module                
 Release: version 1.0, May 2013, Q-Chem Inc. Pittsburgh 
 -------------------------------------------------------
 ---------------------------------------
  Cycle       Energy        RMS Gradient
 ---------------------------------------
    1     -78.5723188114      3.43E-09 Normal BFGS step
TIMEINFO->: J/JK contribution 577.63 sec.
 Nonlocal correlation =     0.0211061878
    2     -78.5723188114      2.75E-09 Convergence criterion met
 ---------------------------------------
 wB97M-V orbitals are now ready for the wB97M(2) calculation.
 wB97M(2) energy = Exch (0.62194 SRHF + 1.0 LRHF + wB97M(2)_EXCH) + 
               Corr (wB97M(2)_CORR + 0.34096 MP2 + 0.65904 VV10(b=10))
 SCF time:  CPU 2542.89 s  wall 325.00 s
 SCF   energy in the final basis set = -78.49327469
 Total energy in the final basis set = -78.49327469
 
 Components of the MP2 correlation energy:
        aaaa  correlation energy =        -0.0170594664 au
        abab  correlation energy =        -0.1490189531 au
        bbbb  correlation energy =        -0.0170594664 au
        non-Brillouin singles    =        -0.0000000000 au

 Total  MP2   correlation energy =                    -0.18313789 au
        MP2         total energy =                   -78.67641258 au
 
 --------------------------------------------------------------
 
                    Orbital Energies (a.u.)
 --------------------------------------------------------------
 
 Alpha MOs
 -- Occupied --
-10.344 -10.344  -0.883  -0.693  -0.578  -0.522  -0.456  -0.373
 -- Virtual --
  0.015   0.025   0.027   0.046   0.055   0.059   0.073   0.091
  0.108   0.109   0.110   0.129   0.141   0.144   0.168   0.179
  0.209   0.219   0.222   0.224   0.240   0.242   0.256   0.267
  0.271   0.293   0.294   0.295   0.299   0.313   0.318   0.327
  0.328   0.337   0.351   0.383   0.405   0.417   0.422   0.455
  0.461   0.483   0.489   0.520   0.526   0.529   0.562   0.565
  0.569   0.622   0.635   0.636   0.643   0.654   0.655   0.655
  0.662   0.667   0.679   0.708   0.711   0.736   0.741   0.777
  0.778   0.794   0.800   0.810   0.818   0.821   0.823   0.865
  0.907   0.918   0.937   0.938   0.957   0.970   1.002   1.037
  1.046   1.090   1.090   1.090   1.099   1.138   1.144   1.158
  1.186   1.196   1.197   1.203   1.229   1.236   1.298   1.332
  1.353   1.359   1.370   1.385   1.428   1.433   1.495   1.495
  1.557   1.560   1.594   1.595   1.607   1.617   1.657   1.689
  1.698   1.701   1.707   1.734   1.769   1.791   1.824   1.843
  1.844   1.880   1.886   1.887   1.929   1.944   1.949   1.949
  1.958   1.960   1.979   1.997   2.000   2.003   2.036   2.083
  2.098   2.107   2.131   2.147   2.160   2.164   2.209   2.219
  2.219   2.235   2.246   2.264   2.275   2.275   2.288   2.312
  2.327   2.360   2.394   2.415   2.461   2.481   2.507   2.524
  2.532   2.556   2.631   2.638   2.665   2.686   2.722   2.735
  2.749   2.780   2.785   2.835   2.851   2.855   2.898   2.952
  2.986   3.099   3.103   3.175   3.197   3.268   3.424   3.425
  3.435   3.436   3.481   3.510   3.526   3.562   3.584   3.608
  3.642   3.644   3.723   3.734   3.758   3.784   3.793   3.833
  3.934   3.934   3.976   4.002   4.100   4.101   4.133   4.161
  4.183   4.238   4.263   4.302   4.340   4.407   4.409   4.545
  4.582   4.760   4.793   4.855   4.919   5.110   5.372   5.526
  5.558   5.571   5.589   5.618   5.665   5.665   5.772   5.835
  5.859   5.916   5.937   5.975   5.996   6.075   6.080   6.082
  6.167   6.206   6.237   6.253   6.309   6.361   6.373   6.467
  6.495   6.504   6.564   6.658   6.670   6.673   6.689   6.711
  6.771   6.807   6.835   6.856   6.921   6.957   6.966   6.978
  6.988   7.073   7.075   7.276   7.345   7.383   7.403   7.422
  7.483   7.562   7.617   7.663   7.717   7.805   7.927   7.977
  8.020   8.050   8.168   8.183   8.186   8.225   8.325   8.342
  8.350   8.390   8.424   8.530   8.574   8.613   8.687   8.694
  8.740   8.801   8.867   8.968   9.047   9.049   9.050   9.118
  9.160   9.228   9.282   9.316   9.353   9.384   9.449   9.494
  9.645   9.674   9.681   9.757   9.767   9.941   9.988  10.054
 10.081  10.159  10.228  10.265  10.321  10.460  10.770  10.878
 10.890  11.079  11.145  11.815  12.416  12.797  13.311  13.603
 18.911  19.216  20.180  20.516  21.176  21.700  26.373  26.490
 26.511  26.950  26.990  27.115  27.287  27.515  27.578  27.784
 37.009  37.305  66.096  66.314  67.084  67.345  67.767  68.318
 98.163  98.172  98.199  98.201  98.203  98.208  98.210  98.211
 98.230  98.237  98.243  98.249  98.261  98.307 114.723 114.792
114.802 115.050 115.057 115.092 115.185 115.342 115.353 115.490
123.119 123.344 225.288 225.460 226.095 226.327 226.675 227.125
513.717 513.820
 --------------------------------------------------------------
 
          Ground-State Mulliken Net Atomic Charges

     Atom                 Charge (a.u.)
  ----------------------------------------
      1 C                    -0.178072
      2 C                    -0.178072
      3 H                     0.089036
      4 H                     0.089036
      5 H                     0.089036
      6 H                     0.089036
  ----------------------------------------
  Sum of atomic charges =    -0.000000

 -----------------------------------------------------------------
                    Cartesian Multipole Moments
 -----------------------------------------------------------------
    Charge (ESU x 10^10)
                -0.0000
    Dipole Moment (Debye)
         X       0.0000      Y       0.0000      Z       0.0000
       Tot       0.0000
    Quadrupole Moments (Debye-Ang)
        XX     -15.9427     XY       0.0000     YY     -12.5343
        XZ      -0.0000     YZ      -0.0000     ZZ     -12.4796
    Octopole Moments (Debye-Ang^2)
       XXX       0.0000    XXY      -0.0000    XYY       0.0000
       YYY       0.0000    XXZ      -0.0000    XYZ      -0.0000
       YYZ      -0.0000    XZZ       0.0000    YZZ       0.0000
       ZZZ      -0.0000
    Hexadecapole Moments (Debye-Ang^3)
      XXXX     -20.7380   XXXY       0.0000   XXYY      -9.0452
      XYYY       0.0000   YYYY     -28.6081   XXXZ      -0.0000
      XXYZ      -0.0000   XYYZ       0.0000   YYYZ      -0.0000
      XXZZ     -16.2407   XYZZ       0.0000   YYZZ     -13.9122
      XZZZ       0.0000   YZZZ      -0.0000   ZZZZ     -71.1788
 -----------------------------------------------------------------
Archival summary:
1\1\n0060.mhg0\SP\ProcedureUnspecified\BasisUnspecified\24\yhljason\TueOct2706:03:202020TueOct2706:03:202020\0\\#,ProcedureUnspecified,BasisUnspecified,\\0,1\C\H,1,1.08599\H,1,1.08599,2,117.597\C,1,1.339,2,121.202,3,-180,0\H,4,1.08599,1,121.202,2,-0,0\H,4,1.08599,1,121.202,2,-180,0\\\@

 Total job time:  2394.21s(wall), 18930.06s(cpu) 
 Tue Oct 27 06:03:20 2020

        *************************************************************
        *                                                           *
        *  Thank you very much for using Q-Chem.  Have a nice day.  *
        *                                                           *
        *************************************************************


 
User input: 3 of 8 
 
Q-Chem Developer Version!
                  Welcome to Q-Chem
     A Quantum Leap Into The Future Of Chemistry


 Q-Chem 5.1, Q-Chem, Inc., Pleasanton, CA (2018)

 Yihan Shao,  Zhengting Gan,  E. Epifanovsky,  A. T. B. Gilbert,  M. Wormit,  
 J. Kussmann,  A. W. Lange,  A. Behn,  Jia Deng,  Xintian Feng,  D. Ghosh,  
 M. Goldey,  P. R. Horn,  L. D. Jacobson,  I. Kaliman,  T. Kus,  A. Landau,  
 Jie Liu,  E. I. Proynov,  R. M. Richard,  R. P. Steele,  E. J. Sundstrom,  
 H. L. Woodcock III,  P. M. Zimmerman,  D. Zuev,  B. Albrecht,  E. Alguire,  
 S. A. Baeppler,  D. Barton,  Z. Benda,  Y. A. Bernard,  E. J. Berquist,  
 K. B. Bravaya,  H. Burton,  D. Casanova,  Chun-Min Chang,  Yunqing Chen,  
 A. Chien,  K. D. Closser,  M. P. Coons,  S. Coriani,  S. Dasgupta,  
 A. L. Dempwolff,  M. Diedenhofen,  Hainam Do,  R. G. Edgar,  Po-Tung Fang,  
 S. Faraji,  S. Fatehi,  Qingguo Feng,  K. D. Fenk,  J. Fosso-Tande,  
 Qinghui Ge,  A. Ghysels,  G. Gidofalvi,  J. Gomes,  J. Gonthier,  A. Gunina,  
 D. Hait,  M. W. D. Hanson-Heine,  P. H. P. Harbach,  A. W. Hauser,  
 J. E. Herr,  E. G. Hohenstein,  Z. C. Holden,  Kerwin Hui,  B. C. Huynh,  
 T.-C. Jagau,  Hyunjun Ji,  B. Kaduk,  K. Khistyaev,  Jaehoon Kim,  
 P. Klunzinger,  K. Koh,  D. Kosenkov,  L. Koulias,  T. Kowalczyk,  
 C. M. Krauter,  A. Kunitsa,  Ka Un Lao,  A. Laurent,  K. V. Lawler,  
 Joonho Lee,  D. Lefrancois,  S. Lehtola,  D. S. Levine,  Yi-Pei Li,  
 You-Sheng Lin,  Fenglai Liu,  E. Livshits,  A. Luenser,  P. Manohar,  
 E. Mansoor,  S. F. Manzer,  Shan-Ping Mao,  Yuezhi Mao,  N. Mardirossian,  
 A. V. Marenich,  T. Markovich,  L. A. Martinez-Martinez,  S. A. Maurer,  
 N. J. Mayhall,  S. C. McKenzie,  J.-M. Mewes,  A. F. Morrison,  
 J. W. Mullinax,  K. Nanda,  T. S. Nguyen-Beck,  R. Olivares-Amaya,  
 J. A. Parkhill,  T. M. Perrine,  F. Plasser,  P. Pokhilko,  S. Prager,  
 A. Prociuk,  E. Ramos,  D. R. Rehn,  F. Rob,  M. Schneider,  N. Sergueev,  
 S. M. Sharada,  S. Sharma,  D. W. Small,  T. Stauch,  T. Stein,  
 Yu-Chuan Su,  A. J. W. Thom,  A. Tkatchenko,  T. Tsuchimochi,  N. M. Tubman,  
 L. Vogt,  M. L. Vidal,  O. Vydrov,  M. A. Watson,  J. Wenzel,  
 M. de Wergifosse,  T. A. Wesolowski,  A. White,  J. Witte,  A. Yamada,  
 Jun Yang,  K. Yao,  S. Yeganeh,  S. R. Yost,  Zhi-Qiang You,  A. Zech,  
 Igor Ying Zhang,  Xing Zhang,  Yan Zhao,  Ying Zhu,  B. R. Brooks,  
 G. K. L. Chan,  C. J. Cramer,  M. S. Gordon,  W. J. Hehre,  A. Klamt,  
 M. W. Schmidt,  C. D. Sherrill,  D. G. Truhlar,  A. Aspuru-Guzik,  R. Baer,  
 A. T. Bell,  N. A. Besley,  Jeng-Da Chai,  A. E. DePrince, III,  
 R. A. DiStasio Jr.,  A. Dreuw,  B. D. Dunietz,  T. R. Furlani,  
 Chao-Ping Hsu,  Yousung Jung,  Jing Kong,  D. S. Lambrecht,  WanZhen Liang,  
 C. Ochsenfeld,  V. A. Rassolov,  L. V. Slipchenko,  J. E. Subotnik,  
 T. Van Voorhis,  J. M. Herbert,  A. I. Krylov,  P. M. W. Gill,  M. Head-Gordon

 Contributors to earlier versions of Q-Chem not listed above: 
 R. D. Adamson,  B. Austin,  J. Baker,  G. J. O. Beran,  K. Brandhorst,  
 S. T. Brown,  E. F. C. Byrd,  A. K. Chakraborty,  C.-L. Cheng,  
 Siu Hung Chien,  D. M. Chipman,  D. L. Crittenden,  H. Dachsel,  
 R. J. Doerksen,  A. D. Dutoi,  L. Fusti-Molnar,  W. A. Goddard III,  
 A. Golubeva-Zadorozhnaya,  S. R. Gwaltney,  G. Hawkins,  A. Heyden,  
 S. Hirata,  G. Kedziora,  F. J. Keil,  C. Kelley,  Jihan Kim,  R. A. King,  
 R. Z. Khaliullin,  P. P. Korambath,  W. Kurlancheek,  A. M. Lee,  M. S. Lee,  
 S. V. Levchenko,  Ching Yeh Lin,  D. Liotard,  R. C. Lochan,  I. Lotan,  
 P. E. Maslen,  N. Nair,  D. P. O'Neill,  D. Neuhauser,  E. Neuscamman,  
 C. M. Oana,  R. Olson,  B. Peters,  R. Peverati,  P. A. Pieniazek,  
 Y. M. Rhee,  J. Ritchie,  M. A. Rohrdanz,  E. Rosta,  N. J. Russ,  
 H. F. Schaefer III,  N. E. Schultz,  N. Shenvi,  A. C. Simmonett,  A. Sodt,  
 D. Stuck,  K. S. Thanthiriwatte,  V. Vanovschi,  Tao Wang,  A. Warshel,  
 C. F. Williams,  Q. Wu,  X. Xu,  W. Zhang

 Please cite Q-Chem as follows:
 Y. Shao et al., Mol. Phys. 113, 184-215 (2015)
 DOI: 10.1080/00268976.2014.952696

 Q-Chem 5.1.1 for Intel X86 EM64T Linux

 Parts of Q-Chem use Armadillo 8.300.2 (Tropical Shenanigans).
 http://arma.sourceforge.net/

 Q-Chem begins on Tue Oct 27 06:03:20 2020  

Host: n0060.mhg0
0

     Scratch files written to /local/scratch/users/yhljason/C2H4_wB97M2_aug-cc-pcVQZ.inp20201027035727//
The previous job contains 0 fragments, simply inherited here
Input Ideriv = 0
Curr. Ideriv = -1
Max.  Ideriv = 0
Analytic post-HF gradients are not available with non-HF exchange
Input Ideriv = 0
Curr. Ideriv = 0
Max.  Ideriv = 0

Checking the input file for inconsistencies... 	...done.

--------------------------------------------------------------
User input:
--------------------------------------------------------------
$molecule
read
$end

$rem
jobtype sp
exchange wB97M(2)
xc_grid 000099000590
basis aug-cc-pcVQZ

max_scf_cycles 200
thresh 14
scf_convergence 8
mem_total 128000
cc_memory 96000
cc_backend xm
mem_static 1500
symmetry false
sym_ignore true
scf_guess read
unrestricted false
scf_algorithm gdm
n_frozen_core 0
$end



$multipole_field
XX 0.0001
$end


--------------------------------------------------------------
 ----------------------------------------------------------------
             Standard Nuclear Orientation (Angstroms)
    I     Atom           X                Y                Z
 ----------------------------------------------------------------
    1      C       0.0000000000     0.0000000000     0.6695000000
    2      C       0.0000000000     0.0000000000    -0.6695000000
    3      H       0.0000000000     0.9289000000     1.2321000000
    4      H       0.0000000000    -0.9289000000     1.2321000000
    5      H       0.0000000000     0.9289000000    -1.2321000000
    6      H       0.0000000000    -0.9289000000    -1.2321000000
 ----------------------------------------------------------------
 Nuclear Repulsion Energy =    33.2650904736 hartrees
 There are        8 alpha and        8 beta electrons
 Requested basis set is aug-cc-pCVQZ
 There are 114 shells and 402 basis functions

 Total QAlloc Memory Limit 128000 MB
 Mega-Array Size      1467 MB
 MEM_STATIC part      1500 MB

                       Distance Matrix (Angstroms)
             C (  1)   C (  2)   H (  3)   H (  4)   H (  5)
   C (  2)  1.339000
   H (  3)  1.085990  2.116350
   H (  4)  1.085990  2.116350  1.857800
   H (  5)  2.116350  1.085990  2.464200  3.086050
   H (  6)  2.116350  1.085990  3.086050  2.464200  1.857800
 
 Applying Cartesian multipole field
    Component          Value
    ---------          -----
     (2,0,0)        1.00000E-04
 A cutoff of  1.0D-14 yielded   6461 shell pairs
 There are     81065 function pairs (    124847 Cartesian)
 
 -------------------------------------------------------
 OpenMP Integral Computing Module                       
 Release: version 1.0, May 2013, Q-Chem Inc. Pittsburgh 
 -------------------------------------------------------
 Integral Job Info:
 Integral job number is                      11
 Integral operator is                         1
 short-range coefficients              15000000
 long-range coefficients              100000000
 Omega coefficients                         300
 if combine SR and LR in K                    1
 Integral screening is                        0
 Integral computing path is                   2
 max size of driver memory is           3200000
 size of driver memory is               1704330
 size of scratch memory is             18852824
 max col of scratch BK array              50625
 max len of scratch array in speh3         2114
 max len of scratch index in speh4           50
 max int batch size is                      520
 min int batch size is                       52
 fixed nKL is                                52
 max L of basis functions is                  4
 order of int derivative is                   0
 number of shells is                        114
 number of basis is                         498
 number of cartesian basis is               498
 number of contracted shell pairs          6461
 number of primitive shell pairs          11470
 maxK2 (contraction) of shell pair           81
 max number of K2 of shell pair               1
 max number of CS2 of shell pair            904
 max number of PS2 of shell pair           1008
 mem total for path MDJ                  908728
 -------------------------------------------------------
 Smallest overlap matrix eigenvalue = 2.88E-06
 Guess MOs from SCF MO coefficient file
 Reading MOs from coefficient file
 Reading MOs from coefficient file
 Long-range K will be added via erf
 Coulomb attenuation parameter = 0.3 bohr**(-1)
 A restricted hybrid HF-DFT SCF calculation will be
 performed using Geometric Direct Minimization
 Exchange:     0.1500 Hartree-Fock + 1.0000 wB97M-V + LR-HF
 Correlation:  1.0000 wB97M-V
 Using Euler-Maclaurin-Lebedev (99,590) quadrature formula
 Nonlocal Correlation:  VV10 with C = 0.0100 and b = 6.00 and scale = 1.00000
 Grid used for NLC:  SG-1 standard quadrature
 SCF converges when RMS gradient is below 1.0E-08
Using Q-Chem read-in guess as SCF_GUESS READ specified.

 using 8 threads for integral computing
 -------------------------------------------------------
 OpenMP Integral computing Module                
 Release: version 1.0, May 2013, Q-Chem Inc. Pittsburgh 
 -------------------------------------------------------
 using 8 threads for integral computing
 -------------------------------------------------------
 OpenMP Integral computing Module                
 Release: version 1.0, May 2013, Q-Chem Inc. Pittsburgh 
 -------------------------------------------------------
TIMEINFO->: J/JK contribution 579.47 sec.
 -------------------------------------------------------
 OpenMP BLAS3 based DFT computing Module                
 Release: version 1.0, May 2013, Q-Chem Inc. Pittsburgh 
 -------------------------------------------------------
 -------------------------------------------------------
 OpenMP BLAS3 based DFT computing Module                
 Release: version 1.0, May 2013, Q-Chem Inc. Pittsburgh 
 -------------------------------------------------------
 -------------------------------------------------------
 OpenMP BLAS3 based DFT computing Module                
 Release: version 1.0, May 2013, Q-Chem Inc. Pittsburgh 
 -------------------------------------------------------
 ---------------------------------------
  Cycle       Energy        RMS Gradient
 ---------------------------------------
    1     -78.5735041120      4.90E-04 Normal BFGS step
TIMEINFO->: J/JK contribution 583.89 sec.
    2     -78.5735046925      1.02E-04 Normal BFGS step
TIMEINFO->: J/JK contribution 566.31 sec.
    3     -78.5735047581      2.75E-05 Normal BFGS step
TIMEINFO->: J/JK contribution 562.07 sec.
    4     -78.5735047669      3.40E-06 Normal BFGS step
TIMEINFO->: J/JK contribution 551.21 sec.
    5     -78.5735047671      9.82E-07 Normal BFGS step
TIMEINFO->: J/JK contribution 541.98 sec.
    6     -78.5735047671      8.26E-08 Normal BFGS step
TIMEINFO->: J/JK contribution 531.36 sec.
   GDM::WARNING energy changes are now smaller than effective accuracy.
   GDM::        calculation will continue, but THRESH should be increased
   GDM::        or SCF_CONVERGENCE decreased.
   GDM::        effective_thresh =   8.000000000000000E-011
    7     -78.5735047671      1.91E-08 Normal BFGS step
TIMEINFO->: J/JK contribution 501.32 sec.
 Nonlocal correlation =     0.0211056794
    8     -78.5735047671      1.83E-09 Convergence criterion met
 ---------------------------------------
 wB97M-V orbitals are now ready for the wB97M(2) calculation.
 wB97M(2) energy = Exch (0.62194 SRHF + 1.0 LRHF + wB97M(2)_EXCH) + 
               Corr (wB97M(2)_CORR + 0.34096 MP2 + 0.65904 VV10(b=10))
 SCF time:  CPU 6621.50 s  wall 848.92 s
 SCF   energy in the final basis set = -78.49446277
 Total energy in the final basis set = -78.49446277
 
 Components of the MP2 correlation energy:
        aaaa  correlation energy =        -0.0170594416 au
        abab  correlation energy =        -0.1490082331 au
        bbbb  correlation energy =        -0.0170594416 au
        non-Brillouin singles    =        -0.0000000000 au

 Total  MP2   correlation energy =                    -0.18312712 au
        MP2         total energy =                   -78.67758989 au
 
 --------------------------------------------------------------
 
                    Orbital Energies (a.u.)
 --------------------------------------------------------------
 
 Alpha MOs
 -- Occupied --
-10.345 -10.344  -0.883  -0.693  -0.578  -0.522  -0.456  -0.373
 -- Virtual --
  0.012   0.024   0.026   0.045   0.053   0.056   0.072   0.090
  0.106   0.107   0.108   0.127   0.139   0.143   0.167   0.178
  0.207   0.218   0.221   0.221   0.240   0.241   0.255   0.265
  0.269   0.292   0.293   0.294   0.298   0.312   0.317   0.325
  0.327   0.336   0.350   0.382   0.404   0.416   0.420   0.455
  0.460   0.482   0.488   0.519   0.525   0.527   0.561   0.564
  0.568   0.621   0.635   0.635   0.642   0.653   0.654   0.654
  0.661   0.667   0.679   0.707   0.711   0.736   0.741   0.777
  0.777   0.793   0.799   0.809   0.817   0.820   0.822   0.864
  0.907   0.918   0.936   0.938   0.957   0.969   1.001   1.036
  1.045   1.089   1.090   1.090   1.098   1.138   1.143   1.157
  1.185   1.195   1.196   1.202   1.228   1.235   1.298   1.331
  1.352   1.358   1.370   1.384   1.428   1.433   1.494   1.494
  1.556   1.559   1.594   1.594   1.607   1.616   1.657   1.689
  1.697   1.700   1.707   1.733   1.768   1.790   1.823   1.843
  1.844   1.879   1.886   1.886   1.929   1.944   1.948   1.949
  1.958   1.959   1.978   1.996   1.999   2.003   2.035   2.083
  2.098   2.107   2.131   2.146   2.159   2.164   2.209   2.219
  2.219   2.234   2.245   2.263   2.274   2.274   2.288   2.312
  2.326   2.359   2.394   2.415   2.460   2.481   2.507   2.523
  2.532   2.556   2.631   2.638   2.665   2.686   2.721   2.735
  2.748   2.780   2.784   2.834   2.851   2.855   2.898   2.951
  2.986   3.098   3.103   3.174   3.197   3.268   3.424   3.425
  3.434   3.436   3.480   3.510   3.526   3.562   3.584   3.608
  3.642   3.643   3.723   3.734   3.758   3.784   3.793   3.833
  3.933   3.934   3.976   4.001   4.099   4.101   4.133   4.160
  4.182   4.238   4.263   4.301   4.339   4.406   4.408   4.545
  4.582   4.760   4.793   4.855   4.919   5.110   5.372   5.525
  5.557   5.571   5.589   5.617   5.665   5.665   5.772   5.835
  5.858   5.916   5.936   5.975   5.996   6.075   6.080   6.081
  6.166   6.205   6.236   6.253   6.308   6.361   6.373   6.467
  6.495   6.503   6.564   6.658   6.670   6.673   6.689   6.711
  6.771   6.806   6.835   6.856   6.921   6.956   6.966   6.978
  6.988   7.072   7.075   7.276   7.344   7.383   7.403   7.421
  7.483   7.562   7.617   7.663   7.716   7.805   7.927   7.976
  8.020   8.050   8.168   8.183   8.186   8.225   8.324   8.341
  8.350   8.390   8.424   8.529   8.573   8.613   8.687   8.694
  8.740   8.801   8.866   8.967   9.046   9.049   9.050   9.117
  9.160   9.227   9.282   9.315   9.353   9.384   9.448   9.493
  9.644   9.673   9.680   9.757   9.767   9.941   9.988  10.054
 10.081  10.158  10.227  10.265  10.321  10.460  10.769  10.878
 10.889  11.079  11.144  11.814  12.415  12.797  13.311  13.602
 18.911  19.215  20.179  20.515  21.176  21.699  26.372  26.490
 26.511  26.949  26.989  27.115  27.287  27.515  27.578  27.783
 37.008  37.304  66.096  66.314  67.084  67.345  67.767  68.317
 98.163  98.172  98.199  98.201  98.203  98.208  98.210  98.211
 98.230  98.237  98.243  98.248  98.260  98.306 114.723 114.792
114.801 115.049 115.057 115.092 115.184 115.342 115.353 115.490
123.119 123.344 225.287 225.460 226.095 226.327 226.675 227.125
513.716 513.819
 --------------------------------------------------------------
 
          Ground-State Mulliken Net Atomic Charges

     Atom                 Charge (a.u.)
  ----------------------------------------
      1 C                    -0.179717
      2 C                    -0.179717
      3 H                     0.089858
      4 H                     0.089858
      5 H                     0.089858
      6 H                     0.089858
  ----------------------------------------
  Sum of atomic charges =    -0.000000

 -----------------------------------------------------------------
                    Cartesian Multipole Moments
 -----------------------------------------------------------------
    Charge (ESU x 10^10)
                -0.0000
    Dipole Moment (Debye)
         X      -0.0000      Y       0.0000      Z       0.0000
       Tot       0.0000
    Quadrupole Moments (Debye-Ang)
        XX     -15.9604     XY       0.0000     YY     -12.5360
        XZ       0.0000     YZ       0.0000     ZZ     -12.4800
    Octopole Moments (Debye-Ang^2)
       XXX       0.0000    XXY      -0.0000    XYY      -0.0000
       YYY       0.0000    XXZ       0.0000    XYZ      -0.0000
       YYZ       0.0000    XZZ       0.0000    YZZ       0.0000
       ZZZ       0.0000
    Hexadecapole Moments (Debye-Ang^3)
      XXXX     -20.8376   XXXY       0.0000   XXYY      -9.0646
      XYYY       0.0000   YYYY     -28.6192   XXXZ       0.0000
      XXYZ       0.0000   XYYZ       0.0000   YYYZ       0.0000
      XXZZ     -16.2648   XYZZ       0.0000   YYZZ     -13.9138
      XZZZ       0.0000   YZZZ       0.0000   ZZZZ     -71.1896
 -----------------------------------------------------------------
Archival summary:
1\1\n0060.mhg0\SP\ProcedureUnspecified\BasisUnspecified\24\yhljason\TueOct2706:52:102020TueOct2706:52:102020\0\\#,ProcedureUnspecified,BasisUnspecified,\\0,1\C\H,1,1.08599\H,1,1.08599,2,117.597\C,1,1.339,2,121.202,3,-180,0\H,4,1.08599,1,121.202,2,-0,0\H,4,1.08599,1,121.202,2,-180,0\\\@

 Total job time:  2929.59s(wall), 23107.37s(cpu) 
 Tue Oct 27 06:52:10 2020

        *************************************************************
        *                                                           *
        *  Thank you very much for using Q-Chem.  Have a nice day.  *
        *                                                           *
        *************************************************************


 
User input: 4 of 8 
 
Q-Chem Developer Version!
                  Welcome to Q-Chem
     A Quantum Leap Into The Future Of Chemistry


 Q-Chem 5.1, Q-Chem, Inc., Pleasanton, CA (2018)

 Yihan Shao,  Zhengting Gan,  E. Epifanovsky,  A. T. B. Gilbert,  M. Wormit,  
 J. Kussmann,  A. W. Lange,  A. Behn,  Jia Deng,  Xintian Feng,  D. Ghosh,  
 M. Goldey,  P. R. Horn,  L. D. Jacobson,  I. Kaliman,  T. Kus,  A. Landau,  
 Jie Liu,  E. I. Proynov,  R. M. Richard,  R. P. Steele,  E. J. Sundstrom,  
 H. L. Woodcock III,  P. M. Zimmerman,  D. Zuev,  B. Albrecht,  E. Alguire,  
 S. A. Baeppler,  D. Barton,  Z. Benda,  Y. A. Bernard,  E. J. Berquist,  
 K. B. Bravaya,  H. Burton,  D. Casanova,  Chun-Min Chang,  Yunqing Chen,  
 A. Chien,  K. D. Closser,  M. P. Coons,  S. Coriani,  S. Dasgupta,  
 A. L. Dempwolff,  M. Diedenhofen,  Hainam Do,  R. G. Edgar,  Po-Tung Fang,  
 S. Faraji,  S. Fatehi,  Qingguo Feng,  K. D. Fenk,  J. Fosso-Tande,  
 Qinghui Ge,  A. Ghysels,  G. Gidofalvi,  J. Gomes,  J. Gonthier,  A. Gunina,  
 D. Hait,  M. W. D. Hanson-Heine,  P. H. P. Harbach,  A. W. Hauser,  
 J. E. Herr,  E. G. Hohenstein,  Z. C. Holden,  Kerwin Hui,  B. C. Huynh,  
 T.-C. Jagau,  Hyunjun Ji,  B. Kaduk,  K. Khistyaev,  Jaehoon Kim,  
 P. Klunzinger,  K. Koh,  D. Kosenkov,  L. Koulias,  T. Kowalczyk,  
 C. M. Krauter,  A. Kunitsa,  Ka Un Lao,  A. Laurent,  K. V. Lawler,  
 Joonho Lee,  D. Lefrancois,  S. Lehtola,  D. S. Levine,  Yi-Pei Li,  
 You-Sheng Lin,  Fenglai Liu,  E. Livshits,  A. Luenser,  P. Manohar,  
 E. Mansoor,  S. F. Manzer,  Shan-Ping Mao,  Yuezhi Mao,  N. Mardirossian,  
 A. V. Marenich,  T. Markovich,  L. A. Martinez-Martinez,  S. A. Maurer,  
 N. J. Mayhall,  S. C. McKenzie,  J.-M. Mewes,  A. F. Morrison,  
 J. W. Mullinax,  K. Nanda,  T. S. Nguyen-Beck,  R. Olivares-Amaya,  
 J. A. Parkhill,  T. M. Perrine,  F. Plasser,  P. Pokhilko,  S. Prager,  
 A. Prociuk,  E. Ramos,  D. R. Rehn,  F. Rob,  M. Schneider,  N. Sergueev,  
 S. M. Sharada,  S. Sharma,  D. W. Small,  T. Stauch,  T. Stein,  
 Yu-Chuan Su,  A. J. W. Thom,  A. Tkatchenko,  T. Tsuchimochi,  N. M. Tubman,  
 L. Vogt,  M. L. Vidal,  O. Vydrov,  M. A. Watson,  J. Wenzel,  
 M. de Wergifosse,  T. A. Wesolowski,  A. White,  J. Witte,  A. Yamada,  
 Jun Yang,  K. Yao,  S. Yeganeh,  S. R. Yost,  Zhi-Qiang You,  A. Zech,  
 Igor Ying Zhang,  Xing Zhang,  Yan Zhao,  Ying Zhu,  B. R. Brooks,  
 G. K. L. Chan,  C. J. Cramer,  M. S. Gordon,  W. J. Hehre,  A. Klamt,  
 M. W. Schmidt,  C. D. Sherrill,  D. G. Truhlar,  A. Aspuru-Guzik,  R. Baer,  
 A. T. Bell,  N. A. Besley,  Jeng-Da Chai,  A. E. DePrince, III,  
 R. A. DiStasio Jr.,  A. Dreuw,  B. D. Dunietz,  T. R. Furlani,  
 Chao-Ping Hsu,  Yousung Jung,  Jing Kong,  D. S. Lambrecht,  WanZhen Liang,  
 C. Ochsenfeld,  V. A. Rassolov,  L. V. Slipchenko,  J. E. Subotnik,  
 T. Van Voorhis,  J. M. Herbert,  A. I. Krylov,  P. M. W. Gill,  M. Head-Gordon

 Contributors to earlier versions of Q-Chem not listed above: 
 R. D. Adamson,  B. Austin,  J. Baker,  G. J. O. Beran,  K. Brandhorst,  
 S. T. Brown,  E. F. C. Byrd,  A. K. Chakraborty,  C.-L. Cheng,  
 Siu Hung Chien,  D. M. Chipman,  D. L. Crittenden,  H. Dachsel,  
 R. J. Doerksen,  A. D. Dutoi,  L. Fusti-Molnar,  W. A. Goddard III,  
 A. Golubeva-Zadorozhnaya,  S. R. Gwaltney,  G. Hawkins,  A. Heyden,  
 S. Hirata,  G. Kedziora,  F. J. Keil,  C. Kelley,  Jihan Kim,  R. A. King,  
 R. Z. Khaliullin,  P. P. Korambath,  W. Kurlancheek,  A. M. Lee,  M. S. Lee,  
 S. V. Levchenko,  Ching Yeh Lin,  D. Liotard,  R. C. Lochan,  I. Lotan,  
 P. E. Maslen,  N. Nair,  D. P. O'Neill,  D. Neuhauser,  E. Neuscamman,  
 C. M. Oana,  R. Olson,  B. Peters,  R. Peverati,  P. A. Pieniazek,  
 Y. M. Rhee,  J. Ritchie,  M. A. Rohrdanz,  E. Rosta,  N. J. Russ,  
 H. F. Schaefer III,  N. E. Schultz,  N. Shenvi,  A. C. Simmonett,  A. Sodt,  
 D. Stuck,  K. S. Thanthiriwatte,  V. Vanovschi,  Tao Wang,  A. Warshel,  
 C. F. Williams,  Q. Wu,  X. Xu,  W. Zhang

 Please cite Q-Chem as follows:
 Y. Shao et al., Mol. Phys. 113, 184-215 (2015)
 DOI: 10.1080/00268976.2014.952696

 Q-Chem 5.1.1 for Intel X86 EM64T Linux

 Parts of Q-Chem use Armadillo 8.300.2 (Tropical Shenanigans).
 http://arma.sourceforge.net/

 Q-Chem begins on Tue Oct 27 06:52:10 2020  

Host: n0060.mhg0
0

     Scratch files written to /local/scratch/users/yhljason/C2H4_wB97M2_aug-cc-pcVQZ.inp20201027035727//
The previous job contains 0 fragments, simply inherited here
Input Ideriv = 0
Curr. Ideriv = -1
Max.  Ideriv = 0
Analytic post-HF gradients are not available with non-HF exchange
Input Ideriv = 0
Curr. Ideriv = 0
Max.  Ideriv = 0

Checking the input file for inconsistencies... 	...done.

--------------------------------------------------------------
User input:
--------------------------------------------------------------
$molecule
read
$end

$rem
jobtype sp
exchange wB97M(2)
xc_grid 000099000590
basis aug-cc-pcVQZ

max_scf_cycles 200
thresh 14
scf_convergence 8
mem_total 128000
cc_memory 96000
cc_backend xm
mem_static 1500
symmetry false
sym_ignore true
scf_guess read
unrestricted false
scf_algorithm gdm
n_frozen_core 0
$end



$multipole_field
XX -0.0001
$end


--------------------------------------------------------------
 ----------------------------------------------------------------
             Standard Nuclear Orientation (Angstroms)
    I     Atom           X                Y                Z
 ----------------------------------------------------------------
    1      C       0.0000000000     0.0000000000     0.6695000000
    2      C       0.0000000000     0.0000000000    -0.6695000000
    3      H       0.0000000000     0.9289000000     1.2321000000
    4      H       0.0000000000    -0.9289000000     1.2321000000
    5      H       0.0000000000     0.9289000000    -1.2321000000
    6      H       0.0000000000    -0.9289000000    -1.2321000000
 ----------------------------------------------------------------
 Nuclear Repulsion Energy =    33.2650904736 hartrees
 There are        8 alpha and        8 beta electrons
 Requested basis set is aug-cc-pCVQZ
 There are 114 shells and 402 basis functions

 Total QAlloc Memory Limit 128000 MB
 Mega-Array Size      1467 MB
 MEM_STATIC part      1500 MB

                       Distance Matrix (Angstroms)
             C (  1)   C (  2)   H (  3)   H (  4)   H (  5)
   C (  2)  1.339000
   H (  3)  1.085990  2.116350
   H (  4)  1.085990  2.116350  1.857800
   H (  5)  2.116350  1.085990  2.464200  3.086050
   H (  6)  2.116350  1.085990  3.086050  2.464200  1.857800
 
 Applying Cartesian multipole field
    Component          Value
    ---------          -----
     (2,0,0)       -1.00000E-04
 A cutoff of  1.0D-14 yielded   6461 shell pairs
 There are     81065 function pairs (    124847 Cartesian)
 
 -------------------------------------------------------
 OpenMP Integral Computing Module                       
 Release: version 1.0, May 2013, Q-Chem Inc. Pittsburgh 
 -------------------------------------------------------
 Integral Job Info:
 Integral job number is                      11
 Integral operator is                         1
 short-range coefficients              15000000
 long-range coefficients              100000000
 Omega coefficients                         300
 if combine SR and LR in K                    1
 Integral screening is                        0
 Integral computing path is                   2
 max size of driver memory is           3200000
 size of driver memory is               1704330
 size of scratch memory is             18852824
 max col of scratch BK array              50625
 max len of scratch array in speh3         2114
 max len of scratch index in speh4           50
 max int batch size is                      520
 min int batch size is                       52
 fixed nKL is                                52
 max L of basis functions is                  4
 order of int derivative is                   0
 number of shells is                        114
 number of basis is                         498
 number of cartesian basis is               498
 number of contracted shell pairs          6461
 number of primitive shell pairs          11470
 maxK2 (contraction) of shell pair           81
 max number of K2 of shell pair               1
 max number of CS2 of shell pair            904
 max number of PS2 of shell pair           1008
 mem total for path MDJ                  908728
 -------------------------------------------------------
 Smallest overlap matrix eigenvalue = 2.88E-06
 Guess MOs from SCF MO coefficient file
 Reading MOs from coefficient file
 Reading MOs from coefficient file
 Long-range K will be added via erf
 Coulomb attenuation parameter = 0.3 bohr**(-1)
 A restricted hybrid HF-DFT SCF calculation will be
 performed using Geometric Direct Minimization
 Exchange:     0.1500 Hartree-Fock + 1.0000 wB97M-V + LR-HF
 Correlation:  1.0000 wB97M-V
 Using Euler-Maclaurin-Lebedev (99,590) quadrature formula
 Nonlocal Correlation:  VV10 with C = 0.0100 and b = 6.00 and scale = 1.00000
 Grid used for NLC:  SG-1 standard quadrature
 SCF converges when RMS gradient is below 1.0E-08
Using Q-Chem read-in guess as SCF_GUESS READ specified.

 using 8 threads for integral computing
 -------------------------------------------------------
 OpenMP Integral computing Module                
 Release: version 1.0, May 2013, Q-Chem Inc. Pittsburgh 
 -------------------------------------------------------
 using 8 threads for integral computing
 -------------------------------------------------------
 OpenMP Integral computing Module                
 Release: version 1.0, May 2013, Q-Chem Inc. Pittsburgh 
 -------------------------------------------------------
TIMEINFO->: J/JK contribution 580.18 sec.
 -------------------------------------------------------
 OpenMP BLAS3 based DFT computing Module                
 Release: version 1.0, May 2013, Q-Chem Inc. Pittsburgh 
 -------------------------------------------------------
 -------------------------------------------------------
 OpenMP BLAS3 based DFT computing Module                
 Release: version 1.0, May 2013, Q-Chem Inc. Pittsburgh 
 -------------------------------------------------------
 -------------------------------------------------------
 OpenMP BLAS3 based DFT computing Module                
 Release: version 1.0, May 2013, Q-Chem Inc. Pittsburgh 
 -------------------------------------------------------
 ---------------------------------------
  Cycle       Energy        RMS Gradient
 ---------------------------------------
    1     -78.5711315394      9.85E-04 Normal BFGS step
TIMEINFO->: J/JK contribution 575.14 sec.
    2     -78.5711338642      2.01E-04 Normal BFGS step
TIMEINFO->: J/JK contribution 561.34 sec.
    3     -78.5711341239      5.53E-05 Normal BFGS step
TIMEINFO->: J/JK contribution 554.02 sec.
    4     -78.5711341594      7.07E-06 Normal BFGS step
TIMEINFO->: J/JK contribution 559.15 sec.
    5     -78.5711341599      2.00E-06 Normal BFGS step
TIMEINFO->: J/JK contribution 538.70 sec.
    6     -78.5711341599      1.54E-07 Normal BFGS step
TIMEINFO->: J/JK contribution 524.60 sec.
    7     -78.5711341599      3.59E-08 Normal BFGS step
TIMEINFO->: J/JK contribution 509.51 sec.
 Nonlocal correlation =     0.0211066935
    8     -78.5711341599      3.67E-09 Convergence criterion met
 ---------------------------------------
 wB97M-V orbitals are now ready for the wB97M(2) calculation.
 wB97M(2) energy = Exch (0.62194 SRHF + 1.0 LRHF + wB97M(2)_EXCH) + 
               Corr (wB97M(2)_CORR + 0.34096 MP2 + 0.65904 VV10(b=10))
 SCF time:  CPU 6565.36 s  wall 840.52 s
 SCF   energy in the final basis set = -78.49208786
 Total energy in the final basis set = -78.49208786
 
 Components of the MP2 correlation energy:
        aaaa  correlation energy =        -0.0170594933 au
        abab  correlation energy =        -0.1490296321 au
        bbbb  correlation energy =        -0.0170594933 au
        non-Brillouin singles    =        -0.0000000000 au

 Total  MP2   correlation energy =                    -0.18314862 au
        MP2         total energy =                   -78.67523648 au
 
 --------------------------------------------------------------
 
                    Orbital Energies (a.u.)
 --------------------------------------------------------------
 
 Alpha MOs
 -- Occupied --
-10.344 -10.343  -0.882  -0.693  -0.577  -0.522  -0.456  -0.373
 -- Virtual --
  0.017   0.027   0.029   0.048   0.057   0.063   0.074   0.093
  0.110   0.111   0.111   0.130   0.142   0.146   0.169   0.179
  0.211   0.220   0.223   0.226   0.241   0.244   0.258   0.268
  0.273   0.293   0.294   0.295   0.300   0.315   0.319   0.328
  0.329   0.339   0.352   0.384   0.406   0.418   0.423   0.456
  0.462   0.484   0.490   0.521   0.527   0.530   0.563   0.566
  0.569   0.623   0.636   0.637   0.644   0.655   0.655   0.656
  0.663   0.668   0.680   0.709   0.712   0.737   0.742   0.778
  0.778   0.795   0.800   0.811   0.819   0.822   0.823   0.865
  0.908   0.919   0.938   0.939   0.958   0.971   1.002   1.037
  1.046   1.090   1.091   1.091   1.099   1.139   1.144   1.159
  1.187   1.197   1.198   1.203   1.230   1.236   1.299   1.332
  1.353   1.360   1.371   1.385   1.428   1.434   1.495   1.496
  1.557   1.561   1.595   1.595   1.607   1.617   1.657   1.689
  1.698   1.701   1.708   1.734   1.769   1.791   1.824   1.844
  1.845   1.880   1.887   1.887   1.930   1.945   1.949   1.949
  1.959   1.960   1.979   1.997   2.000   2.004   2.036   2.083
  2.099   2.108   2.132   2.147   2.160   2.165   2.210   2.220
  2.220   2.235   2.246   2.264   2.275   2.275   2.289   2.312
  2.327   2.360   2.395   2.416   2.461   2.482   2.507   2.524
  2.532   2.556   2.632   2.639   2.665   2.686   2.722   2.736
  2.749   2.781   2.785   2.835   2.851   2.856   2.898   2.952
  2.986   3.099   3.103   3.175   3.198   3.268   3.424   3.426
  3.435   3.437   3.481   3.510   3.526   3.563   3.585   3.609
  3.642   3.644   3.724   3.734   3.758   3.784   3.793   3.833
  3.934   3.934   3.976   4.002   4.100   4.102   4.134   4.161
  4.183   4.239   4.263   4.302   4.340   4.407   4.409   4.546
  4.582   4.760   4.793   4.855   4.919   5.110   5.372   5.526
  5.558   5.571   5.590   5.618   5.665   5.666   5.773   5.835
  5.859   5.916   5.937   5.975   5.996   6.075   6.081   6.082
  6.167   6.206   6.237   6.253   6.309   6.362   6.374   6.467
  6.495   6.504   6.564   6.658   6.670   6.673   6.689   6.711
  6.771   6.807   6.835   6.856   6.921   6.957   6.966   6.979
  6.989   7.073   7.076   7.276   7.345   7.383   7.404   7.422
  7.483   7.562   7.618   7.663   7.717   7.806   7.928   7.977
  8.020   8.051   8.168   8.184   8.186   8.225   8.325   8.342
  8.350   8.390   8.424   8.530   8.574   8.613   8.687   8.695
  8.740   8.801   8.867   8.968   9.047   9.049   9.051   9.118
  9.160   9.228   9.283   9.316   9.353   9.384   9.449   9.494
  9.645   9.674   9.681   9.758   9.768   9.941   9.988  10.054
 10.081  10.159  10.228  10.265  10.322  10.460  10.770  10.878
 10.890  11.079  11.145  11.815  12.416  12.797  13.311  13.603
 18.912  19.216  20.180  20.516  21.177  21.700  26.373  26.490
 26.512  26.950  26.990  27.116  27.288  27.516  27.579  27.784
 37.009  37.305  66.096  66.314  67.084  67.345  67.767  68.318
 98.163  98.173  98.199  98.201  98.203  98.208  98.211  98.212
 98.230  98.238  98.244  98.249  98.261  98.307 114.723 114.792
114.802 115.050 115.058 115.092 115.185 115.342 115.353 115.491
123.119 123.344 225.288 225.460 226.096 226.327 226.675 227.125
513.717 513.820
 --------------------------------------------------------------
 
          Ground-State Mulliken Net Atomic Charges

     Atom                 Charge (a.u.)
  ----------------------------------------
      1 C                    -0.176486
      2 C                    -0.176486
      3 H                     0.088243
      4 H                     0.088243
      5 H                     0.088243
      6 H                     0.088243
  ----------------------------------------
  Sum of atomic charges =    -0.000000

 -----------------------------------------------------------------
                    Cartesian Multipole Moments
 -----------------------------------------------------------------
    Charge (ESU x 10^10)
                -0.0000
    Dipole Moment (Debye)
         X      -0.0000      Y       0.0000      Z      -0.0000
       Tot       0.0000
    Quadrupole Moments (Debye-Ang)
        XX     -15.9253     XY       0.0000     YY     -12.5326
        XZ       0.0000     YZ       0.0000     ZZ     -12.4792
    Octopole Moments (Debye-Ang^2)
       XXX       0.0000    XXY       0.0000    XYY      -0.0000
       YYY       0.0000    XXZ      -0.0000    XYZ      -0.0000
       YYZ       0.0000    XZZ       0.0000    YZZ       0.0000
       ZZZ      -0.0000
    Hexadecapole Moments (Debye-Ang^3)
      XXXX     -20.6408   XXXY       0.0000   XXYY      -9.0262
      XYYY       0.0000   YYYY     -28.5972   XXXZ       0.0000
      XXYZ       0.0000   XYYZ       0.0000   YYYZ       0.0000
      XXZZ     -16.2170   XYZZ       0.0000   YYZZ     -13.9105
      XZZZ       0.0000   YZZZ       0.0000   ZZZZ     -71.1682
 -----------------------------------------------------------------
Archival summary:
1\1\n0060.mhg0\SP\ProcedureUnspecified\BasisUnspecified\24\yhljason\TueOct2707:41:122020TueOct2707:41:122020\0\\#,ProcedureUnspecified,BasisUnspecified,\\0,1\C\H,1,1.08599\H,1,1.08599,2,117.597\C,1,1.339,2,121.202,3,-180,0\H,4,1.08599,1,121.202,2,-0,0\H,4,1.08599,1,121.202,2,-180,0\\\@

 Total job time:  2941.83s(wall), 23179.60s(cpu) 
 Tue Oct 27 07:41:12 2020

        *************************************************************
        *                                                           *
        *  Thank you very much for using Q-Chem.  Have a nice day.  *
        *                                                           *
        *************************************************************


 
User input: 5 of 8 
 
Q-Chem Developer Version!
                  Welcome to Q-Chem
     A Quantum Leap Into The Future Of Chemistry


 Q-Chem 5.1, Q-Chem, Inc., Pleasanton, CA (2018)

 Yihan Shao,  Zhengting Gan,  E. Epifanovsky,  A. T. B. Gilbert,  M. Wormit,  
 J. Kussmann,  A. W. Lange,  A. Behn,  Jia Deng,  Xintian Feng,  D. Ghosh,  
 M. Goldey,  P. R. Horn,  L. D. Jacobson,  I. Kaliman,  T. Kus,  A. Landau,  
 Jie Liu,  E. I. Proynov,  R. M. Richard,  R. P. Steele,  E. J. Sundstrom,  
 H. L. Woodcock III,  P. M. Zimmerman,  D. Zuev,  B. Albrecht,  E. Alguire,  
 S. A. Baeppler,  D. Barton,  Z. Benda,  Y. A. Bernard,  E. J. Berquist,  
 K. B. Bravaya,  H. Burton,  D. Casanova,  Chun-Min Chang,  Yunqing Chen,  
 A. Chien,  K. D. Closser,  M. P. Coons,  S. Coriani,  S. Dasgupta,  
 A. L. Dempwolff,  M. Diedenhofen,  Hainam Do,  R. G. Edgar,  Po-Tung Fang,  
 S. Faraji,  S. Fatehi,  Qingguo Feng,  K. D. Fenk,  J. Fosso-Tande,  
 Qinghui Ge,  A. Ghysels,  G. Gidofalvi,  J. Gomes,  J. Gonthier,  A. Gunina,  
 D. Hait,  M. W. D. Hanson-Heine,  P. H. P. Harbach,  A. W. Hauser,  
 J. E. Herr,  E. G. Hohenstein,  Z. C. Holden,  Kerwin Hui,  B. C. Huynh,  
 T.-C. Jagau,  Hyunjun Ji,  B. Kaduk,  K. Khistyaev,  Jaehoon Kim,  
 P. Klunzinger,  K. Koh,  D. Kosenkov,  L. Koulias,  T. Kowalczyk,  
 C. M. Krauter,  A. Kunitsa,  Ka Un Lao,  A. Laurent,  K. V. Lawler,  
 Joonho Lee,  D. Lefrancois,  S. Lehtola,  D. S. Levine,  Yi-Pei Li,  
 You-Sheng Lin,  Fenglai Liu,  E. Livshits,  A. Luenser,  P. Manohar,  
 E. Mansoor,  S. F. Manzer,  Shan-Ping Mao,  Yuezhi Mao,  N. Mardirossian,  
 A. V. Marenich,  T. Markovich,  L. A. Martinez-Martinez,  S. A. Maurer,  
 N. J. Mayhall,  S. C. McKenzie,  J.-M. Mewes,  A. F. Morrison,  
 J. W. Mullinax,  K. Nanda,  T. S. Nguyen-Beck,  R. Olivares-Amaya,  
 J. A. Parkhill,  T. M. Perrine,  F. Plasser,  P. Pokhilko,  S. Prager,  
 A. Prociuk,  E. Ramos,  D. R. Rehn,  F. Rob,  M. Schneider,  N. Sergueev,  
 S. M. Sharada,  S. Sharma,  D. W. Small,  T. Stauch,  T. Stein,  
 Yu-Chuan Su,  A. J. W. Thom,  A. Tkatchenko,  T. Tsuchimochi,  N. M. Tubman,  
 L. Vogt,  M. L. Vidal,  O. Vydrov,  M. A. Watson,  J. Wenzel,  
 M. de Wergifosse,  T. A. Wesolowski,  A. White,  J. Witte,  A. Yamada,  
 Jun Yang,  K. Yao,  S. Yeganeh,  S. R. Yost,  Zhi-Qiang You,  A. Zech,  
 Igor Ying Zhang,  Xing Zhang,  Yan Zhao,  Ying Zhu,  B. R. Brooks,  
 G. K. L. Chan,  C. J. Cramer,  M. S. Gordon,  W. J. Hehre,  A. Klamt,  
 M. W. Schmidt,  C. D. Sherrill,  D. G. Truhlar,  A. Aspuru-Guzik,  R. Baer,  
 A. T. Bell,  N. A. Besley,  Jeng-Da Chai,  A. E. DePrince, III,  
 R. A. DiStasio Jr.,  A. Dreuw,  B. D. Dunietz,  T. R. Furlani,  
 Chao-Ping Hsu,  Yousung Jung,  Jing Kong,  D. S. Lambrecht,  WanZhen Liang,  
 C. Ochsenfeld,  V. A. Rassolov,  L. V. Slipchenko,  J. E. Subotnik,  
 T. Van Voorhis,  J. M. Herbert,  A. I. Krylov,  P. M. W. Gill,  M. Head-Gordon

 Contributors to earlier versions of Q-Chem not listed above: 
 R. D. Adamson,  B. Austin,  J. Baker,  G. J. O. Beran,  K. Brandhorst,  
 S. T. Brown,  E. F. C. Byrd,  A. K. Chakraborty,  C.-L. Cheng,  
 Siu Hung Chien,  D. M. Chipman,  D. L. Crittenden,  H. Dachsel,  
 R. J. Doerksen,  A. D. Dutoi,  L. Fusti-Molnar,  W. A. Goddard III,  
 A. Golubeva-Zadorozhnaya,  S. R. Gwaltney,  G. Hawkins,  A. Heyden,  
 S. Hirata,  G. Kedziora,  F. J. Keil,  C. Kelley,  Jihan Kim,  R. A. King,  
 R. Z. Khaliullin,  P. P. Korambath,  W. Kurlancheek,  A. M. Lee,  M. S. Lee,  
 S. V. Levchenko,  Ching Yeh Lin,  D. Liotard,  R. C. Lochan,  I. Lotan,  
 P. E. Maslen,  N. Nair,  D. P. O'Neill,  D. Neuhauser,  E. Neuscamman,  
 C. M. Oana,  R. Olson,  B. Peters,  R. Peverati,  P. A. Pieniazek,  
 Y. M. Rhee,  J. Ritchie,  M. A. Rohrdanz,  E. Rosta,  N. J. Russ,  
 H. F. Schaefer III,  N. E. Schultz,  N. Shenvi,  A. C. Simmonett,  A. Sodt,  
 D. Stuck,  K. S. Thanthiriwatte,  V. Vanovschi,  Tao Wang,  A. Warshel,  
 C. F. Williams,  Q. Wu,  X. Xu,  W. Zhang

 Please cite Q-Chem as follows:
 Y. Shao et al., Mol. Phys. 113, 184-215 (2015)
 DOI: 10.1080/00268976.2014.952696

 Q-Chem 5.1.1 for Intel X86 EM64T Linux

 Parts of Q-Chem use Armadillo 8.300.2 (Tropical Shenanigans).
 http://arma.sourceforge.net/

 Q-Chem begins on Tue Oct 27 07:41:12 2020  

Host: n0060.mhg0
0

     Scratch files written to /local/scratch/users/yhljason/C2H4_wB97M2_aug-cc-pcVQZ.inp20201027035727//
The previous job contains 0 fragments, simply inherited here
Input Ideriv = 0
Curr. Ideriv = -1
Max.  Ideriv = 0
Analytic post-HF gradients are not available with non-HF exchange
Input Ideriv = 0
Curr. Ideriv = 0
Max.  Ideriv = 0

Checking the input file for inconsistencies... 	...done.

--------------------------------------------------------------
User input:
--------------------------------------------------------------
$molecule
read
$end

$rem
jobtype sp
exchange wB97M(2)
xc_grid 000099000590
basis aug-cc-pcVQZ

max_scf_cycles 200
thresh 14
scf_convergence 8
mem_total 128000
cc_memory 96000
cc_backend xm
mem_static 1500
symmetry false
sym_ignore true
scf_guess read
unrestricted false
scf_algorithm gdm
n_frozen_core 0
$end



$multipole_field
YY 0.0001
$end


--------------------------------------------------------------
 ----------------------------------------------------------------
             Standard Nuclear Orientation (Angstroms)
    I     Atom           X                Y                Z
 ----------------------------------------------------------------
    1      C       0.0000000000     0.0000000000     0.6695000000
    2      C       0.0000000000     0.0000000000    -0.6695000000
    3      H       0.0000000000     0.9289000000     1.2321000000
    4      H       0.0000000000    -0.9289000000     1.2321000000
    5      H       0.0000000000     0.9289000000    -1.2321000000
    6      H       0.0000000000    -0.9289000000    -1.2321000000
 ----------------------------------------------------------------
 Nuclear Repulsion Energy =    33.2650904736 hartrees
 There are        8 alpha and        8 beta electrons
 Requested basis set is aug-cc-pCVQZ
 There are 114 shells and 402 basis functions

 Total QAlloc Memory Limit 128000 MB
 Mega-Array Size      1467 MB
 MEM_STATIC part      1500 MB

                       Distance Matrix (Angstroms)
             C (  1)   C (  2)   H (  3)   H (  4)   H (  5)
   C (  2)  1.339000
   H (  3)  1.085990  2.116350
   H (  4)  1.085990  2.116350  1.857800
   H (  5)  2.116350  1.085990  2.464200  3.086050
   H (  6)  2.116350  1.085990  3.086050  2.464200  1.857800
 
 Applying Cartesian multipole field
    Component          Value
    ---------          -----
     (0,2,0)        1.00000E-04
 Nucleus-field energy     =     0.0012325248 hartrees
 A cutoff of  1.0D-14 yielded   6461 shell pairs
 There are     81065 function pairs (    124847 Cartesian)
 
 -------------------------------------------------------
 OpenMP Integral Computing Module                       
 Release: version 1.0, May 2013, Q-Chem Inc. Pittsburgh 
 -------------------------------------------------------
 Integral Job Info:
 Integral job number is                      11
 Integral operator is                         1
 short-range coefficients              15000000
 long-range coefficients              100000000
 Omega coefficients                         300
 if combine SR and LR in K                    1
 Integral screening is                        0
 Integral computing path is                   2
 max size of driver memory is           3200000
 size of driver memory is               1704330
 size of scratch memory is             18852824
 max col of scratch BK array              50625
 max len of scratch array in speh3         2114
 max len of scratch index in speh4           50
 max int batch size is                      520
 min int batch size is                       52
 fixed nKL is                                52
 max L of basis functions is                  4
 order of int derivative is                   0
 number of shells is                        114
 number of basis is                         498
 number of cartesian basis is               498
 number of contracted shell pairs          6461
 number of primitive shell pairs          11470
 maxK2 (contraction) of shell pair           81
 max number of K2 of shell pair               1
 max number of CS2 of shell pair            904
 max number of PS2 of shell pair           1008
 mem total for path MDJ                  908728
 -------------------------------------------------------
 Smallest overlap matrix eigenvalue = 2.88E-06
 Guess MOs from SCF MO coefficient file
 Reading MOs from coefficient file
 Reading MOs from coefficient file
 Long-range K will be added via erf
 Coulomb attenuation parameter = 0.3 bohr**(-1)
 A restricted hybrid HF-DFT SCF calculation will be
 performed using Geometric Direct Minimization
 Exchange:     0.1500 Hartree-Fock + 1.0000 wB97M-V + LR-HF
 Correlation:  1.0000 wB97M-V
 Using Euler-Maclaurin-Lebedev (99,590) quadrature formula
 Nonlocal Correlation:  VV10 with C = 0.0100 and b = 6.00 and scale = 1.00000
 Grid used for NLC:  SG-1 standard quadrature
 SCF converges when RMS gradient is below 1.0E-08
Using Q-Chem read-in guess as SCF_GUESS READ specified.

 using 8 threads for integral computing
 -------------------------------------------------------
 OpenMP Integral computing Module                
 Release: version 1.0, May 2013, Q-Chem Inc. Pittsburgh 
 -------------------------------------------------------
 using 8 threads for integral computing
 -------------------------------------------------------
 OpenMP Integral computing Module                
 Release: version 1.0, May 2013, Q-Chem Inc. Pittsburgh 
 -------------------------------------------------------
TIMEINFO->: J/JK contribution 582.74 sec.
 -------------------------------------------------------
 OpenMP BLAS3 based DFT computing Module                
 Release: version 1.0, May 2013, Q-Chem Inc. Pittsburgh 
 -------------------------------------------------------
 -------------------------------------------------------
 OpenMP BLAS3 based DFT computing Module                
 Release: version 1.0, May 2013, Q-Chem Inc. Pittsburgh 
 -------------------------------------------------------
 -------------------------------------------------------
 OpenMP BLAS3 based DFT computing Module                
 Release: version 1.0, May 2013, Q-Chem Inc. Pittsburgh 
 -------------------------------------------------------
 ---------------------------------------
  Cycle       Energy        RMS Gradient
 ---------------------------------------
    1     -78.5732499368      6.31E-04 Normal BFGS step
TIMEINFO->: J/JK contribution 585.63 sec.
    2     -78.5732512569      1.49E-04 Normal BFGS step
TIMEINFO->: J/JK contribution 565.30 sec.
    3     -78.5732514997      2.46E-05 Normal BFGS step
TIMEINFO->: J/JK contribution 565.02 sec.
    4     -78.5732515076      7.40E-06 Normal BFGS step
TIMEINFO->: J/JK contribution 556.63 sec.
    5     -78.5732515079      1.76E-06 Normal BFGS step
TIMEINFO->: J/JK contribution 547.32 sec.
    6     -78.5732515079      1.71E-07 Normal BFGS step
TIMEINFO->: J/JK contribution 534.97 sec.
    7     -78.5732515079      3.56E-08 Normal BFGS step
TIMEINFO->: J/JK contribution 509.72 sec.
   GDM::WARNING energy changes are now smaller than effective accuracy.
   GDM::        calculation will continue, but THRESH should be increased
   GDM::        or SCF_CONVERGENCE decreased.
   GDM::        effective_thresh =   8.000000000000000E-011
 Nonlocal correlation =     0.0211058912
    8     -78.5732515079      5.17E-09 Convergence criterion met
 ---------------------------------------
 wB97M-V orbitals are now ready for the wB97M(2) calculation.
 wB97M(2) energy = Exch (0.62194 SRHF + 1.0 LRHF + wB97M(2)_EXCH) + 
               Corr (wB97M(2)_CORR + 0.34096 MP2 + 0.65904 VV10(b=10))
 SCF time:  CPU 6624.70 s  wall 846.52 s
 SCF   energy in the final basis set = -78.49419639
 Total energy in the final basis set = -78.49419639
 
 Components of the MP2 correlation energy:
        aaaa  correlation energy =        -0.0170597892 au
        abab  correlation energy =        -0.1490199354 au
        bbbb  correlation energy =        -0.0170597892 au
        non-Brillouin singles    =        -0.0000000000 au

 Total  MP2   correlation energy =                    -0.18313951 au
        MP2         total energy =                   -78.67733591 au
 
 --------------------------------------------------------------
 
                    Orbital Energies (a.u.)
 --------------------------------------------------------------
 
 Alpha MOs
 -- Occupied --
-10.345 -10.344  -0.883  -0.694  -0.578  -0.522  -0.456  -0.373
 -- Virtual --
  0.012   0.022   0.023   0.041   0.054   0.059   0.071   0.088
  0.105   0.106   0.107   0.125   0.139   0.143   0.167   0.177
  0.208   0.218   0.220   0.222   0.239   0.240   0.254   0.266
  0.270   0.291   0.291   0.293   0.297   0.312   0.317   0.325
  0.326   0.335   0.350   0.381   0.403   0.416   0.420   0.454
  0.460   0.482   0.487   0.519   0.525   0.528   0.561   0.564
  0.567   0.621   0.634   0.635   0.642   0.653   0.653   0.654
  0.662   0.666   0.678   0.707   0.710   0.736   0.740   0.776
  0.776   0.793   0.799   0.809   0.817   0.820   0.822   0.863
  0.906   0.917   0.936   0.937   0.957   0.969   1.000   1.036
  1.044   1.089   1.089   1.090   1.098   1.138   1.143   1.157
  1.186   1.195   1.196   1.202   1.228   1.235   1.297   1.331
  1.352   1.358   1.369   1.383   1.427   1.433   1.494   1.494
  1.556   1.559   1.593   1.594   1.606   1.616   1.656   1.688
  1.697   1.700   1.706   1.733   1.768   1.790   1.823   1.842
  1.843   1.879   1.886   1.886   1.929   1.944   1.948   1.948
  1.957   1.959   1.978   1.996   1.999   2.002   2.035   2.082
  2.098   2.106   2.131   2.146   2.159   2.164   2.209   2.219
  2.219   2.234   2.245   2.263   2.274   2.274   2.288   2.311
  2.326   2.359   2.394   2.414   2.460   2.481   2.506   2.523
  2.531   2.555   2.631   2.637   2.664   2.686   2.721   2.735
  2.748   2.780   2.784   2.834   2.850   2.855   2.897   2.951
  2.985   3.098   3.103   3.174   3.197   3.268   3.423   3.425
  3.434   3.436   3.480   3.509   3.525   3.562   3.584   3.608
  3.641   3.643   3.723   3.733   3.758   3.784   3.793   3.833
  3.933   3.934   3.975   4.001   4.099   4.101   4.133   4.160
  4.182   4.238   4.262   4.301   4.339   4.406   4.408   4.545
  4.581   4.760   4.792   4.854   4.919   5.109   5.372   5.525
  5.557   5.571   5.589   5.617   5.664   5.665   5.772   5.835
  5.858   5.916   5.936   5.975   5.996   6.075   6.080   6.081
  6.166   6.205   6.236   6.253   6.308   6.361   6.373   6.466
  6.495   6.503   6.564   6.658   6.669   6.672   6.688   6.711
  6.771   6.806   6.835   6.856   6.921   6.956   6.966   6.978
  6.988   7.072   7.075   7.276   7.344   7.382   7.403   7.421
  7.482   7.561   7.617   7.662   7.716   7.805   7.927   7.976
  8.019   8.050   8.167   8.183   8.185   8.224   8.324   8.341
  8.350   8.389   8.423   8.529   8.573   8.612   8.687   8.694
  8.740   8.800   8.866   8.967   9.046   9.048   9.050   9.117
  9.160   9.227   9.282   9.315   9.353   9.384   9.448   9.493
  9.644   9.673   9.680   9.757   9.767   9.940   9.987  10.053
 10.081  10.158  10.227  10.265  10.321  10.459  10.769  10.878
 10.889  11.078  11.144  11.814  12.415  12.796  13.311  13.602
 18.911  19.215  20.179  20.515  21.176  21.699  26.372  26.489
 26.511  26.949  26.989  27.115  27.287  27.515  27.578  27.783
 37.008  37.304  66.095  66.313  67.083  67.344  67.766  68.317
 98.162  98.172  98.198  98.200  98.203  98.208  98.210  98.211
 98.229  98.237  98.243  98.248  98.260  98.306 114.722 114.791
114.801 115.049 115.057 115.092 115.184 115.342 115.352 115.490
123.119 123.344 225.287 225.460 226.095 226.327 226.675 227.124
513.716 513.819
 --------------------------------------------------------------
 
          Ground-State Mulliken Net Atomic Charges

     Atom                 Charge (a.u.)
  ----------------------------------------
      1 C                    -0.176542
      2 C                    -0.176542
      3 H                     0.088271
      4 H                     0.088271
      5 H                     0.088271
      6 H                     0.088271
  ----------------------------------------
  Sum of atomic charges =    -0.000000

 -----------------------------------------------------------------
                    Cartesian Multipole Moments
 -----------------------------------------------------------------
    Charge (ESU x 10^10)
                -0.0000
    Dipole Moment (Debye)
         X      -0.0000      Y       0.0000      Z       0.0000
       Tot       0.0000
    Quadrupole Moments (Debye-Ang)
        XX     -15.9444     XY       0.0000     YY     -12.5559
        XZ       0.0000     YZ       0.0000     ZZ     -12.4830
    Octopole Moments (Debye-Ang^2)
       XXX       0.0000    XXY       0.0000    XYY      -0.0000
       YYY       0.0000    XXZ       0.0000    XYZ      -0.0000
       YYZ      -0.0000    XZZ       0.0000    YZZ       0.0000
       ZZZ       0.0000
    Hexadecapole Moments (Debye-Ang^3)
      XXXX     -20.7463   XXXY       0.0000   XXYY      -9.0602
      XYYY       0.0000   YYYY     -28.7062   XXXZ       0.0000
      XXYZ      -0.0000   XYYZ       0.0000   YYYZ       0.0000
      XXZZ     -16.2448   XYZZ       0.0000   YYZZ     -13.9534
      XZZZ       0.0000   YZZZ       0.0000   ZZZZ     -71.1993
 -----------------------------------------------------------------
Archival summary:
1\1\n0060.mhg0\SP\ProcedureUnspecified\BasisUnspecified\24\yhljason\TueOct2708:29:512020TueOct2708:29:512020\0\\#,ProcedureUnspecified,BasisUnspecified,\\0,1\C\H,1,1.08599\H,1,1.08599,2,117.597\C,1,1.339,2,121.202,3,-180,0\H,4,1.08599,1,121.202,2,-0,0\H,4,1.08599,1,121.202,2,-180,0\\\@

 Total job time:  2919.11s(wall), 23040.99s(cpu) 
 Tue Oct 27 08:29:52 2020

        *************************************************************
        *                                                           *
        *  Thank you very much for using Q-Chem.  Have a nice day.  *
        *                                                           *
        *************************************************************


 
User input: 6 of 8 
 
Q-Chem Developer Version!
                  Welcome to Q-Chem
     A Quantum Leap Into The Future Of Chemistry


 Q-Chem 5.1, Q-Chem, Inc., Pleasanton, CA (2018)

 Yihan Shao,  Zhengting Gan,  E. Epifanovsky,  A. T. B. Gilbert,  M. Wormit,  
 J. Kussmann,  A. W. Lange,  A. Behn,  Jia Deng,  Xintian Feng,  D. Ghosh,  
 M. Goldey,  P. R. Horn,  L. D. Jacobson,  I. Kaliman,  T. Kus,  A. Landau,  
 Jie Liu,  E. I. Proynov,  R. M. Richard,  R. P. Steele,  E. J. Sundstrom,  
 H. L. Woodcock III,  P. M. Zimmerman,  D. Zuev,  B. Albrecht,  E. Alguire,  
 S. A. Baeppler,  D. Barton,  Z. Benda,  Y. A. Bernard,  E. J. Berquist,  
 K. B. Bravaya,  H. Burton,  D. Casanova,  Chun-Min Chang,  Yunqing Chen,  
 A. Chien,  K. D. Closser,  M. P. Coons,  S. Coriani,  S. Dasgupta,  
 A. L. Dempwolff,  M. Diedenhofen,  Hainam Do,  R. G. Edgar,  Po-Tung Fang,  
 S. Faraji,  S. Fatehi,  Qingguo Feng,  K. D. Fenk,  J. Fosso-Tande,  
 Qinghui Ge,  A. Ghysels,  G. Gidofalvi,  J. Gomes,  J. Gonthier,  A. Gunina,  
 D. Hait,  M. W. D. Hanson-Heine,  P. H. P. Harbach,  A. W. Hauser,  
 J. E. Herr,  E. G. Hohenstein,  Z. C. Holden,  Kerwin Hui,  B. C. Huynh,  
 T.-C. Jagau,  Hyunjun Ji,  B. Kaduk,  K. Khistyaev,  Jaehoon Kim,  
 P. Klunzinger,  K. Koh,  D. Kosenkov,  L. Koulias,  T. Kowalczyk,  
 C. M. Krauter,  A. Kunitsa,  Ka Un Lao,  A. Laurent,  K. V. Lawler,  
 Joonho Lee,  D. Lefrancois,  S. Lehtola,  D. S. Levine,  Yi-Pei Li,  
 You-Sheng Lin,  Fenglai Liu,  E. Livshits,  A. Luenser,  P. Manohar,  
 E. Mansoor,  S. F. Manzer,  Shan-Ping Mao,  Yuezhi Mao,  N. Mardirossian,  
 A. V. Marenich,  T. Markovich,  L. A. Martinez-Martinez,  S. A. Maurer,  
[...]
       YYZ      -0.0000    XZZ       0.0000    YZZ       0.0000
       ZZZ       0.0000
    Hexadecapole Moments (Debye-Ang^3)
      XXXX     -20.7404   XXXY       0.0000   XXYY      -9.0477
      XYYY       0.0000   YYYY     -28.6225   XXXZ       0.0000
      XXYZ      -0.0000   XYYZ       0.0000   YYYZ      -0.0000
      XXZZ     -16.2665   XYZZ       0.0000   YYZZ     -13.9582
      XZZZ       0.0000   YZZZ      -0.0000   ZZZZ     -71.4075
 -----------------------------------------------------------------
Archival summary:
1\1\n0060.mhg0\SP\ProcedureUnspecified\BasisUnspecified\24\yhljason\TueOct2710:07:592020TueOct2710:07:592020\0\\#,ProcedureUnspecified,BasisUnspecified,\\0,1\C\H,1,1.08599\H,1,1.08599,2,117.597\C,1,1.339,2,121.202,3,-180,0\H,4,1.08599,1,121.202,2,-0,0\H,4,1.08599,1,121.202,2,-180,0\\\@

 Total job time:  2934.87s(wall), 23153.83s(cpu) 
 Tue Oct 27 10:07:59 2020

        *************************************************************
        *                                                           *
        *  Thank you very much for using Q-Chem.  Have a nice day.  *
        *                                                           *
        *************************************************************


 
User input: 8 of 8 
 
Q-Chem Developer Version!
                  Welcome to Q-Chem
     A Quantum Leap Into The Future Of Chemistry


 Q-Chem 5.1, Q-Chem, Inc., Pleasanton, CA (2018)

 Yihan Shao,  Zhengting Gan,  E. Epifanovsky,  A. T. B. Gilbert,  M. Wormit,  
 J. Kussmann,  A. W. Lange,  A. Behn,  Jia Deng,  Xintian Feng,  D. Ghosh,  
 M. Goldey,  P. R. Horn,  L. D. Jacobson,  I. Kaliman,  T. Kus,  A. Landau,  
 Jie Liu,  E. I. Proynov,  R. M. Richard,  R. P. Steele,  E. J. Sundstrom,  
 H. L. Woodcock III,  P. M. Zimmerman,  D. Zuev,  B. Albrecht,  E. Alguire,  
 S. A. Baeppler,  D. Barton,  Z. Benda,  Y. A. Bernard,  E. J. Berquist,  
 K. B. Bravaya,  H. Burton,  D. Casanova,  Chun-Min Chang,  Yunqing Chen,  
 A. Chien,  K. D. Closser,  M. P. Coons,  S. Coriani,  S. Dasgupta,  
 A. L. Dempwolff,  M. Diedenhofen,  Hainam Do,  R. G. Edgar,  Po-Tung Fang,  
 S. Faraji,  S. Fatehi,  Qingguo Feng,  K. D. Fenk,  J. Fosso-Tande,  
 Qinghui Ge,  A. Ghysels,  G. Gidofalvi,  J. Gomes,  J. Gonthier,  A. Gunina,  
 D. Hait,  M. W. D. Hanson-Heine,  P. H. P. Harbach,  A. W. Hauser,  
 J. E. Herr,  E. G. Hohenstein,  Z. C. Holden,  Kerwin Hui,  B. C. Huynh,  
 T.-C. Jagau,  Hyunjun Ji,  B. Kaduk,  K. Khistyaev,  Jaehoon Kim,  
 P. Klunzinger,  K. Koh,  D. Kosenkov,  L. Koulias,  T. Kowalczyk,  
 C. M. Krauter,  A. Kunitsa,  Ka Un Lao,  A. Laurent,  K. V. Lawler,  
 Joonho Lee,  D. Lefrancois,  S. Lehtola,  D. S. Levine,  Yi-Pei Li,  
 You-Sheng Lin,  Fenglai Liu,  E. Livshits,  A. Luenser,  P. Manohar,  
 E. Mansoor,  S. F. Manzer,  Shan-Ping Mao,  Yuezhi Mao,  N. Mardirossian,  
 A. V. Marenich,  T. Markovich,  L. A. Martinez-Martinez,  S. A. Maurer,  
 N. J. Mayhall,  S. C. McKenzie,  J.-M. Mewes,  A. F. Morrison,  
 J. W. Mullinax,  K. Nanda,  T. S. Nguyen-Beck,  R. Olivares-Amaya,  
 J. A. Parkhill,  T. M. Perrine,  F. Plasser,  P. Pokhilko,  S. Prager,  
 A. Prociuk,  E. Ramos,  D. R. Rehn,  F. Rob,  M. Schneider,  N. Sergueev,  
 S. M. Sharada,  S. Sharma,  D. W. Small,  T. Stauch,  T. Stein,  
 Yu-Chuan Su,  A. J. W. Thom,  A. Tkatchenko,  T. Tsuchimochi,  N. M. Tubman,  
 L. Vogt,  M. L. Vidal,  O. Vydrov,  M. A. Watson,  J. Wenzel,  
 M. de Wergifosse,  T. A. Wesolowski,  A. White,  J. Witte,  A. Yamada,  
 Jun Yang,  K. Yao,  S. Yeganeh,  S. R. Yost,  Zhi-Qiang You,  A. Zech,  
 Igor Ying Zhang,  Xing Zhang,  Yan Zhao,  Ying Zhu,  B. R. Brooks,  
 G. K. L. Chan,  C. J. Cramer,  M. S. Gordon,  W. J. Hehre,  A. Klamt,  
 M. W. Schmidt,  C. D. Sherrill,  D. G. Truhlar,  A. Aspuru-Guzik,  R. Baer,  
 A. T. Bell,  N. A. Besley,  Jeng-Da Chai,  A. E. DePrince, III,  
 R. A. DiStasio Jr.,  A. Dreuw,  B. D. Dunietz,  T. R. Furlani,  
 Chao-Ping Hsu,  Yousung Jung,  Jing Kong,  D. S. Lambrecht,  WanZhen Liang,  
 C. Ochsenfeld,  V. A. Rassolov,  L. V. Slipchenko,  J. E. Subotnik,  
 T. Van Voorhis,  J. M. Herbert,  A. I. Krylov,  P. M. W. Gill,  M. Head-Gordon

 Contributors to earlier versions of Q-Chem not listed above: 
 R. D. Adamson,  B. Austin,  J. Baker,  G. J. O. Beran,  K. Brandhorst,  
 S. T. Brown,  E. F. C. Byrd,  A. K. Chakraborty,  C.-L. Cheng,  
 Siu Hung Chien,  D. M. Chipman,  D. L. Crittenden,  H. Dachsel,  
 R. J. Doerksen,  A. D. Dutoi,  L. Fusti-Molnar,  W. A. Goddard III,  
 A. Golubeva-Zadorozhnaya,  S. R. Gwaltney,  G. Hawkins,  A. Heyden,  
 S. Hirata,  G. Kedziora,  F. J. Keil,  C. Kelley,  Jihan Kim,  R. A. King,  
 R. Z. Khaliullin,  P. P. Korambath,  W. Kurlancheek,  A. M. Lee,  M. S. Lee,  
 S. V. Levchenko,  Ching Yeh Lin,  D. Liotard,  R. C. Lochan,  I. Lotan,  
 P. E. Maslen,  N. Nair,  D. P. O'Neill,  D. Neuhauser,  E. Neuscamman,  
 C. M. Oana,  R. Olson,  B. Peters,  R. Peverati,  P. A. Pieniazek,  
 Y. M. Rhee,  J. Ritchie,  M. A. Rohrdanz,  E. Rosta,  N. J. Russ,  
 H. F. Schaefer III,  N. E. Schultz,  N. Shenvi,  A. C. Simmonett,  A. Sodt,  
 D. Stuck,  K. S. Thanthiriwatte,  V. Vanovschi,  Tao Wang,  A. Warshel,  
 C. F. Williams,  Q. Wu,  X. Xu,  W. Zhang

 Please cite Q-Chem as follows:
 Y. Shao et al., Mol. Phys. 113, 184-215 (2015)
 DOI: 10.1080/00268976.2014.952696

 Q-Chem 5.1.1 for Intel X86 EM64T Linux

 Parts of Q-Chem use Armadillo 8.300.2 (Tropical Shenanigans).
 http://arma.sourceforge.net/

 Q-Chem begins on Tue Oct 27 10:07:59 2020  

Host: n0060.mhg0
0

     Scratch files written to /local/scratch/users/yhljason/C2H4_wB97M2_aug-cc-pcVQZ.inp20201027035727//
The previous job contains 0 fragments, simply inherited here
Input Ideriv = 0
Curr. Ideriv = -1
Max.  Ideriv = 0
Analytic post-HF gradients are not available with non-HF exchange
Input Ideriv = 0
Curr. Ideriv = 0
Max.  Ideriv = 0

Checking the input file for inconsistencies... 	...done.

--------------------------------------------------------------
User input:
--------------------------------------------------------------
$molecule
read
$end

$rem
jobtype sp
exchange wB97M(2)
xc_grid 000099000590
basis aug-cc-pcVQZ

max_scf_cycles 200
thresh 14
scf_convergence 8
mem_total 128000
cc_memory 96000
cc_backend xm
mem_static 1500
symmetry false
sym_ignore true
scf_guess read
unrestricted false
scf_algorithm gdm
n_frozen_core 0
$end



$multipole_field
ZZ -0.0001
$end

--------------------------------------------------------------
 ----------------------------------------------------------------
             Standard Nuclear Orientation (Angstroms)
    I     Atom           X                Y                Z
 ----------------------------------------------------------------
    1      C       0.0000000000     0.0000000000     0.6695000000
    2      C       0.0000000000     0.0000000000    -0.6695000000
    3      H       0.0000000000     0.9289000000     1.2321000000
    4      H       0.0000000000    -0.9289000000     1.2321000000
    5      H       0.0000000000     0.9289000000    -1.2321000000
    6      H       0.0000000000    -0.9289000000    -1.2321000000
 ----------------------------------------------------------------
 Nuclear Repulsion Energy =    33.2650904736 hartrees
 There are        8 alpha and        8 beta electrons
 Requested basis set is aug-cc-pCVQZ
 There are 114 shells and 402 basis functions

 Total QAlloc Memory Limit 128000 MB
 Mega-Array Size      1467 MB
 MEM_STATIC part      1500 MB

                       Distance Matrix (Angstroms)
             C (  1)   C (  2)   H (  3)   H (  4)   H (  5)
   C (  2)  1.339000
   H (  3)  1.085990  2.116350
   H (  4)  1.085990  2.116350  1.857800
   H (  5)  2.116350  1.085990  2.464200  3.086050
   H (  6)  2.116350  1.085990  3.086050  2.464200  1.857800
 
 Applying Cartesian multipole field
    Component          Value
    ---------          -----
     (0,0,2)       -1.00000E-04
 Nucleus-field energy     =    -0.0040892423 hartrees
 A cutoff of  1.0D-14 yielded   6461 shell pairs
 There are     81065 function pairs (    124847 Cartesian)
 
 -------------------------------------------------------
 OpenMP Integral Computing Module                       
 Release: version 1.0, May 2013, Q-Chem Inc. Pittsburgh 
 -------------------------------------------------------
 Integral Job Info:
 Integral job number is                      11
 Integral operator is                         1
 short-range coefficients              15000000
 long-range coefficients              100000000
 Omega coefficients                         300
 if combine SR and LR in K                    1
 Integral screening is                        0
 Integral computing path is                   2
 max size of driver memory is           3200000
 size of driver memory is               1704330
 size of scratch memory is             18852824
 max col of scratch BK array              50625
 max len of scratch array in speh3         2114
 max len of scratch index in speh4           50
 max int batch size is                      520
 min int batch size is                       52
 fixed nKL is                                52
 max L of basis functions is                  4
 order of int derivative is                   0
 number of shells is                        114
 number of basis is                         498
 number of cartesian basis is               498
 number of contracted shell pairs          6461
 number of primitive shell pairs          11470
 maxK2 (contraction) of shell pair           81
 max number of K2 of shell pair               1
 max number of CS2 of shell pair            904
 max number of PS2 of shell pair           1008
 mem total for path MDJ                  908728
 -------------------------------------------------------
 Smallest overlap matrix eigenvalue = 2.88E-06
 Guess MOs from SCF MO coefficient file
 Reading MOs from coefficient file
 Reading MOs from coefficient file
 Long-range K will be added via erf
 Coulomb attenuation parameter = 0.3 bohr**(-1)
 A restricted hybrid HF-DFT SCF calculation will be
 performed using Geometric Direct Minimization
 Exchange:     0.1500 Hartree-Fock + 1.0000 wB97M-V + LR-HF
 Correlation:  1.0000 wB97M-V
 Using Euler-Maclaurin-Lebedev (99,590) quadrature formula
 Nonlocal Correlation:  VV10 with C = 0.0100 and b = 6.00 and scale = 1.00000
 Grid used for NLC:  SG-1 standard quadrature
 SCF converges when RMS gradient is below 1.0E-08
Using Q-Chem read-in guess as SCF_GUESS READ specified.

 using 8 threads for integral computing
 -------------------------------------------------------
 OpenMP Integral computing Module                
 Release: version 1.0, May 2013, Q-Chem Inc. Pittsburgh 
 -------------------------------------------------------
 using 8 threads for integral computing
 -------------------------------------------------------
 OpenMP Integral computing Module                
 Release: version 1.0, May 2013, Q-Chem Inc. Pittsburgh 
 -------------------------------------------------------
TIMEINFO->: J/JK contribution 591.64 sec.
 -------------------------------------------------------
 OpenMP BLAS3 based DFT computing Module                
 Release: version 1.0, May 2013, Q-Chem Inc. Pittsburgh 
 -------------------------------------------------------
 -------------------------------------------------------
 OpenMP BLAS3 based DFT computing Module                
 Release: version 1.0, May 2013, Q-Chem Inc. Pittsburgh 
 -------------------------------------------------------
 -------------------------------------------------------
 OpenMP BLAS3 based DFT computing Module                
 Release: version 1.0, May 2013, Q-Chem Inc. Pittsburgh 
 -------------------------------------------------------
 ---------------------------------------
  Cycle       Energy        RMS Gradient
 ---------------------------------------
    1     -78.5713866697      7.61E-04 Normal BFGS step
TIMEINFO->: J/JK contribution 582.07 sec.
    2     -78.5713916148      3.63E-04 Normal BFGS step
TIMEINFO->: J/JK contribution 570.14 sec.
    3     -78.5713923737      4.39E-05 Normal BFGS step
TIMEINFO->: J/JK contribution 563.96 sec.
    4     -78.5713924113      7.70E-06 Normal BFGS step
TIMEINFO->: J/JK contribution 561.35 sec.
    5     -78.5713924120      3.07E-06 Normal BFGS step
TIMEINFO->: J/JK contribution 548.28 sec.
    6     -78.5713924120      6.03E-07 Normal BFGS step
TIMEINFO->: J/JK contribution 537.04 sec.
    7     -78.5713924120      5.74E-08 Normal BFGS step
TIMEINFO->: J/JK contribution 520.96 sec.
   GDM::WARNING energy changes are now smaller than effective accuracy.
   GDM::        calculation will continue, but THRESH should be increased
   GDM::        or SCF_CONVERGENCE decreased.
   GDM::        effective_thresh =   8.000000000000000E-011
    8     -78.5713924120      1.00E-08 Normal BFGS step
TIMEINFO->: J/JK contribution 480.55 sec.
   GDM::WARNING energy changes are now smaller than effective accuracy.
   GDM::        calculation will continue, but THRESH should be increased
   GDM::        or SCF_CONVERGENCE decreased.
   GDM::        effective_thresh =   8.000000000000000E-011
 Nonlocal correlation =     0.0211063248
    9     -78.5713924120      1.62E-09 Convergence criterion met
 ---------------------------------------
 wB97M-V orbitals are now ready for the wB97M(2) calculation.
 wB97M(2) energy = Exch (0.62194 SRHF + 1.0 LRHF + wB97M(2)_EXCH) + 
               Corr (wB97M(2)_CORR + 0.34096 MP2 + 0.65904 VV10(b=10))
 SCF time:  CPU 7273.78 s  wall 929.08 s
 SCF   energy in the final basis set = -78.49236475
 Total energy in the final basis set = -78.49236475
 
 Components of the MP2 correlation energy:
        aaaa  correlation energy =        -0.0170586776 au
        abab  correlation energy =        -0.1490147640 au
        bbbb  correlation energy =        -0.0170586776 au
        non-Brillouin singles    =        -0.0000000000 au

 Total  MP2   correlation energy =                    -0.18313212 au
        MP2         total energy =                   -78.67549686 au
 
 --------------------------------------------------------------
 
                    Orbital Energies (a.u.)
 --------------------------------------------------------------
 
 Alpha MOs
 -- Occupied --
-10.344 -10.343  -0.882  -0.693  -0.577  -0.521  -0.455  -0.373
 -- Virtual --
  0.017   0.030   0.031   0.052   0.057   0.061   0.077   0.097
  0.110   0.111   0.112   0.133   0.145   0.145   0.169   0.181
  0.211   0.222   0.224   0.225   0.244   0.244   0.259   0.268
  0.274   0.295   0.296   0.297   0.301   0.315   0.321   0.328
  0.330   0.338   0.353   0.385   0.406   0.417   0.423   0.458
  0.462   0.485   0.491   0.521   0.526   0.530   0.563   0.566
  0.570   0.623   0.637   0.637   0.644   0.656   0.656   0.656
  0.664   0.669   0.681   0.709   0.713   0.738   0.743   0.778
  0.779   0.796   0.801   0.811   0.820   0.822   0.824   0.866
  0.909   0.920   0.938   0.940   0.958   0.971   1.002   1.038
  1.047   1.091   1.091   1.092   1.100   1.140   1.145   1.159
  1.187   1.197   1.198   1.204   1.230   1.237   1.300   1.333
  1.353   1.360   1.371   1.385   1.429   1.435   1.496   1.496
  1.558   1.561   1.595   1.596   1.608   1.618   1.658   1.690
  1.699   1.702   1.709   1.735   1.770   1.792   1.825   1.844
  1.845   1.881   1.888   1.888   1.931   1.945   1.949   1.950
  1.959   1.961   1.980   1.998   2.001   2.004   2.037   2.084
  2.099   2.108   2.132   2.148   2.161   2.165   2.210   2.220
  2.220   2.236   2.247   2.265   2.275   2.275   2.289   2.313
  2.328   2.360   2.395   2.416   2.461   2.482   2.508   2.525
  2.533   2.557   2.632   2.639   2.666   2.687   2.723   2.736
  2.749   2.781   2.786   2.836   2.852   2.856   2.899   2.952
  2.987   3.099   3.104   3.175   3.198   3.269   3.425   3.426
  3.436   3.437   3.482   3.511   3.527   3.563   3.585   3.609
  3.643   3.644   3.724   3.735   3.759   3.785   3.794   3.834
  3.935   3.935   3.977   4.002   4.100   4.102   4.134   4.162
  4.184   4.239   4.264   4.302   4.341   4.407   4.409   4.546
  4.583   4.761   4.794   4.856   4.920   5.111   5.373   5.526
  5.558   5.572   5.590   5.618   5.666   5.666   5.773   5.836
  5.859   5.917   5.937   5.976   5.997   6.076   6.081   6.082
  6.167   6.206   6.237   6.254   6.309   6.362   6.374   6.468
  6.496   6.504   6.565   6.659   6.671   6.674   6.690   6.712
  6.772   6.807   6.836   6.857   6.922   6.957   6.967   6.979
  6.989   7.073   7.076   7.277   7.345   7.384   7.404   7.422
  7.484   7.563   7.618   7.664   7.717   7.806   7.928   7.977
  8.021   8.051   8.169   8.184   8.187   8.226   8.325   8.342
  8.351   8.391   8.425   8.530   8.574   8.613   8.688   8.695
  8.741   8.802   8.867   8.968   9.047   9.050   9.051   9.118
  9.161   9.228   9.283   9.316   9.354   9.385   9.449   9.494
  9.645   9.674   9.681   9.758   9.768   9.942   9.989  10.054
 10.082  10.159  10.228  10.266  10.322  10.461  10.770  10.879
 10.890  11.080  11.145  11.815  12.416  12.798  13.312  13.603
 18.912  19.216  20.180  20.516  21.177  21.700  26.373  26.491
 26.512  26.950  26.990  27.116  27.288  27.516  27.579  27.784
 37.009  37.305  66.097  66.315  67.085  67.346  67.768  68.318
 98.164  98.173  98.200  98.202  98.204  98.209  98.211  98.212
 98.231  98.238  98.244  98.249  98.261  98.307 114.724 114.793
114.802 115.050 115.058 115.093 115.185 115.343 115.354 115.491
123.120 123.345 225.288 225.461 226.096 226.328 226.676 227.126
513.717 513.820
 --------------------------------------------------------------
 
          Ground-State Mulliken Net Atomic Charges

     Atom                 Charge (a.u.)
  ----------------------------------------
      1 C                    -0.179964
      2 C                    -0.179964
      3 H                     0.089982
      4 H                     0.089982
      5 H                     0.089982
      6 H                     0.089982
  ----------------------------------------
  Sum of atomic charges =    -0.000000

 -----------------------------------------------------------------
                    Cartesian Multipole Moments
 -----------------------------------------------------------------
    Charge (ESU x 10^10)
                -0.0000
    Dipole Moment (Debye)
         X      -0.0000      Y       0.0000      Z      -0.0000
       Tot       0.0000
    Quadrupole Moments (Debye-Ang)
        XX     -15.9423     XY       0.0000     YY     -12.5309
        XZ       0.0000     YZ      -0.0000     ZZ     -12.4412
    Octopole Moments (Debye-Ang^2)
       XXX       0.0000    XXY      -0.0000    XYY      -0.0000
       YYY       0.0000    XXZ      -0.0000    XYZ      -0.0000
       YYZ       0.0000    XZZ       0.0000    YZZ       0.0000
       ZZZ       0.0000
    Hexadecapole Moments (Debye-Ang^3)
      XXXX     -20.7357   XXXY       0.0000   XXYY      -9.0428
      XYYY       0.0000   YYYY     -28.5939   XXXZ       0.0000
      XXYZ      -0.0000   XYYZ       0.0000   YYYZ       0.0000
      XXZZ     -16.2151   XYZZ       0.0000   YYZZ     -13.8665
      XZZZ       0.0000   YZZZ      -0.0000   ZZZZ     -70.9523
 -----------------------------------------------------------------
Archival summary:
1\1\n0060.mhg0\SP\ProcedureUnspecified\BasisUnspecified\24\yhljason\TueOct2710:58:082020TueOct2710:58:082020\0\\#,ProcedureUnspecified,BasisUnspecified,\\0,1\C\H,1,1.08599\H,1,1.08599,2,117.597\C,1,1.339,2,121.202,3,-180,0\H,4,1.08599,1,121.202,2,-0,0\H,4,1.08599,1,121.202,2,-180,0\\\@

 Total job time:  3009.05s(wall), 23748.03s(cpu) 
 Tue Oct 27 10:58:08 2020

        *************************************************************
        *                                                           *
        *  Thank you very much for using Q-Chem.  Have a nice day.  *
        *                                                           *
        *************************************************************


