Q-Chem Developer Version!
                  Welcome to Q-Chem
     A Quantum Leap Into The Future Of Chemistry


 Q-Chem 5.1, Q-Chem, Inc., Pleasanton, CA (2018)

 Yihan Shao,  Zhengting Gan,  E. Epifanovsky,  A. T. B. Gilbert,  M. Wormit,  
 J. Kussmann,  A. W. Lange,  A. Behn,  Jia Deng,  Xintian Feng,  D. Ghosh,  
 M. Goldey,  P. R. Horn,  L. D. Jacobson,  I. Kaliman,  T. Kus,  A. Landau,  
 Jie Liu,  E. I. Proynov,  R. M. Richard,  R. P. Steele,  E. J. Sundstrom,  
 H. L. Woodcock III,  P. M. Zimmerman,  D. Zuev,  B. Albrecht,  E. Alguire,  
 S. A. Baeppler,  D. Barton,  Z. Benda,  Y. A. Bernard,  E. J. Berquist,  
 K. B. Bravaya,  H. Burton,  D. Casanova,  Chun-Min Chang,  Yunqing Chen,  
 A. Chien,  K. D. Closser,  M. P. Coons,  S. Coriani,  S. Dasgupta,  
 A. L. Dempwolff,  M. Diedenhofen,  Hainam Do,  R. G. Edgar,  Po-Tung Fang,  
 S. Faraji,  S. Fatehi,  Qingguo Feng,  K. D. Fenk,  J. Fosso-Tande,  
 Qinghui Ge,  A. Ghysels,  G. Gidofalvi,  J. Gomes,  J. Gonthier,  A. Gunina,  
 D. Hait,  M. W. D. Hanson-Heine,  P. H. P. Harbach,  A. W. Hauser,  
 J. E. Herr,  E. G. Hohenstein,  Z. C. Holden,  Kerwin Hui,  B. C. Huynh,  
 T.-C. Jagau,  Hyunjun Ji,  B. Kaduk,  K. Khistyaev,  Jaehoon Kim,  
 P. Klunzinger,  K. Koh,  D. Kosenkov,  L. Koulias,  T. Kowalczyk,  
 C. M. Krauter,  A. Kunitsa,  Ka Un Lao,  A. Laurent,  K. V. Lawler,  
 Joonho Lee,  D. Lefrancois,  S. Lehtola,  D. S. Levine,  Yi-Pei Li,  
 You-Sheng Lin,  Fenglai Liu,  E. Livshits,  A. Luenser,  P. Manohar,  
 E. Mansoor,  S. F. Manzer,  Shan-Ping Mao,  Yuezhi Mao,  N. Mardirossian,  
 A. V. Marenich,  T. Markovich,  L. A. Martinez-Martinez,  S. A. Maurer,  
 N. J. Mayhall,  S. C. McKenzie,  J.-M. Mewes,  A. F. Morrison,  
 J. W. Mullinax,  K. Nanda,  T. S. Nguyen-Beck,  R. Olivares-Amaya,  
 J. A. Parkhill,  T. M. Perrine,  F. Plasser,  P. Pokhilko,  S. Prager,  
 A. Prociuk,  E. Ramos,  D. R. Rehn,  F. Rob,  M. Schneider,  N. Sergueev,  
 S. M. Sharada,  S. Sharma,  D. W. Small,  T. Stauch,  T. Stein,  
 Yu-Chuan Su,  A. J. W. Thom,  A. Tkatchenko,  T. Tsuchimochi,  N. M. Tubman,  
 L. Vogt,  M. L. Vidal,  O. Vydrov,  M. A. Watson,  J. Wenzel,  
 M. de Wergifosse,  T. A. Wesolowski,  A. White,  J. Witte,  A. Yamada,  
 Jun Yang,  K. Yao,  S. Yeganeh,  S. R. Yost,  Zhi-Qiang You,  A. Zech,  
 Igor Ying Zhang,  Xing Zhang,  Yan Zhao,  Ying Zhu,  B. R. Brooks,  
 G. K. L. Chan,  C. J. Cramer,  M. S. Gordon,  W. J. Hehre,  A. Klamt,  
 M. W. Schmidt,  C. D. Sherrill,  D. G. Truhlar,  A. Aspuru-Guzik,  R. Baer,  
 A. T. Bell,  N. A. Besley,  Jeng-Da Chai,  A. E. DePrince, III,  
 R. A. DiStasio Jr.,  A. Dreuw,  B. D. Dunietz,  T. R. Furlani,  
 Chao-Ping Hsu,  Yousung Jung,  Jing Kong,  D. S. Lambrecht,  WanZhen Liang,  
 C. Ochsenfeld,  V. A. Rassolov,  L. V. Slipchenko,  J. E. Subotnik,  
 T. Van Voorhis,  J. M. Herbert,  A. I. Krylov,  P. M. W. Gill,  M. Head-Gordon

 Contributors to earlier versions of Q-Chem not listed above: 
 R. D. Adamson,  B. Austin,  J. Baker,  G. J. O. Beran,  K. Brandhorst,  
 S. T. Brown,  E. F. C. Byrd,  A. K. Chakraborty,  C.-L. Cheng,  
 Siu Hung Chien,  D. M. Chipman,  D. L. Crittenden,  H. Dachsel,  
 R. J. Doerksen,  A. D. Dutoi,  L. Fusti-Molnar,  W. A. Goddard III,  
 A. Golubeva-Zadorozhnaya,  S. R. Gwaltney,  G. Hawkins,  A. Heyden,  
 S. Hirata,  G. Kedziora,  F. J. Keil,  C. Kelley,  Jihan Kim,  R. A. King,  
 R. Z. Khaliullin,  P. P. Korambath,  W. Kurlancheek,  A. M. Lee,  M. S. Lee,  
 S. V. Levchenko,  Ching Yeh Lin,  D. Liotard,  R. C. Lochan,  I. Lotan,  
 P. E. Maslen,  N. Nair,  D. P. O'Neill,  D. Neuhauser,  E. Neuscamman,  
 C. M. Oana,  R. Olson,  B. Peters,  R. Peverati,  P. A. Pieniazek,  
 Y. M. Rhee,  J. Ritchie,  M. A. Rohrdanz,  E. Rosta,  N. J. Russ,  
 H. F. Schaefer III,  N. E. Schultz,  N. Shenvi,  A. C. Simmonett,  A. Sodt,  
 D. Stuck,  K. S. Thanthiriwatte,  V. Vanovschi,  Tao Wang,  A. Warshel,  
 C. F. Williams,  Q. Wu,  X. Xu,  W. Zhang

 Please cite Q-Chem as follows:
 Y. Shao et al., Mol. Phys. 113, 184-215 (2015)
 DOI: 10.1080/00268976.2014.952696

 Q-Chem 5.1.1 for Intel X86 EM64T Linux

 Parts of Q-Chem use Armadillo 8.300.2 (Tropical Shenanigans).
 http://arma.sourceforge.net/

 Q-Chem begins on Tue Oct 27 03:57:36 2020  

Host: n0073.mhg0
0

     Scratch files written to /local/scratch/users/yhljason/CN_wB97M2_aug-cc-pcVQZ.inp20201027035732//
Input Ideriv = 1
Curr. Ideriv = -1
Max.  Ideriv = 1

Checking the input file for inconsistencies... 	...done.

--------------------------------------------------------------
User input:
--------------------------------------------------------------
$molecule
0 2
N1	0.0000	0.0000	0.0000
C2	0.0000	0.0000	1.1718
$end

$rem
jobtype sp
method wB97M-V
xc_grid 000099000590
basis aug-cc-pcVQZ
max_scf_cycles 200
thresh 14
scf_convergence 8
scf_algorithm gdm
symmetry false
sym_ignore true
unrestricted false
gen_scfman true
internal_stability_iter 15
internal_stability_davidson_iter 200
mem_total 128000
n_frozen_core 0
$end



--------------------------------------------------------------
 ----------------------------------------------------------------
             Standard Nuclear Orientation (Angstroms)
    I     Atom           X                Y                Z
 ----------------------------------------------------------------
    1      N       0.0000000000     0.0000000000     0.0000000000
    2      C       0.0000000000     0.0000000000     1.1718000000
 ----------------------------------------------------------------
 Nuclear Repulsion Energy =    18.9669251183 hartrees
 There are        7 alpha and        6 beta electrons
 Requested basis set is aug-cc-pCVQZ
 There are 58 shells and 218 basis functions

 Total QAlloc2 of 8 
 
Q-Chem Developer Version!
                  Welcome to Q-Chem
     A Quantum Leap Into The Future Of Chemistry


 Q-Chem 5.1, Q-Chem, Inc., Pleasanton, CA (2018)

 Yihan Shao,  Zhengting Gan,  E. Epifanovsky,  A. T. B. Gilbert,  M. Wormit,  
 J. Kussmann,  A. W. Lange,  A. Behn,  Jia Deng,  Xintian Feng,  D. Ghosh,  
 M. Goldey,  P. R. Horn,  L. D. Jacobson,  I. Kaliman,  T. Kus,  A. Landau,  
 Jie Liu,  E. I. Proynov,  R. M. Richard,  R. P. Steele,  E. J. Sundstrom,  
 H. L. Woodcock III,  P. M. Zimmerman,  D. Zuev,  B. Albrecht,  E. Alguire,  
 S. A. Baeppler,  D. Barton,  Z. Benda,  Y. A. Bernard,  E. J. Berquist,  
 K. B. Bravaya,  H. Burton,  D. Casanova,  Chun-Min Chang,  Yunqing Chen,  
 A. Chien,  K. D. Closser,  M. P. Coons,  S. Coriani,  S. Dasgupta,  
 A. L. Dempwolff,  M. Diedenhofen,  Hainam Do,  R. G. Edgar,  Po-Tung Fang,  
 S. Faraji,  S. Fatehi,  Qingguo Feng,  K. D. Fenk,  J. Fosso-Tande,  
 Qinghui Ge,  A. Ghysels,  G. Gidofalvi,  J. Gomes,  J. Gonthier,  A. Gunina,  
 D. Hait,  M. W. D. Hanson-Heine,  P. H. P. Harbach,  A. W. Hauser,  
 J. E. Herr,  E. G. Hohenstein,  Z. C. Holden,  Kerwin Hui,  B. C. Huynh,  
 T.-C. Jagau,  Hyunjun Ji,  B. Kaduk,  K. Khistyaev,  Jaehoon Kim,  
 P. Klunzinger,  K. Koh,  D. Kosenkov,  L. Koulias,  T. Kowalczyk,  
 C. M. Krauter,  A. Kunitsa,  Ka Un Lao,  A. Laurent,  K. V. Lawler,  
 Joonho Lee,  D. Lefrancois,  S. Lehtola,  D. S. Levine,  Yi-Pei Li,  
 You-Sheng Lin,  Fenglai Liu,  E. Livshits,  A. Luenser,  P. Manohar,  
 E. Mansoor,  S. F. Manzer,  Shan-Ping Mao,  Yuezhi Mao,  N. Mardirossian,  
 A. V. Marenich,  T. Markovich,  L. A. Martinez-Martinez,  S. A. Maurer,  
 N. J. Mayhall,  S. C. McKenzie,  J.-M. Mewes,  A. F. Morrison,  
 J. W. Mullinax,  K. Nanda,  T. S. Nguyen-Beck,  R. Olivares-Amaya,  
 J. A. Parkhill,  T. M. Perrine,  F. Plasser,  P. Pokhilko,  S. Prager,  
 A. Prociuk,  E. Ramos,  D. R. Rehn,  F. Rob,  M. Schneider,  N. Sergueev,  
 S. M. Sharada,  S. Sharma,  D. W. Small,  T. Stauch,  T. Stein,  
 Yu-Chuan Su,  A. J. W. Thom,  A. Tkatchenko,  T. Tsuchimochi,  N. M. Tubman,  
 L. Vogt,  M. L. Vidal,  O. Vydrov,  M. A. Watson,  J. Wenzel,  
 M. de Wergifosse,  T. A. Wesolowski,  A. White,  J. Witte,  A. Yamada,  
 Jun Yang,  K. Yao,  S. Yeganeh,  S. R. Yost,  Zhi-Qiang You,  A. Zech,  
 Igor Ying Zhang,  Xing Zhang,  Yan Zhao,  Ying Zhu,  B. R. Brooks,  
 G. K. L. Chan,  C. J. Cramer,  M. S. Gordon,  W. J. Hehre,  A. Klamt,  
 M. W. Schmidt,  C. D. Sherrill,  D. G. Truhlar,  A. Aspuru-Guzik,  R. Baer,  
 A. T. Bell,  N. A. Besley,  Jeng-Da Chai,  A. E. DePrince, III,  
 R. A. DiStasio Jr.,  A. Dreuw,  B. D. Dunietz,  T. R. Furlani,  
 Chao-Ping Hsu,  Yousung Jung,  Jing Kong,  D. S. Lambrecht,  WanZhen Liang,  
 C. Ochsenfeld,  V. A. Rassolov,  L. V. Slipchenko,  J. E. Subotnik,  
 T. Van Voorhis,  J. M. Herbert,  A. I. Krylov,  P. M. W. Gill,  M. Head-Gordon

 Contributors to earlier versions of Q-Chem not listed above: 
 R. D. Adamson,  B. Austin,  J. Baker,  G. J. O. Beran,  K. Brandhorst,  
 S. T. Brown,  E. F. C. Byrd,  A. K. Chakraborty,  C.-L. Cheng,  
 Siu Hung Chien,  D. M. Chipman,  D. L. Crittenden,  H. Dachsel,  
 R. J. Doerksen,  A. D. Dutoi,  L. Fusti-Molnar,  W. A. Goddard III,  
 A. Golubeva-Zadorozhnaya,  S. R. Gwaltney,  G. Hawkins,  A. Heyden,  
 S. Hirata,  G. Kedziora,  F. J. Keil,  C. Kelley,  Jihan Kim,  R. A. King,  
 R. Z. Khaliullin,  P. P. Korambath,  W. Kurlancheek,  A. M. Lee,  M. S. Lee,  
 S. V. Levchenko,  Ching Yeh Lin,  D. Liotard,  R. C. Lochan,  I. Lotan,  
 P. E. Maslen,  N. Nair,  D. P. O'Neill,  D. Neuhauser,  E. Neuscamman,  
 C. M. Oana,  R. Olson,  B. Peters,  R. Peverati,  P. A. Pieniazek,  
 Y. M. Rhee,  J. Ritchie,  M. A. Rohrdanz,  E. Rosta,  N. J. Russ,  
 H. F. Schaefer III,  N. E. Schultz,  N. Shenvi,  A. C. Simmonett,  A. Sodt,  
 D. Stuck,  K. S. Thanthiriwatte,  V. Vanovschi,  Tao Wang,  A. Warshel,  
 C. F. Williams,  Q. Wu,  X. Xu,  W. Zhang

 Please cite Q-Chem as follows:
 Y. Shao et al., Mol. Phys. 113, 184-215 (2015)
 DOI: 10.1080/00268976.2014.952696

 Q-Chem 5.1.1 for Intel X86 EM64T Linux

 Parts of Q-Chem use Armadillo 8.300.2 (Tropical Shenanigans).
 http://arma.sourceforge.net/

 Q-Chem begins on Tue Oct 27 04:11:26 2020  

Host: n0073.mhg0
0

     Scratch files written to /local/scratch/users/yhljason/CN_wB97M2_aug-cc-pcVQZ.inp20201027035732//
The previous job contains 0 fragments, simply inherited here
Input Ideriv = 0
Curr. Ideriv = -1
Max.  Ideriv = 0
Input Ideriv = 1
Curr. Ideriv = 0
Max.  Ideriv = 0

Checking the input file for inconsistencies... 	...done.

--------------------------------------------------------------
User input:
--------------------------------------------------------------
$molecule
read
$end

$rem
jobtype sp
exchange wB97M(2)
xc_grid 000099000590
basis aug-cc-pcVQZ
max_scf_cycles 200
thresh 14
scf_convergence 8
scf_algorithm gdm
symmetry false
sym_ignore true
unrestricted false
gen_scfman false
mem_total 128000
cc_memory 96000
cc_backend xm
mem_static 1500
n_frozen_core 0
scf_guess read
$end



--------------------------------------------------------------
 ----------------------------------------------------------------
             Standard Nuclear Orientation (Angstroms)
    I     Atom           X                Y                Z
 ----------------------------------------------------------------
    1      N       0.0000000000     0.0000000000     0.0000000000
    2      C       0.0000000000     0.0000000000     1.1718000000
 ----------------------------------------------------------------
 Nuclear Repulsion Energy =    18.9669251183 hartrees
 There are        7 alpha and        6 beta electrons
 Requested basis set is aug-cc-pCVQZ
 There are 58 shells and 218 basis functions

 Total QAlloc Memory Limit 128000 MB
 Mega-Array Size      1467 MB
 MEM_STATIC part      1500 MB

                       Distance Matrix (Angstroms)
             N (  1)
   C (  2)  1.171800
 
 A cutoff of  1.0D-14 yielded   1669 shell pairs
 There are     23915 function pairs (     39173 Cartesian)
 
 -------------------------------------------------------
 OpenMP Integral Computing Module                       
 Release: version 1.0, May 2013, Q-Chem Inc. Pittsburgh 
 -------------------------------------------------------
 Integral Job Info:
 Integral job number is                      11
 Integral operator is                         1
 short-range coefficients              15000000
 long-range coefficients              100000000
 Omega coefficients                         300
 if combine SR and LR in K                    1
 Integral screening is                        0
 Integral computing path is                   2
 max size of driver memory is           3200000
 size of driver memory is               1704330
 size of scratch memory is             18852824
 max col of scratch BK array              50625
 max len of scratch array in speh3         2114
 max len of scratch index in speh4           50
 max int batch size is                      520
 min int batch size is                       52
 fixed nKL is                                52
 max L of basis functions is                  4
 order of int derivative is                   0
 number of shells is                         58
 number of basis is                         278
 number of cartesian basis is               278
 number of contracted shell pairs          1669
 number of primitive shell pairs           4048
 maxK2 (contraction) of shell pair           81
 max number of K2 of shell pair               1
 max number of CS2 of shell pair            187
 max number of PS2 of shell pair            486
 mem total for path MDJ                  675334
 -------------------------------------------------------
 Smallest overlap matrix eigenvalue = 5.65E-05

 Scale SEOQF with 1.000000e-01/1.000000e-01/1.000000e-01

 Standard Electronic Orientation quadrupole field applied
 Nucleus-field energy     =    -0.0000000009 hartrees
 Guess MOs from SCF MO coefficient file
 Reading MOs from coefficient file
 Reading MOs from coefficient file
 Long-range K will be added via erf
 Coulomb attenuation parameter = 0.3 bohr**(-1)
 A restricted hybrid HF-DFT SCF calculation will be
 performed using Geometric Direct Minimization
 Exchange:     0.1500 Hartree-Fock + 1.0000 wB97M-V + LR-HF
 Correlation:  1.0000 wB97M-V
 Using Euler-Maclaurin-Lebedev (99,590) quadrature formula
 Nonlocal Correlation:  VV10 with C = 0.0100 and b = 6.00 and scale = 1.00000
 Grid used for NLC:  SG-1 standard quadrature
 SCF converges when RMS gradient is below 1.0E-08
Using Q-Chem read-in guess as SCF_GUESS READ specified.

 using 8 threads for integral computing
 -------------------------------------------------------
 OpenMP Integral computing Module                
 Release: version 1.0, May 2013, Q-Chem Inc. Pittsburgh 
 -------------------------------------------------------
 using 8 threads for integral computing
 -------------------------------------------------------
 OpenMP Integral computing Module                
 Release: version 1.0, May 2013, Q-Chem Inc. Pittsburgh 
 -------------------------------------------------------
TIMEINFO->: J/JK contribution 81.25 sec.
 -------------------------------------------------------
 OpenMP BLAS3 based DFT computing Module                
 Release: version 1.0, May 2013, Q-Chem Inc. Pittsburgh 
 -------------------------------------------------------
 -------------------------------------------------------
 OpenMP BLAS3 based DFT computing Module                
 Release: version 1.0, May 2013, Q-Chem Inc. Pittsburgh 
 -------------------------------------------------------
 -------------------------------------------------------
 OpenMP BLAS3 based DFT computing Module                
 Release: version 1.0, May 2013, Q-Chem Inc. Pittsburgh 
 -------------------------------------------------------
 ---------------------------------------
  Cycle       Energy        RMS Gradient
 ---------------------------------------
    1     -92.7211911961      3.71E-10 Normal BFGS step
TIMEINFO->: J/JK contribution 80.99 sec.
   GDM::WARNING energy changes are now smaller than effective accuracy.
   GDM::        calculation will continue, but THRESH should be increased
   GDM::        or SCF_CONVERGENCE decreased.
   GDM::        effective_thresh =   6.999999999999999E-011
 Nonlocal correlation =     0.0176126974
    2     -92.7211911960      1.40E-10 Convergence criterion met
 ---------------------------------------
 wB97M-V orbitals are now ready for the wB97M(2) calculation.
 wB97M(2) energy = Exch (0.62194 SRHF + 1.0 LRHF + wB97M(2)_EXCH) + 
               Corr (wB97M(2)_CORR + 0.34096 MP2 + 0.65904 VV10(b=10))
 SCF time:  CPU 386.71 s  wall 51.98 s
 SCF   energy in the final basis set = -92.63247812
 Total energy in the final basis set = -92.63247812
 
 Components of the MP2 correlation energy:
        aaaa  correlation energy =        -0.0217905940 au
        abab  correlation energy =        -0.1470897788 au
        bbbb  correlation energy =        -0.0211009253 au
        non-Brillouin singles    =        -0.0010718402 au

 Total  MP2   correlation energy =                    -0.19105314 au
        MP2         total energy =                   -92.82353125 au
 
 --------------------------------------------------------------
 
                    Orbital Energies (a.u.)
 --------------------------------------------------------------
 
 Alpha MOs
 -- Occupied --
-14.574 -10.467  -1.084  -0.596  -0.496  -0.496  -0.520
 -- Virtual --
  0.042   0.046   0.046   0.049   0.079   0.079   0.109   0.123
  0.123   0.193   0.198   0.198   0.253   0.276   0.276   0.336
  0.336   0.354   0.361   0.369   0.369   0.425   0.425   0.513
  0.654   0.679   0.679   0.697   0.697   0.700   0.708   0.708
  0.751   0.751   0.789   0.789   0.826   0.922   0.965   0.965
  1.055   1.055   1.069   1.069   1.133   1.133   1.164   1.271
  1.395   1.395   1.410   1.410   1.457   1.658   1.658   1.781
  1.960   1.960   1.982   1.982   2.037   2.071   2.071   2.091
  2.091   2.151   2.151   2.175   2.175   2.196   2.210   2.210
  2.438   2.511   2.511   2.569   2.569   2.809   2.809   2.819
  2.831   2.831   2.897   3.007   3.007   3.047   3.047   3.157
  3.157   3.200   3.344   3.344   3.390   3.390   3.916   3.916
  3.985   4.073   4.218   4.218   4.322   4.322   4.748   5.348
  5.348   5.638   5.638   5.698   5.698   5.746   5.746   5.797
  5.840   5.840   6.128   6.128   6.133   6.133   6.232   6.609
  6.609   6.643   6.643   6.702   7.225   7.507   7.507   7.563
  7.563   7.935   7.935   8.227   8.227   8.399   8.543   8.543
  8.699   8.699   8.785   8.833   8.833   9.386   9.386   9.507
  9.507   9.610   9.862   9.862  10.641  11.187  11.187  12.710
 13.819  18.712  18.712  19.865  25.864  25.864  25.987  25.987
 26.480  26.480  26.852  27.818  35.724  36.381  36.381  37.054
 37.054  37.820  48.413  65.904  65.904  66.878  90.943  90.943
 92.079  98.035  98.035  98.045  98.045  98.100  98.100  98.127
111.368 111.368 111.395 111.395 111.415 111.415 111.459 114.453
114.457 114.699 114.699 115.191 122.022 156.066 156.070 156.441
156.441 156.762 165.170 225.106 225.106 225.924 309.595 309.595
310.535 512.863 691.374
 
 Beta MOs
 -- Occupied --
-14.568 -10.453  -1.062  -0.542  -0.481  -0.481
 -- Virtual --
 -0.161   0.043   0.048   0.048   0.048   0.091   0.091   0.109
  0.128   0.128   0.193   0.195   0.195   0.251   0.274   0.274
  0.337   0.337   0.354   0.361   0.368   0.368   0.428   0.428
  0.530   0.666   0.683   0.683   0.693   0.693   0.708   0.708
  0.708   0.753   0.753   0.784   0.784   0.828   0.931   0.969
  0.969   1.053   1.053   1.069   1.069   1.138   1.138   1.182
  1.280   1.408   1.408   1.411   1.411   1.470   1.666   1.666
  1.847   1.984   1.984   1.983   1.983   2.095   2.119   2.119
  2.105   2.105   2.181   2.181   2.180   2.180   2.210   2.224
  2.224   2.448   2.520   2.520   2.575   2.575   2.810   2.810
  2.840   2.846   2.846   2.917   3.011   3.011   3.054   3.054
  3.167   3.167   3.211   3.349   3.349   3.390   3.390   3.944
  3.944   4.027   4.123   4.227   4.227   4.367   4.367   4.775
  5.366   5.366   5.660   5.660   5.746   5.746   5.882   5.882
  5.938   5.941   5.941   6.163   6.163   6.177   6.177   6.309
  6.656   6.656   6.704   6.704   6.785   7.334   7.605   7.605
  7.568   7.568   7.931   7.931   8.237   8.237   8.433   8.566
  8.566   8.737   8.737   8.835   8.831   8.831   9.404   9.404
  9.512   9.512   9.641   9.899   9.899  10.707  11.240  11.240
 12.750  13.847  18.725  18.725  19.945  25.867  25.867  25.983
 25.984  26.499  26.499  26.887  27.853  35.736  36.378  36.378
 37.060  37.060  37.830  48.419  65.911  65.911  66.894  90.941
 90.941  92.078  98.045  98.045  98.053  98.053  98.107  98.107
 98.134 111.368 111.368 111.394 111.394 111.414 111.414 111.457
114.463 114.468 114.706 114.706 115.197 122.035 156.068 156.071
156.440 156.440 156.760 165.171 225.126 225.126 225.939 309.599
309.599 310.535 512.901 691.385
 --------------------------------------------------------------
 
          Ground-State Mulliken Net Atomic Charges

     Atom                 Charge (a.u.)
  ----------------------------------------
      1 N                    -0.089247
      2 C                     0.089247
  ----------------------------------------
  Sum of atomic charges =    -0.000000

 -----------------------------------------------------------------
                    Cartesian Multipole Moments
 -----------------------------------------------------------------
    Charge (ESU x 10^10)
                -0.0000
    Dipole Moment (Debye)
         X       0.0000      Y       0.0000      Z       1.4941
       Tot       1.4941
    Quadrupole Moments (Debye-Ang)
        XX     -11.1911     XY      -0.0000     YY     -11.1911
        XZ      -0.0000     YZ       0.0000     ZZ      -8.8370
    Octopole Moments (Debye-Ang^2)
       XXX       0.0000    XXY      -0.0000    XYY      -0.0000
       YYY       0.0000    XXZ      -6.2164    XYZ      -0.0000
       YYZ      -6.2164    XZZ       0.0000    YZZ       0.0000
       ZZZ     -15.2665
    Hexadecapole Moments (Debye-Ang^3)
      XXXX     -11.9403   XXXY       0.0000   XXYY      -3.9801
      XYYY      -0.0000   YYYY     -11.9403   XXXZ      -0.0000
      XXYZ       0.0000   XYYZ      -0.0000   YYYZ       0.0000
      XXZZ     -10.9813   XYZZ       0.0000   YYZZ     -10.9813
      XZZZ      -0.0000   YZZZ       0.0000   ZZZZ     -50.8169
 -----------------------------------------------------------------
Archival summary:
1\1\n0073.mhg0\SP\ROProcedureUnspecified\BasisUnspecified\11(2)\yhljason\TueOct2704:15:562020TueOct2704:15:562020\0\\#,ROProcedureUnspecified,BasisUnspecified,\\0,2\N\C,1,1.1718\\\@

 Total job time:  269.44s(wall), 2096.93s(cpu) 
 Tue Oct 27 04:15:56 2020

        *************************************************************
        *                                                           *
        *  Thank you very much for using Q-Chem.  Have a nice day.  *
        *                                                           *
        *************************************************************


 
User input: 3 of 8 
 
Q-Chem Developer Version!
                  Welcome to Q-Chem
     A Quantum Leap Into The Future Of Chemistry


 Q-Chem 5.1, Q-Chem, Inc., Pleasanton, CA (2018)

 Yihan Shao,  Zhengting Gan,  E. Epifanovsky,  A. T. B. Gilbert,  M. Wormit,  
 J. Kussmann,  A. W. Lange,  A. Behn,  Jia Deng,  Xintian Feng,  D. Ghosh,  
 M. Goldey,  P. R. Horn,  L. D. Jacobson,  I. Kaliman,  T. Kus,  A. Landau,  
 Jie Liu,  E. I. Proynov,  R. M. Richard,  R. P. Steele,  E. J. Sundstrom,  
 H. L. Woodcock III,  P. M. Zimmerman,  D. Zuev,  B. Albrecht,  E. Alguire,  
 S. A. Baeppler,  D. Barton,  Z. Benda,  Y. A. Bernard,  E. J. Berquist,  
 K. B. Bravaya,  H. Burton,  D. Casanova,  Chun-Min Chang,  Yunqing Chen,  
 A. Chien,  K. D. Closser,  M. P. Coons,  S. Coriani,  S. Dasgupta,  
 A. L. Dempwolff,  M. Diedenhofen,  Hainam Do,  R. G. Edgar,  Po-Tung Fang,  
 S. Faraji,  S. Fatehi,  Qingguo Feng,  K. D. Fenk,  J. Fosso-Tande,  
 Qinghui Ge,  A. Ghysels,  G. Gidofalvi,  J. Gomes,  J. Gonthier,  A. Gunina,  
 D. Hait,  M. W. D. Hanson-Heine,  P. H. P. Harbach,  A. W. Hauser,  
 J. E. Herr,  E. G. Hohenstein,  Z. C. Holden,  Kerwin Hui,  B. C. Huynh,  
 T.-C. Jagau,  Hyunjun Ji,  B. Kaduk,  K. Khistyaev,  Jaehoon Kim,  
 P. Klunzinger,  K. Koh,  D. Kosenkov,  L. Koulias,  T. Kowalczyk,  
 C. M. Krauter,  A. Kunitsa,  Ka Un Lao,  A. Laurent,  K. V. Lawler,  
 Joonho Lee,  D. Lefrancois,  S. Lehtola,  D. S. Levine,  Yi-Pei Li,  
 You-Sheng Lin,  Fenglai Liu,  E. Livshits,  A. Luenser,  P. Manohar,  
 E. Mansoor,  S. F. Manzer,  Shan-Ping Mao,  Yuezhi Mao,  N. Mardirossian,  
 A. V. Marenich,  T. Markovich,  L. A. Martinez-Martinez,  S. A. Maurer,  
 N. J. Mayhall,  S. C. McKenzie,  J.-M. Mewes,  A. F. Morrison,  
 J. W. Mullinax,  K. Nanda,  T. S. Nguyen-Beck,  R. Olivares-Amaya,  
 J. A. Parkhill,  T. M. Perrine,  F. Plasser,  P. Pokhilko,  S. Prager,  
 A. Prociuk,  E. Ramos,  D. R. Rehn,  F. Rob,  M. Schneider,  N. Sergueev,  
 S. M. Sharada,  S. Sharma,  D. W. Small,  T. Stauch,  T. Stein,  
 Yu-Chuan Su,  A. J. W. Thom,  A. Tkatchenko,  T. Tsuchimochi,  N. M. Tubman,  
 L. Vogt,  M. L. Vidal,  O. Vydrov,  M. A. Watson,  J. Wenzel,  
 M. de Wergifosse,  T. A. Wesolowski,  A. White,  J. Witte,  A. Yamada,  
 Jun Yang,  K. Yao,  S. Yeganeh,  S. R. Yost,  Zhi-Qiang You,  A. Zech,  
 Igor Ying Zhang,  Xing Zhang,  Yan Zhao,  Ying Zhu,  B. R. Brooks,  
 G. K. L. Chan,  C. J. Cramer,  M. S. Gordon,  W. J. Hehre,  A. Klamt,  
 M. W. Schmidt,  C. D. Sherrill,  D. G. Truhlar,  A. Aspuru-Guzik,  R. Baer,  
 A. T. Bell,  N. A. Besley,  Jeng-Da Chai,  A. E. DePrince, III,  
 R. A. DiStasio Jr.,  A. Dreuw,  B. D. Dunietz,  T. R. Furlani,  
 Chao-Ping Hsu,  Yousung Jung,  Jing Kong,  D. S. Lambrecht,  WanZhen Liang,  
 C. Ochsenfeld,  V. A. Rassolov,  L. V. Slipchenko,  J. E. Subotnik,  
 T. Van Voorhis,  J. M. Herbert,  A. I. Krylov,  P. M. W. Gill,  M. Head-Gordon

 Contributors to earlier versions of Q-Chem not listed above: 
 R. D. Adamson,  B. Austin,  J. Baker,  G. J. O. Beran,  K. Brandhorst,  
 S. T. Brown,  E. F. C. Byrd,  A. K. Chakraborty,  C.-L. Cheng,  
 Siu Hung Chien,  D. M. Chipman,  D. L. Crittenden,  H. Dachsel,  
 R. J. Doerksen,  A. D. Dutoi,  L. Fusti-Molnar,  W. A. Goddard III,  
 A. Golubeva-Zadorozhnaya,  S. R. Gwaltney,  G. Hawkins,  A. Heyden,  
 S. Hirata,  G. Kedziora,  F. J. Keil,  C. Kelley,  Jihan Kim,  R. A. King,  
 R. Z. Khaliullin,  P. P. Korambath,  W. Kurlancheek,  A. M. Lee,  M. S. Lee,  
 S. V. Levchenko,  Ching Yeh Lin,  D. Liotard,  R. C. Lochan,  I. Lotan,  
 P. E. Maslen,  N. Nair,  D. P. O'Neill,  D. Neuhauser,  E. Neuscamman,  
 C. M. Oana,  R. Olson,  B. Peters,  R. Peverati,  P. A. Pieniazek,  
 Y. M. Rhee,  J. Ritchie,  M. A. Rohrdanz,  E. Rosta,  N. J. Russ,  
 H. F. Schaefer III,  N. E. Schultz,  N. Shenvi,  A. C. Simmonett,  A. Sodt,  
 D. Stuck,  K. S. Thanthiriwatte,  V. Vanovschi,  Tao Wang,  A. Warshel,  
 C. F. Williams,  Q. Wu,  X. Xu,  W. Zhang

 Please cite Q-Chem as follows:
 Y. Shao et al., Mol. Phys. 113, 184-215 (2015)
 DOI: 10.1080/00268976.2014.952696

 Q-Chem 5.1.1 for Intel X86 EM64T Linux

 Parts of Q-Chem use Armadillo 8.300.2 (Tropical Shenanigans).
 http://arma.sourceforge.net/

 Q-Chem begins on Tue Oct 27 04:15:56 2020  

Host: n0073.mhg0
0

     Scratch files written to /local/scratch/users/yhljason/CN_wB97M2_aug-cc-pcVQZ.inp20201027035732//
The previous job contains 0 fragments, simply inherited here
Input Ideriv = 0
Curr. Ideriv = -1
Max.  Ideriv = 0
Input Ideriv = 1
Curr. Ideriv = 0
Max.  Ideriv = 0

Checking the input file for inconsistencies... 	...done.

--------------------------------------------------------------
User input:
--------------------------------------------------------------
$molecule
read
$end

$rem
jobtype sp
exchange wB97M(2)
xc_grid 000099000590
basis aug-cc-pcVQZ

max_scf_cycles 200
thresh 14
scf_convergence 8
mem_total 128000
cc_memory 96000
cc_backend xm
mem_static 1500
symmetry false
sym_ignore true
scf_guess read
unrestricted false
scf_algorithm gdm
n_frozen_core 0
$end



$multipole_field
XX 0.0001
$end


--------------------------------------------------------------
 ----------------------------------------------------------------
             Standard Nuclear Orientation (Angstroms)
    I     Atom           X                Y                Z
 ----------------------------------------------------------------
    1      N       0.0000000000     0.0000000000     0.0000000000
    2      C       0.0000000000     0.0000000000     1.1718000000
 ----------------------------------------------------------------
 Nuclear Repulsion Energy =    18.9669251183 hartrees
 There are        7 alpha and        6 beta electrons
 Requested basis set is aug-cc-pCVQZ
 There are 58 shells and 218 basis functions

 Total QAlloc Memory Limit 128000 MB
 Mega-Array Size      1467 MB
 MEM_STATIC part      1500 MB

                       Distance Matrix (Angstroms)
             N (  1)
   C (  2)  1.171800
 
 Applying Cartesian multipole field
    Component          Value
    ---------          -----
     (2,0,0)        1.00000E-04
 A cutoff of  1.0D-14 yielded   1669 shell pairs
 There are     23915 function pairs (     39173 Cartesian)
 
 -------------------------------------------------------
 OpenMP Integral Computing Module                       
 Release: version 1.0, May 2013, Q-Chem Inc. Pittsburgh 
 -------------------------------------------------------
 Integral Job Info:
 Integral job number is                      11
 Integral operator is                         1
 short-range coefficients              15000000
 long-range coefficients              100000000
 Omega coefficients                         300
 if combine SR and LR in K                    1
 Integral screening is                        0
 Integral computing path is                   2
 max size of driver memory is           3200000
 size of driver memory is               1704330
 size of scratch memory is             18852824
 max col of scratch BK array              50625
 max len of scratch array in speh3         2114
 max len of scratch index in speh4           50
 max int batch size is                      520
 min int batch size is                       52
 fixed nKL is                                52
 max L of basis functions is                  4
 order of int derivative is                   0
 number of shells is                         58
 number of basis is                         278
 number of cartesian basis is               278
 number of contracted shell pairs          1669
 number of primitive shell pairs           4048
 maxK2 (contraction) of shell pair           81
 max number of K2 of shell pair               1
 max number of CS2 of shell pair            187
 max number of PS2 of shell pair            486
 mem total for path MDJ                  675334
 -------------------------------------------------------
 Smallest overlap matrix eigenvalue = 5.65E-05
 Guess MOs from SCF MO coefficient file
 Reading MOs from coefficient file
 Reading MOs from coefficient file
 Long-range K will be added via erf
 Coulomb attenuation parameter = 0.3 bohr**(-1)
 A restricted hybrid HF-DFT SCF calculation will be
 performed using Geometric Direct Minimization
 Exchange:     0.1500 Hartree-Fock + 1.0000 wB97M-V + LR-HF
 Correlation:  1.0000 wB97M-V
 Using Euler-Maclaurin-Lebedev (99,590) quadrature formula
 Nonlocal Correlation:  VV10 with C = 0.0100 and b = 6.00 and scale = 1.00000
 Grid used for NLC:  SG-1 standard quadrature
 SCF converges when RMS gradient is below 1.0E-08
Using Q-Chem read-in guess as SCF_GUESS READ specified.

 using 8 threads for integral computing
 -------------------------------------------------------
 OpenMP Integral computing Module                
 Release: version 1.0, May 2013, Q-Chem Inc. Pittsburgh 
 -------------------------------------------------------
 using 8 threads for integral computing
 -------------------------------------------------------
 OpenMP Integral computing Module                
 Release: version 1.0, May 2013, Q-Chem Inc. Pittsburgh 
 -------------------------------------------------------
TIMEINFO->: J/JK contribution 83.59 sec.
 -------------------------------------------------------
 OpenMP BLAS3 based DFT computing Module                
 Release: version 1.0, May 2013, Q-Chem Inc. Pittsburgh 
 -------------------------------------------------------
 -------------------------------------------------------
 OpenMP BLAS3 based DFT computing Module                
 Release: version 1.0, May 2013, Q-Chem Inc. Pittsburgh 
 -------------------------------------------------------
 -------------------------------------------------------
 OpenMP BLAS3 based DFT computing Module                
 Release: version 1.0, May 2013, Q-Chem Inc. Pittsburgh 
 -------------------------------------------------------
 ---------------------------------------
  Cycle       Energy        RMS Gradient
 ---------------------------------------
    1     -92.7220232236      2.95E-04 Normal BFGS step
TIMEINFO->: J/JK contribution 82.80 sec.
    2     -92.7220234705      1.45E-04 Normal BFGS step
TIMEINFO->: J/JK contribution 82.90 sec.
    3     -92.7220234951      1.00E-04 Normal BFGS step
TIMEINFO->: J/JK contribution 79.96 sec.
    4     -92.7220235006      6.84E-05 Normal BFGS step
TIMEINFO->: J/JK contribution 81.55 sec.
    5     -92.7220235072      1.63E-05 Normal BFGS step
TIMEINFO->: J/JK contribution 81.67 sec.
    6     -92.7220235074      3.25E-06 Normal BFGS step
TIMEINFO->: J/JK contribution 82.55 sec.
    7     -92.7220235075      6.29E-07 Normal BFGS step
TIMEINFO->: J/JK contribution 78.67 sec.
    8     -92.7220235075      4.73E-07 Normal BFGS step
TIMEINFO->: J/JK contribution 79.50 sec.
    9     -92.7220235075      2.28E-07 Normal BFGS step
TIMEINFO->: J/JK contribution 78.10 sec.
   10     -92.7220235075      9.52E-08 Normal BFGS step
TIMEINFO->: J/JK contribution 74.02 sec.
   11     -92.7220235075      5.58E-08 Normal BFGS step
TIMEINFO->: J/JK contribution 73.43 sec.
   GDM::WARNING energy changes are now smaller than effective accuracy.
   GDM::        calculation will continue, but THRESH should be increased
   GDM::        or SCF_CONVERGENCE decreased.
   GDM::        effective_thresh =   6.999999999999999E-011
   12     -92.7220235075      1.77E-08 Normal BFGS step
TIMEINFO->: J/JK contribution 72.07 sec.
 Nonlocal correlation =     0.0176124957
   13     -92.7220235075      6.45E-09 Convergence criterion met
 ---------------------------------------
 wB97M-V orbitals are now ready for the wB97M(2) calculation.
 wB97M(2) energy = Exch (0.62194 SRHF + 1.0 LRHF + wB97M(2)_EXCH) + 
               Corr (wB97M(2)_CORR + 0.34096 MP2 + 0.65904 VV10(b=10))
 SCF time:  CPU 1569.02 s  wall 208.42 s
 SCF   energy in the final basis set = -92.63330792
 Total energy in the final basis set = -92.63330792
 
 Components of the MP2 correlation energy:
        aaaa  correlation energy =        -0.0217901470 au
        abab  correlation energy =        -0.1470830497 au
        bbbb  correlation energy =        -0.0210993856 au
        non-Brillouin singles    =        -0.0010717897 au

 Total  MP2   correlation energy =                    -0.19104437 au
        MP2         total energy =                   -92.82435229 au
 
 --------------------------------------------------------------
 
                    Orbital Energies (a.u.)
 --------------------------------------------------------------
 
 Alpha MOs
 -- Occupied --
-14.574 -10.467  -1.084  -0.596  -0.497  -0.496  -0.520
 -- Virtual --
  0.041   0.043   0.045   0.048   0.077   0.078   0.108   0.121
  0.122   0.191   0.196   0.196   0.252   0.275   0.276   0.335
  0.336   0.353   0.360   0.368   0.368   0.424   0.425   0.512
  0.654   0.678   0.678   0.697   0.697   0.700   0.707   0.707
  0.750   0.751   0.789   0.789   0.825   0.921   0.965   0.965
  1.054   1.054   1.068   1.068   1.132   1.132   1.164   1.270
  1.395   1.395   1.410   1.410   1.457   1.657   1.657   1.781
  1.960   1.960   1.982   1.982   2.037   2.071   2.071   2.091
  2.091   2.151   2.151   2.175   2.175   2.196   2.209   2.209
  2.438   2.510   2.510   2.569   2.569   2.809   2.809   2.819
  2.830   2.831   2.896   3.006   3.006   3.046   3.046   3.156
  3.156   3.200   3.344   3.344   3.390   3.390   3.916   3.916
  3.984   4.073   4.217   4.217   4.322   4.322   4.748   5.348
  5.348   5.638   5.638   5.697   5.697   5.745   5.745   5.797
  5.840   5.840   6.128   6.128   6.133   6.133   6.232   6.609
  6.609   6.643   6.643   6.702   7.224   7.507   7.507   7.563
  7.563   7.935   7.935   8.226   8.226   8.399   8.542   8.542
  8.699   8.699   8.785   8.833   8.833   9.386   9.386   9.507
  9.507   9.610   9.861   9.861  10.641  11.187  11.187  12.709
 13.819  18.712  18.712  19.864  25.864  25.864  25.987  25.987
 26.480  26.480  26.852  27.817  35.723  36.381  36.381  37.054
 37.054  37.819  48.413  65.903  65.903  66.878  90.942  90.942
 92.078  98.035  98.035  98.045  98.045  98.100  98.100  98.127
111.368 111.368 111.395 111.395 111.415 111.415 111.459 114.453
114.457 114.699 114.699 115.190 122.022 156.066 156.070 156.441
156.441 156.761 165.170 225.106 225.106 225.923 309.595 309.595
310.535 512.863 691.374
 
 Beta MOs
 -- Occupied --
-14.568 -10.453  -1.062  -0.542  -0.481  -0.481
 -- Virtual --
 -0.161   0.042   0.045   0.047   0.046   0.089   0.090   0.108
  0.125   0.127   0.191   0.194   0.194   0.250   0.273   0.273
  0.335   0.336   0.353   0.360   0.367   0.367   0.427   0.428
  0.530   0.666   0.683   0.683   0.693   0.693   0.707   0.707
  0.708   0.752   0.752   0.784   0.784   0.828   0.930   0.969
  0.969   1.053   1.053   1.068   1.068   1.138   1.138   1.181
  1.279   1.408   1.408   1.410   1.410   1.470   1.665   1.666
  1.847   1.984   1.984   1.983   1.983   2.095   2.119   2.119
  2.105   2.105   2.181   2.181   2.180   2.180   2.210   2.224
  2.224   2.448   2.520   2.520   2.575   2.575   2.810   2.810
  2.839   2.846   2.846   2.917   3.010   3.010   3.054   3.054
  3.167   3.167   3.211   3.349   3.349   3.389   3.389   3.944
  3.944   4.027   4.123   4.227   4.227   4.367   4.367   4.774
  5.365   5.365   5.660   5.660   5.746   5.746   5.882   5.882
  5.938   5.940   5.940   6.163   6.163   6.177   6.177   6.308
  6.656   6.656   6.703   6.703   6.785   7.334   7.604   7.605
  7.568   7.568   7.931   7.931   8.237   8.237   8.433   8.566
  8.566   8.737   8.737   8.835   8.831   8.831   9.404   9.404
  9.512   9.512   9.640   9.898   9.898  10.706  11.239  11.239
 12.750  13.847  18.725  18.725  19.945  25.867  25.867  25.983
 25.983  26.499  26.499  26.887  27.853  35.736  36.377  36.377
 37.060  37.060  37.829  48.419  65.911  65.911  66.894  90.941
 90.941  92.078  98.044  98.044  98.053  98.053  98.107  98.107
 98.134 111.368 111.368 111.394 111.394 111.413 111.413 111.457
114.463 114.467 114.706 114.706 115.196 122.035 156.067 156.071
156.440 156.440 156.759 165.170 225.126 225.126 225.939 309.599
309.599 310.535 512.901 691.385
 --------------------------------------------------------------
 
          Ground-State Mulliken Net Atomic Charges

     Atom                 Charge (a.u.)
  ----------------------------------------
      1 N                    -0.088739
      2 C                     0.088739
  ----------------------------------------
  Sum of atomic charges =    -0.000000

 -----------------------------------------------------------------
                    Cartesian Multipole Moments
 -----------------------------------------------------------------
    Charge (ESU x 10^10)
                -0.0000
    Dipole Moment (Debye)
         X       0.0000      Y       0.0000      Z       1.4939
       Tot       1.4939
    Quadrupole Moments (Debye-Ang)
        XX     -11.1987     XY       0.0000     YY     -11.1926
        XZ      -0.0000     YZ       0.0000     ZZ      -8.8379
    Octopole Moments (Debye-Ang^2)
       XXX       0.0000    XXY       0.0000    XYY       0.0000
       YYY       0.0000    XXZ      -6.2215    XYZ       0.0000
       YYZ      -6.2172    XZZ       0.0000    YZZ       0.0000
       ZZZ     -15.2681
    Hexadecapole Moments (Debye-Ang^3)
      XXXX     -11.9703   XXXY       0.0000   XXYY      -3.9862
      XYYY       0.0000   YYYY     -11.9468   XXXZ       0.0000
      XXYZ       0.0000   XYYZ       0.0000   YYYZ       0.0000
      XXZZ     -10.9925   XYZZ       0.0000   YYZZ     -10.9837
      XZZZ       0.0000   YZZZ       0.0000   ZZZZ     -50.8239
 -----------------------------------------------------------------
Archival summary:
1\1\n0073.mhg0\SP\ROProcedureUnspecified\BasisUnspecified\11(2)\yhljason\TueOct2704:23:002020TueOct2704:23:002020\0\\#,ROProcedureUnspecified,BasisUnspecified,\\0,2\N\C,1,1.1718\\\@

 Total job time:  424.03s(wall), 3263.67s(cpu) 
 Tue Oct 27 04:23:00 2020

        *************************************************************
        *                                                           *
        *  Thank you very much for using Q-Chem.  Have a nice day.  *
        *                                                           *
        *************************************************************


 
User input: 4 of 8 
 
Q-Chem Developer Version!
                  Welcome to Q-Chem
     A Quantum Leap Into The Future Of Chemistry


 Q-Chem 5.1, Q-Chem, Inc., Pleasanton, CA (2018)

 Yihan Shao,  Zhengting Gan,  E. Epifanovsky,  A. T. B. Gilbert,  M. Wormit,  
 J. Kussmann,  A. W. Lange,  A. Behn,  Jia Deng,  Xintian Feng,  D. Ghosh,  
 M. Goldey,  P. R. Horn,  L. D. Jacobson,  I. Kaliman,  T. Kus,  A. Landau,  
 Jie Liu,  E. I. Proynov,  R. M. Richard,  R. P. Steele,  E. J. Sundstrom,  
 H. L. Woodcock III,  P. M. Zimmerman,  D. Zuev,  B. Albrecht,  E. Alguire,  
 S. A. Baeppler,  D. Barton,  Z. Benda,  Y. A. Bernard,  E. J. Berquist,  
 K. B. Bravaya,  H. Burton,  D. Casanova,  Chun-Min Chang,  Yunqing Chen,  
 A. Chien,  K. D. Closser,  M. P. Coons,  S. Coriani,  S. Dasgupta,  
 A. L. Dempwolff,  M. Diedenhofen,  Hainam Do,  R. G. Edgar,  Po-Tung Fang,  
 S. Faraji,  S. Fatehi,  Qingguo Feng,  K. D. Fenk,  J. Fosso-Tande,  
 Qinghui Ge,  A. Ghysels,  G. Gidofalvi,  J. Gomes,  J. Gonthier,  A. Gunina,  
 D. Hait,  M. W. D. Hanson-Heine,  P. H. P. Harbach,  A. W. Hauser,  
 J. E. Herr,  E. G. Hohenstein,  Z. C. Holden,  Kerwin Hui,  B. C. Huynh,  
 T.-C. Jagau,  Hyunjun Ji,  B. Kaduk,  K. Khistyaev,  Jaehoon Kim,  
 P. Klunzinger,  K. Koh,  D. Kosenkov,  L. Koulias,  T. Kowalczyk,  
 C. M. Krauter,  A. Kunitsa,  Ka Un Lao,  A. Laurent,  K. V. Lawler,  
 Joonho Lee,  D. Lefrancois,  S. Lehtola,  D. S. Levine,  Yi-Pei Li,  
 You-Sheng Lin,  Fenglai Liu,  E. Livshits,  A. Luenser,  P. Manohar,  
 E. Mansoor,  S. F. Manzer,  Shan-Ping Mao,  Yuezhi Mao,  N. Mardirossian,  
 A. V. Marenich,  T. Markovich,  L. A. Martinez-Martinez,  S. A. Maurer,  
 N. J. Mayhall,  S. C. McKenzie,  J.-M. Mewes,  A. F. Morrison,  
 J. W. Mullinax,  K. Nanda,  T. S. Nguyen-Beck,  R. Olivares-Amaya,  
 J. A. Parkhill,  T. M. Perrine,  F. Plasser,  P. Pokhilko,  S. Prager,  
 A. Prociuk,  E. Ramos,  D. R. Rehn,  F. Rob,  M. Schneider,  N. Sergueev,  
 S. M. Sharada,  S. Sharma,  D. W. Small,  T. Stauch,  T. Stein,  
 Yu-Chuan Su,  A. J. W. Thom,  A. Tkatchenko,  T. Tsuchimochi,  N. M. Tubman,  
 L. Vogt,  M. L. Vidal,  O. Vydrov,  M. A. Watson,  J. Wenzel,  
 M. de Wergifosse,  T. A. Wesolowski,  A. White,  J. Witte,  A. Yamada,  
 Jun Yang,  K. Yao,  S. Yeganeh,  S. R. Yost,  Zhi-Qiang You,  A. Zech,  
 Igor Ying Zhang,  Xing Zhang,  Yan Zhao,  Ying Zhu,  B. R. Brooks,  
 G. K. L. Chan,  C. J. Cramer,  M. S. Gordon,  W. J. Hehre,  A. Klamt,  
 M. W. Schmidt,  C. D. Sherrill,  D. G. Truhlar,  A. Aspuru-Guzik,  R. Baer,  
 A. T. Bell,  N. A. Besley,  Jeng-Da Chai,  A. E. DePrince, III,  
 R. A. DiStasio Jr.,  A. Dreuw,  B. D. Dunietz,  T. R. Furlani,  
 Chao-Ping Hsu,  Yousung Jung,  Jing Kong,  D. S. Lambrecht,  WanZhen Liang,  
 C. Ochsenfeld,  V. A. Rassolov,  L. V. Slipchenko,  J. E. Subotnik,  
 T. Van Voorhis,  J. M. Herbert,  A. I. Krylov,  P. M. W. Gill,  M. Head-Gordon

 Contributors to earlier versions of Q-Chem not listed above: 
 R. D. Adamson,  B. Austin,  J. Baker,  G. J. O. Beran,  K. Brandhorst,  
 S. T. Brown,  E. F. C. Byrd,  A. K. Chakraborty,  C.-L. Cheng,  
 Siu Hung Chien,  D. M. Chipman,  D. L. Crittenden,  H. Dachsel,  
 R. J. Doerksen,  A. D. Dutoi,  L. Fusti-Molnar,  W. A. Goddard III,  
 A. Golubeva-Zadorozhnaya,  S. R. Gwaltney,  G. Hawkins,  A. Heyden,  
 S. Hirata,  G. Kedziora,  F. J. Keil,  C. Kelley,  Jihan Kim,  R. A. King,  
 R. Z. Khaliullin,  P. P. Korambath,  W. Kurlancheek,  A. M. Lee,  M. S. Lee,  
 S. V. Levchenko,  Ching Yeh Lin,  D. Liotard,  R. C. Lochan,  I. Lotan,  
 P. E. Maslen,  N. Nair,  D. P. O'Neill,  D. Neuhauser,  E. Neuscamman,  
 C. M. Oana,  R. Olson,  B. Peters,  R. Peverati,  P. A. Pieniazek,  
 Y. M. Rhee,  J. Ritchie,  M. A. Rohrdanz,  E. Rosta,  N. J. Russ,  
 H. F. Schaefer III,  N. E. Schultz,  N. Shenvi,  A. C. Simmonett,  A. Sodt,  
 D. Stuck,  K. S. Thanthiriwatte,  V. Vanovschi,  Tao Wang,  A. Warshel,  
 C. F. Williams,  Q. Wu,  X. Xu,  W. Zhang

 Please cite Q-Chem as follows:
 Y. Shao et al., Mol. Phys. 113, 184-215 (2015)
 DOI: 10.1080/00268976.2014.952696

 Q-Chem 5.1.1 for Intel X86 EM64T Linux

 Parts of Q-Chem use Armadillo 8.300.2 (Tropical Shenanigans).
 http://arma.sourceforge.net/

 Q-Chem begins on Tue Oct 27 04:23:00 2020  

Host: n0073.mhg0
0

     Scratch files written to /local/scratch/users/yhljason/CN_wB97M2_aug-cc-pcVQZ.inp20201027035732//
The previous job contains 0 fragments, simply inherited here
Input Ideriv = 0
Curr. Ideriv = -1
Max.  Ideriv = 0
Input Ideriv = 1
Curr. Ideriv = 0
Max.  Ideriv = 0

Checking the input file for inconsistencies... 	...done.

--------------------------------------------------------------
User input:
--------------------------------------------------------------
$molecule
read
$end

$rem
jobtype sp
exchange wB97M(2)
xc_grid 000099000590
basis aug-cc-pcVQZ

max_scf_cycles 200
thresh 14
scf_convergence 8
mem_total 128000
cc_memory 96000
cc_backend xm
mem_static 1500
symmetry false
sym_ignore true
scf_guess read
unrestricted false
scf_algorithm gdm
n_frozen_core 0
$end



$multipole_field
XX -0.0001
$end


--------------------------------------------------------------
 ----------------------------------------------------------------
             Standard Nuclear Orientation (Angstroms)
    I     Atom           X                Y                Z
 ----------------------------------------------------------------
    1      N       0.0000000000     0.0000000000     0.0000000000
    2      C       0.0000000000     0.0000000000     1.1718000000
 ----------------------------------------------------------------
 Nuclear Repulsion Energy =    18.9669251183 hartrees
 There are        7 alpha and        6 beta electrons
 Requested basis set is aug-cc-pCVQZ
 There are 58 shells and 218 basis functions

 Total QAlloc Memory Limit 128000 MB
 Mega-Array Size      1467 MB
 MEM_STATIC part      1500 MB

                       Distance Matrix (Angstroms)
             N (  1)
   C (  2)  1.171800
 
 Applying Cartesian multipole field
    Component          Value
    ---------          -----
     (2,0,0)       -1.00000E-04
 A cutoff of  1.0D-14 yielded   1669 shell pairs
 There are     23915 function pairs (     39173 Cartesian)
 
 -------------------------------------------------------
 OpenMP Integral Computing Module                       
 Release: version 1.0, May 2013, Q-Chem Inc. Pittsburgh 
 -------------------------------------------------------
 Integral Job Info:
 Integral job number is                      11
 Integral operator is                         1
 short-range coefficients              15000000
 long-range coefficients              100000000
 Omega coefficients                         300
 if combine SR and LR in K                    1
 Integral screening is                        0
 Integral computing path is                   2
 max size of driver memory is           3200000
 size of driver memory is               1704330
 size of scratch memory is             18852824
 max col of scratch BK array              50625
 max len of scratch array in speh3         2114
 max len of scratch index in speh4           50
 max int batch size is                      520
 min int batch size is                       52
 fixed nKL is                                52
 max L of basis functions is                  4
 order of int derivative is                   0
 number of shells is                         58
 number of basis is                         278
 number of cartesian basis is               278
 number of contracted shell pairs          1669
 number of primitive shell pairs           4048
 maxK2 (contraction) of shell pair           81
 max number of K2 of shell pair               1
 max number of CS2 of shell pair            187
 max number of PS2 of shell pair            486
 mem total for path MDJ                  675334
 -------------------------------------------------------
 Smallest overlap matrix eigenvalue = 5.65E-05
 Guess MOs from SCF MO coefficient file
 Reading MOs from coefficient file
 Reading MOs from coefficient file
 Long-range K will be added via erf
 Coulomb attenuation parameter = 0.3 bohr**(-1)
 A restricted hybrid HF-DFT SCF calculation will be
 performed using Geometric Direct Minimization
 Exchange:     0.1500 Hartree-Fock + 1.0000 wB97M-V + LR-HF
 Correlation:  1.0000 wB97M-V
 Using Euler-Maclaurin-Lebedev (99,590) quadrature formula
 Nonlocal Correlation:  VV10 with C = 0.0100 and b = 6.00 and scale = 1.00000
 Grid used for NLC:  SG-1 standard quadrature
 SCF converges when RMS gradient is below 1.0E-08
Using Q-Chem read-in guess as SCF_GUESS READ specified.

 using 8 threads for integral computing
 -------------------------------------------------------
 OpenMP Integral computing Module                
 Release: version 1.0, May 2013, Q-Chem Inc. Pittsburgh 
 -------------------------------------------------------
 using 8 threads for integral computing
 -------------------------------------------------------
 OpenMP Integral computing Module                
 Release: version 1.0, May 2013, Q-Chem Inc. Pittsburgh 
 -------------------------------------------------------
TIMEINFO->: J/JK contribution 82.50 sec.
 -------------------------------------------------------
 OpenMP BLAS3 based DFT computing Module                
 Release: version 1.0, May 2013, Q-Chem Inc. Pittsburgh 
 -------------------------------------------------------
 -------------------------------------------------------
 OpenMP BLAS3 based DFT computing Module                
 Release: version 1.0, May 2013, Q-Chem Inc. Pittsburgh 
 -------------------------------------------------------
 -------------------------------------------------------
 OpenMP BLAS3 based DFT computing Module                
 Release: version 1.0, May 2013, Q-Chem Inc. Pittsburgh 
 -------------------------------------------------------
 ---------------------------------------
  Cycle       Energy        RMS Gradient
 ---------------------------------------
    1     -92.7203583156      5.80E-04 Normal BFGS step
TIMEINFO->: J/JK contribution 81.63 sec.
    2     -92.7203593044      2.91E-04 Normal BFGS step
TIMEINFO->: J/JK contribution 85.72 sec.
    3     -92.7203594011      2.01E-04 Normal BFGS step
TIMEINFO->: J/JK contribution 82.86 sec.
    4     -92.7203594237      1.39E-04 Normal BFGS step
TIMEINFO->: J/JK contribution 82.26 sec.
    5     -92.7203594501      3.29E-05 Normal BFGS step
TIMEINFO->: J/JK contribution 82.64 sec.
    6     -92.7203594509      6.27E-06 Normal BFGS step
TIMEINFO->: J/JK contribution 80.11 sec.
    7     -92.7203594510      1.25E-06 Normal BFGS step
TIMEINFO->: J/JK contribution 80.38 sec.
    8     -92.7203594510      9.27E-07 Normal BFGS step
TIMEINFO->: J/JK contribution 78.34 sec.
    9     -92.7203594510      4.42E-07 Normal BFGS step
TIMEINFO->: J/JK contribution 75.66 sec.
   10     -92.7203594510      1.89E-07 Normal BFGS step
TIMEINFO->: J/JK contribution 74.60 sec.
   11     -92.7203594510      1.08E-07 Normal BFGS step
TIMEINFO->: J/JK contribution 73.03 sec.
   12     -92.7203594510      3.49E-08 Normal BFGS step
TIMEINFO->: J/JK contribution 72.53 sec.
   13     -92.7203594510      1.31E-08 Normal BFGS step
TIMEINFO->: J/JK contribution 70.17 sec.
 Nonlocal correlation =     0.0176128985
   14     -92.7203594510      1.62E-09 Convergence criterion met
 ---------------------------------------
 wB97M-V orbitals are now ready for the wB97M(2) calculation.
 wB97M(2) energy = Exch (0.62194 SRHF + 1.0 LRHF + wB97M(2)_EXCH) + 
               Corr (wB97M(2)_CORR + 0.34096 MP2 + 0.65904 VV10(b=10))
 SCF time:  CPU 1666.22 s  wall 226.60 s
 SCF   energy in the final basis set = -92.63164884
 Total energy in the final basis set = -92.63164884
 
 Components of the MP2 correlation energy:
        aaaa  correlation energy =        -0.0217910434 au
        abab  correlation energy =        -0.1470965020 au
        bbbb  correlation energy =        -0.0211024630 au
        non-Brillouin singles    =        -0.0010718909 au

 Total  MP2   correlation energy =                    -0.19106190 au
        MP2         total energy =                   -92.82271074 au
 
 --------------------------------------------------------------
 
                    Orbital Energies (a.u.)
 --------------------------------------------------------------
 
 Alpha MOs
 -- Occupied --
-14.573 -10.467  -1.083  -0.595  -0.496  -0.496  -0.520
 -- Virtual --
  0.043   0.046   0.048   0.051   0.079   0.080   0.110   0.124
  0.126   0.194   0.199   0.199   0.254   0.277   0.278   0.337
  0.338   0.355   0.361   0.370   0.370   0.426   0.426   0.514
  0.655   0.679   0.679   0.698   0.698   0.700   0.708   0.709
  0.751   0.752   0.790   0.790   0.826   0.922   0.966   0.966
  1.055   1.055   1.069   1.069   1.133   1.133   1.165   1.271
  1.395   1.396   1.411   1.411   1.457   1.658   1.658   1.781
  1.961   1.961   1.983   1.983   2.038   2.072   2.072   2.091
  2.091   2.151   2.151   2.176   2.176   2.196   2.210   2.210
  2.438   2.511   2.511   2.570   2.570   2.810   2.810   2.819
  2.831   2.831   2.897   3.007   3.007   3.047   3.047   3.157
  3.157   3.200   3.344   3.344   3.390   3.390   3.917   3.917
  3.985   4.074   4.218   4.218   4.323   4.323   4.748   5.348
  5.349   5.639   5.639   5.698   5.698   5.746   5.746   5.797
  5.841   5.841   6.128   6.128   6.133   6.133   6.232   6.609
  6.609   6.644   6.644   6.703   7.225   7.507   7.507   7.564
  7.564   7.936   7.936   8.227   8.227   8.399   8.543   8.543
  8.700   8.700   8.785   8.834   8.834   9.386   9.386   9.507
  9.507   9.611   9.862   9.862  10.641  11.187  11.187  12.710
 13.819  18.712  18.712  19.865  25.864  25.864  25.988  25.988
 26.481  26.481  26.852  27.818  35.724  36.382  36.382  37.054
 37.054  37.820  48.413  65.904  65.904  66.878  90.943  90.943
 92.079  98.036  98.036  98.045  98.045  98.100  98.100  98.128
111.369 111.369 111.395 111.395 111.416 111.416 111.460 114.453
114.458 114.699 114.699 115.191 122.022 156.067 156.070 156.442
156.442 156.762 165.171 225.106 225.106 225.924 309.595 309.595
310.535 512.864 691.374
 
 Beta MOs
 -- Occupied --
-14.568 -10.453  -1.061  -0.541  -0.480  -0.480
 -- Virtual --
 -0.160   0.044   0.049   0.051   0.049   0.091   0.092   0.110
  0.128   0.130   0.194   0.196   0.196   0.252   0.274   0.275
  0.337   0.338   0.355   0.362   0.368   0.369   0.428   0.429
  0.531   0.667   0.684   0.684   0.694   0.694   0.708   0.709
  0.709   0.753   0.754   0.785   0.785   0.829   0.931   0.970
  0.970   1.054   1.054   1.069   1.069   1.139   1.139   1.182
  1.280   1.408   1.409   1.411   1.411   1.470   1.666   1.667
  1.848   1.984   1.984   1.983   1.983   2.095   2.119   2.120
  2.106   2.106   2.182   2.182   2.180   2.180   2.210   2.225
  2.225   2.448   2.520   2.520   2.575   2.575   2.810   2.810
  2.840   2.846   2.846   2.917   3.011   3.011   3.055   3.055
  3.168   3.168   3.211   3.349   3.349   3.390   3.390   3.945
  3.945   4.027   4.123   4.227   4.227   4.367   4.367   4.775
  5.366   5.366   5.660   5.660   5.746   5.746   5.883   5.883
  5.938   5.941   5.941   6.164   6.164   6.177   6.177   6.309
  6.656   6.656   6.704   6.704   6.785   7.335   7.605   7.605
  7.568   7.568   7.931   7.931   8.237   8.237   8.434   8.567
  8.567   8.737   8.737   8.836   8.831   8.831   9.404   9.404
  9.512   9.512   9.641   9.899   9.899  10.707  11.240  11.240
 12.751  13.847  18.725  18.725  19.945  25.868  25.868  25.984
 25.984  26.499  26.499  26.887  27.853  35.737  36.378  36.378
 37.061  37.061  37.830  48.419  65.911  65.911  66.894  90.941
 90.942  92.078  98.045  98.045  98.054  98.054  98.107  98.107
 98.135 111.369 111.369 111.395 111.395 111.414 111.414 111.458
114.464 114.468 114.706 114.706 115.197 122.035 156.068 156.072
156.440 156.440 156.760 165.171 225.126 225.126 225.939 309.600
309.600 310.535 512.901 691.386
 --------------------------------------------------------------
 
          Ground-State Mulliken Net Atomic Charges

     Atom                 Charge (a.u.)
  ----------------------------------------
      1 N                    -0.089756
      2 C                     0.089756
  ----------------------------------------
  Sum of atomic charges =    -0.000000

 -----------------------------------------------------------------
                    Cartesian Multipole Moments
 -----------------------------------------------------------------
    Charge (ESU x 10^10)
                -0.0000
    Dipole Moment (Debye)
         X       0.0000      Y      -0.0000      Z       1.4943
       Tot       1.4943
    Quadrupole Moments (Debye-Ang)
        XX     -11.1835     XY      -0.0000     YY     -11.1896
        XZ       0.0000     YZ       0.0000     ZZ      -8.8362
    Octopole Moments (Debye-Ang^2)
       XXX      -0.0000    XXY       0.0000    XYY      -0.0000
       YYY      -0.0000    XXZ      -6.2114    XYZ      -0.0000
       YYZ      -6.2156    XZZ       0.0000    YZZ       0.0000
       ZZZ     -15.2650
    Hexadecapole Moments (Debye-Ang^3)
      XXXX     -11.9107   XXXY      -0.0000   XXYY      -3.9741
      XYYY      -0.0000   YYYY     -11.9339   XXXZ      -0.0000
      XXYZ       0.0000   XYYZ      -0.0000   YYYZ       0.0000
      XXZZ     -10.9702   XYZZ      -0.0000   YYZZ     -10.9790
      XZZZ       0.0000   YZZZ       0.0000   ZZZZ     -50.8100
 -----------------------------------------------------------------
Archival summary:
1\1\n0073.mhg0\SP\ROProcedureUnspecified\BasisUnspecified\11(2)\yhljason\TueOct2704:30:252020TueOct2704:30:252020\0\\#,ROProcedureUnspecified,BasisUnspecified,\\0,2\N\C,1,1.1718\\\@

 Total job time:  445.52s(wall), 3386.06s(cpu) 
 Tue Oct 27 04:30:26 2020

        *************************************************************
        *                                                           *
        *  Thank you very much for using Q-Chem.  Have a nice day.  *
        *                                                           *
        *************************************************************


 
User input: 5 of 8 
 
Q-Chem Developer Version!
                  Welcome to Q-Chem
     A Quantum Leap Into The Future Of Chemistry


 Q-Chem 5.1, Q-Chem, Inc., Pleasanton, CA (2018)

 Yihan Shao,  Zhengting Gan,  E. Epifanovsky,  A. T. B. Gilbert,  M. Wormit,  
 J. Kussmann,  A. W. Lange,  A. Behn,  Jia Deng,  Xintian Feng,  D. Ghosh,  
 M. Goldey,  P. R. Horn,  L. D. Jacobson,  I. Kaliman,  T. Kus,  A. Landau,  
 Jie Liu,  E. I. Proynov,  R. M. Richard,  R. P. Steele,  E. J. Sundstrom,  
 H. L. Woodcock III,  P. M. Zimmerman,  D. Zuev,  B. Albrecht,  E. Alguire,  
 S. A. Baeppler,  D. Barton,  Z. Benda,  Y. A. Bernard,  E. J. Berquist,  
 K. B. Bravaya,  H. Burton,  D. Casanova,  Chun-Min Chang,  Yunqing Chen,  
 A. Chien,  K. D. Closser,  M. P. Coons,  S. Coriani,  S. Dasgupta,  
 A. L. Dempwolff,  M. Diedenhofen,  Hainam Do,  R. G. Edgar,  Po-Tung Fang,  
 S. Faraji,  S. Fatehi,  Qingguo Feng,  K. D. Fenk,  J. Fosso-Tande,  
 Qinghui Ge,  A. Ghysels,  G. Gidofalvi,  J. Gomes,  J. Gonthier,  A. Gunina,  
 D. Hait,  M. W. D. Hanson-Heine,  P. H. P. Harbach,  A. W. Hauser,  
 J. E. Herr,  E. G. Hohenstein,  Z. C. Holden,  Kerwin Hui,  B. C. Huynh,  
 T.-C. Jagau,  Hyunjun Ji,  B. Kaduk,  K. Khistyaev,  Jaehoon Kim,  
 P. Klunzinger,  K. Koh,  D. Kosenkov,  L. Koulias,  T. Kowalczyk,  
 C. M. Krauter,  A. Kunitsa,  Ka Un Lao,  A. Laurent,  K. V. Lawler,  
 Joonho Lee,  D. Lefrancois,  S. Lehtola,  D. S. Levine,  Yi-Pei Li,  
 You-Sheng Lin,  Fenglai Liu,  E. Livshits,  A. Luenser,  P. Manohar,  
 E. Mansoor,  S. F. Manzer,  Shan-Ping Mao,  Yuezhi Mao,  N. Mardirossian,  
 A. V. Marenich,  T. Markovich,  L. A. Martinez-Martinez,  S. A. Maurer,  
 N. J. Mayhall,  S. C. McKenzie,  J.-M. Mewes,  A. F. Morrison,  
 J. W. Mullinax,  K. Nanda,  T. S. Nguyen-Beck,  R. Olivares-Amaya,  
 J. A. Parkhill,  T. M. Perrine,  F. Plasser,  P. Pokhilko,  S. Prager,  
 A. Prociuk,  E. Ramos,  D. R. Rehn,  F. Rob,  M. Schneider,  N. Sergueev,  
 S. M. Sharada,  S. Sharma,  D. W. Small,  T. Stauch,  T. Stein,  
 Yu-Chuan Su,  A. J. W. Thom,  A. Tkatchenko,  T. Tsuchimochi,  N. M. Tubman,  
 L. Vogt,  M. L. Vidal,  O. Vydrov,  M. A. Watson,  J. Wenzel,  
 M. de Wergifosse,  T. A. Wesolowski,  A. White,  J. Witte,  A. Yamada,  
 Jun Yang,  K. Yao,  S. Yeganeh,  S. R. Yost,  Zhi-Qiang You,  A. Zech,  
 Igor Ying Zhang,  Xing Zhang,  Yan Zhao,  Ying Zhu,  B. R. Brooks,  
 G. K. L. Chan,  C. J. Cramer,  M. S. Gordon,  W. J. Hehre,  A. Klamt,  
 M. W. Schmidt,  C. D. Sherrill,  D. G. Truhlar,  A. Aspuru-Guzik,  R. Baer,  
 A. T. Bell,  N. A. Besley,  Jeng-Da Chai,  A. E. DePrince, III,  
 R. A. DiStasio Jr.,  A. Dreuw,  B. D. Dunietz,  T. R. Furlani,  
 Chao-Ping Hsu,  Yousung Jung,  Jing Kong,  D. S. Lambrecht,  WanZhen Liang,  
 C. Ochsenfeld,  V. A. Rassolov,  L. V. Slipchenko,  J. E. Subotnik,  
 T. Van Voorhis,  J. M. Herbert,  A. I. Krylov,  P. M. W. Gill,  M. Head-Gordon

 Contributors to earlier versions of Q-Chem not listed above: 
 R. D. Adamson,  B. Austin,  J. Baker,  G. J. O. Beran,  K. Brandhorst,  
 S. T. Brown,  E. F. C. Byrd,  A. K. Chakraborty,  C.-L. Cheng,  
 Siu Hung Chien,  D. M. Chipman,  D. L. Crittenden,  H. Dachsel,  
 R. J. Doerksen,  A. D. Dutoi,  L. Fusti-Molnar,  W. A. Goddard III,  
 A. Golubeva-Zadorozhnaya,  S. R. Gwaltney,  G. Hawkins,  A. Heyden,  
 S. Hirata,  G. Kedziora,  F. J. Keil,  C. Kelley,  Jihan Kim,  R. A. King,  
 R. Z. Khaliullin,  P. P. Korambath,  W. Kurlancheek,  A. M. Lee,  M. S. Lee,  
 S. V. Levchenko,  Ching Yeh Lin,  D. Liotard,  R. C. Lochan,  I. Lotan,  
 P. E. Maslen,  N. Nair,  D. P. O'Neill,  D. Neuhauser,  E. Neuscamman,  
 C. M. Oana,  R. Olson,  B. Peters,  R. Peverati,  P. A. Pieniazek,  
 Y. M. Rhee,  J. Ritchie,  M. A. Rohrdanz,  E. Rosta,  N. J. Russ,  
 H. F. Schaefer III,  N. E. Schultz,  N. Shenvi,  A. C. Simmonett,  A. Sodt,  
 D. Stuck,  K. S. Thanthiriwatte,  V. Vanovschi,  Tao Wang,  A. Warshel,  
 C. F. Williams,  Q. Wu,  X. Xu,  W. Zhang

 Please cite Q-Chem as follows:
 Y. Shao et al., Mol. Phys. 113, 184-215 (2015)
 DOI: 10.1080/00268976.2014.952696

 Q-Chem 5.1.1 for Intel X86 EM64T Linux

 Parts of Q-Chem use Armadillo 8.300.2 (Tropical Shenanigans).
 http://arma.sourceforge.net/

 Q-Chem begins on Tue Oct 27 04:30:26 2020  

Host: n0073.mhg0
0

     Scratch files written to /local/scratch/users/yhljason/CN_wB97M2_aug-cc-pcVQZ.inp20201027035732//
The previous job contains 0 fragments, simply inherited here
Input Ideriv = 0
Curr. Ideriv = -1
Max.  Ideriv = 0
Input Ideriv = 1
Curr. Ideriv = 0
Max.  Ideriv = 0

Checking the input file for inconsistencies... 	...done.

--------------------------------------------------------------
User input:
--------------------------------------------------------------
$molecule
read
$end

$rem
jobtype sp
exchange wB97M(2)
xc_grid 000099000590
basis aug-cc-pcVQZ

max_scf_cycles 200
thresh 14
scf_convergence 8
mem_total 128000
cc_memory 96000
cc_backend xm
mem_static 1500
symmetry false
sym_ignore true
scf_guess read
unrestricted false
scf_algorithm gdm
n_frozen_core 0
$end



$multipole_field
YY 0.0001
$end


--------------------------------------------------------------
 ----------------------------------------------------------------
             Standard Nuclear Orientation (Angstroms)
    I     Atom           X                Y                Z
 ----------------------------------------------------------------
    1      N       0.0000000000     0.0000000000     0.0000000000
    2      C       0.0000000000     0.0000000000     1.1718000000
 ----------------------------------------------------------------
 Nuclear Repulsion Energy =    18.9669251183 hartrees
 There are        7 alpha and        6 beta electrons
 Requested basis set is aug-cc-pCVQZ
 There are 58 shells and 218 basis functions

 Total QAlloc Memory Limit 128000 MB
 Mega-Array Size      1467 MB
 MEM_STATIC part      1500 MB

                       Distance Matrix (Angstroms)
             N (  1)
   C (  2)  1.171800
 
 Applying Cartesian multipole field
    Component          Value
    ---------          -----
     (0,2,0)        1.00000E-04
 A cutoff of  1.0D-14 yielded   1669 shell pairs
 There are     23915 function pairs (     39173 Cartesian)
 
 -------------------------------------------------------
 OpenMP Integral Computing Module                       
 Release: version 1.0, May 2013, Q-Chem Inc. Pittsburgh 
 -------------------------------------------------------
 Integral Job Info:
 Integral job number is                      11
 Integral operator is                         1
 short-range coefficients              15000000
 long-range coefficients              100000000
 Omega coefficients                         300
 if combine SR and LR in K                    1
 Integral screening is                        0
 Integral computing path is                   2
 max size of driver memory is           3200000
 size of driver memory is               1704330
 size of scratch memory is             18852824
 max col of scratch BK array              50625
 max len of scratch array in speh3         2114
 max len of scratch index in speh4           50
 max int batch size is                      520
 min int batch size is                       52
 fixed nKL is                                52
 max L of basis functions is                  4
 order of int derivative is                   0
 number of shells is                         58
 number of basis is                         278
 number of cartesian basis is               278
 number of contracted shell pairs          1669
 number of primitive shell pairs           4048
 maxK2 (contraction) of shell pair           81
 max number of K2 of shell pair               1
 max number of CS2 of shell pair            187
 max number of PS2 of shell pair            486
 mem total for path MDJ                  675334
 -------------------------------------------------------
 Smallest overlap matrix eigenvalue = 5.65E-05
 Guess MOs from SCF MO coefficient file
 Reading MOs from coefficient file
 Reading MOs from coefficient file
 Long-range K will be added via erf
 Coulomb attenuation parameter = 0.3 bohr**(-1)
 A restricted hybrid HF-DFT SCF calculation will be
 performed using Geometric Direct Minimization
 Exchange:     0.1500 Hartree-Fock + 1.0000 wB97M-V + LR-HF
 Correlation:  1.0000 wB97M-V
 Using Euler-Maclaurin-Lebedev (99,590) quadrature formula
 Nonlocal Correlation:  VV10 with C = 0.0100 and b = 6.00 and scale = 1.00000
 Grid used for NLC:  SG-1 standard quadrature
 SCF converges when RMS gradient is below 1.0E-08
Using Q-Chem read-in guess as SCF_GUESS READ specified.

 using 8 threads for integral computing
 -------------------------------------------------------
 OpenMP Integral computing Module                
 Release: version 1.0, May 2013, Q-Chem Inc. Pittsburgh 
 -------------------------------------------------------
 using 8 threads for integral computing
 -------------------------------------------------------
 OpenMP Integral computing Module                
 Release: version 1.0, May 2013, Q-Chem Inc. Pittsburgh 
 -------------------------------------------------------
TIMEINFO->: J/JK contribution 83.18 sec.
 -------------------------------------------------------
 OpenMP BLAS3 based DFT computing Module                
 Release: version 1.0, May 2013, Q-Chem Inc. Pittsburgh 
 -------------------------------------------------------
 -------------------------------------------------------
 OpenMP BLAS3 based DFT computing Module                
 Release: version 1.0, May 2013, Q-Chem Inc. Pittsburgh 
 -------------------------------------------------------
 -------------------------------------------------------
 OpenMP BLAS3 based DFT computing Module                
 Release: version 1.0, May 2013, Q-Chem Inc. Pittsburgh 
 -------------------------------------------------------
 ---------------------------------------
  Cycle       Energy        RMS Gradient
 ---------------------------------------
    1     -92.7220228311      4.21E-04 Normal BFGS step
TIMEINFO->: J/JK contribution 83.49 sec.
    2     -92.7220233904      2.90E-04 Normal BFGS step
TIMEINFO->: J/JK contribution 86.78 sec.
    3     -92.7220234754      1.65E-04 Normal BFGS step
TIMEINFO->: J/JK contribution 85.19 sec.
    4     -92.7220234842      1.37E-04 Normal BFGS step
TIMEINFO->: J/JK contribution 84.50 sec.
    5     -92.7220235072      1.81E-05 Normal BFGS step
TIMEINFO->: J/JK contribution 79.01 sec.
    6     -92.7220235074      4.97E-06 Normal BFGS step
TIMEINFO->: J/JK contribution 78.13 sec.
    7     -92.7220235075      8.07E-07 Normal BFGS step
TIMEINFO->: J/JK contribution 78.41 sec.
    8     -92.7220235075      8.33E-07 Normal BFGS step
TIMEINFO->: J/JK contribution 75.68 sec.
    9     -92.7220235075      4.70E-07 Normal BFGS step
TIMEINFO->: J/JK contribution 75.22 sec.
   10     -92.7220235075      1.24E-07 Normal BFGS step
TIMEINFO->: J/JK contribution 70.53 sec.
   11     -92.7220235075      4.58E-08 Normal BFGS step
TIMEINFO->: J/JK contribution 69.82 sec.
 Nonlocal correlation =     0.0176124957
   12     -92.7220235075      5.48E-09 Convergence criterion met
 ---------------------------------------
 wB97M-V orbitals are now ready for the wB97M(2) calculation.
 wB97M(2) energy = Exch (0.62194 SRHF + 1.0 LRHF + wB97M(2)_EXCH) + 
               Corr (wB97M(2)_CORR + 0.34096 MP2 + 0.65904 VV10(b=10))
 SCF time:  CPU 1446.64 s  wall 196.96 s
 SCF   energy in the final basis set = -92.63330792
 Total energy in the final basis set = -92.63330792
 
 Components of the MP2 correlation energy:
        aaaa  correlation energy =        -0.0217901471 au
        abab  correlation energy =        -0.1470830497 au
        bbbb  correlation energy =        -0.0210993856 au
        non-Brillouin singles    =        -0.0010717897 au

 Total  MP2   correlation energy =                    -0.19104437 au
        MP2         total energy =                   -92.82435229 au
 
 --------------------------------------------------------------
 
                    Orbital Energies (a.u.)
 --------------------------------------------------------------
 
 Alpha MOs
 -- Occupied --
-14.574 -10.467  -1.084  -0.596  -0.497  -0.496  -0.520
 -- Virtual --
  0.041   0.043   0.045   0.048   0.077   0.078   0.108   0.121
  0.122   0.191   0.196   0.196   0.252   0.275   0.276   0.335
  0.336   0.353   0.360   0.368   0.368   0.424   0.425   0.512
  0.654   0.678   0.678   0.697   0.697   0.700   0.707   0.707
  0.750   0.751   0.789   0.789   0.825   0.921   0.965   0.965
  1.054   1.054   1.068   1.068   1.132   1.132   1.164   1.270
  1.395   1.395   1.410   1.410   1.457   1.657   1.657   1.781
  1.960   1.960   1.982   1.982   2.037   2.071   2.071   2.091
  2.091   2.151   2.151   2.175   2.175   2.196   2.209   2.209
  2.438   2.510   2.510   2.569   2.569   2.809   2.809   2.819
  2.830   2.831   2.896   3.006   3.006   3.046   3.046   3.156
  3.156   3.200   3.344   3.344   3.390   3.390   3.916   3.916
  3.984   4.073   4.217   4.217   4.322   4.322   4.748   5.348
  5.348   5.638   5.638   5.697   5.697   5.745   5.745   5.797
  5.840   5.840   6.128   6.128   6.133   6.133   6.232   6.609
  6.609   6.643   6.643   6.702   7.224   7.507   7.507   7.563
  7.563   7.935   7.935   8.226   8.226   8.399   8.542   8.542
  8.699   8.699   8.785   8.833   8.833   9.386   9.386   9.507
  9.507   9.610   9.861   9.861  10.641  11.187  11.187  12.709
 13.819  18.712  18.712  19.864  25.864  25.864  25.987  25.987
 26.480  26.480  26.852  27.817  35.723  36.381  36.381  37.054
 37.054  37.819  48.413  65.903  65.903  66.878  90.942  90.942
 92.078  98.035  98.035  98.045  98.045  98.100  98.100  98.127
111.368 111.368 111.395 111.395 111.415 111.415 111.459 114.453
114.457 114.699 114.699 115.190 122.022 156.066 156.070 156.441
156.441 156.761 165.170 225.106 225.106 225.923 309.595 309.595
310.535 512.863 691.374
 
 Beta MOs
 -- Occupied --
-14.568 -10.453  -1.062  -0.542  -0.481  -0.481
 -- Virtual --
 -0.161   0.042   0.045   0.047   0.046   0.089   0.090   0.108
  0.125   0.127   0.191   0.194   0.194   0.250   0.273   0.273
  0.335   0.336   0.353   0.360   0.367   0.367   0.427   0.428
  0.530   0.666   0.683   0.683   0.693   0.693   0.707   0.707
  0.708   0.752   0.752   0.784   0.784   0.828   0.930   0.969
  0.969   1.053   1.053   1.068   1.068   1.138   1.138   1.181
  1.279   1.408   1.408   1.410   1.410   1.470   1.665   1.666
  1.847   1.984   1.984   1.983   1.983   2.095   2.119   2.119
  2.105   2.105   2.181   2.181   2.180   2.180   2.210   2.224
  2.224   2.448   2.520   2.520   2.575   2.575   2.810   2.810
  2.839   2.846   2.846   2.917   3.010   3.010   3.054   3.054
  3.167   3.167   3.211   3.349   3.349   3.389   3.389   3.944
  3.944   4.027   4.123   4.227   4.227   4.367   4.367   4.774
  5.365   5.365   5.660   5.660   5.746   5.746   5.882   5.882
  5.938   5.940   5.940   6.163   6.163   6.177   6.177   6.308
  6.656   6.656   6.703   6.703   6.785   7.334   7.604   7.605
  7.568   7.568   7.931   7.931   8.237   8.237   8.433   8.566
  8.566   8.737   8.737   8.835   8.831   8.831   9.404   9.404
  9.512   9.512   9.640   9.898   9.898  10.706  11.239  11.239
 12.750  13.847  18.725  18.725  19.945  25.867  25.867  25.983
 25.983  26.499  26.499  26.887  27.853  35.736  36.377  36.377
 37.060  37.060  37.829  48.419  65.911  65.911  66.894  90.941
 90.941  92.078  98.044  98.044  98.053  98.053  98.107  98.107
 98.134 111.368 111.368 111.394 111.394 111.413 111.413 111.457
114.463 114.467 114.706 114.706 115.196 122.035 156.067 156.071
156.440 156.440 156.759 165.170 225.126 225.126 225.939 309.599
309.599 310.535 512.901 691.385
 --------------------------------------------------------------
 
          Ground-State Mulliken Net Atomic Charges

     Atom                 Charge (a.u.)
  ----------------------------------------
      1 N                    -0.088739
      2 C                     0.088739
  ----------------------------------------
  Sum of atomic charges =    -0.000000

 -----------------------------------------------------------------
                    Cartesian Multipole Moments
 -----------------------------------------------------------------
    Charge (ESU x 10^10)
                -0.0000
    Dipole Moment (Debye)
         X       0.0000      Y      -0.0000      Z       1.4939
       Tot       1.4939
    Quadrupole Moments (Debye-Ang)
        XX     -11.1926     XY      -0.0000     YY     -11.1987
        XZ       0.0000     YZ      -0.0000     ZZ      -8.8379
    Octopole Moments (Debye-Ang^2)
       XXX      -0.0000    XXY       0.0000    XYY       0.0000
       YYY      -0.0000    XXZ      -6.2172    XYZ      -0.0000
       YYZ      -6.2215    XZZ       0.0000    YZZ      -0.0000
       ZZZ     -15.2681
    Hexadecapole Moments (Debye-Ang^3)
      XXXX     -11.9468   XXXY       0.0000   XXYY      -3.9862
      XYYY       0.0000   YYYY     -11.9703   XXXZ      -0.0000
      XXYZ       0.0000   XYYZ      -0.0000   YYYZ      -0.0000
      XXZZ     -10.9837   XYZZ      -0.0000   YYZZ     -10.9925
      XZZZ       0.0000   YZZZ      -0.0000   ZZZZ     -50.8239
 -----------------------------------------------------------------
Archival summary:
1\1\n0073.mhg0\SP\ROProcedureUnspecified\BasisUnspecified\11(2)\yhljason\TueOct2704:37:182020TueOct2704:37:182020\0\\#,ROProcedureUnspecified,BasisUnspecified,\\0,2\N\C,1,1.1718\\\@

 Total job time:  412.16s(wall), 3134.65s(cpu) 
 Tue Oct 27 04:37:18 2020

        *************************************************************
        *                                                           *
        *  Thank you very much for using Q-Chem.  Have a nice day.  *
        *                                                           *
        *************************************************************


 
User input: 6 of 8 
 
Q-Chem Developer Version!
                  Welcome to Q-Chem
     A Quantum Leap Into The Future Of Chemistry


 Q-Chem 5.1, Q-Chem, Inc., Pleasanton, CA (2018)

 Yihan Shao,  Zhengting Gan,  E. Epifanovsky,  A. T. B. Gilbert,  M. Wormit,  
 J. Kussmann,  A. W. Lange,  A. Behn,  Jia Deng,  Xintian Feng,  D. Ghosh,  
 M. Goldey,  P. R. Horn,  L. D. Jacobson,  I. Kaliman,  T. Kus,  A. Landau,  
 Jie Liu,  E. I. Proynov,  R. M. Richard,  R. P. Steele,  E. J. Sundstrom,  
 H. L. Woodcock III,  P. M. Zimmerman,  D. Zuev,  B. Albrecht,  E. Alguire,  
 S. A. Baeppler,  D. Barton,  Z. Benda,  Y. A. Bernard,  E. J. Berquist,  
 K. B. Bravaya,  H. Burton,  D. Casanova,  Chun-Min Chang,  Yunqing Chen,  
 A. Chien,  K. D. Closser,  M. P. Coons,  S. Coriani,  S. Dasgupta,  
 A. L. Dempwolff,  M. Diedenhofen,  Hainam Do,  R. G. Edgar,  Po-Tung Fang,  
 S. Faraji,  S. Fatehi,  Qingguo Feng,  K. D. Fenk,  J. Fosso-Tande,  
 Qinghui Ge,  A. Ghysels,  G. Gidofalvi,  J. Gomes,  J. Gonthier,  A. Gunina,  
 D. Hait,  M. W. D. Hanson-Heine,  P. H. P. Harbach,  A. W. Hauser,  
 J. E. Herr,  E. G. Hohenstein,  Z. C. Holden,  Kerwin Hui,  B. C. Huynh,  
 T.-C. Jagau,  Hyunjun Ji,  B. Kaduk,  K. Khistyaev,  Jaehoon Kim,  
 P. Klunzinger,  K. Koh,  D. Kosenkov,  L. Koulias,  T. Kowalczyk,  
 C. M. Krauter,  A. Kunitsa,  Ka Un Lao,  A. Laurent,  K. V. Lawler,  
 Joonho Lee,  D. Lefrancois,  S. Lehtola,  D. S. Levine,  Yi-Pei Li,  
 You-Sheng Lin,  Fenglai Liu,  E. Livshits,  A. Luenser,  P. Manohar,  
 E. Mansoor,  S. F. Manzer,  Shan-Ping Mao,  Yuezhi Mao,  N. Mardirossian,  
 A. V. Marenich,  T. Markovich,  L. A. Martinez-Martinez,  S. A. Maurer,  
 N. J. Mayhall,  S. C. McKenzie,  J.-M. Mewes,  A. F. Morrison,  
 J. W. Mullinax,  K. Nanda,  T. S. Nguyen-Beck,  R. Olivares-Amaya,  
 J. A. Parkhill,  T. M. Perrine,  F. Plasser,  P. Pokhilko,  S. Prager,  
 A. Prociuk,  E. Ramos,  D. R. Rehn,  F. Rob,  M. Schneider,  N. Sergueev,  
 S. M. Sharada,  S. Sharma,  D. W. Small,  T. Stauch,  T. Stein,  
 Yu-Chuan Su,  A. J. W. Thom,  A. Tkatchenko,  T. Tsuchimochi,  N. M. Tubman,  
 L. Vogt,  M. L. Vidal,  O. Vydrov,  M. A. Watson,  J. Wenzel,  
 M. de Wergifosse,  T. A. Wesolowski,  A. White,  J. Witte,  A. Yamada,  
 Jun Yang,  K. Yao,  S. Yeganeh,  S. R. Yost,  Zhi-Qiang You,  A. Zech,  
 Igor Ying Zhang,  Xing Zhang,  Yan Zhao,  Ying Zhu,  B. R. Brooks,  
 G. K. L. Chan,  C. J. Cramer,  M. S. Gordon,  W. J. Hehre,  A. Klamt,  
 M. W. Schmidt,  C. D. Sherrill,  D. G. Truhlar,  A. Aspuru-Guzik,  R. Baer,  
 A. T. Bell,  N. A. Besley,  Jeng-Da Chai,  A. E. DePrince, III,  
 R. A. DiStasio Jr.,  A. Dreuw,  B. D. Dunietz,  T. R. Furlani,  
 Chao-Ping Hsu,  Yousung Jung,  Jing Kong,  D. S. Lambrecht,  WanZhen Liang,  
[...]
        XZ       0.0000     YZ       0.0000     ZZ      -8.8716
    Octopole Moments (Debye-Ang^2)
       XXX       0.0000    XXY      -0.0000    XYY       0.0000
       YYY       0.0000    XXZ      -6.2254    XYZ       0.0000
       YYZ      -6.2254    XZZ       0.0000    YZZ       0.0000
       ZZZ     -15.3520
    Hexadecapole Moments (Debye-Ang^3)
      XXXX     -11.9429   XXXY       0.0000   XXYY      -3.9810
      XYYY       0.0000   YYYY     -11.9429   XXXZ       0.0000
      XXYZ       0.0000   XYYZ       0.0000   YYYZ       0.0000
      XXZZ     -11.0026   XYZZ       0.0000   YYZZ     -11.0026
      XZZZ       0.0000   YZZZ       0.0000   ZZZZ     -51.0415
 -----------------------------------------------------------------
Archival summary:
1\1\n0073.mhg0\SP\ROProcedureUnspecified\BasisUnspecified\11(2)\yhljason\TueOct2704:51:462020TueOct2704:51:462020\0\\#,ROProcedureUnspecified,BasisUnspecified,\\0,2\N\C,1,1.1718\\\@

 Total job time:  426.92s(wall), 3288.53s(cpu) 
 Tue Oct 27 04:51:46 2020

        *************************************************************
        *                                                           *
        *  Thank you very much for using Q-Chem.  Have a nice day.  *
        *                                                           *
        *************************************************************


 
User input: 8 of 8 
 
Q-Chem Developer Version!
                  Welcome to Q-Chem
     A Quantum Leap Into The Future Of Chemistry


 Q-Chem 5.1, Q-Chem, Inc., Pleasanton, CA (2018)

 Yihan Shao,  Zhengting Gan,  E. Epifanovsky,  A. T. B. Gilbert,  M. Wormit,  
 J. Kussmann,  A. W. Lange,  A. Behn,  Jia Deng,  Xintian Feng,  D. Ghosh,  
 M. Goldey,  P. R. Horn,  L. D. Jacobson,  I. Kaliman,  T. Kus,  A. Landau,  
 Jie Liu,  E. I. Proynov,  R. M. Richard,  R. P. Steele,  E. J. Sundstrom,  
 H. L. Woodcock III,  P. M. Zimmerman,  D. Zuev,  B. Albrecht,  E. Alguire,  
 S. A. Baeppler,  D. Barton,  Z. Benda,  Y. A. Bernard,  E. J. Berquist,  
 K. B. Bravaya,  H. Burton,  D. Casanova,  Chun-Min Chang,  Yunqing Chen,  
 A. Chien,  K. D. Closser,  M. P. Coons,  S. Coriani,  S. Dasgupta,  
 A. L. Dempwolff,  M. Diedenhofen,  Hainam Do,  R. G. Edgar,  Po-Tung Fang,  
 S. Faraji,  S. Fatehi,  Qingguo Feng,  K. D. Fenk,  J. Fosso-Tande,  
 Qinghui Ge,  A. Ghysels,  G. Gidofalvi,  J. Gomes,  J. Gonthier,  A. Gunina,  
 D. Hait,  M. W. D. Hanson-Heine,  P. H. P. Harbach,  A. W. Hauser,  
 J. E. Herr,  E. G. Hohenstein,  Z. C. Holden,  Kerwin Hui,  B. C. Huynh,  
 T.-C. Jagau,  Hyunjun Ji,  B. Kaduk,  K. Khistyaev,  Jaehoon Kim,  
 P. Klunzinger,  K. Koh,  D. Kosenkov,  L. Koulias,  T. Kowalczyk,  
 C. M. Krauter,  A. Kunitsa,  Ka Un Lao,  A. Laurent,  K. V. Lawler,  
 Joonho Lee,  D. Lefrancois,  S. Lehtola,  D. S. Levine,  Yi-Pei Li,  
 You-Sheng Lin,  Fenglai Liu,  E. Livshits,  A. Luenser,  P. Manohar,  
 E. Mansoor,  S. F. Manzer,  Shan-Ping Mao,  Yuezhi Mao,  N. Mardirossian,  
 A. V. Marenich,  T. Markovich,  L. A. Martinez-Martinez,  S. A. Maurer,  
 N. J. Mayhall,  S. C. McKenzie,  J.-M. Mewes,  A. F. Morrison,  
 J. W. Mullinax,  K. Nanda,  T. S. Nguyen-Beck,  R. Olivares-Amaya,  
 J. A. Parkhill,  T. M. Perrine,  F. Plasser,  P. Pokhilko,  S. Prager,  
 A. Prociuk,  E. Ramos,  D. R. Rehn,  F. Rob,  M. Schneider,  N. Sergueev,  
 S. M. Sharada,  S. Sharma,  D. W. Small,  T. Stauch,  T. Stein,  
 Yu-Chuan Su,  A. J. W. Thom,  A. Tkatchenko,  T. Tsuchimochi,  N. M. Tubman,  
 L. Vogt,  M. L. Vidal,  O. Vydrov,  M. A. Watson,  J. Wenzel,  
 M. de Wergifosse,  T. A. Wesolowski,  A. White,  J. Witte,  A. Yamada,  
 Jun Yang,  K. Yao,  S. Yeganeh,  S. R. Yost,  Zhi-Qiang You,  A. Zech,  
 Igor Ying Zhang,  Xing Zhang,  Yan Zhao,  Ying Zhu,  B. R. Brooks,  
 G. K. L. Chan,  C. J. Cramer,  M. S. Gordon,  W. J. Hehre,  A. Klamt,  
 M. W. Schmidt,  C. D. Sherrill,  D. G. Truhlar,  A. Aspuru-Guzik,  R. Baer,  
 A. T. Bell,  N. A. Besley,  Jeng-Da Chai,  A. E. DePrince, III,  
 R. A. DiStasio Jr.,  A. Dreuw,  B. D. Dunietz,  T. R. Furlani,  
 Chao-Ping Hsu,  Yousung Jung,  Jing Kong,  D. S. Lambrecht,  WanZhen Liang,  
 C. Ochsenfeld,  V. A. Rassolov,  L. V. Slipchenko,  J. E. Subotnik,  
 T. Van Voorhis,  J. M. Herbert,  A. I. Krylov,  P. M. W. Gill,  M. Head-Gordon

 Contributors to earlier versions of Q-Chem not listed above: 
 R. D. Adamson,  B. Austin,  J. Baker,  G. J. O. Beran,  K. Brandhorst,  
 S. T. Brown,  E. F. C. Byrd,  A. K. Chakraborty,  C.-L. Cheng,  
 Siu Hung Chien,  D. M. Chipman,  D. L. Crittenden,  H. Dachsel,  
 R. J. Doerksen,  A. D. Dutoi,  L. Fusti-Molnar,  W. A. Goddard III,  
 A. Golubeva-Zadorozhnaya,  S. R. Gwaltney,  G. Hawkins,  A. Heyden,  
 S. Hirata,  G. Kedziora,  F. J. Keil,  C. Kelley,  Jihan Kim,  R. A. King,  
 R. Z. Khaliullin,  P. P. Korambath,  W. Kurlancheek,  A. M. Lee,  M. S. Lee,  
 S. V. Levchenko,  Ching Yeh Lin,  D. Liotard,  R. C. Lochan,  I. Lotan,  
 P. E. Maslen,  N. Nair,  D. P. O'Neill,  D. Neuhauser,  E. Neuscamman,  
 C. M. Oana,  R. Olson,  B. Peters,  R. Peverati,  P. A. Pieniazek,  
 Y. M. Rhee,  J. Ritchie,  M. A. Rohrdanz,  E. Rosta,  N. J. Russ,  
 H. F. Schaefer III,  N. E. Schultz,  N. Shenvi,  A. C. Simmonett,  A. Sodt,  
 D. Stuck,  K. S. Thanthiriwatte,  V. Vanovschi,  Tao Wang,  A. Warshel,  
 C. F. Williams,  Q. Wu,  X. Xu,  W. Zhang

 Please cite Q-Chem as follows:
 Y. Shao et al., Mol. Phys. 113, 184-215 (2015)
 DOI: 10.1080/00268976.2014.952696

 Q-Chem 5.1.1 for Intel X86 EM64T Linux

 Parts of Q-Chem use Armadillo 8.300.2 (Tropical Shenanigans).
 http://arma.sourceforge.net/

 Q-Chem begins on Tue Oct 27 04:51:46 2020  

Host: n0073.mhg0
0

     Scratch files written to /local/scratch/users/yhljason/CN_wB97M2_aug-cc-pcVQZ.inp20201027035732//
The previous job contains 0 fragments, simply inherited here
Input Ideriv = 0
Curr. Ideriv = -1
Max.  Ideriv = 0
Input Ideriv = 1
Curr. Ideriv = 0
Max.  Ideriv = 0

Checking the input file for inconsistencies... 	...done.

--------------------------------------------------------------
User input:
--------------------------------------------------------------
$molecule
read
$end

$rem
jobtype sp
exchange wB97M(2)
xc_grid 000099000590
basis aug-cc-pcVQZ

max_scf_cycles 200
thresh 14
scf_convergence 8
mem_total 128000
cc_memory 96000
cc_backend xm
mem_static 1500
symmetry false
sym_ignore true
scf_guess read
unrestricted false
scf_algorithm gdm
n_frozen_core 0
$end



$multipole_field
ZZ -0.0001
$end

--------------------------------------------------------------
 ----------------------------------------------------------------
             Standard Nuclear Orientation (Angstroms)
    I     Atom           X                Y                Z
 ----------------------------------------------------------------
    1      N       0.0000000000     0.0000000000     0.0000000000
    2      C       0.0000000000     0.0000000000     1.1718000000
 ----------------------------------------------------------------
 Nuclear Repulsion Energy =    18.9669251183 hartrees
 There are        7 alpha and        6 beta electrons
 Requested basis set is aug-cc-pCVQZ
 There are 58 shells and 218 basis functions

 Total QAlloc Memory Limit 128000 MB
 Mega-Array Size      1467 MB
 MEM_STATIC part      1500 MB

                       Distance Matrix (Angstroms)
             N (  1)
   C (  2)  1.171800
 
 Applying Cartesian multipole field
    Component          Value
    ---------          -----
     (0,0,2)       -1.00000E-04
 Nucleus-field energy     =    -0.0029420901 hartrees
 A cutoff of  1.0D-14 yielded   1669 shell pairs
 There are     23915 function pairs (     39173 Cartesian)
 
 -------------------------------------------------------
 OpenMP Integral Computing Module                       
 Release: version 1.0, May 2013, Q-Chem Inc. Pittsburgh 
 -------------------------------------------------------
 Integral Job Info:
 Integral job number is                      11
 Integral operator is                         1
 short-range coefficients              15000000
 long-range coefficients              100000000
 Omega coefficients                         300
 if combine SR and LR in K                    1
 Integral screening is                        0
 Integral computing path is                   2
 max size of driver memory is           3200000
 size of driver memory is               1704330
 size of scratch memory is             18852824
 max col of scratch BK array              50625
 max len of scratch array in speh3         2114
 max len of scratch index in speh4           50
 max int batch size is                      520
 min int batch size is                       52
 fixed nKL is                                52
 max L of basis functions is                  4
 order of int derivative is                   0
 number of shells is                         58
 number of basis is                         278
 number of cartesian basis is               278
 number of contracted shell pairs          1669
 number of primitive shell pairs           4048
 maxK2 (contraction) of shell pair           81
 max number of K2 of shell pair               1
 max number of CS2 of shell pair            187
 max number of PS2 of shell pair            486
 mem total for path MDJ                  675334
 -------------------------------------------------------
 Smallest overlap matrix eigenvalue = 5.65E-05
 Guess MOs from SCF MO coefficient file
 Reading MOs from coefficient file
 Reading MOs from coefficient file
 Long-range K will be added via erf
 Coulomb attenuation parameter = 0.3 bohr**(-1)
 A restricted hybrid HF-DFT SCF calculation will be
 performed using Geometric Direct Minimization
 Exchange:     0.1500 Hartree-Fock + 1.0000 wB97M-V + LR-HF
 Correlation:  1.0000 wB97M-V
 Using Euler-Maclaurin-Lebedev (99,590) quadrature formula
 Nonlocal Correlation:  VV10 with C = 0.0100 and b = 6.00 and scale = 1.00000
 Grid used for NLC:  SG-1 standard quadrature
 SCF converges when RMS gradient is below 1.0E-08
Using Q-Chem read-in guess as SCF_GUESS READ specified.

 using 8 threads for integral computing
 -------------------------------------------------------
 OpenMP Integral computing Module                
 Release: version 1.0, May 2013, Q-Chem Inc. Pittsburgh 
 -------------------------------------------------------
 using 8 threads for integral computing
 -------------------------------------------------------
 OpenMP Integral computing Module                
 Release: version 1.0, May 2013, Q-Chem Inc. Pittsburgh 
 -------------------------------------------------------
TIMEINFO->: J/JK contribution 83.99 sec.
 -------------------------------------------------------
 OpenMP BLAS3 based DFT computing Module                
 Release: version 1.0, May 2013, Q-Chem Inc. Pittsburgh 
 -------------------------------------------------------
 -------------------------------------------------------
 OpenMP BLAS3 based DFT computing Module                
 Release: version 1.0, May 2013, Q-Chem Inc. Pittsburgh 
 -------------------------------------------------------
 -------------------------------------------------------
 OpenMP BLAS3 based DFT computing Module                
 Release: version 1.0, May 2013, Q-Chem Inc. Pittsburgh 
 -------------------------------------------------------
 ---------------------------------------
  Cycle       Energy        RMS Gradient
 ---------------------------------------
    1     -92.7205303241      1.63E-03 Normal BFGS step
TIMEINFO->: J/JK contribution 84.01 sec.
    2     -92.7205315224      1.46E-03 Normal BFGS step
TIMEINFO->: J/JK contribution 83.11 sec.
    3     -92.7205346840      6.45E-04 Normal BFGS step
TIMEINFO->: J/JK contribution 83.98 sec.
    4     -92.7205352201      3.22E-04 Normal BFGS step
TIMEINFO->: J/JK contribution 80.92 sec.
    5     -92.7205353768      1.57E-04 Normal BFGS step
TIMEINFO->: J/JK contribution 81.88 sec.
    6     -92.7205354302      8.69E-05 Normal BFGS step
TIMEINFO->: J/JK contribution 82.50 sec.
    7     -92.7205354600      3.15E-05 Normal BFGS step
TIMEINFO->: J/JK contribution 80.15 sec.
    8     -92.7205354611      7.05E-06 Normal BFGS step
TIMEINFO->: J/JK contribution 81.96 sec.
    9     -92.7205354612      2.53E-06 Normal BFGS step
TIMEINFO->: J/JK contribution 83.15 sec.
   10     -92.7205354612      5.22E-07 Normal BFGS step
TIMEINFO->: J/JK contribution 78.64 sec.
   11     -92.7205354612      1.07E-07 Normal BFGS step
TIMEINFO->: J/JK contribution 76.00 sec.
   GDM::WARNING energy changes are now smaller than effective accuracy.
   GDM::        calculation will continue, but THRESH should be increased
   GDM::        or SCF_CONVERGENCE decreased.
   GDM::        effective_thresh =   2.906940309993500E-009
   12     -92.7205354612      1.13E-08 Normal BFGS step
TIMEINFO->: J/JK contribution 67.35 sec.
   GDM::WARNING energy changes are now smaller than effective accuracy.
   GDM::        calculation will continue, but THRESH should be increased
   GDM::        or SCF_CONVERGENCE decreased.
   GDM::        effective_thresh =   2.906940309993500E-009
 Nonlocal correlation =     0.0176128050
   13     -92.7205354612      4.09E-09 Convergence criterion met
 ---------------------------------------
 wB97M-V orbitals are now ready for the wB97M(2) calculation.
 wB97M(2) energy = Exch (0.62194 SRHF + 1.0 LRHF + wB97M(2)_EXCH) + 
               Corr (wB97M(2)_CORR + 0.34096 MP2 + 0.65904 VV10(b=10))
 SCF time:  CPU 1586.25 s  wall 210.21 s
 SCF   energy in the final basis set = -92.63188117
 Total energy in the final basis set = -92.63188117
 
 Components of the MP2 correlation energy:
        aaaa  correlation energy =        -0.0217890007 au
        abab  correlation energy =        -0.1470355466 au
        bbbb  correlation energy =        -0.0210782658 au
        non-Brillouin singles    =        -0.0010721465 au

 Total  MP2   correlation energy =                    -0.19097496 au
        MP2         total energy =                   -92.82285613 au
 
 --------------------------------------------------------------
 
                    Orbital Energies (a.u.)
 --------------------------------------------------------------
 
 Alpha MOs
 -- Occupied --
-14.573 -10.466  -1.083  -0.595  -0.496  -0.496  -0.520
 -- Virtual --
  0.044   0.047   0.047   0.054   0.079   0.079   0.112   0.125
  0.125   0.195   0.199   0.199   0.256   0.278   0.278   0.337
  0.337   0.356   0.363   0.370   0.370   0.426   0.426   0.514
  0.656   0.679   0.679   0.698   0.698   0.701   0.709   0.709
  0.752   0.752   0.790   0.790   0.828   0.923   0.966   0.966
  1.055   1.055   1.069   1.069   1.134   1.134   1.165   1.272
  1.396   1.396   1.411   1.411   1.458   1.659   1.659   1.782
  1.961   1.961   1.983   1.983   2.038   2.072   2.072   2.092
  2.092   2.152   2.152   2.176   2.176   2.197   2.211   2.211
  2.439   2.512   2.512   2.570   2.570   2.810   2.810   2.820
  2.832   2.832   2.898   3.007   3.007   3.047   3.047   3.157
  3.157   3.201   3.344   3.344   3.391   3.391   3.917   3.917
  3.986   4.074   4.218   4.218   4.323   4.323   4.748   5.349
  5.349   5.639   5.639   5.698   5.698   5.746   5.746   5.797
  5.841   5.841   6.128   6.128   6.133   6.133   6.232   6.610
  6.610   6.644   6.644   6.703   7.225   7.508   7.508   7.564
  7.564   7.936   7.936   8.227   8.227   8.400   8.543   8.543
  8.700   8.700   8.786   8.834   8.834   9.387   9.387   9.507
  9.507   9.611   9.862   9.862  10.642  11.188  11.188  12.710
 13.820  18.713  18.713  19.865  25.865  25.865  25.988  25.988
 26.481  26.481  26.853  27.818  35.724  36.382  36.382  37.055
 37.055  37.820  48.413  65.904  65.904  66.879  90.943  90.943
 92.079  98.036  98.036  98.046  98.046  98.100  98.100  98.128
111.369 111.369 111.396 111.396 111.416 111.416 111.460 114.454
114.458 114.699 114.699 115.191 122.022 156.067 156.071 156.442
156.442 156.762 165.171 225.106 225.106 225.924 309.596 309.596
310.536 512.864 691.375
 
 Beta MOs
 -- Occupied --
-14.567 -10.453  -1.061  -0.541  -0.480  -0.480
 -- Virtual --
 -0.160   0.045   0.050   0.050   0.052   0.091   0.091   0.112
  0.130   0.130   0.195   0.196   0.196   0.254   0.276   0.276
  0.338   0.338   0.356   0.363   0.368   0.368   0.429   0.429
  0.531   0.668   0.684   0.684   0.694   0.694   0.709   0.709
  0.709   0.754   0.754   0.785   0.785   0.830   0.932   0.970
  0.970   1.054   1.054   1.069   1.069   1.139   1.139   1.183
  1.281   1.409   1.409   1.411   1.411   1.471   1.667   1.667
  1.848   1.985   1.985   1.984   1.984   2.096   2.120   2.120
  2.106   2.106   2.182   2.182   2.181   2.181   2.211   2.225
  2.225   2.449   2.521   2.521   2.576   2.576   2.810   2.810
  2.840   2.847   2.847   2.918   3.011   3.011   3.055   3.055
  3.168   3.168   3.212   3.350   3.350   3.390   3.390   3.945
  3.945   4.028   4.124   4.227   4.227   4.368   4.368   4.775
  5.366   5.366   5.660   5.660   5.746   5.746   5.883   5.883
  5.939   5.941   5.941   6.164   6.164   6.177   6.177   6.309
  6.657   6.657   6.704   6.704   6.786   7.335   7.605   7.605
  7.569   7.569   7.931   7.931   8.237   8.237   8.434   8.567
  8.567   8.738   8.738   8.836   8.831   8.831   9.404   9.404
  9.512   9.512   9.641   9.899   9.899  10.707  11.240  11.240
 12.751  13.847  18.725  18.725  19.946  25.868  25.868  25.984
 25.984  26.500  26.500  26.887  27.854  35.737  36.378  36.378
 37.061  37.061  37.830  48.420  65.912  65.912  66.894  90.942
 90.942  92.079  98.045  98.045  98.054  98.054  98.108  98.108
 98.135 111.369 111.369 111.395 111.395 111.414 111.414 111.458
114.464 114.468 114.707 114.707 115.197 122.036 156.068 156.072
156.441 156.441 156.760 165.171 225.127 225.127 225.939 309.600
309.600 310.536 512.902 691.386
 --------------------------------------------------------------
 
          Ground-State Mulliken Net Atomic Charges

     Atom                 Charge (a.u.)
  ----------------------------------------
      1 N                    -0.089285
      2 C                     0.089285
  ----------------------------------------
  Sum of atomic charges =    -0.000000

 -----------------------------------------------------------------
                    Cartesian Multipole Moments
 -----------------------------------------------------------------
    Charge (ESU x 10^10)
                -0.0000
    Dipole Moment (Debye)
         X       0.0000      Y       0.0000      Z       1.5098
       Tot       1.5098
    Quadrupole Moments (Debye-Ang)
        XX     -11.1902     XY       0.0000     YY     -11.1902
        XZ       0.0000     YZ       0.0000     ZZ      -8.8027
    Octopole Moments (Debye-Ang^2)
       XXX      -0.0000    XXY       0.0000    XYY       0.0000
       YYY       0.0000    XXZ      -6.2075    XYZ       0.0000
       YYZ      -6.2075    XZZ       0.0000    YZZ       0.0000
       ZZZ     -15.1820
    Hexadecapole Moments (Debye-Ang^3)
      XXXX     -11.9379   XXXY       0.0000   XXYY      -3.9793
      XYYY       0.0000   YYYY     -11.9379   XXXZ       0.0000
      XXYZ       0.0000   XYYZ       0.0000   YYYZ       0.0000
      XXZZ     -10.9602   XYZZ       0.0000   YYZZ     -10.9602
      XZZZ       0.0000   YZZZ       0.0000   ZZZZ     -50.5952
 -----------------------------------------------------------------
Archival summary:
1\1\n0073.mhg0\SP\ROProcedureUnspecified\BasisUnspecified\11(2)\yhljason\TueOct2704:58:522020TueOct2704:58:522020\0\\#,ROProcedureUnspecified,BasisUnspecified,\\0,2\N\C,1,1.1718\\\@

 Total job time:  425.54s(wall), 3277.44s(cpu) 
 Tue Oct 27 04:58:52 2020

        *************************************************************
        *                                                           *
        *  Thank you very much for using Q-Chem.  Have a nice day.  *
        *                                                           *
        *************************************************************


