Q-Chem Developer Version!
                  Welcome to Q-Chem
     A Quantum Leap Into The Future Of Chemistry


 Q-Chem 5.1, Q-Chem, Inc., Pleasanton, CA (2018)

 Yihan Shao,  Zhengting Gan,  E. Epifanovsky,  A. T. B. Gilbert,  M. Wormit,  
 J. Kussmann,  A. W. Lange,  A. Behn,  Jia Deng,  Xintian Feng,  D. Ghosh,  
 M. Goldey,  P. R. Horn,  L. D. Jacobson,  I. Kaliman,  T. Kus,  A. Landau,  
 Jie Liu,  E. I. Proynov,  R. M. Richard,  R. P. Steele,  E. J. Sundstrom,  
 H. L. Woodcock III,  P. M. Zimmerman,  D. Zuev,  B. Albrecht,  E. Alguire,  
 S. A. Baeppler,  D. Barton,  Z. Benda,  Y. A. Bernard,  E. J. Berquist,  
 K. B. Bravaya,  H. Burton,  D. Casanova,  Chun-Min Chang,  Yunqing Chen,  
 A. Chien,  K. D. Closser,  M. P. Coons,  S. Coriani,  S. Dasgupta,  
 A. L. Dempwolff,  M. Diedenhofen,  Hainam Do,  R. G. Edgar,  Po-Tung Fang,  
 S. Faraji,  S. Fatehi,  Qingguo Feng,  K. D. Fenk,  J. Fosso-Tande,  
 Qinghui Ge,  A. Ghysels,  G. Gidofalvi,  J. Gomes,  J. Gonthier,  A. Gunina,  
 D. Hait,  M. W. D. Hanson-Heine,  P. H. P. Harbach,  A. W. Hauser,  
 J. E. Herr,  E. G. Hohenstein,  Z. C. Holden,  Kerwin Hui,  B. C. Huynh,  
 T.-C. Jagau,  Hyunjun Ji,  B. Kaduk,  K. Khistyaev,  Jaehoon Kim,  
 P. Klunzinger,  K. Koh,  D. Kosenkov,  L. Koulias,  T. Kowalczyk,  
 C. M. Krauter,  A. Kunitsa,  Ka Un Lao,  A. Laurent,  K. V. Lawler,  
 Joonho Lee,  D. Lefrancois,  S. Lehtola,  D. S. Levine,  Yi-Pei Li,  
 You-Sheng Lin,  Fenglai Liu,  E. Livshits,  A. Luenser,  P. Manohar,  
 E. Mansoor,  S. F. Manzer,  Shan-Ping Mao,  Yuezhi Mao,  N. Mardirossian,  
 A. V. Marenich,  T. Markovich,  L. A. Martinez-Martinez,  S. A. Maurer,  
 N. J. Mayhall,  S. C. McKenzie,  J.-M. Mewes,  A. F. Morrison,  
 J. W. Mullinax,  K. Nanda,  T. S. Nguyen-Beck,  R. Olivares-Amaya,  
 J. A. Parkhill,  T. M. Perrine,  F. Plasser,  P. Pokhilko,  S. Prager,  
 A. Prociuk,  E. Ramos,  D. R. Rehn,  F. Rob,  M. Schneider,  N. Sergueev,  
 S. M. Sharada,  S. Sharma,  D. W. Small,  T. Stauch,  T. Stein,  
 Yu-Chuan Su,  A. J. W. Thom,  A. Tkatchenko,  T. Tsuchimochi,  N. M. Tubman,  
 L. Vogt,  M. L. Vidal,  O. Vydrov,  M. A. Watson,  J. Wenzel,  
 M. de Wergifosse,  T. A. Wesolowski,  A. White,  J. Witte,  A. Yamada,  
 Jun Yang,  K. Yao,  S. Yeganeh,  S. R. Yost,  Zhi-Qiang You,  A. Zech,  
 Igor Ying Zhang,  Xing Zhang,  Yan Zhao,  Ying Zhu,  B. R. Brooks,  
 G. K. L. Chan,  C. J. Cramer,  M. S. Gordon,  W. J. Hehre,  A. Klamt,  
 M. W. Schmidt,  C. D. Sherrill,  D. G. Truhlar,  A. Aspuru-Guzik,  R. Baer,  
 A. T. Bell,  N. A. Besley,  Jeng-Da Chai,  A. E. DePrince, III,  
 R. A. DiStasio Jr.,  A. Dreuw,  B. D. Dunietz,  T. R. Furlani,  
 Chao-Ping Hsu,  Yousung Jung,  Jing Kong,  D. S. Lambrecht,  WanZhen Liang,  
 C. Ochsenfeld,  V. A. Rassolov,  L. V. Slipchenko,  J. E. Subotnik,  
 T. Van Voorhis,  J. M. Herbert,  A. I. Krylov,  P. M. W. Gill,  M. Head-Gordon

 Contributors to earlier versions of Q-Chem not listed above: 
 R. D. Adamson,  B. Austin,  J. Baker,  G. J. O. Beran,  K. Brandhorst,  
 S. T. Brown,  E. F. C. Byrd,  A. K. Chakraborty,  C.-L. Cheng,  
 Siu Hung Chien,  D. M. Chipman,  D. L. Crittenden,  H. Dachsel,  
 R. J. Doerksen,  A. D. Dutoi,  L. Fusti-Molnar,  W. A. Goddard III,  
 A. Golubeva-Zadorozhnaya,  S. R. Gwaltney,  G. Hawkins,  A. Heyden,  
 S. Hirata,  G. Kedziora,  F. J. Keil,  C. Kelley,  Jihan Kim,  R. A. King,  
 R. Z. Khaliullin,  P. P. Korambath,  W. Kurlancheek,  A. M. Lee,  M. S. Lee,  
 S. V. Levchenko,  Ching Yeh Lin,  D. Liotard,  R. C. Lochan,  I. Lotan,  
 P. E. Maslen,  N. Nair,  D. P. O'Neill,  D. Neuhauser,  E. Neuscamman,  
 C. M. Oana,  R. Olson,  B. Peters,  R. Peverati,  P. A. Pieniazek,  
 Y. M. Rhee,  J. Ritchie,  M. A. Rohrdanz,  E. Rosta,  N. J. Russ,  
 H. F. Schaefer III,  N. E. Schultz,  N. Shenvi,  A. C. Simmonett,  A. Sodt,  
 D. Stuck,  K. S. Thanthiriwatte,  V. Vanovschi,  Tao Wang,  A. Warshel,  
 C. F. Williams,  Q. Wu,  X. Xu,  W. Zhang

 Please cite Q-Chem as follows:
 Y. Shao et al., Mol. Phys. 113, 184-215 (2015)
 DOI: 10.1080/00268976.2014.952696

 Q-Chem 5.1.1 for Intel X86 EM64T Linux

 Parts of Q-Chem use Armadillo 8.300.2 (Tropical Shenanigans).
 http://arma.sourceforge.net/

 Q-Chem begins on Tue Oct 27 03:57:44 2020  

Host: n0095.mhg0
0

     Scratch files written to /local/scratch/users/yhljason/HCP_wB97M2_aug-cc-pcVQZ.inp20201027035740//
Input Ideriv = 2
Curr. Ideriv = -1
Max.  Ideriv = 2
Input Ideriv = 1
Curr. Ideriv = 2
Max.  Ideriv = 1

Checking the input file for inconsistencies... 	...done.

--------------------------------------------------------------
User input:
--------------------------------------------------------------
$molecule
0 1
C1      0.0000  0.0000  0.0000
H2      0.0000  0.0000  1.0670
P3      0.0000  0.0000  -1.5420
$end

$rem
jobtype sp
method wB97M-V
xc_grid 000099000590
basis aug-cc-pcVQZ
max_scf_cycles 200
thresh 14
scf_convergence 8
scf_algorithm gdm
symmetry false
sym_ignore true
unrestricted false
gen_scfman true
internal_stability_iter 15
internal_stability_davidson_iter 200
mem_total 128000
n_frozen_core 0
$end



--------------------------------------------------------------
 ----------------------------------------------------------------
             Standard Nuclear Orientation (Angstroms)
    I     Atom           X                Y                Z
 ----------------------------------------------------------------
    1      C       0.0000000000     0.0000000000     0.0000000000
    2      H       0.0000000000     0.0000000000     1.0670000000
    3      P       0.0000000000     0.0000000000    -1.5420000000
 ----------------------------------------------------------------
 Nuclear Repulsion Energy =    36.9039353450 hartrees
 There are       11 alpha and       11 beta electrons
 Requested basis set is aug-cc-pCVQZ
 There are 77 shells and 289 basis functions

 Total QAlloc2 of 8 
 
Q-Chem Developer Version!
                  Welcome to Q-Chem
     A Quantum Leap Into The Future Of Chemistry


 Q-Chem 5.1, Q-Chem, Inc., Pleasanton, CA (2018)

 Yihan Shao,  Zhengting Gan,  E. Epifanovsky,  A. T. B. Gilbert,  M. Wormit,  
 J. Kussmann,  A. W. Lange,  A. Behn,  Jia Deng,  Xintian Feng,  D. Ghosh,  
 M. Goldey,  P. R. Horn,  L. D. Jacobson,  I. Kaliman,  T. Kus,  A. Landau,  
 Jie Liu,  E. I. Proynov,  R. M. Richard,  R. P. Steele,  E. J. Sundstrom,  
 H. L. Woodcock III,  P. M. Zimmerman,  D. Zuev,  B. Albrecht,  E. Alguire,  
 S. A. Baeppler,  D. Barton,  Z. Benda,  Y. A. Bernard,  E. J. Berquist,  
 K. B. Bravaya,  H. Burton,  D. Casanova,  Chun-Min Chang,  Yunqing Chen,  
 A. Chien,  K. D. Closser,  M. P. Coons,  S. Coriani,  S. Dasgupta,  
 A. L. Dempwolff,  M. Diedenhofen,  Hainam Do,  R. G. Edgar,  Po-Tung Fang,  
 S. Faraji,  S. Fatehi,  Qingguo Feng,  K. D. Fenk,  J. Fosso-Tande,  
 Qinghui Ge,  A. Ghysels,  G. Gidofalvi,  J. Gomes,  J. Gonthier,  A. Gunina,  
 D. Hait,  M. W. D. Hanson-Heine,  P. H. P. Harbach,  A. W. Hauser,  
 J. E. Herr,  E. G. Hohenstein,  Z. C. Holden,  Kerwin Hui,  B. C. Huynh,  
 T.-C. Jagau,  Hyunjun Ji,  B. Kaduk,  K. Khistyaev,  Jaehoon Kim,  
 P. Klunzinger,  K. Koh,  D. Kosenkov,  L. Koulias,  T. Kowalczyk,  
 C. M. Krauter,  A. Kunitsa,  Ka Un Lao,  A. Laurent,  K. V. Lawler,  
 Joonho Lee,  D. Lefrancois,  S. Lehtola,  D. S. Levine,  Yi-Pei Li,  
 You-Sheng Lin,  Fenglai Liu,  E. Livshits,  A. Luenser,  P. Manohar,  
 E. Mansoor,  S. F. Manzer,  Shan-Ping Mao,  Yuezhi Mao,  N. Mardirossian,  
 A. V. Marenich,  T. Markovich,  L. A. Martinez-Martinez,  S. A. Maurer,  
 N. J. Mayhall,  S. C. McKenzie,  J.-M. Mewes,  A. F. Morrison,  
 J. W. Mullinax,  K. Nanda,  T. S. Nguyen-Beck,  R. Olivares-Amaya,  
 J. A. Parkhill,  T. M. Perrine,  F. Plasser,  P. Pokhilko,  S. Prager,  
 A. Prociuk,  E. Ramos,  D. R. Rehn,  F. Rob,  M. Schneider,  N. Sergueev,  
 S. M. Sharada,  S. Sharma,  D. W. Small,  T. Stauch,  T. Stein,  
 Yu-Chuan Su,  A. J. W. Thom,  A. Tkatchenko,  T. Tsuchimochi,  N. M. Tubman,  
 L. Vogt,  M. L. Vidal,  O. Vydrov,  M. A. Watson,  J. Wenzel,  
 M. de Wergifosse,  T. A. Wesolowski,  A. White,  J. Witte,  A. Yamada,  
 Jun Yang,  K. Yao,  S. Yeganeh,  S. R. Yost,  Zhi-Qiang You,  A. Zech,  
 Igor Ying Zhang,  Xing Zhang,  Yan Zhao,  Ying Zhu,  B. R. Brooks,  
 G. K. L. Chan,  C. J. Cramer,  M. S. Gordon,  W. J. Hehre,  A. Klamt,  
 M. W. Schmidt,  C. D. Sherrill,  D. G. Truhlar,  A. Aspuru-Guzik,  R. Baer,  
 A. T. Bell,  N. A. Besley,  Jeng-Da Chai,  A. E. DePrince, III,  
 R. A. DiStasio Jr.,  A. Dreuw,  B. D. Dunietz,  T. R. Furlani,  
 Chao-Ping Hsu,  Yousung Jung,  Jing Kong,  D. S. Lambrecht,  WanZhen Liang,  
 C. Ochsenfeld,  V. A. Rassolov,  L. V. Slipchenko,  J. E. Subotnik,  
 T. Van Voorhis,  J. M. Herbert,  A. I. Krylov,  P. M. W. Gill,  M. Head-Gordon

 Contributors to earlier versions of Q-Chem not listed above: 
 R. D. Adamson,  B. Austin,  J. Baker,  G. J. O. Beran,  K. Brandhorst,  
 S. T. Brown,  E. F. C. Byrd,  A. K. Chakraborty,  C.-L. Cheng,  
 Siu Hung Chien,  D. M. Chipman,  D. L. Crittenden,  H. Dachsel,  
 R. J. Doerksen,  A. D. Dutoi,  L. Fusti-Molnar,  W. A. Goddard III,  
 A. Golubeva-Zadorozhnaya,  S. R. Gwaltney,  G. Hawkins,  A. Heyden,  
 S. Hirata,  G. Kedziora,  F. J. Keil,  C. Kelley,  Jihan Kim,  R. A. King,  
 R. Z. Khaliullin,  P. P. Korambath,  W. Kurlancheek,  A. M. Lee,  M. S. Lee,  
 S. V. Levchenko,  Ching Yeh Lin,  D. Liotard,  R. C. Lochan,  I. Lotan,  
 P. E. Maslen,  N. Nair,  D. P. O'Neill,  D. Neuhauser,  E. Neuscamman,  
 C. M. Oana,  R. Olson,  B. Peters,  R. Peverati,  P. A. Pieniazek,  
 Y. M. Rhee,  J. Ritchie,  M. A. Rohrdanz,  E. Rosta,  N. J. Russ,  
 H. F. Schaefer III,  N. E. Schultz,  N. Shenvi,  A. C. Simmonett,  A. Sodt,  
 D. Stuck,  K. S. Thanthiriwatte,  V. Vanovschi,  Tao Wang,  A. Warshel,  
 C. F. Williams,  Q. Wu,  X. Xu,  W. Zhang

 Please cite Q-Chem as follows:
 Y. Shao et al., Mol. Phys. 113, 184-215 (2015)
 DOI: 10.1080/00268976.2014.952696

 Q-Chem 5.1.1 for Intel X86 EM64T Linux

 Parts of Q-Chem use Armadillo 8.300.2 (Tropical Shenanigans).
 http://arma.sourceforge.net/

 Q-Chem begins on Tue Oct 27 04:58:49 2020  

Host: n0095.mhg0
0

     Scratch files written to /local/scratch/users/yhljason/HCP_wB97M2_aug-cc-pcVQZ.inp20201027035740//
The previous job contains 0 fragments, simply inherited here
Input Ideriv = 0
Curr. Ideriv = -1
Max.  Ideriv = 0
Analytic post-HF gradients are not available with non-HF exchange
Input Ideriv = 0
Curr. Ideriv = 0
Max.  Ideriv = 0

Checking the input file for inconsistencies... 	...done.

--------------------------------------------------------------
User input:
--------------------------------------------------------------
$molecule
read
$end

$rem
jobtype sp
exchange wB97M(2)
xc_grid 000099000590
basis aug-cc-pcVQZ
max_scf_cycles 200
thresh 14
scf_convergence 8
scf_algorithm gdm
symmetry false
sym_ignore true
unrestricted false
gen_scfman false
mem_total 128000
cc_memory 96000
cc_backend xm
mem_static 1500
n_frozen_core 0
scf_guess read
$end



--------------------------------------------------------------
 ----------------------------------------------------------------
             Standard Nuclear Orientation (Angstroms)
    I     Atom           X                Y                Z
 ----------------------------------------------------------------
    1      C       0.0000000000     0.0000000000     0.0000000000
    2      H       0.0000000000     0.0000000000     1.0670000000
    3      P       0.0000000000     0.0000000000    -1.5420000000
 ----------------------------------------------------------------
 Nuclear Repulsion Energy =    36.9039353450 hartrees
 There are       11 alpha and       11 beta electrons
 Requested basis set is aug-cc-pCVQZ
 There are 77 shells and 289 basis functions

 Total QAlloc Memory Limit 128000 MB
 Mega-Array Size      1467 MB
 MEM_STATIC part      1500 MB

                       Distance Matrix (Angstroms)
             C (  1)   H (  2)
   H (  2)  1.067000
   P (  3)  1.542000  2.609000
 
 A cutoff of  1.0D-14 yielded   2912 shell pairs
 There are     41362 function pairs (     67426 Cartesian)
 
 -------------------------------------------------------
 OpenMP Integral Computing Module                       
 Release: version 1.0, May 2013, Q-Chem Inc. Pittsburgh 
 -------------------------------------------------------
 Integral Job Info:
 Integral job number is                      11
 Integral operator is                         1
 short-range coefficients              15000000
 long-range coefficients              100000000
 Omega coefficients                         300
 if combine SR and LR in K                    1
 Integral screening is                        0
 Integral computing path is                   2
 max size of driver memory is           3200000
 size of driver memory is               1704330
 size of scratch memory is             28840424
 max col of scratch BK array              50625
 max len of scratch array in speh3         2114
 max len of scratch index in speh4           50
 max int batch size is                      520
 min int batch size is                       52
 fixed nKL is                                21
 max L of basis functions is                  4
 order of int derivative is                   0
 number of shells is                         77
 number of basis is                         368
 number of cartesian basis is               368
 number of contracted shell pairs          2912
 number of primitive shell pairs           9469
 maxK2 (contraction) of shell pair          169
 max number of K2 of shell pair               1
 max number of CS2 of shell pair            319
 max number of PS2 of shell pair           1014
 mem total for path MDJ                  745120
 -------------------------------------------------------
 Smallest overlap matrix eigenvalue = 1.56E-05

 Scale SEOQF with 1.000000e-01/1.000000e-01/1.000000e-01

 Standard Electronic Orientation quadrupole field applied
 Nucleus-field energy     =    -0.0000000039 hartrees
 Guess MOs from SCF MO coefficient file
 Reading MOs from coefficient file
 Reading MOs from coefficient file
 Long-range K will be added via erf
 Coulomb attenuation parameter = 0.3 bohr**(-1)
 A restricted hybrid HF-DFT SCF calculation will be
 performed using Geometric Direct Minimization
 Exchange:     0.1500 Hartree-Fock + 1.0000 wB97M-V + LR-HF
 Correlation:  1.0000 wB97M-V
 Using Euler-Maclaurin-Lebedev (99,590) quadrature formula
 Nonlocal Correlation:  VV10 with C = 0.0100 and b = 6.00 and scale = 1.00000
 Grid used for NLC:  SG-1 standard quadrature
 SCF converges when RMS gradient is below 1.0E-08
Using Q-Chem read-in guess as SCF_GUESS READ specified.

 using 8 threads for integral computing
 -------------------------------------------------------
 OpenMP Integral computing Module                
 Release: version 1.0, May 2013, Q-Chem Inc. Pittsburgh 
 -------------------------------------------------------
 using 8 threads for integral computing
 -------------------------------------------------------
 OpenMP Integral computing Module                
 Release: version 1.0, May 2013, Q-Chem Inc. Pittsburgh 
 -------------------------------------------------------
TIMEINFO->: J/JK contribution 250.20 sec.
 -------------------------------------------------------
 OpenMP BLAS3 based DFT computing Module                
 Release: version 1.0, May 2013, Q-Chem Inc. Pittsburgh 
 -------------------------------------------------------
 -------------------------------------------------------
 OpenMP BLAS3 based DFT computing Module                
 Release: version 1.0, May 2013, Q-Chem Inc. Pittsburgh 
 -------------------------------------------------------
 -------------------------------------------------------
 OpenMP BLAS3 based DFT computing Module                
 Release: version 1.0, May 2013, Q-Chem Inc. Pittsburgh 
 -------------------------------------------------------
 ---------------------------------------
  Cycle       Energy        RMS Gradient
 ---------------------------------------
    1    -379.9978199377      2.15E-10 Normal BFGS step
TIMEINFO->: J/JK contribution 252.16 sec.
 Nonlocal correlation =     0.0295388390
    2    -379.9978199377      6.83E-11 Convergence criterion met
 ---------------------------------------
 wB97M-V orbitals are now ready for the wB97M(2) calculation.
 wB97M(2) energy = Exch (0.62194 SRHF + 1.0 LRHF + wB97M(2)_EXCH) + 
               Corr (wB97M(2)_CORR + 0.34096 MP2 + 0.65904 VV10(b=10))
 SCF time:  CPU 993.85 s  wall 125.29 s
 SCF   energy in the final basis set = -379.88762296
 Total energy in the final basis set = -379.88762296
 
 Components of the MP2 correlation energy:
        aaaa  correlation energy =        -0.0345730467 au
        abab  correlation energy =        -0.2206929621 au
        bbbb  correlation energy =        -0.0345730467 au
        non-Brillouin singles    =        -0.0000000000 au

 Total  MP2   correlation energy =                    -0.28983906 au
        MP2         total energy =                  -380.17746202 au
 
 --------------------------------------------------------------
 
                    Orbital Energies (a.u.)
 --------------------------------------------------------------
 
 Alpha MOs
 -- Occupied --
-77.371 -10.378  -6.727  -4.838  -4.838  -4.835  -0.835  -0.651
 -0.460  -0.377  -0.377
 -- Virtual --
  0.014   0.015   0.015   0.030   0.055   0.055   0.067   0.081
  0.081   0.102   0.130   0.142   0.142   0.160   0.188   0.188
  0.197   0.238   0.238   0.247   0.247   0.262   0.292   0.299
  0.304   0.304   0.363   0.363   0.394   0.394   0.399   0.399
  0.416   0.431   0.451   0.451   0.488   0.488   0.515   0.515
  0.522   0.551   0.551   0.565   0.656   0.663   0.663   0.671
  0.671   0.699   0.769   0.769   0.785   0.852   0.852   0.913
  0.957   0.957   0.973   0.973   1.031   1.031   1.043   1.043
  1.073   1.130   1.130   1.141   1.141   1.147   1.147   1.165
  1.217   1.217   1.249   1.249   1.280   1.297   1.297   1.319
  1.319   1.358   1.461   1.461   1.497   1.577   1.601   1.601
  1.631   1.648   1.648   1.699   1.699   1.722   1.821   1.821
  1.924   1.924   2.044   2.048   2.048   2.060   2.060   2.111
  2.111   2.142   2.193   2.193   2.304   2.305   2.329   2.329
  2.435   2.459   2.459   2.518   2.518   2.576   2.609   2.609
  2.753   2.814   2.814   2.860   2.860   2.944   2.944   2.998
  2.998   3.021   3.024   3.024   3.089   3.089   3.265   3.265
  3.298   3.298   3.311   3.564   3.602   3.602   3.716   3.716
  3.825   3.858   3.858   3.950   3.987   3.987   4.100   4.377
  4.377   4.490   4.901   4.901   5.498   5.498   5.671   5.707
  5.707   5.781   5.781   5.815   5.815   6.050   6.053   6.053
  6.201   6.227   6.227   6.253   6.253   6.335   6.335   6.444
  6.444   6.572   6.572   6.924   7.338   7.538   7.538   7.711
  7.711   7.763   8.138   8.138   8.289   8.318   8.318   8.698
  8.698   8.864   8.864   9.354   9.354   9.363   9.631  10.000
 10.390  10.390  10.938  13.536  13.984  13.984  14.939  15.884
 15.884  15.996  15.996  16.296  16.296  16.506  18.765  18.765
 20.278  23.207  26.019  26.019  26.605  26.605  26.752  26.752
 27.092  27.092  27.299  28.263  36.539  39.714  39.714  40.639
 46.436  46.436  46.439  46.439  46.444  46.444  46.447  46.447
 46.457  56.584  56.584  56.641  56.641  56.785  56.785  56.862
 65.974  65.974  67.102  68.109  79.605  79.608  79.840  79.840
 80.336  98.121  98.121  98.135  98.135  98.175  98.175  98.234
114.516 114.520 114.837 114.837 115.449 122.640 124.538 124.538
125.286 225.182 225.182 226.124 326.267 513.259
 --------------------------------------------------------------
 
          Ground-State Mulliken Net Atomic Charges

     Atom                 Charge (a.u.)
  ----------------------------------------
      1 C                    -0.199498
      2 H                     0.127586
      3 P                     0.071912
  ----------------------------------------
  Sum of atomic charges =     0.000000

 -----------------------------------------------------------------
                    Cartesian Multipole Moments
 -----------------------------------------------------------------
    Charge (ESU x 10^10)
                 0.0000
    Dipole Moment (Debye)
         X      -0.0000      Y      -0.0000      Z       0.2470
       Tot       0.2470
    Quadrupole Moments (Debye-Ang)
        XX     -20.1485     XY      -0.0000     YY     -20.1485
        XZ       0.0000     YZ       0.0000     ZZ     -15.9667
    Octopole Moments (Debye-Ang^2)
       XXX       0.0000    XXY       0.0000    XYY       0.0000
       YYY       0.0000    XXZ      18.7586    XYZ       0.0000
       YYZ      18.7586    XZZ      -0.0000    YZZ      -0.0000
       ZZZ      54.5769
    Hexadecapole Moments (Debye-Ang^3)
      XXXX     -30.4374   XXXY      -0.0000   XXYY     -10.1458
      XYYY      -0.0000   YYYY     -30.4374   XXXZ      -0.0000
      XXYZ      -0.0000   XYYZ      -0.0000   YYYZ      -0.0000
      XXZZ     -39.2710   XYZZ      -0.0000   YYZZ     -39.2710
      XZZZ      -0.0000   YZZZ       0.0000   ZZZZ    -203.8048
 -----------------------------------------------------------------
Archival summary:
1\1\n0095.mhg0\SP\ProcedureUnspecified\BasisUnspecified\111\yhljason\TueOct2705:07:112020TueOct2705:07:112020\0\\#,ProcedureUnspecified,BasisUnspecified,\\0,1\P\C,1,1.542\H,2,1.067,1,180\\\@

 Total job time:  502.67s(wall), 3973.71s(cpu) 
 Tue Oct 27 05:07:11 2020

        *************************************************************
        *                                                           *
        *  Thank you very much for using Q-Chem.  Have a nice day.  *
        *                                                           *
        *************************************************************


 
User input: 3 of 8 
 
Q-Chem Developer Version!
                  Welcome to Q-Chem
     A Quantum Leap Into The Future Of Chemistry


 Q-Chem 5.1, Q-Chem, Inc., Pleasanton, CA (2018)

 Yihan Shao,  Zhengting Gan,  E. Epifanovsky,  A. T. B. Gilbert,  M. Wormit,  
 J. Kussmann,  A. W. Lange,  A. Behn,  Jia Deng,  Xintian Feng,  D. Ghosh,  
 M. Goldey,  P. R. Horn,  L. D. Jacobson,  I. Kaliman,  T. Kus,  A. Landau,  
 Jie Liu,  E. I. Proynov,  R. M. Richard,  R. P. Steele,  E. J. Sundstrom,  
 H. L. Woodcock III,  P. M. Zimmerman,  D. Zuev,  B. Albrecht,  E. Alguire,  
 S. A. Baeppler,  D. Barton,  Z. Benda,  Y. A. Bernard,  E. J. Berquist,  
 K. B. Bravaya,  H. Burton,  D. Casanova,  Chun-Min Chang,  Yunqing Chen,  
 A. Chien,  K. D. Closser,  M. P. Coons,  S. Coriani,  S. Dasgupta,  
 A. L. Dempwolff,  M. Diedenhofen,  Hainam Do,  R. G. Edgar,  Po-Tung Fang,  
 S. Faraji,  S. Fatehi,  Qingguo Feng,  K. D. Fenk,  J. Fosso-Tande,  
 Qinghui Ge,  A. Ghysels,  G. Gidofalvi,  J. Gomes,  J. Gonthier,  A. Gunina,  
 D. Hait,  M. W. D. Hanson-Heine,  P. H. P. Harbach,  A. W. Hauser,  
 J. E. Herr,  E. G. Hohenstein,  Z. C. Holden,  Kerwin Hui,  B. C. Huynh,  
 T.-C. Jagau,  Hyunjun Ji,  B. Kaduk,  K. Khistyaev,  Jaehoon Kim,  
 P. Klunzinger,  K. Koh,  D. Kosenkov,  L. Koulias,  T. Kowalczyk,  
 C. M. Krauter,  A. Kunitsa,  Ka Un Lao,  A. Laurent,  K. V. Lawler,  
 Joonho Lee,  D. Lefrancois,  S. Lehtola,  D. S. Levine,  Yi-Pei Li,  
 You-Sheng Lin,  Fenglai Liu,  E. Livshits,  A. Luenser,  P. Manohar,  
 E. Mansoor,  S. F. Manzer,  Shan-Ping Mao,  Yuezhi Mao,  N. Mardirossian,  
 A. V. Marenich,  T. Markovich,  L. A. Martinez-Martinez,  S. A. Maurer,  
 N. J. Mayhall,  S. C. McKenzie,  J.-M. Mewes,  A. F. Morrison,  
 J. W. Mullinax,  K. Nanda,  T. S. Nguyen-Beck,  R. Olivares-Amaya,  
 J. A. Parkhill,  T. M. Perrine,  F. Plasser,  P. Pokhilko,  S. Prager,  
 A. Prociuk,  E. Ramos,  D. R. Rehn,  F. Rob,  M. Schneider,  N. Sergueev,  
 S. M. Sharada,  S. Sharma,  D. W. Small,  T. Stauch,  T. Stein,  
 Yu-Chuan Su,  A. J. W. Thom,  A. Tkatchenko,  T. Tsuchimochi,  N. M. Tubman,  
 L. Vogt,  M. L. Vidal,  O. Vydrov,  M. A. Watson,  J. Wenzel,  
 M. de Wergifosse,  T. A. Wesolowski,  A. White,  J. Witte,  A. Yamada,  
 Jun Yang,  K. Yao,  S. Yeganeh,  S. R. Yost,  Zhi-Qiang You,  A. Zech,  
 Igor Ying Zhang,  Xing Zhang,  Yan Zhao,  Ying Zhu,  B. R. Brooks,  
 G. K. L. Chan,  C. J. Cramer,  M. S. Gordon,  W. J. Hehre,  A. Klamt,  
 M. W. Schmidt,  C. D. Sherrill,  D. G. Truhlar,  A. Aspuru-Guzik,  R. Baer,  
 A. T. Bell,  N. A. Besley,  Jeng-Da Chai,  A. E. DePrince, III,  
 R. A. DiStasio Jr.,  A. Dreuw,  B. D. Dunietz,  T. R. Furlani,  
 Chao-Ping Hsu,  Yousung Jung,  Jing Kong,  D. S. Lambrecht,  WanZhen Liang,  
 C. Ochsenfeld,  V. A. Rassolov,  L. V. Slipchenko,  J. E. Subotnik,  
 T. Van Voorhis,  J. M. Herbert,  A. I. Krylov,  P. M. W. Gill,  M. Head-Gordon

 Contributors to earlier versions of Q-Chem not listed above: 
 R. D. Adamson,  B. Austin,  J. Baker,  G. J. O. Beran,  K. Brandhorst,  
 S. T. Brown,  E. F. C. Byrd,  A. K. Chakraborty,  C.-L. Cheng,  
 Siu Hung Chien,  D. M. Chipman,  D. L. Crittenden,  H. Dachsel,  
 R. J. Doerksen,  A. D. Dutoi,  L. Fusti-Molnar,  W. A. Goddard III,  
 A. Golubeva-Zadorozhnaya,  S. R. Gwaltney,  G. Hawkins,  A. Heyden,  
 S. Hirata,  G. Kedziora,  F. J. Keil,  C. Kelley,  Jihan Kim,  R. A. King,  
 R. Z. Khaliullin,  P. P. Korambath,  W. Kurlancheek,  A. M. Lee,  M. S. Lee,  
 S. V. Levchenko,  Ching Yeh Lin,  D. Liotard,  R. C. Lochan,  I. Lotan,  
 P. E. Maslen,  N. Nair,  D. P. O'Neill,  D. Neuhauser,  E. Neuscamman,  
 C. M. Oana,  R. Olson,  B. Peters,  R. Peverati,  P. A. Pieniazek,  
 Y. M. Rhee,  J. Ritchie,  M. A. Rohrdanz,  E. Rosta,  N. J. Russ,  
 H. F. Schaefer III,  N. E. Schultz,  N. Shenvi,  A. C. Simmonett,  A. Sodt,  
 D. Stuck,  K. S. Thanthiriwatte,  V. Vanovschi,  Tao Wang,  A. Warshel,  
 C. F. Williams,  Q. Wu,  X. Xu,  W. Zhang

 Please cite Q-Chem as follows:
 Y. Shao et al., Mol. Phys. 113, 184-215 (2015)
 DOI: 10.1080/00268976.2014.952696

 Q-Chem 5.1.1 for Intel X86 EM64T Linux

 Parts of Q-Chem use Armadillo 8.300.2 (Tropical Shenanigans).
 http://arma.sourceforge.net/

 Q-Chem begins on Tue Oct 27 05:07:11 2020  

Host: n0095.mhg0
0

     Scratch files written to /local/scratch/users/yhljason/HCP_wB97M2_aug-cc-pcVQZ.inp20201027035740//
The previous job contains 0 fragments, simply inherited here
Input Ideriv = 0
Curr. Ideriv = -1
Max.  Ideriv = 0
Analytic post-HF gradients are not available with non-HF exchange
Input Ideriv = 0
Curr. Ideriv = 0
Max.  Ideriv = 0

Checking the input file for inconsistencies... 	...done.

--------------------------------------------------------------
User input:
--------------------------------------------------------------
$molecule
read
$end

$rem
jobtype sp
exchange wB97M(2)
xc_grid 000099000590
basis aug-cc-pcVQZ

max_scf_cycles 200
thresh 14
scf_convergence 8
mem_total 128000
cc_memory 96000
cc_backend xm
mem_static 1500
symmetry false
sym_ignore true
scf_guess read
unrestricted false
scf_algorithm gdm
n_frozen_core 0
$end



$multipole_field
XX 0.0001
$end


--------------------------------------------------------------
 ----------------------------------------------------------------
             Standard Nuclear Orientation (Angstroms)
    I     Atom           X                Y                Z
 ----------------------------------------------------------------
    1      C       0.0000000000     0.0000000000     0.0000000000
    2      H       0.0000000000     0.0000000000     1.0670000000
    3      P       0.0000000000     0.0000000000    -1.5420000000
 ----------------------------------------------------------------
 Nuclear Repulsion Energy =    36.9039353450 hartrees
 There are       11 alpha and       11 beta electrons
 Requested basis set is aug-cc-pCVQZ
 There are 77 shells and 289 basis functions

 Total QAlloc Memory Limit 128000 MB
 Mega-Array Size      1467 MB
 MEM_STATIC part      1500 MB

                       Distance Matrix (Angstroms)
             C (  1)   H (  2)
   H (  2)  1.067000
   P (  3)  1.542000  2.609000
 
 Applying Cartesian multipole field
    Component          Value
    ---------          -----
     (2,0,0)        1.00000E-04
 A cutoff of  1.0D-14 yielded   2912 shell pairs
 There are     41362 function pairs (     67426 Cartesian)
 
 -------------------------------------------------------
 OpenMP Integral Computing Module                       
 Release: version 1.0, May 2013, Q-Chem Inc. Pittsburgh 
 -------------------------------------------------------
 Integral Job Info:
 Integral job number is                      11
 Integral operator is                         1
 short-range coefficients              15000000
 long-range coefficients              100000000
 Omega coefficients                         300
 if combine SR and LR in K                    1
 Integral screening is                        0
 Integral computing path is                   2
 max size of driver memory is           3200000
 size of driver memory is               1704330
 size of scratch memory is             28840424
 max col of scratch BK array              50625
 max len of scratch array in speh3         2114
 max len of scratch index in speh4           50
 max int batch size is                      520
 min int batch size is                       52
 fixed nKL is                                21
 max L of basis functions is                  4
 order of int derivative is                   0
 number of shells is                         77
 number of basis is                         368
 number of cartesian basis is               368
 number of contracted shell pairs          2912
 number of primitive shell pairs           9469
 maxK2 (contraction) of shell pair          169
 max number of K2 of shell pair               1
 max number of CS2 of shell pair            319
 max number of PS2 of shell pair           1014
 mem total for path MDJ                  745120
 -------------------------------------------------------
 Smallest overlap matrix eigenvalue = 1.56E-05
 Guess MOs from SCF MO coefficient file
 Reading MOs from coefficient file
 Reading MOs from coefficient file
 Long-range K will be added via erf
 Coulomb attenuation parameter = 0.3 bohr**(-1)
 A restricted hybrid HF-DFT SCF calculation will be
 performed using Geometric Direct Minimization
 Exchange:     0.1500 Hartree-Fock + 1.0000 wB97M-V + LR-HF
 Correlation:  1.0000 wB97M-V
 Using Euler-Maclaurin-Lebedev (99,590) quadrature formula
 Nonlocal Correlation:  VV10 with C = 0.0100 and b = 6.00 and scale = 1.00000
 Grid used for NLC:  SG-1 standard quadrature
 SCF converges when RMS gradient is below 1.0E-08
Using Q-Chem read-in guess as SCF_GUESS READ specified.

 using 8 threads for integral computing
 -------------------------------------------------------
 OpenMP Integral computing Module                
 Release: version 1.0, May 2013, Q-Chem Inc. Pittsburgh 
 -------------------------------------------------------
 using 8 threads for integral computing
 -------------------------------------------------------
 OpenMP Integral computing Module                
 Release: version 1.0, May 2013, Q-Chem Inc. Pittsburgh 
 -------------------------------------------------------
TIMEINFO->: J/JK contribution 262.26 sec.
 -------------------------------------------------------
 OpenMP BLAS3 based DFT computing Module                
 Release: version 1.0, May 2013, Q-Chem Inc. Pittsburgh 
 -------------------------------------------------------
 -------------------------------------------------------
 OpenMP BLAS3 based DFT computing Module                
 Release: version 1.0, May 2013, Q-Chem Inc. Pittsburgh 
 -------------------------------------------------------
 -------------------------------------------------------
 OpenMP BLAS3 based DFT computing Module                
 Release: version 1.0, May 2013, Q-Chem Inc. Pittsburgh 
 -------------------------------------------------------
 ---------------------------------------
  Cycle       Energy        RMS Gradient
 ---------------------------------------
    1    -379.9993179263      4.38E-04 Normal BFGS step
TIMEINFO->: J/JK contribution 263.03 sec.
    2    -379.9993187612      1.38E-04 Normal BFGS step
TIMEINFO->: J/JK contribution 258.88 sec.
    3    -379.9993188002      1.72E-04 Normal BFGS step
TIMEINFO->: J/JK contribution 258.36 sec.
    4    -379.9993188600      3.39E-05 Normal BFGS step
TIMEINFO->: J/JK contribution 245.09 sec.
    5    -379.9993188636      7.75E-06 Normal BFGS step
TIMEINFO->: J/JK contribution 236.61 sec.
    6    -379.9993188643      5.07E-06 Normal BFGS step
TIMEINFO->: J/JK contribution 233.60 sec.
    7    -379.9993188644      1.90E-06 Normal BFGS step
TIMEINFO->: J/JK contribution 233.76 sec.
    8    -379.9993188644      2.94E-07 Normal BFGS step
TIMEINFO->: J/JK contribution 229.54 sec.
    9    -379.9993188644      8.93E-08 Normal BFGS step
TIMEINFO->: J/JK contribution 220.20 sec.
   10    -379.9993188644      1.04E-08 Normal BFGS step
TIMEINFO->: J/JK contribution 210.95 sec.
 Nonlocal correlation =     0.0295383191
   11    -379.9993188644      1.71E-09 Convergence criterion met
 ---------------------------------------
 wB97M-V orbitals are now ready for the wB97M(2) calculation.
 wB97M(2) energy = Exch (0.62194 SRHF + 1.0 LRHF + wB97M(2)_EXCH) + 
               Corr (wB97M(2)_CORR + 0.34096 MP2 + 0.65904 VV10(b=10))
 SCF time:  CPU 3416.11 s  wall 430.89 s
 SCF   energy in the final basis set = -379.88912625
 Total energy in the final basis set = -379.88912625
 
 Components of the MP2 correlation energy:
        aaaa  correlation energy =        -0.0345712913 au
        abab  correlation energy =        -0.2206785817 au
        bbbb  correlation energy =        -0.0345712913 au
        non-Brillouin singles    =        -0.0000000000 au

 Total  MP2   correlation energy =                    -0.28982116 au
        MP2         total energy =                  -380.17894742 au
 
 --------------------------------------------------------------
 
                    Orbital Energies (a.u.)
 --------------------------------------------------------------
 
 Alpha MOs
 -- Occupied --
-77.371 -10.379  -6.727  -4.839  -4.839  -4.836  -0.835  -0.652
 -0.460  -0.377  -0.377
 -- Virtual --
  0.012   0.014   0.015   0.029   0.051   0.054   0.066   0.078
  0.080   0.100   0.129   0.141   0.141   0.159   0.186   0.188
  0.195   0.236   0.238   0.245   0.245   0.261   0.291   0.297
  0.302   0.303   0.362   0.363   0.393   0.393   0.398   0.398
  0.415   0.430   0.450   0.450   0.486   0.487   0.513   0.514
  0.521   0.550   0.551   0.564   0.655   0.662   0.663   0.670
  0.670   0.698   0.769   0.769   0.785   0.851   0.851   0.913
  0.956   0.956   0.972   0.973   1.030   1.031   1.042   1.042
  1.072   1.129   1.129   1.140   1.141   1.146   1.146   1.164
  1.216   1.216   1.248   1.248   1.280   1.297   1.297   1.318
  1.318   1.358   1.461   1.461   1.497   1.577   1.601   1.601
  1.631   1.648   1.648   1.699   1.699   1.722   1.821   1.821
  1.924   1.924   2.044   2.048   2.048   2.059   2.059   2.111
  2.111   2.142   2.192   2.192   2.304   2.304   2.328   2.328
  2.434   2.459   2.459   2.518   2.518   2.576   2.609   2.609
  2.752   2.813   2.813   2.860   2.860   2.943   2.943   2.997
  2.997   3.021   3.023   3.023   3.088   3.088   3.264   3.264
  3.297   3.298   3.311   3.564   3.602   3.602   3.716   3.716
  3.825   3.858   3.858   3.949   3.987   3.987   4.099   4.377
  4.377   4.490   4.900   4.900   5.497   5.497   5.671   5.706
  5.706   5.781   5.781   5.815   5.815   6.050   6.052   6.052
  6.201   6.227   6.227   6.252   6.252   6.334   6.334   6.444
  6.444   6.572   6.572   6.924   7.338   7.538   7.538   7.711
  7.711   7.763   8.138   8.138   8.289   8.317   8.317   8.697
  8.697   8.864   8.864   9.353   9.353   9.363   9.631  10.000
 10.390  10.390  10.937  13.536  13.984  13.984  14.938  15.884
 15.884  15.995  15.995  16.296  16.296  16.506  18.764  18.764
 20.278  23.207  26.019  26.019  26.605  26.605  26.752  26.752
 27.091  27.091  27.298  28.263  36.538  39.714  39.714  40.639
 46.435  46.435  46.439  46.439  46.444  46.444  46.446  46.446
 46.457  56.583  56.583  56.641  56.641  56.784  56.784  56.862
 65.973  65.973  67.102  68.109  79.605  79.607  79.840  79.840
 80.336  98.121  98.121  98.135  98.135  98.175  98.175  98.233
114.515 114.520 114.836 114.836 115.448 122.639 124.538 124.538
125.286 225.181 225.181 226.123 326.266 513.259
 --------------------------------------------------------------
 
          Ground-State Mulliken Net Atomic Charges

     Atom                 Charge (a.u.)
  ----------------------------------------
      1 C                    -0.199648
      2 H                     0.128348
      3 P                     0.071301
  ----------------------------------------
  Sum of atomic charges =     0.000000

 -----------------------------------------------------------------
                    Cartesian Multipole Moments
 -----------------------------------------------------------------
    Charge (ESU x 10^10)
                 0.0000
    Dipole Moment (Debye)
         X      -0.0000      Y       0.0000      Z       0.2486
       Tot       0.2486
    Quadrupole Moments (Debye-Ang)
        XX     -20.1740     XY      -0.0000     YY     -20.1523
        XZ       0.0000     YZ       0.0000     ZZ     -15.9683
    Octopole Moments (Debye-Ang^2)
       XXX       0.0000    XXY       0.0000    XYY       0.0000
       YYY       0.0000    XXZ      18.7866    XYZ       0.0000
       YYZ      18.7611    XZZ      -0.0000    YZZ      -0.0000
       ZZZ      54.5825
    Hexadecapole Moments (Debye-Ang^3)
      XXXX     -30.5830   XXXY      -0.0000   XXYY     -10.1743
      XYYY      -0.0000   YYYY     -30.4630   XXXZ       0.0000
      XXYZ      -0.0000   XYYZ       0.0000   YYYZ      -0.0000
      XXZZ     -39.3360   XYZZ      -0.0000   YYZZ     -39.2788
      XZZZ       0.0000   YZZZ      -0.0000   ZZZZ    -203.8206
 -----------------------------------------------------------------
Archival summary:
1\1\n0095.mhg0\SP\ProcedureUnspecified\BasisUnspecified\111\yhljason\TueOct2705:20:372020TueOct2705:20:372020\0\\#,ProcedureUnspecified,BasisUnspecified,\\0,1\P\C,1,1.542\H,2,1.067,1,180\\\@

 Total job time:  806.04s(wall), 6372.65s(cpu) 
 Tue Oct 27 05:20:37 2020

        *************************************************************
        *                                                           *
        *  Thank you very much for using Q-Chem.  Have a nice day.  *
        *                                                           *
        *************************************************************


 
User input: 4 of 8 
 
Q-Chem Developer Version!
                  Welcome to Q-Chem
     A Quantum Leap Into The Future Of Chemistry


 Q-Chem 5.1, Q-Chem, Inc., Pleasanton, CA (2018)

 Yihan Shao,  Zhengting Gan,  E. Epifanovsky,  A. T. B. Gilbert,  M. Wormit,  
 J. Kussmann,  A. W. Lange,  A. Behn,  Jia Deng,  Xintian Feng,  D. Ghosh,  
 M. Goldey,  P. R. Horn,  L. D. Jacobson,  I. Kaliman,  T. Kus,  A. Landau,  
 Jie Liu,  E. I. Proynov,  R. M. Richard,  R. P. Steele,  E. J. Sundstrom,  
 H. L. Woodcock III,  P. M. Zimmerman,  D. Zuev,  B. Albrecht,  E. Alguire,  
 S. A. Baeppler,  D. Barton,  Z. Benda,  Y. A. Bernard,  E. J. Berquist,  
 K. B. Bravaya,  H. Burton,  D. Casanova,  Chun-Min Chang,  Yunqing Chen,  
 A. Chien,  K. D. Closser,  M. P. Coons,  S. Coriani,  S. Dasgupta,  
 A. L. Dempwolff,  M. Diedenhofen,  Hainam Do,  R. G. Edgar,  Po-Tung Fang,  
 S. Faraji,  S. Fatehi,  Qingguo Feng,  K. D. Fenk,  J. Fosso-Tande,  
 Qinghui Ge,  A. Ghysels,  G. Gidofalvi,  J. Gomes,  J. Gonthier,  A. Gunina,  
 D. Hait,  M. W. D. Hanson-Heine,  P. H. P. Harbach,  A. W. Hauser,  
 J. E. Herr,  E. G. Hohenstein,  Z. C. Holden,  Kerwin Hui,  B. C. Huynh,  
 T.-C. Jagau,  Hyunjun Ji,  B. Kaduk,  K. Khistyaev,  Jaehoon Kim,  
 P. Klunzinger,  K. Koh,  D. Kosenkov,  L. Koulias,  T. Kowalczyk,  
 C. M. Krauter,  A. Kunitsa,  Ka Un Lao,  A. Laurent,  K. V. Lawler,  
 Joonho Lee,  D. Lefrancois,  S. Lehtola,  D. S. Levine,  Yi-Pei Li,  
 You-Sheng Lin,  Fenglai Liu,  E. Livshits,  A. Luenser,  P. Manohar,  
 E. Mansoor,  S. F. Manzer,  Shan-Ping Mao,  Yuezhi Mao,  N. Mardirossian,  
 A. V. Marenich,  T. Markovich,  L. A. Martinez-Martinez,  S. A. Maurer,  
 N. J. Mayhall,  S. C. McKenzie,  J.-M. Mewes,  A. F. Morrison,  
 J. W. Mullinax,  K. Nanda,  T. S. Nguyen-Beck,  R. Olivares-Amaya,  
 J. A. Parkhill,  T. M. Perrine,  F. Plasser,  P. Pokhilko,  S. Prager,  
 A. Prociuk,  E. Ramos,  D. R. Rehn,  F. Rob,  M. Schneider,  N. Sergueev,  
 S. M. Sharada,  S. Sharma,  D. W. Small,  T. Stauch,  T. Stein,  
 Yu-Chuan Su,  A. J. W. Thom,  A. Tkatchenko,  T. Tsuchimochi,  N. M. Tubman,  
 L. Vogt,  M. L. Vidal,  O. Vydrov,  M. A. Watson,  J. Wenzel,  
 M. de Wergifosse,  T. A. Wesolowski,  A. White,  J. Witte,  A. Yamada,  
 Jun Yang,  K. Yao,  S. Yeganeh,  S. R. Yost,  Zhi-Qiang You,  A. Zech,  
 Igor Ying Zhang,  Xing Zhang,  Yan Zhao,  Ying Zhu,  B. R. Brooks,  
 G. K. L. Chan,  C. J. Cramer,  M. S. Gordon,  W. J. Hehre,  A. Klamt,  
 M. W. Schmidt,  C. D. Sherrill,  D. G. Truhlar,  A. Aspuru-Guzik,  R. Baer,  
 A. T. Bell,  N. A. Besley,  Jeng-Da Chai,  A. E. DePrince, III,  
 R. A. DiStasio Jr.,  A. Dreuw,  B. D. Dunietz,  T. R. Furlani,  
 Chao-Ping Hsu,  Yousung Jung,  Jing Kong,  D. S. Lambrecht,  WanZhen Liang,  
 C. Ochsenfeld,  V. A. Rassolov,  L. V. Slipchenko,  J. E. Subotnik,  
 T. Van Voorhis,  J. M. Herbert,  A. I. Krylov,  P. M. W. Gill,  M. Head-Gordon

 Contributors to earlier versions of Q-Chem not listed above: 
 R. D. Adamson,  B. Austin,  J. Baker,  G. J. O. Beran,  K. Brandhorst,  
 S. T. Brown,  E. F. C. Byrd,  A. K. Chakraborty,  C.-L. Cheng,  
 Siu Hung Chien,  D. M. Chipman,  D. L. Crittenden,  H. Dachsel,  
 R. J. Doerksen,  A. D. Dutoi,  L. Fusti-Molnar,  W. A. Goddard III,  
 A. Golubeva-Zadorozhnaya,  S. R. Gwaltney,  G. Hawkins,  A. Heyden,  
 S. Hirata,  G. Kedziora,  F. J. Keil,  C. Kelley,  Jihan Kim,  R. A. King,  
 R. Z. Khaliullin,  P. P. Korambath,  W. Kurlancheek,  A. M. Lee,  M. S. Lee,  
 S. V. Levchenko,  Ching Yeh Lin,  D. Liotard,  R. C. Lochan,  I. Lotan,  
 P. E. Maslen,  N. Nair,  D. P. O'Neill,  D. Neuhauser,  E. Neuscamman,  
 C. M. Oana,  R. Olson,  B. Peters,  R. Peverati,  P. A. Pieniazek,  
 Y. M. Rhee,  J. Ritchie,  M. A. Rohrdanz,  E. Rosta,  N. J. Russ,  
 H. F. Schaefer III,  N. E. Schultz,  N. Shenvi,  A. C. Simmonett,  A. Sodt,  
 D. Stuck,  K. S. Thanthiriwatte,  V. Vanovschi,  Tao Wang,  A. Warshel,  
 C. F. Williams,  Q. Wu,  X. Xu,  W. Zhang

 Please cite Q-Chem as follows:
 Y. Shao et al., Mol. Phys. 113, 184-215 (2015)
 DOI: 10.1080/00268976.2014.952696

 Q-Chem 5.1.1 for Intel X86 EM64T Linux

 Parts of Q-Chem use Armadillo 8.300.2 (Tropical Shenanigans).
 http://arma.sourceforge.net/

 Q-Chem begins on Tue Oct 27 05:20:38 2020  

Host: n0095.mhg0
0

     Scratch files written to /local/scratch/users/yhljason/HCP_wB97M2_aug-cc-pcVQZ.inp20201027035740//
The previous job contains 0 fragments, simply inherited here
Input Ideriv = 0
Curr. Ideriv = -1
Max.  Ideriv = 0
Analytic post-HF gradients are not available with non-HF exchange
Input Ideriv = 0
Curr. Ideriv = 0
Max.  Ideriv = 0

Checking the input file for inconsistencies... 	...done.

--------------------------------------------------------------
User input:
--------------------------------------------------------------
$molecule
read
$end

$rem
jobtype sp
exchange wB97M(2)
xc_grid 000099000590
basis aug-cc-pcVQZ

max_scf_cycles 200
thresh 14
scf_convergence 8
mem_total 128000
cc_memory 96000
cc_backend xm
mem_static 1500
symmetry false
sym_ignore true
scf_guess read
unrestricted false
scf_algorithm gdm
n_frozen_core 0
$end



$multipole_field
XX -0.0001
$end


--------------------------------------------------------------
 ----------------------------------------------------------------
             Standard Nuclear Orientation (Angstroms)
    I     Atom           X                Y                Z
 ----------------------------------------------------------------
    1      C       0.0000000000     0.0000000000     0.0000000000
    2      H       0.0000000000     0.0000000000     1.0670000000
    3      P       0.0000000000     0.0000000000    -1.5420000000
 ----------------------------------------------------------------
 Nuclear Repulsion Energy =    36.9039353450 hartrees
 There are       11 alpha and       11 beta electrons
 Requested basis set is aug-cc-pCVQZ
 There are 77 shells and 289 basis functions

 Total QAlloc Memory Limit 128000 MB
 Mega-Array Size      1467 MB
 MEM_STATIC part      1500 MB

                       Distance Matrix (Angstroms)
             C (  1)   H (  2)
   H (  2)  1.067000
   P (  3)  1.542000  2.609000
 
 Applying Cartesian multipole field
    Component          Value
    ---------          -----
     (2,0,0)       -1.00000E-04
 A cutoff of  1.0D-14 yielded   2912 shell pairs
 There are     41362 function pairs (     67426 Cartesian)
 
 -------------------------------------------------------
 OpenMP Integral Computing Module                       
 Release: version 1.0, May 2013, Q-Chem Inc. Pittsburgh 
 -------------------------------------------------------
 Integral Job Info:
 Integral job number is                      11
 Integral operator is                         1
 short-range coefficients              15000000
 long-range coefficients              100000000
 Omega coefficients                         300
 if combine SR and LR in K                    1
 Integral screening is                        0
 Integral computing path is                   2
 max size of driver memory is           3200000
 size of driver memory is               1704330
 size of scratch memory is             28840424
 max col of scratch BK array              50625
 max len of scratch array in speh3         2114
 max len of scratch index in speh4           50
 max int batch size is                      520
 min int batch size is                       52
 fixed nKL is                                21
 max L of basis functions is                  4
 order of int derivative is                   0
 number of shells is                         77
 number of basis is                         368
 number of cartesian basis is               368
 number of contracted shell pairs          2912
 number of primitive shell pairs           9469
 maxK2 (contraction) of shell pair          169
 max number of K2 of shell pair               1
 max number of CS2 of shell pair            319
 max number of PS2 of shell pair           1014
 mem total for path MDJ                  745120
 -------------------------------------------------------
 Smallest overlap matrix eigenvalue = 1.56E-05
 Guess MOs from SCF MO coefficient file
 Reading MOs from coefficient file
 Reading MOs from coefficient file
 Long-range K will be added via erf
 Coulomb attenuation parameter = 0.3 bohr**(-1)
 A restricted hybrid HF-DFT SCF calculation will be
 performed using Geometric Direct Minimization
 Exchange:     0.1500 Hartree-Fock + 1.0000 wB97M-V + LR-HF
 Correlation:  1.0000 wB97M-V
 Using Euler-Maclaurin-Lebedev (99,590) quadrature formula
 Nonlocal Correlation:  VV10 with C = 0.0100 and b = 6.00 and scale = 1.00000
 Grid used for NLC:  SG-1 standard quadrature
 SCF converges when RMS gradient is below 1.0E-08
Using Q-Chem read-in guess as SCF_GUESS READ specified.

 using 8 threads for integral computing
 -------------------------------------------------------
 OpenMP Integral computing Module                
 Release: version 1.0, May 2013, Q-Chem Inc. Pittsburgh 
 -------------------------------------------------------
 using 8 threads for integral computing
 -------------------------------------------------------
 OpenMP Integral computing Module                
 Release: version 1.0, May 2013, Q-Chem Inc. Pittsburgh 
 -------------------------------------------------------
TIMEINFO->: J/JK contribution 265.65 sec.
 -------------------------------------------------------
 OpenMP BLAS3 based DFT computing Module                
 Release: version 1.0, May 2013, Q-Chem Inc. Pittsburgh 
 -------------------------------------------------------
 -------------------------------------------------------
 OpenMP BLAS3 based DFT computing Module                
 Release: version 1.0, May 2013, Q-Chem Inc. Pittsburgh 
 -------------------------------------------------------
 -------------------------------------------------------
 OpenMP BLAS3 based DFT computing Module                
 Release: version 1.0, May 2013, Q-Chem Inc. Pittsburgh 
 -------------------------------------------------------
 ---------------------------------------
  Cycle       Energy        RMS Gradient
 ---------------------------------------
    1    -379.9963190899      9.03E-04 Normal BFGS step
TIMEINFO->: J/JK contribution 265.28 sec.
    2    -379.9963224414      2.78E-04 Normal BFGS step
TIMEINFO->: J/JK contribution 260.26 sec.
    3    -379.9963226330      3.55E-04 Normal BFGS step
TIMEINFO->: J/JK contribution 260.56 sec.
    4    -379.9963228720      6.77E-05 Normal BFGS step
TIMEINFO->: J/JK contribution 258.87 sec.
    5    -379.9963228862      1.58E-05 Normal BFGS step
TIMEINFO->: J/JK contribution 257.21 sec.
    6    -379.9963228890      1.03E-05 Normal BFGS step
TIMEINFO->: J/JK contribution 256.80 sec.
    7    -379.9963228894      3.90E-06 Normal BFGS step
TIMEINFO->: J/JK contribution 247.18 sec.
    8    -379.9963228895      5.78E-07 Normal BFGS step
TIMEINFO->: J/JK contribution 230.06 sec.
    9    -379.9963228895      1.75E-07 Normal BFGS step
TIMEINFO->: J/JK contribution 228.08 sec.
   10    -379.9963228895      1.97E-08 Normal BFGS step
TIMEINFO->: J/JK contribution 217.24 sec.
 Nonlocal correlation =     0.0295393591
   11    -379.9963228895      3.36E-09 Convergence criterion met
 ---------------------------------------
 wB97M-V orbitals are now ready for the wB97M(2) calculation.
 wB97M(2) energy = Exch (0.62194 SRHF + 1.0 LRHF + wB97M(2)_EXCH) + 
               Corr (wB97M(2)_CORR + 0.34096 MP2 + 0.65904 VV10(b=10))
 SCF time:  CPU 3503.36 s  wall 442.19 s
 SCF   energy in the final basis set = -379.88612152
 Total energy in the final basis set = -379.88612152
 
 Components of the MP2 correlation energy:
        aaaa  correlation energy =        -0.0345747941 au
        abab  correlation energy =        -0.2207072759 au
        bbbb  correlation energy =        -0.0345747941 au
        non-Brillouin singles    =        -0.0000000000 au

 Total  MP2   correlation energy =                    -0.28985686 au
        MP2         total energy =                  -380.17597839 au
 
 --------------------------------------------------------------
 
                    Orbital Energies (a.u.)
 --------------------------------------------------------------
 
 Alpha MOs
 -- Occupied --
-77.371 -10.378  -6.726  -4.838  -4.838  -4.835  -0.834  -0.651
 -0.459  -0.377  -0.377
 -- Virtual --
  0.016   0.016   0.016   0.032   0.056   0.058   0.069   0.083
  0.085   0.104   0.131   0.143   0.143   0.162   0.189   0.190
  0.198   0.239   0.241   0.248   0.248   0.263   0.293   0.300
  0.304   0.305   0.364   0.365   0.395   0.395   0.400   0.400
  0.417   0.432   0.452   0.452   0.488   0.489   0.515   0.516
  0.523   0.551   0.552   0.566   0.657   0.663   0.664   0.671
  0.671   0.700   0.770   0.770   0.786   0.852   0.852   0.913
  0.957   0.957   0.973   0.974   1.031   1.032   1.043   1.043
  1.073   1.130   1.130   1.142   1.142   1.148   1.148   1.166
  1.217   1.217   1.249   1.249   1.281   1.298   1.298   1.319
  1.320   1.359   1.462   1.462   1.498   1.578   1.602   1.602
  1.632   1.649   1.649   1.700   1.700   1.723   1.822   1.822
  1.925   1.925   2.045   2.049   2.049   2.060   2.060   2.112
  2.112   2.143   2.193   2.193   2.305   2.305   2.329   2.329
  2.435   2.459   2.460   2.519   2.519   2.577   2.609   2.609
  2.753   2.814   2.814   2.861   2.861   2.944   2.944   2.998
  2.998   3.022   3.024   3.024   3.089   3.089   3.265   3.265
  3.298   3.298   3.311   3.565   3.603   3.603   3.716   3.717
  3.825   3.858   3.858   3.950   3.988   3.988   4.100   4.377
  4.378   4.491   4.901   4.901   5.498   5.498   5.672   5.707
  5.707   5.782   5.782   5.816   5.816   6.050   6.053   6.053
  6.202   6.228   6.228   6.253   6.253   6.335   6.335   6.445
  6.445   6.572   6.572   6.925   7.338   7.539   7.539   7.711
  7.711   7.764   8.139   8.139   8.289   8.318   8.318   8.698
  8.698   8.864   8.864   9.354   9.354   9.364   9.632  10.000
 10.390  10.390  10.938  13.537  13.984  13.985  14.939  15.884
 15.884  15.996  15.996  16.296  16.296  16.506  18.765  18.765
 20.279  23.208  26.020  26.020  26.606  26.606  26.752  26.752
 27.092  27.092  27.299  28.263  36.539  39.714  39.714  40.639
 46.436  46.436  46.440  46.440  46.445  46.445  46.447  46.447
 46.457  56.584  56.584  56.642  56.642  56.785  56.785  56.863
 65.974  65.974  67.102  68.109  79.606  79.608  79.841  79.841
 80.336  98.122  98.122  98.136  98.136  98.176  98.176  98.234
114.516 114.520 114.837 114.837 115.449 122.640 124.539 124.539
125.286 225.182 225.182 226.124 326.267 513.260
 --------------------------------------------------------------
 
          Ground-State Mulliken Net Atomic Charges

     Atom                 Charge (a.u.)
  ----------------------------------------
      1 C                    -0.199414
      2 H                     0.126858
      3 P                     0.072556
  ----------------------------------------
  Sum of atomic charges =     0.000000

 -----------------------------------------------------------------
                    Cartesian Multipole Moments
 -----------------------------------------------------------------
    Charge (ESU x 10^10)
                 0.0000
    Dipole Moment (Debye)
         X      -0.0000      Y       0.0000      Z       0.2454
       Tot       0.2454
    Quadrupole Moments (Debye-Ang)
        XX     -20.1232     XY      -0.0000     YY     -20.1446
        XZ       0.0000     YZ       0.0000     ZZ     -15.9652
    Octopole Moments (Debye-Ang^2)
       XXX       0.0000    XXY       0.0000    XYY       0.0000
       YYY       0.0000    XXZ      18.7309    XYZ       0.0000
       YYZ      18.7561    XZZ      -0.0000    YZZ       0.0000
       ZZZ      54.5714
    Hexadecapole Moments (Debye-Ang^3)
      XXXX     -30.2945   XXXY      -0.0000   XXYY     -10.1178
      XYYY      -0.0000   YYYY     -30.4122   XXXZ       0.0000
      XXYZ      -0.0000   XYYZ       0.0000   YYYZ      -0.0000
      XXZZ     -39.2068   XYZZ      -0.0000   YYZZ     -39.2633
      XZZZ       0.0000   YZZZ      -0.0000   ZZZZ    -203.7893
 -----------------------------------------------------------------
Archival summary:
1\1\n0095.mhg0\SP\ProcedureUnspecified\BasisUnspecified\111\yhljason\TueOct2705:34:112020TueOct2705:34:112020\0\\#,ProcedureUnspecified,BasisUnspecified,\\0,1\P\C,1,1.542\H,2,1.067,1,180\\\@

 Total job time:  813.33s(wall), 6432.84s(cpu) 
 Tue Oct 27 05:34:11 2020

        *************************************************************
        *                                                           *
        *  Thank you very much for using Q-Chem.  Have a nice day.  *
        *                                                           *
        *************************************************************


 
User input: 5 of 8 
 
Q-Chem Developer Version!
                  Welcome to Q-Chem
     A Quantum Leap Into The Future Of Chemistry


 Q-Chem 5.1, Q-Chem, Inc., Pleasanton, CA (2018)

 Yihan Shao,  Zhengting Gan,  E. Epifanovsky,  A. T. B. Gilbert,  M. Wormit,  
 J. Kussmann,  A. W. Lange,  A. Behn,  Jia Deng,  Xintian Feng,  D. Ghosh,  
 M. Goldey,  P. R. Horn,  L. D. Jacobson,  I. Kaliman,  T. Kus,  A. Landau,  
 Jie Liu,  E. I. Proynov,  R. M. Richard,  R. P. Steele,  E. J. Sundstrom,  
 H. L. Woodcock III,  P. M. Zimmerman,  D. Zuev,  B. Albrecht,  E. Alguire,  
 S. A. Baeppler,  D. Barton,  Z. Benda,  Y. A. Bernard,  E. J. Berquist,  
 K. B. Bravaya,  H. Burton,  D. Casanova,  Chun-Min Chang,  Yunqing Chen,  
 A. Chien,  K. D. Closser,  M. P. Coons,  S. Coriani,  S. Dasgupta,  
 A. L. Dempwolff,  M. Diedenhofen,  Hainam Do,  R. G. Edgar,  Po-Tung Fang,  
 S. Faraji,  S. Fatehi,  Qingguo Feng,  K. D. Fenk,  J. Fosso-Tande,  
 Qinghui Ge,  A. Ghysels,  G. Gidofalvi,  J. Gomes,  J. Gonthier,  A. Gunina,  
 D. Hait,  M. W. D. Hanson-Heine,  P. H. P. Harbach,  A. W. Hauser,  
 J. E. Herr,  E. G. Hohenstein,  Z. C. Holden,  Kerwin Hui,  B. C. Huynh,  
 T.-C. Jagau,  Hyunjun Ji,  B. Kaduk,  K. Khistyaev,  Jaehoon Kim,  
 P. Klunzinger,  K. Koh,  D. Kosenkov,  L. Koulias,  T. Kowalczyk,  
 C. M. Krauter,  A. Kunitsa,  Ka Un Lao,  A. Laurent,  K. V. Lawler,  
 Joonho Lee,  D. Lefrancois,  S. Lehtola,  D. S. Levine,  Yi-Pei Li,  
 You-Sheng Lin,  Fenglai Liu,  E. Livshits,  A. Luenser,  P. Manohar,  
 E. Mansoor,  S. F. Manzer,  Shan-Ping Mao,  Yuezhi Mao,  N. Mardirossian,  
 A. V. Marenich,  T. Markovich,  L. A. Martinez-Martinez,  S. A. Maurer,  
 N. J. Mayhall,  S. C. McKenzie,  J.-M. Mewes,  A. F. Morrison,  
 J. W. Mullinax,  K. Nanda,  T. S. Nguyen-Beck,  R. Olivares-Amaya,  
 J. A. Parkhill,  T. M. Perrine,  F. Plasser,  P. Pokhilko,  S. Prager,  
 A. Prociuk,  E. Ramos,  D. R. Rehn,  F. Rob,  M. Schneider,  N. Sergueev,  
 S. M. Sharada,  S. Sharma,  D. W. Small,  T. Stauch,  T. Stein,  
 Yu-Chuan Su,  A. J. W. Thom,  A. Tkatchenko,  T. Tsuchimochi,  N. M. Tubman,  
 L. Vogt,  M. L. Vidal,  O. Vydrov,  M. A. Watson,  J. Wenzel,  
 M. de Wergifosse,  T. A. Wesolowski,  A. White,  J. Witte,  A. Yamada,  
 Jun Yang,  K. Yao,  S. Yeganeh,  S. R. Yost,  Zhi-Qiang You,  A. Zech,  
 Igor Ying Zhang,  Xing Zhang,  Yan Zhao,  Ying Zhu,  B. R. Brooks,  
 G. K. L. Chan,  C. J. Cramer,  M. S. Gordon,  W. J. Hehre,  A. Klamt,  
 M. W. Schmidt,  C. D. Sherrill,  D. G. Truhlar,  A. Aspuru-Guzik,  R. Baer,  
 A. T. Bell,  N. A. Besley,  Jeng-Da Chai,  A. E. DePrince, III,  
 R. A. DiStasio Jr.,  A. Dreuw,  B. D. Dunietz,  T. R. Furlani,  
 Chao-Ping Hsu,  Yousung Jung,  Jing Kong,  D. S. Lambrecht,  WanZhen Liang,  
 C. Ochsenfeld,  V. A. Rassolov,  L. V. Slipchenko,  J. E. Subotnik,  
 T. Van Voorhis,  J. M. Herbert,  A. I. Krylov,  P. M. W. Gill,  M. Head-Gordon

 Contributors to earlier versions of Q-Chem not listed above: 
 R. D. Adamson,  B. Austin,  J. Baker,  G. J. O. Beran,  K. Brandhorst,  
 S. T. Brown,  E. F. C. Byrd,  A. K. Chakraborty,  C.-L. Cheng,  
 Siu Hung Chien,  D. M. Chipman,  D. L. Crittenden,  H. Dachsel,  
 R. J. Doerksen,  A. D. Dutoi,  L. Fusti-Molnar,  W. A. Goddard III,  
 A. Golubeva-Zadorozhnaya,  S. R. Gwaltney,  G. Hawkins,  A. Heyden,  
 S. Hirata,  G. Kedziora,  F. J. Keil,  C. Kelley,  Jihan Kim,  R. A. King,  
 R. Z. Khaliullin,  P. P. Korambath,  W. Kurlancheek,  A. M. Lee,  M. S. Lee,  
 S. V. Levchenko,  Ching Yeh Lin,  D. Liotard,  R. C. Lochan,  I. Lotan,  
 P. E. Maslen,  N. Nair,  D. P. O'Neill,  D. Neuhauser,  E. Neuscamman,  
 C. M. Oana,  R. Olson,  B. Peters,  R. Peverati,  P. A. Pieniazek,  
 Y. M. Rhee,  J. Ritchie,  M. A. Rohrdanz,  E. Rosta,  N. J. Russ,  
 H. F. Schaefer III,  N. E. Schultz,  N. Shenvi,  A. C. Simmonett,  A. Sodt,  
 D. Stuck,  K. S. Thanthiriwatte,  V. Vanovschi,  Tao Wang,  A. Warshel,  
 C. F. Williams,  Q. Wu,  X. Xu,  W. Zhang

 Please cite Q-Chem as follows:
 Y. Shao et al., Mol. Phys. 113, 184-215 (2015)
 DOI: 10.1080/00268976.2014.952696

 Q-Chem 5.1.1 for Intel X86 EM64T Linux

 Parts of Q-Chem use Armadillo 8.300.2 (Tropical Shenanigans).
 http://arma.sourceforge.net/

 Q-Chem begins on Tue Oct 27 05:34:11 2020  

Host: n0095.mhg0
0

     Scratch files written to /local/scratch/users/yhljason/HCP_wB97M2_aug-cc-pcVQZ.inp20201027035740//
The previous job contains 0 fragments, simply inherited here
Input Ideriv = 0
Curr. Ideriv = -1
Max.  Ideriv = 0
Analytic post-HF gradients are not available with non-HF exchange
Input Ideriv = 0
Curr. Ideriv = 0
Max.  Ideriv = 0

Checking the input file for inconsistencies... 	...done.

--------------------------------------------------------------
User input:
--------------------------------------------------------------
$molecule
read
$end

$rem
jobtype sp
exchange wB97M(2)
xc_grid 000099000590
basis aug-cc-pcVQZ

max_scf_cycles 200
thresh 14
scf_convergence 8
mem_total 128000
cc_memory 96000
cc_backend xm
mem_static 1500
symmetry false
sym_ignore true
scf_guess read
unrestricted false
scf_algorithm gdm
n_frozen_core 0
$end



$multipole_field
YY 0.0001
$end


--------------------------------------------------------------
 ----------------------------------------------------------------
             Standard Nuclear Orientation (Angstroms)
    I     Atom           X                Y                Z
 ----------------------------------------------------------------
    1      C       0.0000000000     0.0000000000     0.0000000000
    2      H       0.0000000000     0.0000000000     1.0670000000
    3      P       0.0000000000     0.0000000000    -1.5420000000
 ----------------------------------------------------------------
 Nuclear Repulsion Energy =    36.9039353450 hartrees
 There are       11 alpha and       11 beta electrons
 Requested basis set is aug-cc-pCVQZ
 There are 77 shells and 289 basis functions

 Total QAlloc Memory Limit 128000 MB
 Mega-Array Size      1467 MB
 MEM_STATIC part      1500 MB

                       Distance Matrix (Angstroms)
             C (  1)   H (  2)
   H (  2)  1.067000
   P (  3)  1.542000  2.609000
 
 Applying Cartesian multipole field
    Component          Value
    ---------          -----
     (0,2,0)        1.00000E-04
 A cutoff of  1.0D-14 yielded   2912 shell pairs
 There are     41362 function pairs (     67426 Cartesian)
 
 -------------------------------------------------------
 OpenMP Integral Computing Module                       
 Release: version 1.0, May 2013, Q-Chem Inc. Pittsburgh 
 -------------------------------------------------------
 Integral Job Info:
 Integral job number is                      11
 Integral operator is                         1
 short-range coefficients              15000000
 long-range coefficients              100000000
 Omega coefficients                         300
 if combine SR and LR in K                    1
 Integral screening is                        0
 Integral computing path is                   2
 max size of driver memory is           3200000
 size of driver memory is               1704330
 size of scratch memory is             28840424
 max col of scratch BK array              50625
 max len of scratch array in speh3         2114
 max len of scratch index in speh4           50
 max int batch size is                      520
 min int batch size is                       52
 fixed nKL is                                21
 max L of basis functions is                  4
 order of int derivative is                   0
 number of shells is                         77
 number of basis is                         368
 number of cartesian basis is               368
 number of contracted shell pairs          2912
 number of primitive shell pairs           9469
 maxK2 (contraction) of shell pair          169
 max number of K2 of shell pair               1
 max number of CS2 of shell pair            319
 max number of PS2 of shell pair           1014
 mem total for path MDJ                  745120
 -------------------------------------------------------
 Smallest overlap matrix eigenvalue = 1.56E-05
 Guess MOs from SCF MO coefficient file
 Reading MOs from coefficient file
 Reading MOs from coefficient file
 Long-range K will be added via erf
 Coulomb attenuation parameter = 0.3 bohr**(-1)
 A restricted hybrid HF-DFT SCF calculation will be
 performed using Geometric Direct Minimization
 Exchange:     0.1500 Hartree-Fock + 1.0000 wB97M-V + LR-HF
 Correlation:  1.0000 wB97M-V
 Using Euler-Maclaurin-Lebedev (99,590) quadrature formula
 Nonlocal Correlation:  VV10 with C = 0.0100 and b = 6.00 and scale = 1.00000
 Grid used for NLC:  SG-1 standard quadrature
 SCF converges when RMS gradient is below 1.0E-08
Using Q-Chem read-in guess as SCF_GUESS READ specified.

 using 8 threads for integral computing
 -------------------------------------------------------
 OpenMP Integral computing Module                
 Release: version 1.0, May 2013, Q-Chem Inc. Pittsburgh 
 -------------------------------------------------------
 using 8 threads for integral computing
 -------------------------------------------------------
 OpenMP Integral computing Module                
 Release: version 1.0, May 2013, Q-Chem Inc. Pittsburgh 
 -------------------------------------------------------
TIMEINFO->: J/JK contribution 261.59 sec.
 -------------------------------------------------------
 OpenMP BLAS3 based DFT computing Module                
 Release: version 1.0, May 2013, Q-Chem Inc. Pittsburgh 
 -------------------------------------------------------
 -------------------------------------------------------
 OpenMP BLAS3 based DFT computing Module                
 Release: version 1.0, May 2013, Q-Chem Inc. Pittsburgh 
 -------------------------------------------------------
 -------------------------------------------------------
 OpenMP BLAS3 based DFT computing Module                
 Release: version 1.0, May 2013, Q-Chem Inc. Pittsburgh 
 -------------------------------------------------------
 ---------------------------------------
  Cycle       Energy        RMS Gradient
 ---------------------------------------
    1    -379.9993167055      5.84E-04 Normal BFGS step
TIMEINFO->: J/JK contribution 262.96 sec.
    2    -379.9993185719      1.98E-04 Normal BFGS step
TIMEINFO->: J/JK contribution 258.20 sec.
    3    -379.9993187134      2.52E-04 Normal BFGS step
TIMEINFO->: J/JK contribution 257.48 sec.
    4    -379.9993188551      3.10E-05 Normal BFGS step
TIMEINFO->: J/JK contribution 259.28 sec.
    5    -379.9993188634      8.02E-06 Normal BFGS step
TIMEINFO->: J/JK contribution 258.39 sec.
    6    -379.9993188644      1.40E-06 Normal BFGS step
TIMEINFO->: J/JK contribution 252.07 sec.
    7    -379.9993188644      3.99E-07 Normal BFGS step
TIMEINFO->: J/JK contribution 252.67 sec.
    8    -379.9993188644      5.33E-08 Normal BFGS step
TIMEINFO->: J/JK contribution 240.20 sec.
   GDM::WARNING energy changes are now smaller than effective accuracy.
   GDM::        calculation will continue, but THRESH should be increased
   GDM::        or SCF_CONVERGENCE decreased.
   GDM::        effective_thresh =   1.924904909078595E-009
 Nonlocal correlation =     0.0295383191
    9    -379.9993188644      9.76E-09 Convergence criterion met
 ---------------------------------------
 wB97M-V orbitals are now ready for the wB97M(2) calculation.
 wB97M(2) energy = Exch (0.62194 SRHF + 1.0 LRHF + wB97M(2)_EXCH) + 
               Corr (wB97M(2)_CORR + 0.34096 MP2 + 0.65904 VV10(b=10))
 SCF time:  CPU 3015.12 s  wall 380.54 s
 SCF   energy in the final basis set = -379.88912625
 Total energy in the final basis set = -379.88912625
 
 Components of the MP2 correlation energy:
        aaaa  correlation energy =        -0.0345712913 au
        abab  correlation energy =        -0.2206785816 au
        bbbb  correlation energy =        -0.0345712913 au
        non-Brillouin singles    =        -0.0000000000 au

 Total  MP2   correlation energy =                    -0.28982116 au
        MP2         total energy =                  -380.17894741 au
 
 --------------------------------------------------------------
 
                    Orbital Energies (a.u.)
 --------------------------------------------------------------
 
 Alpha MOs
 -- Occupied --
-77.371 -10.379  -6.727  -4.839  -4.839  -4.836  -0.835  -0.652
 -0.460  -0.377  -0.377
 -- Virtual --
  0.012   0.014   0.015   0.029   0.051   0.054   0.066   0.078
  0.080   0.100   0.129   0.141   0.141   0.159   0.186   0.188
  0.195   0.236   0.238   0.245   0.245   0.261   0.291   0.297
  0.302   0.303   0.362   0.363   0.393   0.393   0.398   0.398
  0.415   0.430   0.450   0.450   0.486   0.487   0.513   0.514
  0.521   0.550   0.551   0.564   0.655   0.662   0.663   0.670
  0.670   0.698   0.769   0.769   0.785   0.851   0.851   0.913
  0.956   0.956   0.972   0.973   1.030   1.031   1.042   1.042
  1.072   1.129   1.129   1.140   1.141   1.146   1.146   1.164
  1.216   1.216   1.248   1.248   1.280   1.297   1.297   1.318
  1.318   1.358   1.461   1.461   1.497   1.577   1.601   1.601
  1.631   1.648   1.648   1.699   1.699   1.722   1.821   1.821
  1.924   1.924   2.044   2.048   2.048   2.059   2.059   2.111
  2.111   2.142   2.192   2.192   2.304   2.304   2.328   2.328
  2.434   2.459   2.459   2.518   2.518   2.576   2.609   2.609
  2.752   2.813   2.813   2.860   2.860   2.943   2.943   2.997
  2.997   3.021   3.023   3.023   3.088   3.088   3.264   3.264
  3.297   3.298   3.311   3.564   3.602   3.602   3.716   3.716
  3.825   3.858   3.858   3.949   3.987   3.987   4.099   4.377
  4.377   4.490   4.900   4.900   5.497   5.497   5.671   5.706
  5.706   5.781   5.781   5.815   5.815   6.050   6.052   6.052
  6.201   6.227   6.227   6.252   6.252   6.334   6.334   6.444
  6.444   6.572   6.572   6.924   7.338   7.538   7.538   7.711
  7.711   7.763   8.138   8.138   8.289   8.317   8.317   8.697
  8.697   8.864   8.864   9.353   9.353   9.363   9.631  10.000
 10.390  10.390  10.937  13.536  13.984  13.984  14.938  15.884
 15.884  15.995  15.995  16.296  16.296  16.506  18.764  18.764
 20.278  23.207  26.019  26.019  26.605  26.605  26.752  26.752
 27.091  27.091  27.298  28.263  36.538  39.714  39.714  40.639
 46.435  46.435  46.439  46.439  46.444  46.444  46.446  46.446
 46.457  56.583  56.583  56.641  56.641  56.784  56.784  56.862
 65.973  65.973  67.102  68.109  79.605  79.607  79.840  79.840
 80.336  98.121  98.121  98.135  98.135  98.175  98.175  98.233
114.515 114.520 114.836 114.836 115.448 122.639 124.538 124.538
125.286 225.181 225.181 226.123 326.266 513.259
 --------------------------------------------------------------
 
          Ground-State Mulliken Net Atomic Charges

     Atom                 Charge (a.u.)
  ----------------------------------------
      1 C                    -0.199648
      2 H                     0.128348
      3 P                     0.071301
  ----------------------------------------
  Sum of atomic charges =     0.000000

 -----------------------------------------------------------------
                    Cartesian Multipole Moments
 -----------------------------------------------------------------
    Charge (ESU x 10^10)
                 0.0000
    Dipole Moment (Debye)
         X      -0.0000      Y       0.0000      Z       0.2486
       Tot       0.2486
    Quadrupole Moments (Debye-Ang)
        XX     -20.1523     XY      -0.0000     YY     -20.1740
        XZ       0.0000     YZ      -0.0000     ZZ     -15.9683
    Octopole Moments (Debye-Ang^2)
       XXX       0.0000    XXY       0.0000    XYY       0.0000
       YYY       0.0000    XXZ      18.7611    XYZ       0.0000
       YYZ      18.7866    XZZ      -0.0000    YZZ       0.0000
       ZZZ      54.5825
    Hexadecapole Moments (Debye-Ang^3)
      XXXX     -30.4630   XXXY      -0.0000   XXYY     -10.1743
      XYYY      -0.0000   YYYY     -30.5830   XXXZ       0.0000
      XXYZ      -0.0000   XYYZ       0.0000   YYYZ      -0.0000
      XXZZ     -39.2788   XYZZ      -0.0000   YYZZ     -39.3360
      XZZZ       0.0000   YZZZ      -0.0000   ZZZZ    -203.8206
 -----------------------------------------------------------------
Archival summary:
1\1\n0095.mhg0\SP\ProcedureUnspecified\BasisUnspecified\111\yhljason\TueOct2705:46:382020TueOct2705:46:382020\0\\#,ProcedureUnspecified,BasisUnspecified,\\0,1\P\C,1,1.542\H,2,1.067,1,180\\\@

 Total job time:  747.08s(wall), 5909.34s(cpu) 
 Tue Oct 27 05:46:38 2020

        *************************************************************
        *                                                           *
        *  Thank you very much for using Q-Chem.  Have a nice day.  *
        *                                                           *
        *************************************************************


 
User input: 6 of 8 
 
Q-Chem Developer Version!
                  Welcome to Q-Chem
     A Quantum Leap Into The Future Of Chemistry


 Q-Chem 5.1, Q-Chem, Inc., Pleasanton, CA (2018)

 Yihan Shao,  Zhengting Gan,  E. Epifanovsky,  A. T. B. Gilbert,  M. Wormit,  
 J. Kussmann,  A. W. Lange,  A. Behn,  Jia Deng,  Xintian Feng,  D. Ghosh,  
 M. Goldey,  P. R. Horn,  L. D. Jacobson,  I. Kaliman,  T. Kus,  A. Landau,  
 Jie Liu,  E. I. Proynov,  R. M. Richard,  R. P. Steele,  E. J. Sundstrom,  
 H. L. Woodcock III,  P. M. Zimmerman,  D. Zuev,  B. Albrecht,  E. Alguire,  
 S. A. Baeppler,  D. Barton,  Z. Benda,  Y. A. Bernard,  E. J. Berquist,  
 K. B. Bravaya,  H. Burton,  D. Casanova,  Chun-Min Chang,  Yunqing Chen,  
 A. Chien,  K. D. Closser,  M. P. Coons,  S. Coriani,  S. Dasgupta,  
 A. L. Dempwolff,  M. Diedenhofen,  Hainam Do,  R. G. Edgar,  Po-Tung Fang,  
 S. Faraji,  S. Fatehi,  Qingguo Feng,  K. D. Fenk,  J. Fosso-Tande,  
 Qinghui Ge,  A. Ghysels,  G. Gidofalvi,  J. Gomes,  J. Gonthier,  A. Gunina,  
 D. Hait,  M. W. D. Hanson-Heine,  P. H. P. Harbach,  A. W. Hauser,  
 J. E. Herr,  E. G. Hohenstein,  Z. C. Holden,  Kerwin Hui,  B. C. Huynh,  
 T.-C. Jagau,  Hyunjun Ji,  B. Kaduk,  K. Khistyaev,  Jaehoon Kim,  
 P. Klunzinger,  K. Koh,  D. Kosenkov,  L. Koulias,  T. Kowalczyk,  
 C. M. Krauter,  A. Kunitsa,  Ka Un Lao,  A. Laurent,  K. V. Lawler,  
 Joonho Lee,  D. Lefrancois,  S. Lehtola,  D. S. Levine,  Yi-Pei Li,  
 You-Sheng Lin,  Fenglai Liu,  E. Livshits,  A. Luenser,  P. Manohar,  
 E. Mansoor,  S. F. Manzer,  Shan-Ping Mao,  Yuezhi Mao,  N. Mardirossian,  
 A. V. Marenich,  T. Markovich,  L. A. Martinez-Martinez,  S. A. Maurer,  
 N. J. Mayhall,  S. C. McKenzie,  J.-M. Mewes,  A. F. Morrison,  
 J. W. Mullinax,  K. Nanda,  T. S. Nguyen-Beck,  R. Olivares-Amaya,  
 J. A. Parkhill,  T. M. Perrine,  F. Plasser,  P. Pokhilko,  S. Prager,  
 A. Prociuk,  E. Ramos,  D. R. Rehn,  F. Rob,  M. Schneider,  N. Sergueev,  
 S. M. Sharada,  S. Sharma,  D. W. Small,  T. Stauch,  T. Stein,  
 Yu-Chuan Su,  A. J. W. Thom,  A. Tkatchenko,  T. Tsuchimochi,  N. M. Tubman,  
 L. Vogt,  M. L. Vidal,  O. Vydrov,  M. A. Watson,  J. Wenzel,  
 M. de Wergifosse,  T. A. Wesolowski,  A. White,  J. Witte,  A. Yamada,  
 Jun Yang,  K. Yao,  S. Yeganeh,  S. R. Yost,  Zhi-Qiang You,  A. Zech,  
 Igor Ying Zhang,  Xing Zhang,  Yan Zhao,  Ying Zhu,  B. R. Brooks,  
 G. K. L. Chan,  C. J. Cramer,  M. S. Gordon,  W. J. Hehre,  A. Klamt,  
 M. W. Schmidt,  C. D. Sherrill,  D. G. Truhlar,  A. Aspuru-Guzik,  R. Baer,  
 A. T. Bell,  N. A. Besley,  Jeng-Da Chai,  A. E. DePrince, III,  
 R. A. DiStasio Jr.,  A. Dreuw,  B. D. Dunietz,  T. R. Furlani,  
 Chao-Ping Hsu,  Yousung Jung,  Jing Kong,  D. S. Lambrecht,  WanZhen Liang,  
 C. Ochsenfeld,  V. A. Rassolov,  L. V. Slipchenko,  J. E. Subotnik,  
 T. Van Voorhis,  J. M. Herbert,  A. I. Krylov,  P. M. W. Gill,  M. Head-Gordon

 Contributors to earlier versions of Q-Chem not listed above: 
 R. D. Adamson,  B. Austin,  J. Baker,  G. J. O. Beran,  K. Brandhorst,  
 S. T. Brown,  E. F. C. Byrd,  A. K. Chakraborty,  C.-L. Cheng,  
 Siu Hung Chien,  D. M. Chipman,  D. L. Crittenden,  H. Dachsel,  
 R. J. Doerksen,  A. D. Dutoi,  L. Fusti-Molnar,  W. A. Goddard III,  
 A. Golubeva-Zadorozhnaya,  S. R. Gwaltney,  G. Hawkins,  A. Heyden,  
 S. Hirata,  G. Kedziora,  F. J. Keil,  C. Kelley,  Jihan Kim,  R. A. King,  
 R. Z. Khaliullin,  P. P. Korambath,  W. Kurlancheek,  A. M. Lee,  M. S. Lee,  
 S. V. Levchenko,  Ching Yeh Lin,  D. Liotard,  R. C. Lochan,  I. Lotan,  
 P. E. Maslen,  N. Nair,  D. P. O'Neill,  D. Neuhauser,  E. Neuscamman,  
 C. M. Oana,  R. Olson,  B. Peters,  R. Peverati,  P. A. Pieniazek,  
 Y. M. Rhee,  J. Ritchie,  M. A. Rohrdanz,  E. Rosta,  N. J. Russ,  
 H. F. Schaefer III,  N. E. Schultz,  N. Shenvi,  A. C. Simmonett,  A. Sodt,  
 D. Stuck,  K. S. Thanthiriwatte,  V. Vanovschi,  Tao Wang,  A. Warshel,  
 C. F. Williams,  Q. Wu,  X. Xu,  W. Zhang

 Please cite Q-Chem as follows:
 Y. Shao et al., Mol. Phys. 113, 184-215 (2015)
 DOI: 10.1080/00268976.2014.952696

 Q-Chem 5.1.1 for Intel X86 EM64T Linux

 Parts of Q-Chem use Armadillo 8.300.2 (Tropical Shenanigans).
 http://arma.sourceforge.net/

 Q-Chem begins on Tue Oct 27 05:46:38 2020  

Host: n0095.mhg0
0

     Scratch files written to /local/scratch/users/yhljason/HCP_wB97M2_aug-cc-pcVQZ.inp20201027035740//
The previous job contains 0 fragments, simply inherited here
Input Ideriv = 0
Curr. Ideriv = -1
Max.  Ideriv = 0
Analytic post-HF gradients are not available with non-HF exchange
Input Ideriv = 0
Curr. Ideriv = 0
Max.  Ideriv = 0

Checking the input file for inconsistencies... 	...done.

--------------------------------------------------------------
User input:
--------------------------------------------------------------
$molecule
read
$end

$rem
jobtype sp
exchange wB97M(2)
xc_grid 000099000590
basis aug-cc-pcVQZ

max_scf_cycles 200
thresh 14
scf_convergence 8
mem_total 128000
cc_memory 96000
cc_backend xm
mem_static 1500
symmetry false
sym_ignore true
scf_guess read
unrestricted false
scf_algorithm gdm
n_frozen_core 0
$end



$multipole_field
YY -0.0001
$end


--------------------------------------------------------------
 ----------------------------------------------------------------
             Standard Nuclear Orientation (Angstroms)
    I     Atom           X                Y                Z
 ----------------------------------------------------------------
    1      C       0.0000000000     0.0000000000     0.0000000000
    2      H       0.0000000000     0.0000000000     1.0670000000
    3      P       0.0000000000     0.0000000000    -1.5420000000
 ----------------------------------------------------------------
 Nuclear Repulsion Energy =    36.9039353450 hartrees
 There are       11 alpha and       11 beta electrons
 Requested basis set is aug-cc-pCVQZ
 There are 77 shells and 289 basis functions

 Total QAlloc Memory Limit 128000 MB
 Mega-Array Size      1467 MB
 MEM_STATIC part      1500 MB

                       Distance Matrix (Angstroms)
             C (  1)   H (  2)
   H (  2)  1.067000
   P (  3)  1.542000  2.609000
 
 Applying Cartesian multipole field
    Component          Value
    ---------          -----
     (0,2,0)       -1.00000E-04
 A cutoff of  1.0D-14 yielded   2912 shell pairs
 There are     41362 function pairs (     67426 Cartesian)
 
 -------------------------------------------------------
 OpenMP Integral Computing Module                       
 Release: version 1.0, May 2013, Q-Chem Inc. Pittsburgh 
 -------------------------------------------------------
 Integral Job Info:
 Integral job number is                      11
 Integral operator is                         1
 short-range coefficients              15000000
 long-range coefficients              100000000
 Omega coefficients                         300
 if combine SR and LR in K                    1
 Integral screening is                        0
 Integral computing path is                   2
 max size of driver memory is           3200000
 size of driver memory is               1704330
 size of scratch memory is             28840424
 max col of scratch BK array              50625
 max len of scratch array in speh3         2114
 max len of scratch index in speh4           50
 max int batch size is                      520
 min int batch size is                       52
 fixed nKL is                                21
 max L of basis functions is                  4
 order of int derivative is                   0
 number of shells is                         77
[...]
  8.696   8.863   8.863   9.353   9.353   9.362   9.630   9.999
 10.389  10.389  10.936  13.535  13.983  13.983  14.938  15.883
 15.883  15.995  15.995  16.295  16.295  16.505  18.764  18.764
 20.277  23.206  26.018  26.018  26.604  26.604  26.751  26.751
 27.091  27.091  27.298  28.262  36.537  39.713  39.713  40.638
 46.435  46.435  46.438  46.438  46.443  46.443  46.446  46.446
 46.456  56.583  56.583  56.640  56.641  56.784  56.784  56.861
 65.973  65.973  67.101  68.108  79.604  79.607  79.839  79.839
 80.335  98.120  98.120  98.134  98.134  98.174  98.174  98.233
114.515 114.519 114.835 114.835 115.447 122.639 124.537 124.537
125.285 225.181 225.181 226.123 326.266 513.258
 --------------------------------------------------------------
 
          Ground-State Mulliken Net Atomic Charges

     Atom                 Charge (a.u.)
  ----------------------------------------
      1 C                    -0.198750
      2 H                     0.126352
      3 P                     0.072398
  ----------------------------------------
  Sum of atomic charges =     0.000000

 -----------------------------------------------------------------
                    Cartesian Multipole Moments
 -----------------------------------------------------------------
    Charge (ESU x 10^10)
                 0.0000
    Dipole Moment (Debye)
         X      -0.0000      Y       0.0000      Z       0.2845
       Tot       0.2845
    Quadrupole Moments (Debye-Ang)
        XX     -20.1501     XY      -0.0000     YY     -20.1501
        XZ       0.0000     YZ       0.0000     ZZ     -16.0877
    Octopole Moments (Debye-Ang^2)
       XXX       0.0000    XXY       0.0000    XYY       0.0000
       YYY       0.0000    XXZ      18.7945    XYZ       0.0000
       YYZ      18.7945    XZZ      -0.0000    YZZ      -0.0000
       ZZZ      54.9477
    Hexadecapole Moments (Debye-Ang^3)
      XXXX     -30.4461   XXXY      -0.0000   XXYY     -10.1487
      XYYY      -0.0000   YYYY     -30.4461   XXXZ       0.0000
      XXYZ      -0.0000   XYYZ       0.0000   YYYZ      -0.0000
      XXZZ     -39.3809   XYZZ      -0.0000   YYZZ     -39.3809
      XZZZ       0.0000   YZZZ      -0.0000   ZZZZ    -205.0449
 -----------------------------------------------------------------
Archival summary:
1\1\n0095.mhg0\SP\ProcedureUnspecified\BasisUnspecified\111\yhljason\TueOct2706:13:542020TueOct2706:13:542020\0\\#,ProcedureUnspecified,BasisUnspecified,\\0,1\P\C,1,1.542\H,2,1.067,1,180\\\@

 Total job time:  821.15s(wall), 6495.21s(cpu) 
 Tue Oct 27 06:13:54 2020

        *************************************************************
        *                                                           *
        *  Thank you very much for using Q-Chem.  Have a nice day.  *
        *                                                           *
        *************************************************************


 
User input: 8 of 8 
 
Q-Chem Developer Version!
                  Welcome to Q-Chem
     A Quantum Leap Into The Future Of Chemistry


 Q-Chem 5.1, Q-Chem, Inc., Pleasanton, CA (2018)

 Yihan Shao,  Zhengting Gan,  E. Epifanovsky,  A. T. B. Gilbert,  M. Wormit,  
 J. Kussmann,  A. W. Lange,  A. Behn,  Jia Deng,  Xintian Feng,  D. Ghosh,  
 M. Goldey,  P. R. Horn,  L. D. Jacobson,  I. Kaliman,  T. Kus,  A. Landau,  
 Jie Liu,  E. I. Proynov,  R. M. Richard,  R. P. Steele,  E. J. Sundstrom,  
 H. L. Woodcock III,  P. M. Zimmerman,  D. Zuev,  B. Albrecht,  E. Alguire,  
 S. A. Baeppler,  D. Barton,  Z. Benda,  Y. A. Bernard,  E. J. Berquist,  
 K. B. Bravaya,  H. Burton,  D. Casanova,  Chun-Min Chang,  Yunqing Chen,  
 A. Chien,  K. D. Closser,  M. P. Coons,  S. Coriani,  S. Dasgupta,  
 A. L. Dempwolff,  M. Diedenhofen,  Hainam Do,  R. G. Edgar,  Po-Tung Fang,  
 S. Faraji,  S. Fatehi,  Qingguo Feng,  K. D. Fenk,  J. Fosso-Tande,  
 Qinghui Ge,  A. Ghysels,  G. Gidofalvi,  J. Gomes,  J. Gonthier,  A. Gunina,  
 D. Hait,  M. W. D. Hanson-Heine,  P. H. P. Harbach,  A. W. Hauser,  
 J. E. Herr,  E. G. Hohenstein,  Z. C. Holden,  Kerwin Hui,  B. C. Huynh,  
 T.-C. Jagau,  Hyunjun Ji,  B. Kaduk,  K. Khistyaev,  Jaehoon Kim,  
 P. Klunzinger,  K. Koh,  D. Kosenkov,  L. Koulias,  T. Kowalczyk,  
 C. M. Krauter,  A. Kunitsa,  Ka Un Lao,  A. Laurent,  K. V. Lawler,  
 Joonho Lee,  D. Lefrancois,  S. Lehtola,  D. S. Levine,  Yi-Pei Li,  
 You-Sheng Lin,  Fenglai Liu,  E. Livshits,  A. Luenser,  P. Manohar,  
 E. Mansoor,  S. F. Manzer,  Shan-Ping Mao,  Yuezhi Mao,  N. Mardirossian,  
 A. V. Marenich,  T. Markovich,  L. A. Martinez-Martinez,  S. A. Maurer,  
 N. J. Mayhall,  S. C. McKenzie,  J.-M. Mewes,  A. F. Morrison,  
 J. W. Mullinax,  K. Nanda,  T. S. Nguyen-Beck,  R. Olivares-Amaya,  
 J. A. Parkhill,  T. M. Perrine,  F. Plasser,  P. Pokhilko,  S. Prager,  
 A. Prociuk,  E. Ramos,  D. R. Rehn,  F. Rob,  M. Schneider,  N. Sergueev,  
 S. M. Sharada,  S. Sharma,  D. W. Small,  T. Stauch,  T. Stein,  
 Yu-Chuan Su,  A. J. W. Thom,  A. Tkatchenko,  T. Tsuchimochi,  N. M. Tubman,  
 L. Vogt,  M. L. Vidal,  O. Vydrov,  M. A. Watson,  J. Wenzel,  
 M. de Wergifosse,  T. A. Wesolowski,  A. White,  J. Witte,  A. Yamada,  
 Jun Yang,  K. Yao,  S. Yeganeh,  S. R. Yost,  Zhi-Qiang You,  A. Zech,  
 Igor Ying Zhang,  Xing Zhang,  Yan Zhao,  Ying Zhu,  B. R. Brooks,  
 G. K. L. Chan,  C. J. Cramer,  M. S. Gordon,  W. J. Hehre,  A. Klamt,  
 M. W. Schmidt,  C. D. Sherrill,  D. G. Truhlar,  A. Aspuru-Guzik,  R. Baer,  
 A. T. Bell,  N. A. Besley,  Jeng-Da Chai,  A. E. DePrince, III,  
 R. A. DiStasio Jr.,  A. Dreuw,  B. D. Dunietz,  T. R. Furlani,  
 Chao-Ping Hsu,  Yousung Jung,  Jing Kong,  D. S. Lambrecht,  WanZhen Liang,  
 C. Ochsenfeld,  V. A. Rassolov,  L. V. Slipchenko,  J. E. Subotnik,  
 T. Van Voorhis,  J. M. Herbert,  A. I. Krylov,  P. M. W. Gill,  M. Head-Gordon

 Contributors to earlier versions of Q-Chem not listed above: 
 R. D. Adamson,  B. Austin,  J. Baker,  G. J. O. Beran,  K. Brandhorst,  
 S. T. Brown,  E. F. C. Byrd,  A. K. Chakraborty,  C.-L. Cheng,  
 Siu Hung Chien,  D. M. Chipman,  D. L. Crittenden,  H. Dachsel,  
 R. J. Doerksen,  A. D. Dutoi,  L. Fusti-Molnar,  W. A. Goddard III,  
 A. Golubeva-Zadorozhnaya,  S. R. Gwaltney,  G. Hawkins,  A. Heyden,  
 S. Hirata,  G. Kedziora,  F. J. Keil,  C. Kelley,  Jihan Kim,  R. A. King,  
 R. Z. Khaliullin,  P. P. Korambath,  W. Kurlancheek,  A. M. Lee,  M. S. Lee,  
 S. V. Levchenko,  Ching Yeh Lin,  D. Liotard,  R. C. Lochan,  I. Lotan,  
 P. E. Maslen,  N. Nair,  D. P. O'Neill,  D. Neuhauser,  E. Neuscamman,  
 C. M. Oana,  R. Olson,  B. Peters,  R. Peverati,  P. A. Pieniazek,  
 Y. M. Rhee,  J. Ritchie,  M. A. Rohrdanz,  E. Rosta,  N. J. Russ,  
 H. F. Schaefer III,  N. E. Schultz,  N. Shenvi,  A. C. Simmonett,  A. Sodt,  
 D. Stuck,  K. S. Thanthiriwatte,  V. Vanovschi,  Tao Wang,  A. Warshel,  
 C. F. Williams,  Q. Wu,  X. Xu,  W. Zhang

 Please cite Q-Chem as follows:
 Y. Shao et al., Mol. Phys. 113, 184-215 (2015)
 DOI: 10.1080/00268976.2014.952696

 Q-Chem 5.1.1 for Intel X86 EM64T Linux

 Parts of Q-Chem use Armadillo 8.300.2 (Tropical Shenanigans).
 http://arma.sourceforge.net/

 Q-Chem begins on Tue Oct 27 06:13:54 2020  

Host: n0095.mhg0
0

     Scratch files written to /local/scratch/users/yhljason/HCP_wB97M2_aug-cc-pcVQZ.inp20201027035740//
The previous job contains 0 fragments, simply inherited here
Input Ideriv = 0
Curr. Ideriv = -1
Max.  Ideriv = 0
Analytic post-HF gradients are not available with non-HF exchange
Input Ideriv = 0
Curr. Ideriv = 0
Max.  Ideriv = 0

Checking the input file for inconsistencies... 	...done.

--------------------------------------------------------------
User input:
--------------------------------------------------------------
$molecule
read
$end

$rem
jobtype sp
exchange wB97M(2)
xc_grid 000099000590
basis aug-cc-pcVQZ

max_scf_cycles 200
thresh 14
scf_convergence 8
mem_total 128000
cc_memory 96000
cc_backend xm
mem_static 1500
symmetry false
sym_ignore true
scf_guess read
unrestricted false
scf_algorithm gdm
n_frozen_core 0
$end



$multipole_field
ZZ -0.0001
$end

--------------------------------------------------------------
 ----------------------------------------------------------------
             Standard Nuclear Orientation (Angstroms)
    I     Atom           X                Y                Z
 ----------------------------------------------------------------
    1      C       0.0000000000     0.0000000000     0.0000000000
    2      H       0.0000000000     0.0000000000     1.0670000000
    3      P       0.0000000000     0.0000000000    -1.5420000000
 ----------------------------------------------------------------
 Nuclear Repulsion Energy =    36.9039353450 hartrees
 There are       11 alpha and       11 beta electrons
 Requested basis set is aug-cc-pCVQZ
 There are 77 shells and 289 basis functions

 Total QAlloc Memory Limit 128000 MB
 Mega-Array Size      1467 MB
 MEM_STATIC part      1500 MB

                       Distance Matrix (Angstroms)
             C (  1)   H (  2)
   H (  2)  1.067000
   P (  3)  1.542000  2.609000
 
 Applying Cartesian multipole field
    Component          Value
    ---------          -----
     (0,0,2)       -1.00000E-04
 Nucleus-field energy     =    -0.0131432859 hartrees
 A cutoff of  1.0D-14 yielded   2912 shell pairs
 There are     41362 function pairs (     67426 Cartesian)
 
 -------------------------------------------------------
 OpenMP Integral Computing Module                       
 Release: version 1.0, May 2013, Q-Chem Inc. Pittsburgh 
 -------------------------------------------------------
 Integral Job Info:
 Integral job number is                      11
 Integral operator is                         1
 short-range coefficients              15000000
 long-range coefficients              100000000
 Omega coefficients                         300
 if combine SR and LR in K                    1
 Integral screening is                        0
 Integral computing path is                   2
 max size of driver memory is           3200000
 size of driver memory is               1704330
 size of scratch memory is             28840424
 max col of scratch BK array              50625
 max len of scratch array in speh3         2114
 max len of scratch index in speh4           50
 max int batch size is                      520
 min int batch size is                       52
 fixed nKL is                                21
 max L of basis functions is                  4
 order of int derivative is                   0
 number of shells is                         77
 number of basis is                         368
 number of cartesian basis is               368
 number of contracted shell pairs          2912
 number of primitive shell pairs           9469
 maxK2 (contraction) of shell pair          169
 max number of K2 of shell pair               1
 max number of CS2 of shell pair            319
 max number of PS2 of shell pair           1014
 mem total for path MDJ                  745120
 -------------------------------------------------------
 Smallest overlap matrix eigenvalue = 1.56E-05
 Guess MOs from SCF MO coefficient file
 Reading MOs from coefficient file
 Reading MOs from coefficient file
 Long-range K will be added via erf
 Coulomb attenuation parameter = 0.3 bohr**(-1)
 A restricted hybrid HF-DFT SCF calculation will be
 performed using Geometric Direct Minimization
 Exchange:     0.1500 Hartree-Fock + 1.0000 wB97M-V + LR-HF
 Correlation:  1.0000 wB97M-V
 Using Euler-Maclaurin-Lebedev (99,590) quadrature formula
 Nonlocal Correlation:  VV10 with C = 0.0100 and b = 6.00 and scale = 1.00000
 Grid used for NLC:  SG-1 standard quadrature
 SCF converges when RMS gradient is below 1.0E-08
Using Q-Chem read-in guess as SCF_GUESS READ specified.

 using 8 threads for integral computing
 -------------------------------------------------------
 OpenMP Integral computing Module                
 Release: version 1.0, May 2013, Q-Chem Inc. Pittsburgh 
 -------------------------------------------------------
 using 8 threads for integral computing
 -------------------------------------------------------
 OpenMP Integral computing Module                
 Release: version 1.0, May 2013, Q-Chem Inc. Pittsburgh 
 -------------------------------------------------------
TIMEINFO->: J/JK contribution 247.56 sec.
 -------------------------------------------------------
 OpenMP BLAS3 based DFT computing Module                
 Release: version 1.0, May 2013, Q-Chem Inc. Pittsburgh 
 -------------------------------------------------------
 -------------------------------------------------------
 OpenMP BLAS3 based DFT computing Module                
 Release: version 1.0, May 2013, Q-Chem Inc. Pittsburgh 
 -------------------------------------------------------
 -------------------------------------------------------
 OpenMP BLAS3 based DFT computing Module                
 Release: version 1.0, May 2013, Q-Chem Inc. Pittsburgh 
 -------------------------------------------------------
 ---------------------------------------
  Cycle       Energy        RMS Gradient
 ---------------------------------------
    1    -379.9966193466      2.07E-03 Normal BFGS step
TIMEINFO->: J/JK contribution 250.09 sec.
    2    -379.9966288207      1.95E-03 Normal BFGS step
TIMEINFO->: J/JK contribution 244.45 sec.
    3    -379.9966365772      2.47E-04 Normal BFGS step
TIMEINFO->: J/JK contribution 244.73 sec.
    4    -379.9966372592      7.17E-05 Normal BFGS step
TIMEINFO->: J/JK contribution 256.30 sec.
    5    -379.9966373111      1.10E-05 Normal BFGS step
TIMEINFO->: J/JK contribution 254.40 sec.
    6    -379.9966373131      2.06E-06 Normal BFGS step
TIMEINFO->: J/JK contribution 253.57 sec.
    7    -379.9966373132      5.77E-07 Normal BFGS step
TIMEINFO->: J/JK contribution 249.05 sec.
    8    -379.9966373132      1.45E-07 Normal BFGS step
TIMEINFO->: J/JK contribution 243.61 sec.
    9    -379.9966373132      2.29E-08 Normal BFGS step
TIMEINFO->: J/JK contribution 237.21 sec.
   GDM::WARNING energy changes are now smaller than effective accuracy.
   GDM::        calculation will continue, but THRESH should be increased
   GDM::        or SCF_CONVERGENCE decreased.
   GDM::        effective_thresh =   4.496171664147841E-010
 Nonlocal correlation =     0.0295390126
   10    -379.9966373132      4.22E-09 Convergence criterion met
 ---------------------------------------
 wB97M-V orbitals are now ready for the wB97M(2) calculation.
 wB97M(2) energy = Exch (0.62194 SRHF + 1.0 LRHF + wB97M(2)_EXCH) + 
               Corr (wB97M(2)_CORR + 0.34096 MP2 + 0.65904 VV10(b=10))
 SCF time:  CPU 3245.01 s  wall 409.23 s
 SCF   energy in the final basis set = -379.88645276
 Total energy in the final basis set = -379.88645276
 
 Components of the MP2 correlation energy:
        aaaa  correlation energy =        -0.0345696193 au
        abab  correlation energy =        -0.2206766105 au
        bbbb  correlation energy =        -0.0345696193 au
        non-Brillouin singles    =        -0.0000000000 au

 Total  MP2   correlation energy =                    -0.28981585 au
        MP2         total energy =                  -380.17626861 au
 
 --------------------------------------------------------------
 
                    Orbital Energies (a.u.)
 --------------------------------------------------------------
 
 Alpha MOs
 -- Occupied --
-77.370 -10.377  -6.726  -4.837  -4.837  -4.834  -0.834  -0.650
 -0.459  -0.376  -0.376
 -- Virtual --
  0.017   0.017   0.017   0.037   0.056   0.056   0.071   0.085
  0.085   0.106   0.137   0.143   0.143   0.163   0.191   0.191
  0.199   0.240   0.240   0.248   0.248   0.266   0.295   0.302
  0.306   0.306   0.365   0.365   0.395   0.395   0.400   0.400
  0.420   0.433   0.453   0.453   0.489   0.489   0.516   0.516
  0.524   0.553   0.553   0.568   0.658   0.665   0.665   0.672
  0.672   0.701   0.770   0.770   0.788   0.853   0.853   0.916
  0.958   0.958   0.975   0.975   1.033   1.033   1.044   1.044
  1.074   1.131   1.131   1.142   1.142   1.148   1.148   1.167
  1.218   1.218   1.250   1.250   1.281   1.299   1.299   1.320
  1.320   1.361   1.463   1.463   1.499   1.579   1.603   1.603
  1.633   1.650   1.650   1.700   1.700   1.723   1.822   1.822
  1.926   1.926   2.046   2.049   2.049   2.060   2.060   2.113
  2.113   2.144   2.194   2.194   2.305   2.306   2.330   2.330
  2.436   2.460   2.460   2.519   2.519   2.578   2.610   2.610
  2.754   2.815   2.815   2.861   2.861   2.945   2.945   2.999
  2.999   3.023   3.025   3.025   3.090   3.090   3.266   3.266
  3.299   3.299   3.312   3.566   3.603   3.603   3.717   3.717
  3.826   3.859   3.859   3.951   3.988   3.988   4.101   4.378
  4.378   4.492   4.902   4.902   5.499   5.499   5.673   5.708
  5.708   5.782   5.782   5.816   5.816   6.051   6.054   6.054
  6.202   6.228   6.228   6.254   6.254   6.336   6.336   6.445
  6.445   6.573   6.573   6.925   7.339   7.540   7.540   7.712
  7.712   7.764   8.140   8.140   8.290   8.319   8.319   8.699
  8.699   8.865   8.865   9.355   9.355   9.364   9.632  10.001
 10.391  10.391  10.939  13.537  13.985  13.985  14.940  15.885
 15.885  15.997  15.997  16.297  16.297  16.507  18.766  18.766
 20.280  23.208  26.021  26.021  26.607  26.607  26.753  26.753
 27.093  27.093  27.300  28.264  36.540  39.715  39.715  40.640
 46.437  46.437  46.440  46.440  46.445  46.445  46.448  46.448
 46.458  56.585  56.585  56.642  56.642  56.786  56.786  56.863
 65.975  65.975  67.103  68.110  79.606  79.609  79.841  79.841
 80.337  98.122  98.122  98.136  98.136  98.176  98.176  98.235
114.517 114.521 114.838 114.838 115.450 122.641 124.539 124.539
125.287 225.183 225.183 226.125 326.267 513.260
 --------------------------------------------------------------
 
          Ground-State Mulliken Net Atomic Charges

     Atom                 Charge (a.u.)
  ----------------------------------------
      1 C                    -0.200345
      2 H                     0.128830
      3 P                     0.071515
  ----------------------------------------
  Sum of atomic charges =     0.000000

 -----------------------------------------------------------------
                    Cartesian Multipole Moments
 -----------------------------------------------------------------
    Charge (ESU x 10^10)
                 0.0000
    Dipole Moment (Debye)
         X      -0.0000      Y      -0.0000      Z       0.2098
       Tot       0.2098
    Quadrupole Moments (Debye-Ang)
        XX     -20.1470     XY      -0.0000     YY     -20.1470
        XZ       0.0000     YZ       0.0000     ZZ     -15.8469
    Octopole Moments (Debye-Ang^2)
       XXX       0.0000    XXY       0.0000    XYY       0.0000
       YYY       0.0000    XXZ      18.7232    XYZ       0.0000
       YYZ      18.7232    XZZ      -0.0000    YZZ      -0.0000
       ZZZ      54.2113
    Hexadecapole Moments (Debye-Ang^3)
      XXXX     -30.4294   XXXY       0.0000   XXYY     -10.1431
      XYYY       0.0000   YYYY     -30.4294   XXXZ      -0.0000
      XXYZ      -0.0000   XYYZ      -0.0000   YYYZ      -0.0000
      XXZZ     -39.1630   XYZZ      -0.0000   YYZZ     -39.1630
      XZZZ       0.0000   YZZZ       0.0000   ZZZZ    -202.5859
 -----------------------------------------------------------------
Archival summary:
1\1\n0095.mhg0\SP\ProcedureUnspecified\BasisUnspecified\111\yhljason\TueOct2706:26:542020TueOct2706:26:542020\0\\#,ProcedureUnspecified,BasisUnspecified,\\0,1\P\C,1,1.542\H,2,1.067,1,180\\\@

 Total job time:  780.21s(wall), 6177.01s(cpu) 
 Tue Oct 27 06:26:54 2020

        *************************************************************
        *                                                           *
        *  Thank you very much for using Q-Chem.  Have a nice day.  *
        *                                                           *
        *************************************************************


