Q-Chem Developer Version!
                  Welcome to Q-Chem
     A Quantum Leap Into The Future Of Chemistry


 Q-Chem 5.1, Q-Chem, Inc., Pleasanton, CA (2018)

 Yihan Shao,  Zhengting Gan,  E. Epifanovsky,  A. T. B. Gilbert,  M. Wormit,
 J. Kussmann,  A. W. Lange,  A. Behn,  Jia Deng,  Xintian Feng,  D. Ghosh,
 M. Goldey,  P. R. Horn,  L. D. Jacobson,  I. Kaliman,  T. Kus,  A. Landau,
 Jie Liu,  E. I. Proynov,  R. M. Richard,  R. P. Steele,  E. J. Sundstrom,
 H. L. Woodcock III,  P. M. Zimmerman,  D. Zuev,  B. Albrecht,  E. Alguire,
 S. A. Baeppler,  D. Barton,  Z. Benda,  Y. A. Bernard,  E. J. Berquist,
 K. B. Bravaya,  H. Burton,  D. Casanova,  Chun-Min Chang,  Yunqing Chen,
 A. Chien,  K. D. Closser,  M. P. Coons,  S. Coriani,  S. Dasgupta,
 A. L. Dempwolff,  M. Diedenhofen,  Hainam Do,  R. G. Edgar,  Po-Tung Fang,
 S. Faraji,  S. Fatehi,  Qingguo Feng,  K. D. Fenk,  J. Fosso-Tande,
 Qinghui Ge,  A. Ghysels,  G. Gidofalvi,  J. Gomes,  J. Gonthier,  A. Gunina,
 D. Hait,  M. W. D. Hanson-Heine,  P. H. P. Harbach,  A. W. Hauser,
 J. E. Herr,  E. G. Hohenstein,  Z. C. Holden,  Kerwin Hui,  B. C. Huynh,
 T.-C. Jagau,  Hyunjun Ji,  B. Kaduk,  K. Khistyaev,  Jaehoon Kim,
 P. Klunzinger,  K. Koh,  D. Kosenkov,  L. Koulias,  T. Kowalczyk,
 C. M. Krauter,  A. Kunitsa,  Ka Un Lao,  A. Laurent,  K. V. Lawler,
 Joonho Lee,  D. Lefrancois,  S. Lehtola,  D. S. Levine,  Yi-Pei Li,
 You-Sheng Lin,  Fenglai Liu,  E. Livshits,  A. Luenser,  P. Manohar,
 E. Mansoor,  S. F. Manzer,  Shan-Ping Mao,  Yuezhi Mao,  N. Mardirossian,
 A. V. Marenich,  T. Markovich,  L. A. Martinez-Martinez,  S. A. Maurer,
 N. J. Mayhall,  S. C. McKenzie,  J.-M. Mewes,  A. F. Morrison,
 J. W. Mullinax,  K. Nanda,  T. S. Nguyen-Beck,  R. Olivares-Amaya,
 J. A. Parkhill,  T. M. Perrine,  F. Plasser,  P. Pokhilko,  S. Prager,
 A. Prociuk,  E. Ramos,  D. R. Rehn,  F. Rob,  M. Schneider,  N. Sergueev,
 S. M. Sharada,  S. Sharma,  D. W. Small,  T. Stauch,  T. Stein,
 Yu-Chuan Su,  A. J. W. Thom,  A. Tkatchenko,  T. Tsuchimochi,  N. M. Tubman,
 L. Vogt,  M. L. Vidal,  O. Vydrov,  M. A. Watson,  J. Wenzel,
 M. de Wergifosse,  T. A. Wesolowski,  A. White,  J. Witte,  A. Yamada,
 Jun Yang,  K. Yao,  S. Yeganeh,  S. R. Yost,  Zhi-Qiang You,  A. Zech,
 Igor Ying Zhang,  Xing Zhang,  Yan Zhao,  Ying Zhu,  B. R. Brooks,
 G. K. L. Chan,  C. J. Cramer,  M. S. Gordon,  W. J. Hehre,  A. Klamt,
 M. W. Schmidt,  C. D. Sherrill,  D. G. Truhlar,  A. Aspuru-Guzik,  R. Baer,
 A. T. Bell,  N. A. Besley,  Jeng-Da Chai,  A. E. DePrince, III,
 R. A. DiStasio Jr.,  A. Dreuw,  B. D. Dunietz,  T. R. Furlani,
 Chao-Ping Hsu,  Yousung Jung,  Jing Kong,  D. S. Lambrecht,  WanZhen Liang,
 C. Ochsenfeld,  V. A. Rassolov,  L. V. Slipchenko,  J. E. Subotnik,
 T. Van Voorhis,  J. M. Herbert,  A. I. Krylov,  P. M. W. Gill,  M. Head-Gordon

 Contributors to earlier versions of Q-Chem not listed above:
 R. D. Adamson,  B. Austin,  J. Baker,  G. J. O. Beran,  K. Brandhorst,
 S. T. Brown,  E. F. C. Byrd,  A. K. Chakraborty,  C.-L. Cheng,
 Siu Hung Chien,  D. M. Chipman,  D. L. Crittenden,  H. Dachsel,
 R. J. Doerksen,  A. D. Dutoi,  L. Fusti-Molnar,  W. A. Goddard III,
 A. Golubeva-Zadorozhnaya,  S. R. Gwaltney,  G. Hawkins,  A. Heyden,
 S. Hirata,  G. Kedziora,  F. J. Keil,  C. Kelley,  Jihan Kim,  R. A. King,
 R. Z. Khaliullin,  P. P. Korambath,  W. Kurlancheek,  A. M. Lee,  M. S. Lee,
 S. V. Levchenko,  Ching Yeh Lin,  D. Liotard,  R. C. Lochan,  I. Lotan,
 P. E. Maslen,  N. Nair,  D. P. O'Neill,  D. Neuhauser,  E. Neuscamman,
 C. M. Oana,  R. Olson,  B. Peters,  R. Peverati,  P. A. Pieniazek,
 Y. M. Rhee,  J. Ritchie,  M. A. Rohrdanz,  E. Rosta,  N. J. Russ,
 H. F. Schaefer III,  N. E. Schultz,  N. Shenvi,  A. C. Simmonett,  A. Sodt,
 D. Stuck,  K. S. Thanthiriwatte,  V. Vanovschi,  Tao Wang,  A. Warshel,
 C. F. Williams,  Q. Wu,  X. Xu,  W. Zhang

 Please cite Q-Chem as follows:
 Y. Shao et al., Mol. Phys. 113, 184-215 (2015)
 DOI: 10.1080/00268976.2014.952696

 Q-Chem 5.1.1 for Intel X86 EM64T Linux

 Parts of Q-Chem use Armadillo 8.300.2 (Tropical Shenanigans).
 http://arma.sourceforge.net/

 Q-Chem begins on Thu Jul 16 01:38:54 2020

Host: n0079.mhg0
0

     Scratch files written to /local/scratch/users/yhljason/LiH_SCAN0_aug-pc-4.inp20200716013830//
Input Ideriv = 2
Curr. Ideriv = -1
Max.  Ideriv = 2
Input Ideriv = 1
Curr. Ideriv = 2
Max.  Ideriv = 1

Checking the input file for inconsistencies... 	...done.

--------------------------------------------------------------
User input:
--------------------------------------------------------------
$molecule
0 1
Li       0.0000  0.0000  0.0000
H       0.0000  0.0000  1.5949
$end

$rem
jobtype sp
method SCAN0
xc_grid 000099000590
basis aug-pc-4
max_scf_cycles 200
thresh 14
scf_convergence 8
scf_algorithm gdm
symmetry false
sym_ignore true
unrestricted true
gen_scfman true
internal_stability_iter 15
internal_stability_davidson_iter 200
mem_total 64000
mem_static 1500
n_frozen_core 0
$end


--------------------------------------------------------------
 ----------------------------------------------------------------
             Standard Nuclear Orientation (Angstroms)
    I     Atom           X                Y                Z
 ----------------------------------------------------------------
    1      Li      0.0000000000     0.0000000000     0.0000000000
    2      H       0.0000000000     0.0000000000     1.5949000000
 ----------------------------------------------------------------
 Nuclear Repulsion Energy =     0.9953800441 hartrees
 There are        2 alpha and        2 beta electrons
 Requested basis set is aug-pc-4
 There are 47 shells and 171 basis functions

 Total QAlloc Memory Limit  64000 MB
 Mega-Array Size      1467 MB
 MEM_STATIC part      1500 MB

                       Distance Matrix (Angstroms)
             Li(  1)
   H (  2)  1.594900

 A cutoff of  1.0D-14 yielded   1128 shell pairs
 There are     15092 function pairs (     25377 Cartesian)

 -------------------------------------------------------
 OpenMP Integral Computing Module
 Release: version 1.0, May 2013, Q-Chem Inc. Pittsburgh
 -------------------------------------------------------
 Integral Job Info:
 Integral job number is                      11
 Integral operator is                         1
 short-range coefficients                     0
 long-range coefficients              100000000
 Omega coefficients                           0
 if combine SR and LR in K                    0
 Integral screening is                        0
 Integral computing path is                   2
 max size of driver memory is           3200000
 size of driver memory is               1704330
 size of scratch memory is             29509040
 max col of scratch BK array              50625
 max len of scratch array in speh3         2114
 max len of scratch index in speh4           50
 max int batch size is                      520
 min int batch size is                       52
 fixed nKL is                                40
 max L of basis functions is                  4
 order of int derivative is                   0
 number of shells is                         47
 number of basis is                         221
 number of cartesian basis is               221
 number of contracted shell pairs          1128
 number of primitive shell pairs           3008
 maxK2 (contraction) of shell pair          144
 max number of K2 of shell pair               1
 max number of CS2 of shell pair            154
 max number of PS2 of shell pair            432
 mem total for path MDJ                  660646
 -------------------------------------------------------
 Smallest overlap matrix eigenvalue = 1.23E-05

 Scale SEOQF with 1.000000e-01/1.000000e-01/1.000000e-01

 Standard Electronic Orientation quadrupole field applied
 Nucleus-field energy     =    -0.0000000003 hartrees
 Guess from superposition of atomic densities
 Warning:  Energy on first SCF cycle will be non-variational
 SAD guess density has 4.000000 electrons

 -----------------------------------------------------------------------
  General SCF calculation program by
  Eric Jon Sundstrom, Paul Horn, Yuezhi Mao, Dmitri Zuev, Alec White,
  David Stuck, Shaama M.S., Shane Yost, Joonho Lee, David Small,
  Daniel Levine, Susi Lehtola, Hugh Burton, Evgeny Epifanovsky
 -----------------------------------------------------------------------
 Exchange:     0.2500 Hartree-Fock + 0.7500 SCAN
 Correlation:  1.0000 SCAN
 Using Euler-Maclaurin-Lebedev (99,590) quadrature formula
Running Object-Oriented UKS (UHF)
performing a single roothaan step with Fock from read density so that orbitals are available to all algorithms
energy of the guess density (C=0) -7.927913963953
We will preform up to 15 macro iterations over saddle points until a stable solution is found
Energy prior to optimization (guess energy) = -8.047997836154
Begin Timing: Total SCF Calculation
Begin Timing: SCF Single Stationary Point Calculation
begin iterations for algorithm: GDM
the SCF tolerance is set to 1.00e-08
    1      -8.0479978362      7.67e-02     00000  Normal BFGS step
    2      -8.0634803282      4.40e-02     00000  Normal BFGS step
    3      -8.0675705899      2.80e-03     00000  Normal BFGS step
    4      -8.0675993008      4.38e-04     00000  Normal BFGS step
    5      -8.0676001490      1.40e-04     00000  Normal BFGS step
    6      -8.0676001858      3.01e-05     00000  Normal BFGS step
    7      -8.0676001875      2.83e-06     00000  Normal BFGS step
    8      -8.0676001875      4.22e-07     00000  Normal BFGS step
    9      -8.0676001875      4.79e-08     00000  Normal BFGS step
   10      -8.0676001875      7.47e-09     00000 Convergence criterion met
Timing for Single Stationary Point: 75.00s (wall), 597.53s (cpu)
Begin Timing: Stability
===================================================
Beginning Test for Internal Stability
===================================================
generating davidson guess vectors based on koopmans excitations
    1      3.35e-01     00000 Davidson Iteration
    2      8.47e-02     00000 Davidson Iteration
    3      3.74e-02     00000 Davidson Iteration
    4      1.16e-02     00000 Davidson Iteration
    5      1.16e-02     00000 Davidson Iteration
    6      1.18e-02     00000 Davidson Iteration
    7      1.16e-02     00000 Davidson Iteration
    8      1.15e-02     00000 Davidson Iteration
    9      1.10e-02     00000 Davidson Iteration
   10      3.75e-03     00000 Davidson Iteration
   11      1.99e-03     00000 Davidson Iteration
   12      2.52e-04     00000 Davidson Iteration
   13      5.29e-05     00000 Davidson Iteration
   14      8.12e-05     00000 Davidson Converged
converged_eigenvalues
   0.0920
   0.1406
Threshold for negative eigenvalues: -1.0e-05
solution was a local minimum (stable)
===================================================
End Test for Internal Stability
===================================================
Our SCF solution is stable!
Timing for Total SCF: 274.00s (wall), 2173.32s (cpu)
 Total energy in the final basis set =       -8.0676001875
<S^2> =          0.000000000
    ==================================================
              The end of Object-Oriented SCFman
    ==================================================

 --------------------------------------------------------------

                    Orbital Energies (a.u.)
 --------------------------------------------------------------

 Alpha MOs
 -- Occupied --
 -2.060  -0.204
 -- Virtual --
 -0.014   0.011   0.023   0.023   0.026   0.045   0.045   0.071
  0.081   0.095   0.104   0.104   0.109   0.109   0.154   0.158
  0.158   0.168   0.168   0.172   0.179   0.179   0.179   0.181
  0.181   0.189   0.212   0.212   0.247   0.248   0.248   0.252
  0.252   0.264   0.264   0.265   0.265   0.269   0.269   0.300
  0.340   0.356   0.357   0.357   0.416   0.416   0.422   0.427
  0.427   0.458   0.458   0.459   0.459   0.506   0.537   0.537
  0.541   0.541   0.564   0.616   0.616   0.640   0.642   0.642
  0.691   0.691   0.700   0.716   0.716   0.717   0.724   0.724
  0.857   0.858   0.895   0.947   0.975   0.975   1.059   1.059
  1.164   1.189   1.189   1.193   1.194   1.273   1.304   1.304
  1.329   1.329   1.540   1.549   1.549   1.631   1.678   1.678
  1.801   2.043   2.390   2.469   2.469   2.534   2.534   2.587
  2.587   2.806   2.806   2.814   2.814   2.823   2.911   2.911
  3.201   3.201   3.229   3.229   3.247   3.513   3.598   3.598
  3.782   3.782   3.841   3.841   3.955   4.163   4.361   4.362
  4.714   5.067   5.067   5.455   5.455   5.677   5.677   6.153
  8.657   8.657   9.050   9.161   9.161   9.418   9.418   9.564
 10.667  11.068  12.759  12.759  12.961  12.961  13.243  13.336
 13.336  17.365  17.365  17.368  17.368  17.397  17.397  17.416
 17.475  17.475  23.848  23.848  24.245  39.594  92.705  92.705
 92.985

 Beta MOs
 -- Occupied --
 -2.060  -0.204
 -- Virtual --
 -0.014   0.011   0.023   0.023   0.026   0.045   0.045   0.071
  0.081   0.095   0.104   0.104   0.109   0.109   0.154   0.158
  0.158   0.168   0.168   0.172   0.179   0.179   0.179   0.181
  0.181   0.189   0.212   0.212   0.247   0.248   0.248   0.252
  0.252   0.264   0.264   0.265   0.265   0.269   0.269   0.300
  0.340   0.356   0.357   0.357   0.416   0.416   0.422   0.427
  0.427   0.458   0.458   0.459   0.459   0.506   0.537   0.537
  0.541   0.541   0.564   0.616   0.616   0.640   0.642   0.642
  0.691   0.691   0.700   0.716   0.716   0.717   0.724   0.724
  0.857   0.858   0.895   0.947   0.975   0.975   1.059   1.059
  1.164   1.189   1.189   1.193   1.194   1.273   1.304   1.304
  1.329   1.329   1.540   1.549   1.549   1.631   1.678   1.678
  1.801   2.043   2.390   2.469   2.469   2.534   2.534   2.587
  2.587   2.806   2.806   2.814   2.814   2.823   2.911   2.911
  3.201   3.201   3.229   3.229   3.247   3.513   3.598   3.598
  3.782   3.782   3.841   3.841   3.955   4.163   4.361   4.362
  4.714   5.067   5.067   5.455   5.455   5.677   5.677   6.153
  8.657   8.657   9.050   9.161   9.161   9.418   9.418   9.564
 10.667  11.068  12.759  12.759  12.961  12.961  13.243  13.336
 13.336  17.365  17.365  17.368  17.368  17.397  17.397  17.416
 17.475  17.475  23.848  23.848  24.245  39.594  92.705  92.705
 92.985
 --------------------------------------------------------------

          Ground-State Mulliken Net Atomic Charges

     Atom                 Charge (a.u.)    Spin (a.u.)
  --------------------------------------------------------
      1 Li                    0.475537       0.000000
      2 H                    -0.475537      -0.000000
  --------------------------------------------------------
  Sum of atomic charges =     0.000000
  Sum of spin   charges =    -0.000000

 -----------------------------------------------------------------
                    Cartesian Multipole Moments
 -----------------------------------------------------------------
    Charge (ESU x 10^10)
                 0.0000
    Dipole Moment (Debye)
         X       0.0000      Y      -0.0000      Z      -5.8805
       Tot       5.8805
    Quadrupole Moments (Debye-Ang)
        XX      -5.3381     XY       0.0000     YY      -5.3381
        XZ      -0.0000     YZ      -0.0000     ZZ     -11.9179
    Octopole Moments (Debye-Ang^2)
       XXX      -0.0000    XXY      -0.0000    XYY      -0.0000
       YYY      -0.0000    XXZ      -6.3149    XYZ      -0.0000
       YYZ      -6.3149    XZZ      -0.0000    YZZ      -0.0000
       ZZZ     -26.2834
    Hexadecapole Moments (Debye-Ang^3)
      XXXX     -12.3123   XXXY       0.0000   XXYY      -4.1041
      XYYY       0.0000   YYYY     -12.3123   XXXZ       0.0000
      XXYZ      -0.0000   XYYZ      -0.0000   YYYZ      -0.0000
      XXZZ     -12.0540   XYZZ      -0.0000   YYZZ     -12.0540
      XZZZ      -0.0000   YZZZ      -0.0000   ZZZZ     -68.5029
 -----------------------------------------------------------------
Archival summary:
1\1\n0079.mhg0\SP\ProcedureUnspecified\BasisUnspecified\i11\yhljason\ThuJul1601:43:412020ThuJul1601:43:412020\0\\#,ProcedureUnspecified,BasisUnspecified,\\0,1\Li\H,1,1.5949\\\@

 Total job time:  286.49s(wall), 2269.67s(cpu)
 Thu Jul 16 01:43:41 2020

        *************************************************************
        *                                                           *
        *  Thank you very much for using Q-Chem.  Have a nice day.  *
        *                                                           *
        *************************************************************
