Q-Chem Developer Version!
                  Welcome to Q-Chem
     A Quantum Leap Into The Future Of Chemistry


 Q-Chem 5.1, Q-Chem, Inc., Pleasanton, CA (2018)

 Yihan Shao,  Zhengting Gan,  E. Epifanovsky,  A. T. B. Gilbert,  M. Wormit,  
 J. Kussmann,  A. W. Lange,  A. Behn,  Jia Deng,  Xintian Feng,  D. Ghosh,  
 M. Goldey,  P. R. Horn,  L. D. Jacobson,  I. Kaliman,  T. Kus,  A. Landau,  
 Jie Liu,  E. I. Proynov,  R. M. Richard,  R. P. Steele,  E. J. Sundstrom,  
 H. L. Woodcock III,  P. M. Zimmerman,  D. Zuev,  B. Albrecht,  E. Alguire,  
 S. A. Baeppler,  D. Barton,  Z. Benda,  Y. A. Bernard,  E. J. Berquist,  
 K. B. Bravaya,  H. Burton,  D. Casanova,  Chun-Min Chang,  Yunqing Chen,  
 A. Chien,  K. D. Closser,  M. P. Coons,  S. Coriani,  S. Dasgupta,  
 A. L. Dempwolff,  M. Diedenhofen,  Hainam Do,  R. G. Edgar,  Po-Tung Fang,  
 S. Faraji,  S. Fatehi,  Qingguo Feng,  K. D. Fenk,  J. Fosso-Tande,  
 Qinghui Ge,  A. Ghysels,  G. Gidofalvi,  J. Gomes,  J. Gonthier,  A. Gunina,  
 D. Hait,  M. W. D. Hanson-Heine,  P. H. P. Harbach,  A. W. Hauser,  
 J. E. Herr,  E. G. Hohenstein,  Z. C. Holden,  Kerwin Hui,  B. C. Huynh,  
 T.-C. Jagau,  Hyunjun Ji,  B. Kaduk,  K. Khistyaev,  Jaehoon Kim,  
 P. Klunzinger,  K. Koh,  D. Kosenkov,  L. Koulias,  T. Kowalczyk,  
 C. M. Krauter,  A. Kunitsa,  Ka Un Lao,  A. Laurent,  K. V. Lawler,  
 Joonho Lee,  D. Lefrancois,  S. Lehtola,  D. S. Levine,  Yi-Pei Li,  
 You-Sheng Lin,  Fenglai Liu,  E. Livshits,  A. Luenser,  P. Manohar,  
 E. Mansoor,  S. F. Manzer,  Shan-Ping Mao,  Yuezhi Mao,  N. Mardirossian,  
 A. V. Marenich,  T. Markovich,  L. A. Martinez-Martinez,  S. A. Maurer,  
 N. J. Mayhall,  S. C. McKenzie,  J.-M. Mewes,  A. F. Morrison,  
 J. W. Mullinax,  K. Nanda,  T. S. Nguyen-Beck,  R. Olivares-Amaya,  
 J. A. Parkhill,  T. M. Perrine,  F. Plasser,  P. Pokhilko,  S. Prager,  
 A. Prociuk,  E. Ramos,  D. R. Rehn,  F. Rob,  M. Schneider,  N. Sergueev,  
 S. M. Sharada,  S. Sharma,  D. W. Small,  T. Stauch,  T. Stein,  
 Yu-Chuan Su,  A. J. W. Thom,  A. Tkatchenko,  T. Tsuchimochi,  N. M. Tubman,  
 L. Vogt,  M. L. Vidal,  O. Vydrov,  M. A. Watson,  J. Wenzel,  
 M. de Wergifosse,  T. A. Wesolowski,  A. White,  J. Witte,  A. Yamada,  
 Jun Yang,  K. Yao,  S. Yeganeh,  S. R. Yost,  Zhi-Qiang You,  A. Zech,  
 Igor Ying Zhang,  Xing Zhang,  Yan Zhao,  Ying Zhu,  B. R. Brooks,  
 G. K. L. Chan,  C. J. Cramer,  M. S. Gordon,  W. J. Hehre,  A. Klamt,  
 M. W. Schmidt,  C. D. Sherrill,  D. G. Truhlar,  A. Aspuru-Guzik,  R. Baer,  
 A. T. Bell,  N. A. Besley,  Jeng-Da Chai,  A. E. DePrince, III,  
 R. A. DiStasio Jr.,  A. Dreuw,  B. D. Dunietz,  T. R. Furlani,  
 Chao-Ping Hsu,  Yousung Jung,  Jing Kong,  D. S. Lambrecht,  WanZhen Liang,  
 C. Ochsenfeld,  V. A. Rassolov,  L. V. Slipchenko,  J. E. Subotnik,  
 T. Van Voorhis,  J. M. Herbert,  A. I. Krylov,  P. M. W. Gill,  M. Head-Gordon

 Contributors to earlier versions of Q-Chem not listed above: 
 R. D. Adamson,  B. Austin,  J. Baker,  G. J. O. Beran,  K. Brandhorst,  
 S. T. Brown,  E. F. C. Byrd,  A. K. Chakraborty,  C.-L. Cheng,  
 Siu Hung Chien,  D. M. Chipman,  D. L. Crittenden,  H. Dachsel,  
 R. J. Doerksen,  A. D. Dutoi,  L. Fusti-Molnar,  W. A. Goddard III,  
 A. Golubeva-Zadorozhnaya,  S. R. Gwaltney,  G. Hawkins,  A. Heyden,  
 S. Hirata,  G. Kedziora,  F. J. Keil,  C. Kelley,  Jihan Kim,  R. A. King,  
 R. Z. Khaliullin,  P. P. Korambath,  W. Kurlancheek,  A. M. Lee,  M. S. Lee,  
 S. V. Levchenko,  Ching Yeh Lin,  D. Liotard,  R. C. Lochan,  I. Lotan,  
 P. E. Maslen,  N. Nair,  D. P. O'Neill,  D. Neuhauser,  E. Neuscamman,  
 C. M. Oana,  R. Olson,  B. Peters,  R. Peverati,  P. A. Pieniazek,  
 Y. M. Rhee,  J. Ritchie,  M. A. Rohrdanz,  E. Rosta,  N. J. Russ,  
 H. F. Schaefer III,  N. E. Schultz,  N. Shenvi,  A. C. Simmonett,  A. Sodt,  
 D. Stuck,  K. S. Thanthiriwatte,  V. Vanovschi,  Tao Wang,  A. Warshel,  
 C. F. Williams,  Q. Wu,  X. Xu,  W. Zhang

 Please cite Q-Chem as follows:
 Y. Shao et al., Mol. Phys. 113, 184-215 (2015)
 DOI: 10.1080/00268976.2014.952696

 Q-Chem 5.1.1 for Intel X86 EM64T Linux

 Parts of Q-Chem use Armadillo 8.300.2 (Tropical Shenanigans).
 http://arma.sourceforge.net/

 Q-Chem begins on Thu Jul 16 01:38:54 2020  

Host: n0090.mhg0
0

     Scratch files written to /local/scratch/users/yhljason/NH3O_SCAN_aug-pc-4.inp20200716013836//
Input Ideriv = 2
Curr. Ideriv = -1
Max.  Ideriv = 2
Input Ideriv = 1
Curr. Ideriv = 2
Max.  Ideriv = 1

Checking the input file for inconsistencies... 	...done.

--------------------------------------------------------------
User input:
--------------------------------------------------------------
$molecule
0 1
N        0.0000000000      0.0000000000     -0.5344777797
H       -0.9458001927      0.0000000000     -0.9350779673
H        0.4729000069     -0.8190998435     -0.9350776619
H        0.4729000069      0.8190998435     -0.9350776619
O        0.0000000000      0.0000000000      0.8183222203
$end

$rem
jobtype sp
method SCAN
xc_grid 000099000590
basis aug-pc-4
max_scf_cycles 200
thresh 14
scf_convergence 8
scf_algorithm gdm
symmetry false
sym_ignore true
unrestricted true
gen_scfman true
internal_stability_iter 15
internal_stability_davidson_iter 200
mem_total 64000
mem_static 1500
n_frozen_core 0
$end


--------------------------------------------------------------
 ----------------------------------------------------------------
             Standard Nuclear Orientation (Angstroms)
    I     Atom           X                Y                Z
 ----------------------------------------------------------------
    1      N       0.0000000000     0.0000000000    -0.5344777797
    2      H      -0.9458001927     0.0000000000    -0.9350779673
    3      H       0.4729000069    -0.8190998435    -0.9350776619
    4      H       0.4729000069     0.8190998435    -0.9350776619
    5      O       0.0000000000     0.0000000000     0.8183222203
 ----------------------------------------------------------------
 Nuclear Repulsion Energy =    40.0686164025 hartrees
 There are        9 alpha and        9 beta electrons
 Requested basis set is aug-pc-4
 There are 138 shells and 554 basis functions

 Total QAlloc Memory Limit  64000 MB
 Mega-Array Size      1467 MB
 MEM_STATIC part      1500 MB

                       Distance Matrix (Angstroms)
             N (  1)   H (  2)   H (  3)   H (  4)
   H (  2)  1.027141
   H (  3)  1.027151  1.638180
   H (  4)  1.027151  1.638180  1.638200
   O (  5)  1.352800  1.992222  1.992227  1.992227
 
 A cutoff of  1.0D-14 yielded   9484 shell pairs
 There are    154520 function pairs (    279090 Cartesian)
 
 -------------------------------------------------------
 OpenMP Integral Computing Module                       
 Release: version 1.0, May 2013, Q-Chem Inc. Pittsburgh 
 -------------------------------------------------------
 Integral Job Info:
 Integral job number is                      11
 Integral operator is                         1
 short-range coefficients                     0
 long-range coefficients              100000000
 Omega coefficients                           0
 if combine SR and LR in K                    0
 Integral screening is                        0
 Integral computing path is                   2
 max size of driver memory is           6400000
 size of driver memory is               5498286
 size of scratch memory is             29792225
 max col of scratch BK array             194481
 max len of scratch array in speh3         5572
 max len of scratch index in speh4           72
 max int batch size is                      520
 min int batch size is                       52
 fixed nKL is                                25
 max L of basis functions is                  5
 order of int derivative is                   0
 number of shells is                        138
 number of basis is                         743
 number of cartesian basis is               743
 number of contracted shell pairs          9484
 number of primitive shell pairs          17065
 maxK2 (contraction) of shell pair          121
 max number of K2 of shell pair               1
 max number of CS2 of shell pair           1227
 max number of PS2 of shell pair           1227
 mem total for path MDJ                 1295920
 -------------------------------------------------------
 Smallest overlap matrix eigenvalue = 1.54E-07
 Linear dependence detected in AO basis
 Number of orthogonalized atomic orbitals = 552
 Maximum deviation from orthogonality = 3.930E-10

 Scale SEOQF with 1.000000e-01/1.000000e-01/1.000000e-01

 Standard Electronic Orientation quadrupole field applied
 Nucleus-field energy     =    -0.0000000009 hartrees
 Guess from superposition of atomic densities
 Warning:  Energy on first SCF cycle will be non-variational
 SAD guess density has 18.000000 electrons

 -----------------------------------------------------------------------
  General SCF calculation program by
  Eric Jon Sundstrom, Paul Horn, Yuezhi Mao, Dmitri Zuev, Alec White,
  David Stuck, Shaama M.S., Shane Yost, Joonho Lee, David Small,
  Daniel Levine, Susi Lehtola, Hugh Burton, Evgeny Epifanovsky
 -----------------------------------------------------------------------
 Exchange:  SCAN      Correlation:  SCAN
 Using Euler-Maclaurin-Lebedev (99,590) quadrature formula
Running Object-Oriented UKS (UHF)
performing a single roothaan step with Fock from read density so that orbitals are available to all algorithms
energy of the guess density (C=0) -131.906199043153
We will preform up to 15 macro iterations over saddle points until a stable solution is found
Energy prior to optimization (guess energy) = -131.571801125165
Begin Timing: Total SCF Calculation
Begin Timing: SCF Single Stationary Point Calculation
begin iterations for algorithm: GDM          
the SCF tolerance is set to 1.00e-08
    1    -131.5718011252      2.05e-01     00000  Descent step
    2    -131.6092216411      1.90e-01     00000  Descent step
    3    -131.6597022401      6.92e-02     00000  Normal BFGS step
    4    -131.6880163453      3.54e-02     00000  Normal BFGS step
    5    -131.6963015834      1.05e-02     00000  Normal BFGS step
    6    -131.6964480683      8.69e-03     00000  Normal BFGS step
    7    -131.6971694795      9.15e-04     00000  Normal BFGS step
    8    -131.6971747248      2.44e-04     00000  Normal BFGS step
    9    -131.6971758095      4.24e-05     00000  Normal BFGS step
   10    -131.6971758263      1.59e-05     00000  Normal BFGS step
   11    -131.6971758283      1.23e-06     00000  Normal BFGS step
   12    -131.6971758283      1.66e-07     00000  Normal BFGS step
   13    -131.6971758283      4.64e-08     00000  Normal BFGS step
   14    -131.6971758283      4.35e-08     00000  Normal BFGS step
   15    -131.6971758283      4.24e-09     00000 Convergence criterion met
Timing for Single Stationary Point: 1467.00s (wall), 11715.57s (cpu)
Begin Timing: Stability
===================================================
Beginning Test for Internal Stability
===================================================
generating davidson guess vectors based on koopmans excitations
    1      4.83e-01     00000 Davidson Iteration
    2      6.81e-02     00000 Davidson Iteration
    3      1.76e-02     00000 Davidson Iteration
    4      2.75e-03     00000 Davidson Iteration
    5      7.72e-03     00000 Davidson Iteration
    6      2.39e-03     00000 Davidson Iteration
    7      1.29e-03     00000 Davidson Iteration
    8      3.91e-04     00000 Davidson Iteration
    9      1.08e-04     00000 Davidson Iteration
   10      2.67e-05     00000 Davidson Iteration
   11      1.36e-04     00000 Davidson Iteration
   12      2.24e-05     00000 Davidson Converged
converged_eigenvalues
   0.2546
   0.2841
Threshold for negative eigenvalues: -1.0e-05
solution was a local minimum (stable)
===================================================
End Test for Internal Stability
===================================================
Our SCF solution is stable!
Timing for Total SCF: 16882.00s (wall), 134864.12s (cpu)
 Total energy in the final basis set =     -131.6971758283
<S^2> =         -0.000000000
    ==================================================
              The end of Object-Oriented SCFman       
    ==================================================
 
 --------------------------------------------------------------
 
                    Orbital Energies (a.u.)
 --------------------------------------------------------------
 
 Alpha MOs
 -- Occupied --
-18.873 -14.301  -1.017  -0.774  -0.536  -0.536  -0.397  -0.181
 -0.180
 -- Virtual --
 -0.032   0.014   0.014   0.025   0.032   0.049   0.049   0.061
  0.061   0.063   0.066   0.066   0.077   0.114   0.114   0.116
  0.127   0.129   0.129   0.138   0.138   0.138   0.152   0.166
  0.167   0.167   0.175   0.175   0.180   0.204   0.204   0.226
  0.226   0.228   0.240   0.240   0.242   0.255   0.255   0.257
  0.266   0.277   0.277   0.288   0.288   0.293   0.304   0.316
  0.316   0.323   0.323   0.327   0.341   0.351   0.351   0.353
  0.372   0.372   0.380   0.380   0.384   0.397   0.397   0.400
  0.416   0.416   0.448   0.475   0.476   0.476   0.476   0.485
  0.485   0.494   0.499   0.499   0.501   0.502   0.502   0.507
  0.511   0.511   0.517   0.523   0.530   0.530   0.552   0.554
  0.563   0.563   0.604   0.616   0.616   0.627   0.627   0.627
  0.636   0.636   0.649   0.649   0.681   0.695   0.695   0.710
  0.710   0.718   0.728   0.748   0.748   0.762   0.774   0.774
  0.778   0.786   0.786   0.792   0.797   0.797   0.804   0.812
  0.812   0.817   0.817   0.817   0.831   0.845   0.870   0.870
  0.886   0.886   0.898   0.899   0.899   0.909   0.909   0.909
  0.916   0.918   0.919   0.919   0.936   0.937   0.937   0.961
  0.961   0.974   1.013   1.014   1.022   1.024   1.024   1.024
  1.062   1.076   1.087   1.087   1.108   1.108   1.123   1.143
  1.143   1.155   1.155   1.159   1.182   1.182   1.188   1.195
  1.195   1.233   1.233   1.244   1.244   1.245   1.316   1.373
  1.373   1.374   1.411   1.412   1.412   1.414   1.421   1.425
  1.425   1.449   1.449   1.490   1.490   1.539   1.539   1.579
  1.631   1.631   1.633   1.680   1.705   1.705   1.735   1.782
  1.784   1.784   1.836   1.836   1.868   1.895   1.895   1.933
  1.940   1.940   2.007   2.009   2.009   2.047   2.047   2.126
  2.183   2.189   2.189   2.251   2.262   2.262   2.357   2.417
  2.417   2.439   2.466   2.535   2.535   2.589   2.678   2.678
  2.697   2.697   2.782   2.841   2.841   2.882   2.924   2.976
  3.033   3.033   3.100   3.100   3.237   3.325   3.325   3.371
  3.390   3.390   3.441   3.441   3.624   3.654   3.658   3.658
  3.676   3.750   3.750   3.819   3.901   3.901   3.944   3.944
  3.958   4.017   4.017   4.133   4.173   4.222   4.222   4.290
  4.404   4.404   4.436   4.481   4.518   4.518   4.657   4.657
  4.658   4.710   4.710   4.803   4.803   4.868   4.868   4.886
  4.955   4.955   4.972   5.067   5.067   5.109   5.209   5.223
  5.223   5.413   5.483   5.483   5.641   5.673   5.679   5.679
  5.682   5.724   5.724   5.900   5.900   5.900   5.905   6.005
  6.005   6.029   6.339   6.339   6.355   6.462   6.468   6.468
  6.558   6.643   6.643   6.749   6.824   6.824   6.853   7.068
  7.068   7.156   7.295   7.295   7.306   7.444   7.444   7.588
  7.790   7.790   7.831   7.910   7.910   7.972   8.309   8.309
  8.468   8.468   8.469   8.870   8.870   8.963   9.099   9.217
  9.217   9.414   9.505   9.505   9.641   9.663   9.663   9.705
  9.791   9.791   9.876   9.944   9.944  10.064  10.086  10.086
 10.289  10.289  10.387  10.387  10.560  10.581  10.582  10.645
 10.761  10.761  10.798  11.262  11.736  11.756  11.757  11.779
 11.779  11.992  11.993  12.006  12.089  12.343  12.452  12.453
 12.608  12.608  12.693  12.693  12.693  12.739  12.739  12.870
 12.936  13.023  13.106  13.106  13.107  13.180  13.180  13.260
 13.260  13.292  13.328  13.357  13.357  13.372  13.467  13.467
 13.478  13.548  13.548  13.557  13.680  13.681  13.688  14.011
 14.011  14.276  14.277  14.474  14.651  14.687  14.813  14.813
 15.001  15.088  15.088  15.753  15.902  15.902  16.268  16.293
 16.293  16.393  16.590  16.590  16.640  16.640  16.777  17.296
 17.325  17.325  17.470  17.510  17.510  17.604  17.604  17.608
 17.610  17.718  17.718  17.768  17.822  17.822  18.089  18.089
 18.159  18.233  18.250  18.250  18.502  18.502  18.534  18.677
 18.684  18.684  18.883  18.883  18.979  18.979  19.182  19.763
 19.763  20.021  20.176  20.176  20.437  20.437  20.581  20.683
 21.587  21.655  21.655  21.727  22.053  22.160  22.160  22.847
 22.847  23.882  23.882  24.309  24.453  24.453  24.607  24.607
 24.763  24.840  24.840  25.043  26.451  26.451  26.816  27.675
 29.179  29.405  29.405  31.125  32.670  32.670  35.037  42.629
 42.873  42.873  49.041  49.041  49.548  49.933  49.933  67.652
 67.652  67.947  67.947  69.477  93.459  93.583  93.583  93.804
 93.827  93.827  95.354  95.354  95.535 107.844 144.823
 
 Beta MOs
 -- Occupied --
-18.873 -14.301  -1.017  -0.774  -0.536  -0.536  -0.397  -0.181
 -0.180
 -- Virtual --
 -0.032   0.014   0.014   0.025   0.032   0.049   0.049   0.061
  0.061   0.063   0.066   0.066   0.077   0.114   0.114   0.116
  0.127   0.129   0.129   0.138   0.138   0.138   0.152   0.166
  0.167   0.167   0.175   0.175   0.180   0.204   0.204   0.226
  0.226   0.228   0.240   0.240   0.242   0.255   0.255   0.257
  0.266   0.277   0.277   0.288   0.288   0.293   0.304   0.316
  0.316   0.323   0.323   0.327   0.341   0.351   0.351   0.353
  0.372   0.372   0.380   0.380   0.384   0.397   0.397   0.400
  0.416   0.416   0.448   0.475   0.476   0.476   0.476   0.485
  0.485   0.494   0.499   0.499   0.501   0.502   0.502   0.507
  0.511   0.511   0.517   0.523   0.530   0.530   0.552   0.554
  0.563   0.563   0.604   0.616   0.616   0.627   0.627   0.627
  0.636   0.636   0.649   0.649   0.681   0.695   0.695   0.710
  0.710   0.718   0.728   0.748   0.748   0.762   0.774   0.774
  0.778   0.786   0.786   0.792   0.797   0.797   0.804   0.812
  0.812   0.817   0.817   0.817   0.831   0.845   0.870   0.870
  0.886   0.886   0.898   0.899   0.899   0.909   0.909   0.909
  0.916   0.918   0.919   0.919   0.936   0.937   0.937   0.961
  0.961   0.974   1.013   1.014   1.022   1.024   1.024   1.024
  1.062   1.076   1.087   1.087   1.108   1.108   1.123   1.143
  1.143   1.155   1.155   1.159   1.182   1.182   1.188   1.195
  1.195   1.233   1.233   1.244   1.244   1.245   1.316   1.373
  1.373   1.374   1.411   1.412   1.412   1.414   1.421   1.425
  1.425   1.449   1.449   1.490   1.490   1.539   1.539   1.579
  1.631   1.631   1.633   1.680   1.705   1.705   1.735   1.782
  1.784   1.784   1.836   1.836   1.868   1.895   1.895   1.933
  1.940   1.940   2.007   2.009   2.009   2.047   2.047   2.126
  2.183   2.189   2.189   2.251   2.262   2.262   2.357   2.417
  2.417   2.439   2.466   2.535   2.535   2.589   2.678   2.678
  2.697   2.697   2.782   2.841   2.841   2.882   2.924   2.976
  3.033   3.033   3.100   3.100   3.237   3.325   3.325   3.371
  3.390   3.390   3.441   3.441   3.624   3.654   3.658   3.658
  3.676   3.750   3.750   3.819   3.901   3.901   3.944   3.944
  3.958   4.017   4.017   4.133   4.173   4.222   4.222   4.290
  4.404   4.404   4.436   4.481   4.518   4.518   4.657   4.657
  4.658   4.710   4.710   4.803   4.803   4.868   4.868   4.886
  4.955   4.955   4.972   5.067   5.067   5.109   5.209   5.223
  5.223   5.413   5.483   5.483   5.641   5.673   5.679   5.679
  5.682   5.724   5.724   5.900   5.900   5.900   5.905   6.005
  6.005   6.029   6.339   6.339   6.355   6.462   6.468   6.468
  6.558   6.643   6.643   6.749   6.824   6.824   6.853   7.068
  7.068   7.156   7.295   7.295   7.306   7.444   7.444   7.588
  7.790   7.790   7.831   7.910   7.910   7.972   8.309   8.309
  8.468   8.468   8.469   8.870   8.870   8.963   9.099   9.217
  9.217   9.414   9.505   9.505   9.641   9.663   9.663   9.705
  9.791   9.791   9.876   9.944   9.944  10.064  10.086  10.086
 10.289  10.289  10.387  10.387  10.560  10.581  10.582  10.645
 10.761  10.761  10.798  11.262  11.736  11.756  11.757  11.779
 11.779  11.992  11.993  12.006  12.089  12.343  12.452  12.453
 12.608  12.608  12.693  12.693  12.693  12.739  12.739  12.870
 12.936  13.023  13.106  13.106  13.107  13.180  13.180  13.260
 13.260  13.292  13.328  13.357  13.357  13.372  13.467  13.467
 13.478  13.548  13.548  13.557  13.680  13.681  13.688  14.011
 14.011  14.276  14.277  14.474  14.651  14.687  14.813  14.813
 15.001  15.088  15.088  15.753  15.902  15.902  16.268  16.293
 16.293  16.393  16.590  16.590  16.640  16.640  16.777  17.296
 17.325  17.325  17.470  17.510  17.510  17.604  17.604  17.608
 17.610  17.718  17.718  17.768  17.822  17.822  18.089  18.089
 18.159  18.233  18.250  18.250  18.502  18.502  18.534  18.677
 18.684  18.684  18.883  18.883  18.979  18.979  19.182  19.763
 19.763  20.021  20.176  20.176  20.437  20.437  20.581  20.683
 21.587  21.655  21.655  21.727  22.053  22.160  22.160  22.847
 22.847  23.882  23.882  24.309  24.453  24.453  24.607  24.607
 24.763  24.840  24.840  25.043  26.451  26.451  26.816  27.675
 29.179  29.405  29.405  31.125  32.670  32.670  35.037  42.629
 42.873  42.873  49.041  49.041  49.548  49.933  49.933  67.652
 67.652  67.947  67.947  69.477  93.459  93.583  93.583  93.804
 93.827  93.827  95.354  95.354  95.535 107.844 144.823
 --------------------------------------------------------------
 
          Ground-State Mulliken Net Atomic Charges

     Atom                 Charge (a.u.)    Spin (a.u.)
  --------------------------------------------------------
      1 N                     0.249471      -0.000000
      2 H                     0.121266      -0.000000
      3 H                     0.120479       0.000000
      4 H                     0.120479       0.000000
      5 O                    -0.611696       0.000000
  --------------------------------------------------------
  Sum of atomic charges =    -0.000000
  Sum of spin   charges =     0.000000

 -----------------------------------------------------------------
                    Cartesian Multipole Moments
 -----------------------------------------------------------------
    Charge (ESU x 10^10)
                -0.0000
    Dipole Moment (Debye)
         X      -0.0000      Y      -0.0000      Z      -5.1799
       Tot       5.1799
    Quadrupole Moments (Debye-Ang)
        XX     -11.7802     XY      -0.0000     YY     -11.7801
        XZ      -0.0000     YZ       0.0000     ZZ     -13.2084
    Octopole Moments (Debye-Ang^2)
       XXX      -1.0789    XXY      -0.0000    XYY       1.0788
       YYY       0.0000    XXZ      -2.9679    XYZ       0.0000
       YYZ      -2.9680    XZZ      -0.0002    YZZ      -0.0000
       ZZZ      -4.4300
    Hexadecapole Moments (Debye-Ang^3)
      XXXX     -15.5455   XXXY       0.0000   XXYY      -5.1819
      XYYY       0.0000   YYYY     -15.5458   XXXZ       0.8256
      XXYZ      -0.0000   XYYZ      -0.8255   YYYZ      -0.0000
      XXZZ     -11.7336   XYZZ      -0.0000   YYZZ     -11.7337
      XZZZ      -0.0001   YZZZ       0.0000   ZZZZ     -53.9413
 -----------------------------------------------------------------
Archival summary:
1\1\n0090.mhg0\SP\ProcedureUnspecified\BasisUnspecified\113\yhljason\ThuJul1606:22:522020ThuJul1606:22:522020\0\\#,ProcedureUnspecified,BasisUnspecified,\\0,1\N\H,1,1.02714\H,1,1.02715,2,105.773\H,1,1.02715,2,105.773,3,-111.921,0\O,1,1.3528,2,112.955,3,124.04,0\\\@

 Total job time:  17037.84s(wall), 136039.22s(cpu) 
 Thu Jul 16 06:22:52 2020

        *************************************************************
        *                                                           *
        *  Thank you very much for using Q-Chem.  Have a nice day.  *
        *                                                           *
        *************************************************************


