Jobname.Temp
SP        R                             aug-pc-4            
Number of atoms                            I                2
Charge                                     I                0
Multiplicity                               I                1
Number of electrons                        I                4
Number of alpha electrons                  I                2
Number of beta electrons                   I                2
Atomic numbers                             I   N=           2
           2           2
Current cartesian coordinates              R   N=           6
  1.54185873E+00 -2.51988629E+00 -4.96566943E+00  4.73176688E+00 -2.51988629E+00
 -8.07912229E+00
Nuclear charges                            R   N=           2
  2.00000000E+00  2.00000000E+00
Number of basis functions                  I              176
Number of contracted shells                I               48
Number of primitive shells                 I               56
Highest angular momentum                   I                4
Largest degree of contraction              I                5
Shell types                                I   N=          48
           0           0           0           0           0           0
           0           0           1           1           1           1
           1           1           1          -2          -2          -2
          -2          -3          -3          -3          -4          -4
           0           0           0           0           0           0
           0           0           1           1           1           1
           1           1           1          -2          -2          -2
          -2          -3          -3          -3          -4          -4
Number of primitives per shell             I   N=          48
           5           1           1           1           1           1
           1           1           1           1           1           1
           1           1           1           1           1           1
           1           1           1           1           1           1
           5           1           1           1           1           1
           1           1           1           1           1           1
           1           1           1           1           1           1
           1           1           1           1           1           1
Shell to atom map                          I   N=          48
           1           1           1           1           1           1
           1           1           1           1           1           1
           1           1           1           1           1           1
           1           1           1           1           1           1
           2           2           2           2           2           2
           2           2           2           2           2           2
           2           2           2           2           2           2
           2           2           2           2           2           2
Primitive exponents                        R   N=          56
  8.78020000E+03  1.31560000E+03  2.99460000E+02  8.48330000E+01  2.76910000E+01
  1.00080000E+01  3.89240000E+00  1.58190000E+00  6.56980000E-01  2.64590000E-01
  1.05850000E-01  3.92000000E-02  4.05000000E+01  8.90000000E+00  2.85000000E+00
  1.30000000E+00  6.00000000E-01  2.00000000E-01  1.17600000E-01  3.70000000E+00
  1.20000000E+00  5.00000000E-01  1.56800000E-01  4.10000000E+00  1.50000000E+00
  1.96000000E-01  4.65000000E+00  2.35200000E-01  8.78020000E+03  1.31560000E+03
  2.99460000E+02  8.48330000E+01  2.76910000E+01  1.00080000E+01  3.89240000E+00
  1.58190000E+00  6.56980000E-01  2.64590000E-01  1.05850000E-01  3.92000000E-02
  4.05000000E+01  8.90000000E+00  2.85000000E+00  1.30000000E+00  6.00000000E-01
  2.00000000E-01  1.17600000E-01  3.70000000E+00  1.20000000E+00  5.00000000E-01
  1.56800000E-01  4.10000000E+00  1.50000000E+00  1.96000000E-01  4.65000000E+00
  2.35200000E-01
Contraction coefficients                   R   N=          56
  1.29016314E-03  1.00255108E-02  5.26297525E-02  2.20737200E-01  7.84224575E-01
  1.00000000E+00  1.00000000E+00  1.00000000E+00  1.00000000E+00  1.00000000E+00
  1.00000000E+00  1.00000000E+00  1.00000000E+00  1.00000000E+00  1.00000000E+00
  1.00000000E+00  1.00000000E+00  1.00000000E+00  1.00000000E+00  1.00000000E+00
  1.00000000E+00  1.00000000E+00  1.00000000E+00  1.00000000E+00  1.00000000E+00
  1.00000000E+00  1.00000000E+00  1.00000000E+00  1.29016314E-03  1.00255108E-02
  5.26297525E-02  2.20737200E-01  7.84224575E-01  1.00000000E+00  1.00000000E+00
  1.00000000E+00  1.00000000E+00  1.00000000E+00  1.00000000E+00  1.00000000E+00
  1.00000000E+00  1.00000000E+00  1.00000000E+00  1.00000000E+00  1.00000000E+00
  1.00000000E+00  1.00000000E+00  1.00000000E+00  1.00000000E+00  1.00000000E+00
  1.00000000E+00  1.00000000E+00  1.00000000E+00  1.00000000E+00  1.00000000E+00
  1.00000000E+00
Coordinates of each shell                  R   N=         144
  1.54185873E+00 -2.51988629E+00 -4.96566943E+00  1.54185873E+00 -2.51988629E+00
 -4.96566943E+00  1.54185873E+00 -2.51988629E+00 -4.96566943E+00  1.54185873E+00
 -2.51988629E+00 -4.96566943E+00  1.54185873E+00 -2.51988629E+00 -4.96566943E+00
  1.54185873E+00 -2.51988629E+00 -4.96566943E+00  1.54185873E+00 -2.51988629E+00
 -4.96566943E+00  1.54185873E+00 -2.51988629E+00 -4.96566943E+00  1.54185873E+00
 -2.51988629E+00 -4.96566943E+00  1.54185873E+00 -2.51988629E+00 -4.96566943E+00
  1.54185873E+00 -2.51988629E+00 -4.96566943E+00  1.54185873E+00 -2.51988629E+00
 -4.96566943E+00  1.54185873E+00 -2.51988629E+00 -4.96566943E+00  1.54185873E+00
 -2.51988629E+00 -4.96566943E+00  1.54185873E+00 -2.51988629E+00 -4.96566943E+00
  1.54185873E+00 -2.51988629E+00 -4.96566943E+00  1.54185873E+00 -2.51988629E+00
 -4.96566943E+00  1.54185873E+00 -2.51988629E+00 -4.96566943E+00  1.54185873E+00
 -2.51988629E+00 -4.96566943E+00  1.54185873E+00 -2.51988629E+00 -4.96566943E+00
  1.54185873E+00 -2.51988629E+00 -4.96566943E+00  1.54185873E+00 -2.51988629E+00
 -4.96566943E+00  1.54185873E+00 -2.51988629E+00 -4.96566943E+00  1.54185873E+00
 -2.51988629E+00 -4.96566943E+00  4.73176688E+00 -2.51988629E+00 -8.07912229E+00
  4.73176688E+00 -2.51988629E+00 -8.07912229E+00  4.73176688E+00 -2.51988629E+00
 -8.07912229E+00  4.73176688E+00 -2.51988629E+00 -8.07912229E+00  4.73176688E+00
 -2.51988629E+00 -8.07912229E+00  4.73176688E+00 -2.51988629E+00 -8.07912229E+00
  4.73176688E+00 -2.51988629E+00 -8.07912229E+00  4.73176688E+00 -2.51988629E+00
 -8.07912229E+00  4.73176688E+00 -2.51988629E+00 -8.07912229E+00  4.73176688E+00
 -2.51988629E+00 -8.07912229E+00  4.73176688E+00 -2.51988629E+00 -8.07912229E+00
  4.73176688E+00 -2.51988629E+00 -8.07912229E+00  4.73176688E+00 -2.51988629E+00
 -8.07912229E+00  4.73176688E+00 -2.51988629E+00 -8.07912229E+00  4.73176688E+00
 -2.51988629E+00 -8.07912229E+00  4.73176688E+00 -2.51988629E+00 -8.07912229E+00
  4.73176688E+00 -2.51988629E+00 -8.07912229E+00  4.73176688E+00 -2.51988629E+00
 -8.07912229E+00  4.73176688E+00 -2.51988629E+00 -8.07912229E+00  4.73176688E+00
 -2.51988629E+00 -8.07912229E+00  4.73176688E+00 -2.51988629E+00 -8.07912229E+00
  4.73176688E+00 -2.51988629E+00 -8.07912229E+00  4.73176688E+00 -2.51988629E+00
 -8.07912229E+00  4.73176688E+00 -2.51988629E+00 -8.07912229E+00
Overlap Matrix                             R   N=       15576
  1.00000000E+00  7.69025572E-01  1.00000000E+00  4.81893814E-01  8.50996193E-01
  1.00000000E+00  2.72191516E-01  5.68944892E-01  8.63176226E-01  1.00000000E+00
  1.47168564E-01  3.33449069E-01  5.89445806E-01  8.69054774E-01  1.00000000E+00
  7.58420532E-02  1.78326384E-01  3.41169101E-01  5.86595724E-01  8.60689851E-01
  1.00000000E+00  3.84505711E-02  9.18224445E-02  1.81937122E-01  3.37664368E-01
  5.74891127E-01  8.58848174E-01  1.00000000E+00  1.83140681E-02  4.40253123E-02
  8.85765278E-02  1.70286063E-01  3.13033878E-01  5.49008922E-01  8.37049403E-01
  1.00000000E+00 -7.75671269E-17  2.01165828E-15  0.00000000E+00  1.32618847E-15
  3.54676861E-16  1.81902826E-16  9.20384363E-17  4.38011772E-17  1.00000000E+00
 -3.62562054E-19  0.00000000E+00  0.00000000E+00  0.00000000E+00  0.00000000E+00
  0.00000000E+00  0.00000000E+00  0.00000000E+00  0.00000000E+00  1.00000000E+00
  0.00000000E+00  0.00000000E+00  0.00000000E+00 -2.65237695E-15  0.00000000E+00
  0.00000000E+00  0.00000000E+00  1.75204709E-16  0.00000000E+00  0.00000000E+00
  1.00000000E+00 -8.26697890E-16 -1.32143196E-15 -1.16946647E-15  0.00000000E+00
  0.00000000E+00  0.00000000E+00  0.00000000E+00  6.36457329E-17  5.17981089E-01
  0.00000000E+00  0.00000000E+00  1.00000000E+00  1.75450327E-18  0.00000000E+00
  0.00000000E+00 -1.60511802E-15  0.00000000E+00  0.00000000E+00  0.00000000E+00
  0.00000000E+00  0.00000000E+00  5.17981089E-01  0.00000000E+00  0.00000000E+00
  1.00000000E+00  0.00000000E+00  0.00000000E+00  4.67786588E-15  0.00000000E+00
  0.00000000E+00  0.00000000E+00  5.30327072E-16  0.00000000E+00  0.00000000E+00
  0.00000000E+00  5.17981089E-01  0.00000000E+00  0.00000000E+00  1.00000000E+00
 -2.60886644E-16  0.00000000E+00  0.00000000E+00 -7.03186672E-16 -5.16815425E-16
  0.00000000E+00 -1.69850117E-16 -8.34390653E-17  1.72972510E-01  0.00000000E+00
  0.00000000E+00  6.80415042E-01  0.00000000E+00  0.00000000E+00  1.00000000E+00
  5.21760062E-16  1.13527644E-15  1.47245697E-15  0.00000000E+00  0.00000000E+00
  0.00000000E+00 -3.39700233E-16  0.00000000E+00  0.00000000E+00  1.72972510E-01
  0.00000000E+00  0.00000000E+00  6.80415042E-01  0.00000000E+00  0.00000000E+00
  1.00000000E+00 -1.39816147E-16  0.00000000E+00  0.00000000E+00  0.00000000E+00
  2.06726170E-15  0.00000000E+00  0.00000000E+00  3.33756261E-16  0.00000000E+00
  0.00000000E+00  1.72972510E-01  0.00000000E+00  0.00000000E+00  6.80415042E-01
  0.00000000E+00  0.00000000E+00  1.00000000E+00 -1.26400457E-18  0.00000000E+00
  0.00000000E+00  5.02701654E-16 -4.64760206E-16  0.00000000E+00  0.00000000E+00
  0.00000000E+00  7.10202594E-02  0.00000000E+00  0.00000000E+00  3.63279807E-01
  0.00000000E+00 -1.46154391E-30  8.28781432E-01 -1.35662104E-30 -2.71324207E-30
  1.00000000E+00  0.00000000E+00  0.00000000E+00  0.00000000E+00  0.00000000E+00
  9.29520412E-16  0.00000000E+00  0.00000000E+00  0.00000000E+00  0.00000000E+00
  7.10202594E-02  0.00000000E+00  0.00000000E+00  3.63279807E-01  0.00000000E+00
 -1.35662104E-30  8.28781432E-01  2.71324207E-30  0.00000000E+00  1.00000000E+00
 -9.91800390E-21  0.00000000E+00  0.00000000E+00  0.00000000E+00  0.00000000E+00
  0.00000000E+00  0.00000000E+00  0.00000000E+00  0.00000000E+00  0.00000000E+00
  7.10202594E-02 -1.46154391E-30  0.00000000E+00  3.63279807E-01 -2.71324207E-30
  2.71324207E-30  8.28781432E-01  0.00000000E+00  0.00000000E+00  1.00000000E+00
 -3.70294903E-17  0.00000000E+00  0.00000000E+00 -2.90292813E-16  0.00000000E+00
  0.00000000E+00  2.07564843E-16  0.00000000E+00  2.81824196E-02  0.00000000E+00
  0.00000000E+00  1.65079273E-01  0.00000000E+00  0.00000000E+00  5.00348255E-01
  0.00000000E+00  0.00000000E+00  8.33315078E-01  0.00000000E+00 -6.24501203E-31
  1.00000000E+00  8.34576344E-17  0.00000000E+00  3.86082168E-16  5.80585626E-16
  0.00000000E+00  0.00000000E+00 -4.15129686E-16 -2.28688157E-16  0.00000000E+00
  2.81824196E-02  0.00000000E+00  0.00000000E+00  1.65079273E-01  0.00000000E+00
  0.00000000E+00  5.00348255E-01  0.00000000E+00  0.00000000E+00  8.33315078E-01
  0.00000000E+00  0.00000000E+00  1.00000000E+00  1.93768919E-18  0.00000000E+00
  0.00000000E+00  0.00000000E+00  0.00000000E+00  0.00000000E+00  0.00000000E+00
  0.00000000E+00  0.00000000E+00  0.00000000E+00  2.81824196E-02  0.00000000E+00
  0.00000000E+00  1.65079273E-01  0.00000000E+00  0.00000000E+00  5.00348255E-01
 -6.24501203E-31  0.00000000E+00  8.33315078E-01  0.00000000E+00  0.00000000E+00
  1.00000000E+00 -9.47521993E-18  0.00000000E+00  5.62339633E-17  0.00000000E+00
 -3.09058567E-16  0.00000000E+00  0.00000000E+00 -1.26510187E-16  7.31467845E-03
  0.00000000E+00  0.00000000E+00  4.65582353E-02  0.00000000E+00  0.00000000E+00
  1.72452288E-01  0.00000000E+00  0.00000000E+00  3.81121568E-01  0.00000000E+00
  0.00000000E+00  6.97953644E-01  0.00000000E+00  0.00000000E+00  1.00000000E+00
  2.13639126E-17  0.00000000E+00  1.12467927E-16  0.00000000E+00  3.09058567E-16
  0.00000000E+00  0.00000000E+00  2.53020373E-16  0.00000000E+00  7.31467845E-03
  2.34849739E-31  0.00000000E+00  4.65582353E-02  0.00000000E+00  0.00000000E+00
  1.72452288E-01  0.00000000E+00  0.00000000E+00  3.81121568E-01  0.00000000E+00
  0.00000000E+00  6.97953644E-01  0.00000000E+00  0.00000000E+00  1.00000000E+00
  3.17896103E-20 -1.15934363E-16 -2.24935853E-16  0.00000000E+00  6.18117134E-16
  7.82866995E-16  0.00000000E+00  5.06040747E-16  0.00000000E+00  2.34849739E-31
  7.31467845E-03  0.00000000E+00  0.00000000E+00  4.65582353E-02  0.00000000E+00
  0.00000000E+00  1.72452288E-01  0.00000000E+00  0.00000000E+00  3.81121568E-01
  0.00000000E+00  0.00000000E+00  6.97953644E-01  0.00000000E+00  0.00000000E+00
  1.00000000E+00 -3.84640869E-21  0.00000000E+00  0.00000000E+00  5.50714971E-17
 -9.25953249E-17  0.00000000E+00  0.00000000E+00  0.00000000E+00  3.78544791E-03
 -3.03229867E-32 -6.06459733E-32  2.45241651E-02  0.00000000E+00  0.00000000E+00
  9.50882403E-02  0.00000000E+00  0.00000000E+00  2.26010736E-01 -6.31863425E-32
 -1.26372685E-31  4.71592760E-01  0.00000000E+00 -1.33481168E-31  9.16580053E-01
  0.00000000E+00  0.00000000E+00  1.00000000E+00  1.10414663E-17  3.02122928E-17
  0.00000000E+00  0.00000000E+00  1.85190650E-16  0.00000000E+00 -3.03949876E-16
  0.00000000E+00 -3.03229867E-32  3.78544791E-03  1.21291947E-31  0.00000000E+00
  2.45241651E-02  0.00000000E+00  0.00000000E+00  9.50882403E-02  0.00000000E+00
 -6.31863425E-32  2.26010736E-01  2.52745370E-31  0.00000000E+00  4.71592760E-01
  0.00000000E+00  0.00000000E+00  9.16580053E-01  0.00000000E+00 -4.63850212E-32
  1.00000000E+00  2.23521193E-17 -6.04245855E-17  0.00000000E+00  0.00000000E+00
  3.70381299E-16  0.00000000E+00 -6.07899752E-16 -4.90941586E-16 -6.06459733E-32
  1.21291947E-31  3.78544791E-03  0.00000000E+00  0.00000000E+00  2.45241651E-02
  0.00000000E+00  0.00000000E+00  9.50882403E-02 -1.26372685E-31  2.52745370E-31
  2.26010736E-01 -1.33481168E-31  0.00000000E+00  4.71592760E-01  0.00000000E+00
  0.00000000E+00  9.16580053E-01 -9.27700425E-32  1.85540085E-31  1.00000000E+00
  0.00000000E+00  0.00000000E+00  0.00000000E+00  0.00000000E+00  0.00000000E+00
  0.00000000E+00  0.00000000E+00  0.00000000E+00  0.00000000E+00  0.00000000E+00
  9.00929261E-16  3.90524914E-16  0.00000000E+00  0.00000000E+00  4.82825751E-16
 -9.65651503E-16  3.86260601E-15 -3.55501780E-16  0.00000000E+00 -2.84401424E-15
  0.00000000E+00  0.00000000E+00  0.00000000E+00  0.00000000E+00 -1.27495123E-16
  0.00000000E+00  0.00000000E+00  6.92469569E-17 -2.76987828E-16  1.00000000E+00
 -3.13069174E-35 -2.44173075E-30 -2.91737946E-30  0.00000000E+00  0.00000000E+00
  0.00000000E+00  0.00000000E+00  0.00000000E+00  7.80227627E-16  0.00000000E+00
  0.00000000E+00  0.00000000E+00  0.00000000E+00 -6.76408993E-16  3.34511493E-15
 -4.32108477E-45 -8.36278733E-16 -2.46298858E-15  0.00000000E+00  6.15747145E-16
  0.00000000E+00  0.00000000E+00  0.00000000E+00  0.00000000E+00  0.00000000E+00
  0.00000000E+00 -2.39878495E-16  0.00000000E+00  0.00000000E+00  0.00000000E+00
  1.00000000E+00  0.00000000E+00  0.00000000E+00  0.00000000E+00  0.00000000E+00
  0.00000000E+00  2.05854843E-30  0.00000000E+00  0.00000000E+00  0.00000000E+00
  7.80227627E-16  0.00000000E+00  0.00000000E+00  0.00000000E+00  0.00000000E+00
 -4.32108477E-45  3.34511493E-15  1.67255747E-15  0.00000000E+00 -2.46298858E-15
  0.00000000E+00  0.00000000E+00  0.00000000E+00  0.00000000E+00  0.00000000E+00
  0.00000000E+00  2.20828031E-16  0.00000000E+00 -2.39878495E-16 -1.19939248E-16
  0.00000000E+00 -1.45939267E-30  1.00000000E+00  0.00000000E+00  0.00000000E+00
  0.00000000E+00  0.00000000E+00  0.00000000E+00  0.00000000E+00  0.00000000E+00
  0.00000000E+00  0.00000000E+00  0.00000000E+00  0.00000000E+00 -6.76408993E-16
  0.00000000E+00  0.00000000E+00 -8.36278733E-16 -1.67255747E-15  0.00000000E+00
  6.15747145E-16  0.00000000E+00  0.00000000E+00  0.00000000E+00  0.00000000E+00
  0.00000000E+00  0.00000000E+00 -2.20828031E-16  0.00000000E+00  0.00000000E+00
  1.19939248E-16  0.00000000E+00  0.00000000E+00  0.00000000E+00  0.00000000E+00
  1.00000000E+00 -8.15661243E-32  0.00000000E+00  0.00000000E+00  0.00000000E+00
  0.00000000E+00  0.00000000E+00  0.00000000E+00 -1.34172946E-31  0.00000000E+00
  0.00000000E+00  0.00000000E+00  0.00000000E+00 -6.76408993E-16  0.00000000E+00
  1.67255747E-15 -8.36278733E-16 -4.32108477E-45  0.00000000E+00  6.15747145E-16
  0.00000000E+00  0.00000000E+00  0.00000000E+00  0.00000000E+00  2.20828031E-16
  0.00000000E+00  0.00000000E+00 -1.19939248E-16  0.00000000E+00  0.00000000E+00
  1.68516151E-30  0.00000000E+00  0.00000000E+00  0.00000000E+00  1.00000000E+00
  0.00000000E+00  0.00000000E+00  0.00000000E+00  0.00000000E+00  0.00000000E+00
  0.00000000E+00  0.00000000E+00  0.00000000E+00  0.00000000E+00  0.00000000E+00
  0.00000000E+00 -9.46206304E-17  1.89241261E-16 -7.56965044E-16  0.00000000E+00
  4.47713589E-16  0.00000000E+00 -2.80305057E-16  0.00000000E+00  0.00000000E+00
  0.00000000E+00  0.00000000E+00  1.93932033E-15 -1.15085118E-16  0.00000000E+00
  0.00000000E+00  0.00000000E+00  0.00000000E+00  0.00000000E+00  5.89982191E-01
  0.00000000E+00  0.00000000E+00  0.00000000E+00  0.00000000E+00  1.00000000E+00
  0.00000000E+00  0.00000000E+00  0.00000000E+00  0.00000000E+00  0.00000000E+00
  0.00000000E+00  0.00000000E+00  0.00000000E+00  0.00000000E+00  0.00000000E+00
  0.00000000E+00 -6.55550957E-16  1.30577477E-45  1.63887739E-16  0.00000000E+00
  0.00000000E+00  0.00000000E+00  0.00000000E+00  0.00000000E+00  4.85502600E-16
  1.67950067E-15  0.00000000E+00  0.00000000E+00  0.00000000E+00  0.00000000E+00
  1.99333272E-16  0.00000000E+00  0.00000000E+00  0.00000000E+00  0.00000000E+00
  5.89982191E-01  0.00000000E+00  0.00000000E+00  0.00000000E+00  0.00000000E+00
  1.00000000E+00  0.00000000E+00  0.00000000E+00  0.00000000E+00  0.00000000E+00
  0.00000000E+00  0.00000000E+00  0.00000000E+00  0.00000000E+00  0.00000000E+00
  0.00000000E+00  0.00000000E+00  1.30577477E-45 -6.55550957E-16 -3.27775479E-16
  0.00000000E+00  0.00000000E+00 -7.75462683E-16  0.00000000E+00  0.00000000E+00
  0.00000000E+00  0.00000000E+00  1.67950067E-15  0.00000000E+00  0.00000000E+00
  0.00000000E+00  0.00000000E+00  0.00000000E+00  0.00000000E+00  0.00000000E+00
  0.00000000E+00  0.00000000E+00  5.89982191E-01  0.00000000E+00  0.00000000E+00
  0.00000000E+00  0.00000000E+00  1.00000000E+00  0.00000000E+00  0.00000000E+00
  0.00000000E+00  0.00000000E+00  0.00000000E+00  0.00000000E+00  0.00000000E+00
  0.00000000E+00  0.00000000E+00  0.00000000E+00  0.00000000E+00  1.63887739E-16
  3.27775479E-16  0.00000000E+00  0.00000000E+00  7.75462683E-16  0.00000000E+00
  4.85502600E-16  0.00000000E+00  0.00000000E+00  0.00000000E+00  0.00000000E+00
  0.00000000E+00  1.99333272E-16  0.00000000E+00  0.00000000E+00  0.00000000E+00
  0.00000000E+00  0.00000000E+00  0.00000000E+00  0.00000000E+00  0.00000000E+00
  5.89982191E-01  0.00000000E+00  0.00000000E+00  0.00000000E+00  0.00000000E+00
  1.00000000E+00  0.00000000E+00  0.00000000E+00  0.00000000E+00  0.00000000E+00
  0.00000000E+00 -3.19476255E-31  0.00000000E+00  0.00000000E+00  0.00000000E+00
  0.00000000E+00  0.00000000E+00 -3.27775479E-16  1.63887739E-16  1.30577477E-45
 -7.75462683E-16  0.00000000E+00  0.00000000E+00  0.00000000E+00  4.85502600E-16
  0.00000000E+00  0.00000000E+00  0.00000000E+00  0.00000000E+00  0.00000000E+00
  1.99333272E-16  0.00000000E+00  0.00000000E+00  0.00000000E+00  0.00000000E+00
  0.00000000E+00  0.00000000E+00  0.00000000E+00  0.00000000E+00  5.89982191E-01
  0.00000000E+00  0.00000000E+00  0.00000000E+00  0.00000000E+00  1.00000000E+00
  0.00000000E+00  0.00000000E+00  0.00000000E+00  0.00000000E+00  0.00000000E+00
  0.00000000E+00  0.00000000E+00  0.00000000E+00 -4.09299513E-18  0.00000000E+00
  0.00000000E+00  0.00000000E+00  4.89361682E-17  0.00000000E+00  7.77367085E-17
  0.00000000E+00  0.00000000E+00  0.00000000E+00  0.00000000E+00 -1.10159005E-15
  0.00000000E+00  0.00000000E+00  0.00000000E+00 -1.40677449E-16  0.00000000E+00
  0.00000000E+00  0.00000000E+00  0.00000000E+00  0.00000000E+00  2.18666872E-01
  0.00000000E+00  0.00000000E+00  0.00000000E+00  0.00000000E+00  7.22434451E-01
  0.00000000E+00  0.00000000E+00  0.00000000E+00  0.00000000E+00  1.00000000E+00
  0.00000000E+00  0.00000000E+00 -1.99688571E-31  0.00000000E+00 -3.88971936E-31
  0.00000000E+00  0.00000000E+00  0.00000000E+00  0.00000000E+00  0.00000000E+00
  7.08927552E-18  0.00000000E+00  0.00000000E+00  0.00000000E+00  0.00000000E+00
  0.00000000E+00 -1.34643929E-16 -9.54004969E-16  0.00000000E+00  0.00000000E+00
  0.00000000E+00  0.00000000E+00  0.00000000E+00  0.00000000E+00  0.00000000E+00
  2.43660490E-16  0.00000000E+00  0.00000000E+00  0.00000000E+00  0.00000000E+00
  2.18666872E-01  0.00000000E+00  0.00000000E+00  0.00000000E+00  0.00000000E+00
  7.22434451E-01  0.00000000E+00  0.00000000E+00  0.00000000E+00  0.00000000E+00
  1.00000000E+00  0.00000000E+00  0.00000000E+00  3.99377141E-31  0.00000000E+00
  7.77943873E-31  0.00000000E+00  0.00000000E+00  0.00000000E+00  0.00000000E+00
  0.00000000E+00  0.00000000E+00  0.00000000E+00  0.00000000E+00 -8.47599297E-17
  0.00000000E+00  0.00000000E+00  0.00000000E+00  0.00000000E+00 -9.54004969E-16
  0.00000000E+00  0.00000000E+00  0.00000000E+00  0.00000000E+00  0.00000000E+00
  0.00000000E+00  0.00000000E+00  0.00000000E+00  0.00000000E+00  0.00000000E+00
  0.00000000E+00  0.00000000E+00  2.18666872E-01  0.00000000E+00  0.00000000E+00
  0.00000000E+00  0.00000000E+00  7.22434451E-01  0.00000000E+00  0.00000000E+00
  0.00000000E+00  0.00000000E+00  1.00000000E+00  0.00000000E+00  0.00000000E+00
  0.00000000E+00  0.00000000E+00  0.00000000E+00  0.00000000E+00  0.00000000E+00
  0.00000000E+00  7.08927552E-18  0.00000000E+00  0.00000000E+00  0.00000000E+00
  8.47599297E-17  0.00000000E+00 -1.34643929E-16  0.00000000E+00  0.00000000E+00
  0.00000000E+00  0.00000000E+00  0.00000000E+00  0.00000000E+00  0.00000000E+00
  0.00000000E+00  2.43660490E-16  0.00000000E+00  0.00000000E+00  0.00000000E+00
  0.00000000E+00  0.00000000E+00  0.00000000E+00  0.00000000E+00  0.00000000E+00
  2.18666872E-01  0.00000000E+00  0.00000000E+00  0.00000000E+00  0.00000000E+00
  7.22434451E-01  0.00000000E+00  0.00000000E+00  0.00000000E+00  0.00000000E+00
  1.00000000E+00 -1.52134956E-35  0.00000000E+00 -9.98442853E-32  0.00000000E+00
 -1.94485968E-31  0.00000000E+00  0.00000000E+00  0.00000000E+00  0.00000000E+00
  7.08927552E-18  0.00000000E+00 -8.47599297E-17  0.00000000E+00  0.00000000E+00
  0.00000000E+00 -1.34643929E-16  0.00000000E+00  0.00000000E+00  0.00000000E+00
  0.00000000E+00  0.00000000E+00  0.00000000E+00  0.00000000E+00  0.00000000E+00
  2.43660490E-16  0.00000000E+00  0.00000000E+00  0.00000000E+00  0.00000000E+00
  0.00000000E+00  0.00000000E+00  0.00000000E+00  0.00000000E+00  2.18666872E-01
  0.00000000E+00  0.00000000E+00  0.00000000E+00  0.00000000E+00  7.22434451E-01
  0.00000000E+00  0.00000000E+00  0.00000000E+00  0.00000000E+00  1.00000000E+00
  0.00000000E+00  0.00000000E+00  0.00000000E+00  0.00000000E+00  0.00000000E+00
  0.00000000E+00  0.00000000E+00  0.00000000E+00 -5.49320720E-19  0.00000000E+00
  0.00000000E+00  0.00000000E+00  7.05782272E-18  2.82312909E-17  1.33855095E-17
  0.00000000E+00  1.07084076E-16  3.07092736E-17  0.00000000E+00  0.00000000E+00
  0.00000000E+00  1.20117542E-16  0.00000000E+00  0.00000000E+00 -1.99340508E-16
  0.00000000E+00 -9.89439103E-17  0.00000000E+00 -7.91551282E-16  3.87274310E-02
  0.00000000E+00  0.00000000E+00  0.00000000E+00  0.00000000E+00  2.09036606E-01
  0.00000000E+00  0.00000000E+00  0.00000000E+00  0.00000000E+00  5.72324174E-01
  0.00000000E+00  0.00000000E+00  0.00000000E+00  0.00000000E+00  1.00000000E+00
  0.00000000E+00  0.00000000E+00  0.00000000E+00  0.00000000E+00  0.00000000E+00
  0.00000000E+00  0.00000000E+00  0.00000000E+00  0.00000000E+00  0.00000000E+00
  9.51451397E-19  2.44490151E-17  0.00000000E+00  0.00000000E+00  9.27375300E-17
  0.00000000E+00 -2.31843825E-17  0.00000000E+00  0.00000000E+00 -5.31900221E-17
  0.00000000E+00  0.00000000E+00  0.00000000E+00  0.00000000E+00  0.00000000E+00
  0.00000000E+00 -6.85503519E-16  0.00000000E+00  1.71375880E-16  0.00000000E+00
  3.87274310E-02  0.00000000E+00  0.00000000E+00  0.00000000E+00  0.00000000E+00
  2.09036606E-01  0.00000000E+00  0.00000000E+00  0.00000000E+00  0.00000000E+00
  5.72324174E-01  0.00000000E+00  0.00000000E+00  0.00000000E+00  0.00000000E+00
  1.00000000E+00  0.00000000E+00  0.00000000E+00  0.00000000E+00  0.00000000E+00
  0.00000000E+00  0.00000000E+00  0.00000000E+00  0.00000000E+00  0.00000000E+00
  0.00000000E+00  0.00000000E+00  0.00000000E+00  2.44490151E-17 -1.22245075E-17
  0.00000000E+00  9.27375300E-17  0.00000000E+00  0.00000000E+00  0.00000000E+00
  0.00000000E+00  0.00000000E+00  0.00000000E+00 -2.08049685E-16  0.00000000E+00
  0.00000000E+00  3.45267888E-16  0.00000000E+00 -6.85503519E-16  0.00000000E+00
  0.00000000E+00  0.00000000E+00  3.87274310E-02  0.00000000E+00  0.00000000E+00
  0.00000000E+00  0.00000000E+00  2.09036606E-01  0.00000000E+00  0.00000000E+00
  0.00000000E+00  0.00000000E+00  5.72324174E-01  0.00000000E+00  0.00000000E+00
  0.00000000E+00  0.00000000E+00  1.00000000E+00  0.00000000E+00  0.00000000E+00
  0.00000000E+00  0.00000000E+00  0.00000000E+00  0.00000000E+00  0.00000000E+00
  0.00000000E+00  9.51451397E-19  0.00000000E+00  0.00000000E+00  0.00000000E+00
  1.22245075E-17  0.00000000E+00 -2.31843825E-17  0.00000000E+00  0.00000000E+00
 -5.31900221E-17  0.00000000E+00  0.00000000E+00  0.00000000E+00  2.08049685E-16
  0.00000000E+00  0.00000000E+00 -3.45267888E-16  0.00000000E+00  1.71375880E-16
  0.00000000E+00  0.00000000E+00  0.00000000E+00  0.00000000E+00  0.00000000E+00
  3.87274310E-02  0.00000000E+00  0.00000000E+00  0.00000000E+00  0.00000000E+00
  2.09036606E-01  0.00000000E+00  0.00000000E+00  0.00000000E+00  0.00000000E+00
  5.72324174E-01  0.00000000E+00  0.00000000E+00  0.00000000E+00  0.00000000E+00
  1.00000000E+00  0.00000000E+00  0.00000000E+00  0.00000000E+00  0.00000000E+00
  0.00000000E+00  0.00000000E+00  0.00000000E+00  0.00000000E+00  0.00000000E+00
  9.51451397E-19  0.00000000E+00 -1.22245075E-17  0.00000000E+00  0.00000000E+00
  0.00000000E+00 -2.31843825E-17  0.00000000E+00  0.00000000E+00 -5.31900221E-17
  0.00000000E+00 -2.08049685E-16  0.00000000E+00  0.00000000E+00  3.45267888E-16
  0.00000000E+00  0.00000000E+00  0.00000000E+00  1.71375880E-16  0.00000000E+00
  0.00000000E+00  0.00000000E+00  0.00000000E+00  0.00000000E+00  3.87274310E-02
  0.00000000E+00  0.00000000E+00  0.00000000E+00  0.00000000E+00  2.09036606E-01
  0.00000000E+00  0.00000000E+00  0.00000000E+00  0.00000000E+00  5.72324174E-01
  0.00000000E+00  0.00000000E+00  0.00000000E+00  0.00000000E+00  1.00000000E+00
 -4.93038066E-32  0.00000000E+00  0.00000000E+00  0.00000000E+00  0.00000000E+00
  0.00000000E+00  0.00000000E+00  0.00000000E+00  0.00000000E+00  0.00000000E+00
  8.32667268E-17  2.08590177E-30 -4.17180354E-30  1.11022302E-16  0.00000000E+00
  0.00000000E+00  0.00000000E+00  0.00000000E+00  0.00000000E+00 -2.22044605E-16
  0.00000000E+00  0.00000000E+00 -1.11022302E-16  0.00000000E+00 -5.76847582E-31
  2.77555756E-17  1.55869236E-31 -3.11738472E-31  0.00000000E+00 -4.80349160E-15
 -6.93324291E-16  0.00000000E+00  0.00000000E+00  0.00000000E+00  0.00000000E+00
 -3.73694018E-16  0.00000000E+00  0.00000000E+00  0.00000000E+00  0.00000000E+00
  0.00000000E+00  0.00000000E+00  0.00000000E+00  0.00000000E+00  0.00000000E+00
 -2.28548697E-17  0.00000000E+00  0.00000000E+00  0.00000000E+00  1.00000000E+00
  0.00000000E+00  4.93038066E-32  0.00000000E+00  9.86076132E-32  0.00000000E+00
  4.93038066E-32  0.00000000E+00  0.00000000E+00 -5.20417043E-17  0.00000000E+00
  0.00000000E+00 -5.55111512E-17  4.25782916E-31 -3.40626333E-30  0.00000000E+00
  4.90798434E-31  0.00000000E+00  1.11022302E-16  0.00000000E+00  0.00000000E+00
  1.11022302E-16  0.00000000E+00  0.00000000E+00  0.00000000E+00  0.00000000E+00
  0.00000000E+00  6.93889390E-18  3.18166745E-32 -2.54533396E-31  9.80508616E-16
 -4.52877531E-15  0.00000000E+00 -2.83048457E-16  0.00000000E+00  5.28483148E-16
  0.00000000E+00  0.00000000E+00 -1.52559944E-16  0.00000000E+00  0.00000000E+00
  0.00000000E+00  0.00000000E+00  0.00000000E+00  0.00000000E+00  3.23216667E-17
  0.00000000E+00  0.00000000E+00 -9.33046150E-18  0.00000000E+00  0.00000000E+00
  1.00000000E+00  0.00000000E+00  0.00000000E+00  0.00000000E+00  0.00000000E+00
  0.00000000E+00  0.00000000E+00  0.00000000E+00  0.00000000E+00  0.00000000E+00
 -5.55111512E-17  0.00000000E+00  4.25782916E-31 -5.55111512E-17  6.81252666E-30
  4.90798434E-31  0.00000000E+00  0.00000000E+00  0.00000000E+00  1.11022302E-16
  0.00000000E+00  0.00000000E+00  1.11022302E-16  0.00000000E+00  0.00000000E+00
  0.00000000E+00  9.41988158E-31  3.18166745E-32  0.00000000E+00  5.09066793E-31
  0.00000000E+00  0.00000000E+00 -4.52877531E-15  0.00000000E+00 -2.83048457E-16
  0.00000000E+00  0.00000000E+00  0.00000000E+00  0.00000000E+00 -1.52559944E-16
  0.00000000E+00  0.00000000E+00  0.00000000E+00  0.00000000E+00  0.00000000E+00
  0.00000000E+00  0.00000000E+00  0.00000000E+00  0.00000000E+00 -9.33046150E-18
  0.00000000E+00  0.00000000E+00  1.00000000E+00  0.00000000E+00  0.00000000E+00
  0.00000000E+00  0.00000000E+00  0.00000000E+00  0.00000000E+00  0.00000000E+00
  0.00000000E+00  0.00000000E+00  0.00000000E+00  0.00000000E+00 -2.69288761E-30