Q-Chem Developer Version!
                  Welcome to Q-Chem
     A Quantum Leap Into The Future Of Chemistry


 Q-Chem 5.1, Q-Chem, Inc., Pleasanton, CA (2018)

 Yihan Shao,  Zhengting Gan,  E. Epifanovsky,  A. T. B. Gilbert,  M. Wormit,  
 J. Kussmann,  A. W. Lange,  A. Behn,  Jia Deng,  Xintian Feng,  D. Ghosh,  
 M. Goldey,  P. R. Horn,  L. D. Jacobson,  I. Kaliman,  T. Kus,  A. Landau,  
 Jie Liu,  E. I. Proynov,  R. M. Richard,  R. P. Steele,  E. J. Sundstrom,  
 H. L. Woodcock III,  P. M. Zimmerman,  D. Zuev,  B. Albrecht,  E. Alguire,  
 S. A. Baeppler,  D. Barton,  Z. Benda,  Y. A. Bernard,  E. J. Berquist,  
 K. B. Bravaya,  H. Burton,  D. Casanova,  Chun-Min Chang,  Yunqing Chen,  
 A. Chien,  K. D. Closser,  M. P. Coons,  S. Coriani,  S. Dasgupta,  
 A. L. Dempwolff,  M. Diedenhofen,  Hainam Do,  R. G. Edgar,  Po-Tung Fang,  
 S. Faraji,  S. Fatehi,  Qingguo Feng,  K. D. Fenk,  J. Fosso-Tande,  
 Qinghui Ge,  A. Ghysels,  G. Gidofalvi,  J. Gomes,  J. Gonthier,  A. Gunina,  
 D. Hait,  M. W. D. Hanson-Heine,  P. H. P. Harbach,  A. W. Hauser,  
 J. E. Herr,  E. G. Hohenstein,  Z. C. Holden,  Kerwin Hui,  B. C. Huynh,  
 T.-C. Jagau,  Hyunjun Ji,  B. Kaduk,  K. Khistyaev,  Jaehoon Kim,  
 P. Klunzinger,  K. Koh,  D. Kosenkov,  L. Koulias,  T. Kowalczyk,  
 C. M. Krauter,  A. Kunitsa,  Ka Un Lao,  A. Laurent,  K. V. Lawler,  
 Joonho Lee,  D. Lefrancois,  S. Lehtola,  D. S. Levine,  Yi-Pei Li,  
 You-Sheng Lin,  Fenglai Liu,  E. Livshits,  A. Luenser,  P. Manohar,  
 E. Mansoor,  S. F. Manzer,  Shan-Ping Mao,  Yuezhi Mao,  N. Mardirossian,  
 A. V. Marenich,  T. Markovich,  L. A. Martinez-Martinez,  S. A. Maurer,  
 N. J. Mayhall,  S. C. McKenzie,  J.-M. Mewes,  A. F. Morrison,  
 J. W. Mullinax,  K. Nanda,  T. S. Nguyen-Beck,  R. Olivares-Amaya,  
 J. A. Parkhill,  T. M. Perrine,  F. Plasser,  P. Pokhilko,  S. Prager,  
 A. Prociuk,  E. Ramos,  D. R. Rehn,  F. Rob,  M. Schneider,  N. Sergueev,  
 S. M. Sharada,  S. Sharma,  D. W. Small,  T. Stauch,  T. Stein,  
 Yu-Chuan Su,  A. J. W. Thom,  A. Tkatchenko,  T. Tsuchimochi,  N. M. Tubman,  
 L. Vogt,  M. L. Vidal,  O. Vydrov,  M. A. Watson,  J. Wenzel,  
 M. de Wergifosse,  T. A. Wesolowski,  A. White,  J. Witte,  A. Yamada,  
 Jun Yang,  K. Yao,  S. Yeganeh,  S. R. Yost,  Zhi-Qiang You,  A. Zech,  
 Igor Ying Zhang,  Xing Zhang,  Yan Zhao,  Ying Zhu,  B. R. Brooks,  
 G. K. L. Chan,  C. J. Cramer,  M. S. Gordon,  W. J. Hehre,  A. Klamt,  
 M. W. Schmidt,  C. D. Sherrill,  D. G. Truhlar,  A. Aspuru-Guzik,  R. Baer,  
 A. T. Bell,  N. A. Besley,  Jeng-Da Chai,  A. E. DePrince, III,  
 R. A. DiStasio Jr.,  A. Dreuw,  B. D. Dunietz,  T. R. Furlani,  
 Chao-Ping Hsu,  Yousung Jung,  Jing Kong,  D. S. Lambrecht,  WanZhen Liang,  
 C. Ochsenfeld,  V. A. Rassolov,  L. V. Slipchenko,  J. E. Subotnik,  
 T. Van Voorhis,  J. M. Herbert,  A. I. Krylov,  P. M. W. Gill,  M. Head-Gordon

 Contributors to earlier versions of Q-Chem not listed above: 
 R. D. Adamson,  B. Austin,  J. Baker,  G. J. O. Beran,  K. Brandhorst,  
 S. T. Brown,  E. F. C. Byrd,  A. K. Chakraborty,  C.-L. Cheng,  
 Siu Hung Chien,  D. M. Chipman,  D. L. Crittenden,  H. Dachsel,  
 R. J. Doerksen,  A. D. Dutoi,  L. Fusti-Molnar,  W. A. Goddard III,  
 A. Golubeva-Zadorozhnaya,  S. R. Gwaltney,  G. Hawkins,  A. Heyden,  
 S. Hirata,  G. Kedziora,  F. J. Keil,  C. Kelley,  Jihan Kim,  R. A. King,  
 R. Z. Khaliullin,  P. P. Korambath,  W. Kurlancheek,  A. M. Lee,  M. S. Lee,  
 S. V. Levchenko,  Ching Yeh Lin,  D. Liotard,  R. C. Lochan,  I. Lotan,  
 P. E. Maslen,  N. Nair,  D. P. O'Neill,  D. Neuhauser,  E. Neuscamman,  
 C. M. Oana,  R. Olson,  B. Peters,  R. Peverati,  P. A. Pieniazek,  
 Y. M. Rhee,  J. Ritchie,  M. A. Rohrdanz,  E. Rosta,  N. J. Russ,  
 H. F. Schaefer III,  N. E. Schultz,  N. Shenvi,  A. C. Simmonett,  A. Sodt,  
 D. Stuck,  K. S. Thanthiriwatte,  V. Vanovschi,  Tao Wang,  A. Warshel,  
 C. F. Williams,  Q. Wu,  X. Xu,  W. Zhang

 Please cite Q-Chem as follows:
 Y. Shao et al., Mol. Phys. 113, 184-215 (2015)
 DOI: 10.1080/00268976.2014.952696

 Q-Chem 5.1.1 for Intel X86 EM64T Linux

 Parts of Q-Chem use Armadillo 8.300.2 (Tropical Shenanigans).
 http://arma.sourceforge.net/

 Q-Chem begins on Sat Sep 19 01:25:43 2020  

Host: n0069.mhg0
0

     Scratch files written to /local/scratch/users/yhljason/CH2-t_rmp2_aug-cc-pcVQZ.inp20200919012541//
Input Ideriv = 1
Curr. Ideriv = -1
Max.  Ideriv = 1

Checking the input file for inconsistencies... 	...done.

--------------------------------------------------------------
User input:
--------------------------------------------------------------
$molecule
0 3
C1	0.0000	0.0000	0.1027
H2	0.0000	1.0042	-0.3081
H3	0.0000	-1.0042	-0.3081
$end

$rem
jobtype sp
method mp2
xc_grid 000099000590
basis aug-cc-pcVQZ
max_scf_cycles 200
thresh 14
scf_convergence 8
scf_algorithm gdm
symmetry false
sym_ignore true
unrestricted false
gen_scfman true
internal_stability_iter 15
internal_stability_davidson_iter 200
mem_total 128000
cc_memory 96000
cc_backend xm
mem_static 1500
n_frozen_core 0
$end


--------------------------------------------------------------
 ----------------------------------------------------------------
             Standard Nuclear Orientation (Angstroms)
    I     Atom           X                Y                Z
 ----------------------------------------------------------------
    1      C       0.0000000000     0.0000000000     0.1027000000
    2      H       0.0000000000     1.0042000000    -0.3081000000
    3      H       0.0000000000    -1.0042000000    -0.3081000000
 ----------------------------------------------------------------
 Nuclear Repulsion Energy =     6.1162592434 hartrees
 There are        5 alpha and        3 beta electrons
 Requested basis set is aug-cc-pCVQZ
 There are 57 shells and 201 basis functions

 Total QAlloc Memory Limit 128000 MB
 Mega-Array Size      1467 MB
 MEM_STATIC part      1500 MB

                       Distance Matrix (Angstroms)
             C (  1)   H (  2)
   H (  2)  1.084977
   H (  3)  1.084977  2.008400
 
 A cutoff of  1.0D-14 yielded   1653 shell pairs
 There are     20709 function pairs (     31923 Cartesian)
 
 -------------------------------------------------------
 OpenMP Integral Computing Module                       
 Release: version 1.0, May 2013, Q-Chem Inc. Pittsburgh 
 -------------------------------------------------------
 Integral Job Info:
 Integral job number is                      11
 Integral operator is                         1
 short-range coefficients                     0
 long-range coefficients              100000000
 Omega coefficients                           0
 if combine SR and LR in K                    0
 Integral screening is                        0
 Integral computing path is                   2
 max size of driver memory is           3200000
 size of driver memory is               1704330
 size of scratch memory is             18511652
 max col of scratch BK array              50625
 max len of scratch array in speh3         2114
 max len of scratch index in speh4           50
 max int batch size is                      520
 min int batch size is                       52
 fixed nKL is                                52
 max L of basis functions is                  4
 order of int derivative is                   0
 number of shells is                         57
 number of basis is                         249
 number of cartesian basis is               249
 number of contracted shell pairs          1653
 number of primitive shell pairs           3161
 maxK2 (contraction) of shell pair           81
 max number of K2 of shell pair               1
 max number of CS2 of shell pair            227
 max number of PS2 of shell pair            288
 mem total for path MDJ                  643177
 -------------------------------------------------------
 Smallest overlap matrix eigenvalue = 4.27E-05

 Scale SEOQF with 1.000000e-01/1.000000e-01/1.000000e-01

 Standard Electronic Orientation quadrupole field applied
 Nucleus-field energy     =     0.0000000001 hartrees
 Guess from superposition of atomic densities
 Warning:  Energy on first SCF cycle will be non-variational
 SAD guess density has 8.000000 electrons

 -----------------------------------------------------------------------
  General SCF calculation program by
  Eric Jon Sundstrom, Paul Horn, Yuezhi Mao, Dmitri Zuev, Alec White,
  David Stuck, Shaama M.S., Shane Yost, Joonho Lee, David Small,
  Daniel Levine, Susi Lehtola, Hugh Burton, Evgeny Epifanovsky
 -----------------------------------------------------------------------
Running Object-Oriented ROHF
ROHF occupied orbitals are orthonormal
ROHF occupied orbitals are orthogonal to virtual orbitals
ROHF virtual orbitals are orthonormal
We will preform up to 15 macro iterations over saddle points until a stable solution is found
Energy prior to optimization (guess energy) = -38.782413256653
Begin Timing: Total SCF Calculation
Begin Timing: SCF Single Stationary Point Calculation
begin iterations for algorithm: GDM          
the SCF tolerance is set to 1.00e-08
    1     -38.7824132567      1.84e-01     00000  Descent step
    2     -38.9051157801      6.13e-02     00000  Normal BFGS step
    3     -38.9327087597      1.79e-02     00000  Normal BFGS step
    4     -38.9338467166      9.39e-03     00000  Normal BFGS step
    5     -38.9341509251      2.37e-03     00000  Normal BFGS step
    6     -38.9341650643      4.70e-04     00000  Normal BFGS step
    7     -38.9341668587      2.37e-04     00000  Normal BFGS step
    8     -38.9341670667      7.43e-05     00000  Normal BFGS step
    9     -38.9341670917      1.57e-05     00000  Normal BFGS step
   10     -38.9341670933      4.64e-06     00000  Normal BFGS step
   11     -38.9341670934      1.51e-06     00000  Normal BFGS step
   12     -38.9341670934      5.46e-07     00000  Normal BFGS step
   13     -38.9341670934      1.22e-07     00000  Normal BFGS step
   14     -38.9341670934      3.31e-08     00000  Normal BFGS step
   15     -38.9341670934      1.03e-08     00000  Normal BFGS step
   16     -38.9341670934      3.35e-09     00000 Convergence criterion met
The disked orbital energies are calculated using alpha and beta Focks
Timing for Single Stationary Point: 46.00s (wall), 736.42s (cpu)
Begin Timing: Stability
===================================================
Beginning Test for Internal Stability
===================================================
generating davidson guess vectors based on koopmans-like excitations
    1      3.11e-01     00000 Davidson Iteration
    2      1.63e-01     00000 Davidson Iteration
    3      9.78e-02     00000 Davidson Iteration
    4      2.56e-02     00000 Davidson Iteration
    5      1.41e-02     00000 Davidson Iteration
    6      8.26e-03     00000 Davidson Iteration
    7      1.11e-01     00000 Davidson Iteration
    8      6.05e-03     00000 Davidson Iteration
    9      1.80e-03     00000 Davidson Iteration
   10      9.56e-04     00000 Davidson Iteration
   11      5.56e-04     00000 Davidson Iteration
   12      2.26e-04     00000 Davidson Iteration
   13      1.23e-04     00000 Davidson Iteration
   14      5.72e-05     00000 Davidson Iteration
   15      3.66e-04     00000 Davidson Iteration
   16      1.70e-04     00000 Davidson Iteration
   17      7.01e-05     00000 Davidson Converged
converged_eigenvalues
   0.5759
   0.4795
Threshold for negative eigenvalues: -1.0e-05
solution was a local minimum (stable)
===================================================
End Test for Internal Stability
===================================================
Our SCF solution is stable!
The disked orbital energies are calculated using alpha and beta Focks
Timing for Total SCF: 140.00s (wall), 2214.17s (cpu)
 Total energy in the final basis set =      -38.9341670934
<S^2> =          2.000000000
    ==================================================
              The end of Object-Oriented SCFman       
    ==================================================
 
 Components of the MP2 correlation energy:
        aaaa  correlation energy =        -0.0287476202 au
        abab  correlation energy =        -0.1491703216 au
        bbbb  correlation energy =        -0.0036561492 au
        non-Brillouin singles    =        -0.0031104477 au

 Total  MP2   correlation energy =                    -0.18468454 au
        MP2         total energy =                   -39.11885163 au
 
 --------------------------------------------------------------
 
                    Orbital Energies (a.u.)
 --------------------------------------------------------------
 
 Alpha MOs
 -- Occupied --
-11.268  -0.921  -0.626  -0.464  -0.402
 -- Virtual --
  0.028   0.041   0.075   0.082   0.125   0.126   0.177   0.183
  0.214   0.228   0.229   0.263   0.272   0.269   0.299   0.313
  0.311   0.334   0.374   0.442   0.461   0.492   0.569   0.590
  0.646   0.650   0.677   0.702   0.700   0.705   0.732   0.757
  0.768   0.758   0.772   0.781   0.792   0.864   0.898   0.900
  0.930   0.953   1.019   1.060   1.065   1.137   1.135   1.219
  1.410   1.418   1.472   1.474   1.507   1.662   1.683   1.701
  1.715   1.710   1.751   1.757   1.798   1.902   1.924   1.946
  1.956   1.968   2.024   2.043   2.057   2.136   2.136   2.176
  2.202   2.243   2.287   2.275   2.268   2.293   2.321   2.373
  2.421   2.432   2.489   2.491   2.554   2.576   2.606   2.744
  2.770   2.815   2.872   3.014   3.298   3.316   3.448   3.526
  3.530   3.553   3.635   3.798   3.849   3.874   3.980   4.133
  4.185   4.227   4.269   4.312   4.557   4.822   5.553   5.619
  5.867   5.908   5.941   5.962   5.964   6.017   6.024   6.129
  6.297   6.299   6.317   6.381   6.443   6.455   6.543   6.595
  6.828   6.834   6.823   6.868   7.013   7.094   7.154   7.225
  7.378   7.599   7.612   7.846   8.009   8.159   8.235   8.327
  8.386   8.417   8.420   8.469   8.955   9.128   9.126   9.228
  9.289   9.307   9.483   9.549   9.619   9.939  10.147  10.357
 10.385  10.445  10.715  10.944  11.306  13.057  13.742  19.375
 19.734  21.322  26.717  26.761  27.079  27.750  28.031  37.348
 66.866  67.106  68.291  98.797  98.798  98.828  98.831  98.846
 98.882  98.884 115.341 115.363 115.537 115.867 116.008 123.460
225.284 225.478 226.456 509.828
 
 Beta MOs
 -- Occupied --
-11.225  -0.779  -0.581
 -- Virtual --
  0.170   0.184   0.029   0.041   0.080   0.088   0.126   0.132
  0.184   0.188   0.220   0.239   0.239   0.272   0.273   0.278
  0.302   0.315   0.323   0.350   0.386   0.465   0.509   0.514
  0.602   0.609   0.674   0.675   0.684   0.708   0.708   0.712
  0.755   0.763   0.772   0.783   0.800   0.808   0.815   0.892
  0.926   0.931   0.941   0.966   1.043   1.067   1.085   1.155
  1.170   1.267   1.420   1.440   1.481   1.495   1.531   1.674
  1.694   1.718   1.723   1.745   1.756   1.762   1.830   1.911
  1.932   1.950   1.969   1.999   2.029   2.063   2.078   2.168
  2.197   2.232   2.234   2.274   2.312   2.318   2.321   2.354
  2.374   2.389   2.447   2.453   2.515   2.516   2.584   2.599
  2.628   2.764   2.788   2.834   2.894   3.037   3.315   3.324
  3.463   3.544   3.548   3.566   3.648   3.807   3.869   3.889
  3.993   4.147   4.209   4.254   4.293   4.339   4.580   4.835
  5.608   5.672   5.889   5.930   5.967   6.002   6.003   6.042
  6.058   6.160   6.331   6.337   6.351   6.411   6.505   6.515
  6.568   6.630   6.843   6.849   6.850   6.885   7.035   7.126
  7.170   7.250   7.421   7.620   7.648   7.858   8.022   8.165
  8.244   8.339   8.394   8.425   8.425   8.477   8.960   9.134
  9.135   9.235   9.296   9.312   9.491   9.557   9.625   9.947
 10.166  10.371  10.399  10.457  10.732  10.951  11.318  13.064
 13.757  19.407  19.762  21.335  26.748  26.791  27.098  27.766
 28.044  37.364  66.878  67.117  68.296  98.807  98.808  98.835
 98.838  98.852  98.887  98.889 115.348 115.371 115.542 115.871
116.012 123.466 225.289 225.482 226.459 509.831
 --------------------------------------------------------------
 
          Ground-State Mulliken Net Atomic Charges

     Atom                 Charge (a.u.)
  ----------------------------------------
      1 C                    -0.725684
      2 H                     0.362842
      3 H                     0.362842
  ----------------------------------------
  Sum of atomic charges =     0.000000

 -----------------------------------------------------------------
                    Cartesian Multipole Moments
 -----------------------------------------------------------------
    Charge (ESU x 10^10)
                 0.0000
    Dipole Moment (Debye)
         X       0.0000      Y       0.0000      Z      -0.5674
       Tot       0.5674
    Quadrupole Moments (Debye-Ang)
        XX      -8.2641     XY       0.0000     YY      -5.8186
        XZ       0.0000     YZ      -0.0000     ZZ      -7.7484
    Octopole Moments (Debye-Ang^2)
       XXX       0.0000    XXY       0.0000    XYY       0.0000
       YYY       0.0000    XXZ      -0.3355    XYZ       0.0000
       YYZ      -0.9156    XZZ       0.0000    YZZ       0.0000
       ZZZ      -0.9259
    Hexadecapole Moments (Debye-Ang^3)
      XXXX     -10.4223   XXXY      -0.0000   XXYY      -4.5924
      XYYY       0.0000   YYYY     -13.2782   XXXZ       0.0000
      XXYZ      -0.0000   XYYZ       0.0000   YYYZ      -0.0000
      XXZZ      -3.5194   XYZZ      -0.0000   YYZZ      -4.2097
      XZZZ       0.0000   YZZZ      -0.0000   ZZZZ     -10.5880
 -----------------------------------------------------------------
Archival summary:
1\1\n0069.mhg0\SP\ROMP2\BasisUnspecified\12(3)\yhljason\SatSep1901:30:142020SatSep1901:30:142020\0\\#,ROMP2,BasisUnspecified,\\0,3\C\H,1,1.08498\H,1,1.08498,2,135.503\\HF=-38.9341671\MP2=-39.1188516\\@

 Total job time:  270.74s(wall), 4298.67s(cpu) 
 Sat Sep 19 01:30:14 2020

        *************************************************************
        *                                                           *
        *  Thank you very much for using Q-Chem.  Have a nice day.  *
        *                                                           *
        *************************************************************


 
User input: 2 of 7 
 
Q-Chem Developer Version!
                  Welcome to Q-Chem
     A Quantum Leap Into The Future Of Chemistry


 Q-Chem 5.1, Q-Chem, Inc., Pleasanton, CA (2018)

 Yihan Shao,  Zhengting Gan,  E. Epifanovsky,  A. T. B. Gilbert,  M. Wormit,  
 J. Kussmann,  A. W. Lange,  A. Behn,  Jia Deng,  Xintian Feng,  D. Ghosh,  
 M. Goldey,  P. R. Horn,  L. D. Jacobson,  I. Kaliman,  T. Kus,  A. Landau,  
 Jie Liu,  E. I. Proynov,  R. M. Richard,  R. P. Steele,  E. J. Sundstrom,  
 H. L. Woodcock III,  P. M. Zimmerman,  D. Zuev,  B. Albrecht,  E. Alguire,  
 S. A. Baeppler,  D. Barton,  Z. Benda,  Y. A. Bernard,  E. J. Berquist,  
 K. B. Bravaya,  H. Burton,  D. Casanova,  Chun-Min Chang,  Yunqing Chen,  
 A. Chien,  K. D. Closser,  M. P. Coons,  S. Coriani,  S. Dasgupta,  
 A. L. Dempwolff,  M. Diedenhofen,  Hainam Do,  R. G. Edgar,  Po-Tung Fang,  
 S. Faraji,  S. Fatehi,  Qingguo Feng,  K. D. Fenk,  J. Fosso-Tande,  
 Qinghui Ge,  A. Ghysels,  G. Gidofalvi,  J. Gomes,  J. Gonthier,  A. Gunina,  
 D. Hait,  M. W. D. Hanson-Heine,  P. H. P. Harbach,  A. W. Hauser,  
 J. E. Herr,  E. G. Hohenstein,  Z. C. Holden,  Kerwin Hui,  B. C. Huynh,  
 T.-C. Jagau,  Hyunjun Ji,  B. Kaduk,  K. Khistyaev,  Jaehoon Kim,  
 P. Klunzinger,  K. Koh,  D. Kosenkov,  L. Koulias,  T. Kowalczyk,  
 C. M. Krauter,  A. Kunitsa,  Ka Un Lao,  A. Laurent,  K. V. Lawler,  
 Joonho Lee,  D. Lefrancois,  S. Lehtola,  D. S. Levine,  Yi-Pei Li,  
 You-Sheng Lin,  Fenglai Liu,  E. Livshits,  A. Luenser,  P. Manohar,  
 E. Mansoor,  S. F. Manzer,  Shan-Ping Mao,  Yuezhi Mao,  N. Mardirossian,  
 A. V. Marenich,  T. Markovich,  L. A. Martinez-Martinez,  S. A. Maurer,  
 N. J. Mayhall,  S. C. McKenzie,  J.-M. Mewes,  A. F. Morrison,  
 J. W. Mullinax,  K. Nanda,  T. S. Nguyen-Beck,  R. Olivares-Amaya,  
 J. A. Parkhill,  T. M. Perrine,  F. Plasser,  P. Pokhilko,  S. Prager,  
 A. Prociuk,  E. Ramos,  D. R. Rehn,  F. Rob,  M. Schneider,  N. Sergueev,  
 S. M. Sharada,  S. Sharma,  D. W. Small,  T. Stauch,  T. Stein,  
 Yu-Chuan Su,  A. J. W. Thom,  A. Tkatchenko,  T. Tsuchimochi,  N. M. Tubman,  
 L. Vogt,  M. L. Vidal,  O. Vydrov,  M. A. Watson,  J. Wenzel,  
 M. de Wergifosse,  T. A. Wesolowski,  A. White,  J. Witte,  A. Yamada,  
 Jun Yang,  K. Yao,  S. Yeganeh,  S. R. Yost,  Zhi-Qiang You,  A. Zech,  
 Igor Ying Zhang,  Xing Zhang,  Yan Zhao,  Ying Zhu,  B. R. Brooks,  
 G. K. L. Chan,  C. J. Cramer,  M. S. Gordon,  W. J. Hehre,  A. Klamt,  
 M. W. Schmidt,  C. D. Sherrill,  D. G. Truhlar,  A. Aspuru-Guzik,  R. Baer,  
 A. T. Bell,  N. A. Besley,  Jeng-Da Chai,  A. E. DePrince, III,  
 R. A. DiStasio Jr.,  A. Dreuw,  B. D. Dunietz,  T. R. Furlani,  
 Chao-Ping Hsu,  Yousung Jung,  Jing Kong,  D. S. Lambrecht,  WanZhen Liang,  
 C. Ochsenfeld,  V. A. Rassolov,  L. V. Slipchenko,  J. E. Subotnik,  
 T. Van Voorhis,  J. M. Herbert,  A. I. Krylov,  P. M. W. Gill,  M. Head-Gordon

 Contributors to earlier versions of Q-Chem not listed above: 
 R. D. Adamson,  B. Austin,  J. Baker,  G. J. O. Beran,  K. Brandhorst,  
 S. T. Brown,  E. F. C. Byrd,  A. K. Chakraborty,  C.-L. Cheng,  
 Siu Hung Chien,  D. M. Chipman,  D. L. Crittenden,  H. Dachsel,  
 R. J. Doerksen,  A. D. Dutoi,  L. Fusti-Molnar,  W. A. Goddard III,  
 A. Golubeva-Zadorozhnaya,  S. R. Gwaltney,  G. Hawkins,  A. Heyden,  
 S. Hirata,  G. Kedziora,  F. J. Keil,  C. Kelley,  Jihan Kim,  R. A. King,  
 R. Z. Khaliullin,  P. P. Korambath,  W. Kurlancheek,  A. M. Lee,  M. S. Lee,  
 S. V. Levchenko,  Ching Yeh Lin,  D. Liotard,  R. C. Lochan,  I. Lotan,  
 P. E. Maslen,  N. Nair,  D. P. O'Neill,  D. Neuhauser,  E. Neuscamman,  
 C. M. Oana,  R. Olson,  B. Peters,  R. Peverati,  P. A. Pieniazek,  
 Y. M. Rhee,  J. Ritchie,  M. A. Rohrdanz,  E. Rosta,  N. J. Russ,  
 H. F. Schaefer III,  N. E. Schultz,  N. Shenvi,  A. C. Simmonett,  A. Sodt,  
 D. Stuck,  K. S. Thanthiriwatte,  V. Vanovschi,  Tao Wang,  A. Warshel,  
 C. F. Williams,  Q. Wu,  X. Xu,  W. Zhang

 Please cite Q-Chem as follows:
 Y. Shao et al., Mol. Phys. 113, 184-215 (2015)
 DOI: 10.1080/00268976.2014.952696

 Q-Chem 5.1.1 for Intel X86 EM64T Linux

 Parts of Q-Chem use Armadillo 8.300.2 (Tropical Shenanigans).
 http://arma.sourceforge.net/

 Q-Chem begins on Sat Sep 19 01:30:14 2020  

Host: n0069.mhg0
0

     Scratch files written to /local/scratch/users/yhljason/CH2-t_rmp2_aug-cc-pcVQZ.inp20200919012541//
The previous job contains 0 fragments, simply inherited here
Input Ideriv = 1
Curr. Ideriv = -1
Max.  Ideriv = 1

Checking the input file for inconsistencies... 	...done.

--------------------------------------------------------------
User input:
--------------------------------------------------------------
$molecule
read
$end

$rem

jobtype sp
method mp2
xc_grid 000099000590
basis aug-cc-pcVQZ
max_scf_cycles 200
thresh 14
scf_convergence 8
mem_total 128000
cc_memory 96000
cc_backend xm
mem_static 1500
symmetry false
sym_ignore true
scf_guess read
unrestricted false
scf_algorithm gdm
n_frozen_core 0
$end

$multipole_field
XX 0.0001
$end


--------------------------------------------------------------
 ----------------------------------------------------------------
             Standard Nuclear Orientation (Angstroms)
    I     Atom           X                Y                Z
 ----------------------------------------------------------------
    1      C       0.0000000000     0.0000000000     0.1027000000
    2      H       0.0000000000     1.0042000000    -0.3081000000
    3      H       0.0000000000    -1.0042000000    -0.3081000000
 ----------------------------------------------------------------
 Nuclear Repulsion Energy =     6.1162592434 hartrees
 There are        5 alpha and        3 beta electrons
 Requested basis set is aug-cc-pCVQZ
 There are 57 shells and 201 basis functions

 Total QAlloc Memory Limit 128000 MB
 Mega-Array Size      1467 MB
 MEM_STATIC part      1500 MB

                       Distance Matrix (Angstroms)
             C (  1)   H (  2)
   H (  2)  1.084977
   H (  3)  1.084977  2.008400
 
 Applying Cartesian multipole field
    Component          Value
    ---------          -----
     (2,0,0)        1.00000E-04
 A cutoff of  1.0D-14 yielded   1653 shell pairs
 There are     20709 function pairs (     31923 Cartesian)
 
 -------------------------------------------------------
 OpenMP Integral Computing Module                       
 Release: version 1.0, May 2013, Q-Chem Inc. Pittsburgh 
 -------------------------------------------------------
 Integral Job Info:
 Integral job number is                      11
 Integral operator is                         1
 short-range coefficients                     0
 long-range coefficients              100000000
 Omega coefficients                           0
 if combine SR and LR in K                    0
 Integral screening is                        0
 Integral computing path is                   2
 max size of driver memory is           3200000
 size of driver memory is               1704330
 size of scratch memory is             18511652
 max col of scratch BK array              50625
 max len of scratch array in speh3         2114
 max len of scratch index in speh4           50
 max int batch size is                      520
 min int batch size is                       52
 fixed nKL is                                52
 max L of basis functions is                  4
 order of int derivative is                   0
 number of shells is                         57
 number of basis is                         249
 number of cartesian basis is               249
 number of contracted shell pairs          1653
 number of primitive shell pairs           3161
 maxK2 (contraction) of shell pair           81
 max number of K2 of shell pair               1
 max number of CS2 of shell pair            227
 max number of PS2 of shell pair            288
 mem total for path MDJ                  643177
 -------------------------------------------------------
 Smallest overlap matrix eigenvalue = 4.27E-05
 Guess MOs from SCF MO coefficient file
 Reading MOs from coefficient file
 Reading MOs from coefficient file
 A restricted Hartree-Fock SCF calculation will be
 performed using Geometric Direct Minimization
 SCF converges when RMS gradient is below 1.0E-08
Using Q-Chem read-in guess as SCF_GUESS READ specified.

 using 16 threads for integral computing
 -------------------------------------------------------
 OpenMP Integral computing Module                
 Release: version 2.0, May 2017, Q-Chem Inc. Pleasanton 
 -------------------------------------------------------
TIMEINFO->: J/JK contribution 45.49 sec.
 ---------------------------------------
  Cycle       Energy        RMS Gradient
 ---------------------------------------
    1     -38.9347815097      7.00E-04 Normal BFGS step
TIMEINFO->: J/JK contribution 44.92 sec.
    2     -38.9347816521      7.74E-04 Normal BFGS step
TIMEINFO->: J/JK contribution 44.77 sec.
    3     -38.9347818255      5.57E-05 Normal BFGS step
TIMEINFO->: J/JK contribution 44.96 sec.
    4     -38.9347818305      3.65E-05 Normal BFGS step
TIMEINFO->: J/JK contribution 44.66 sec.
    5     -38.9347818317      1.79E-05 Normal BFGS step
TIMEINFO->: J/JK contribution 44.80 sec.
    6     -38.9347818318      2.00E-05 Normal BFGS step
TIMEINFO->: J/JK contribution 44.37 sec.
    7     -38.9347818319      5.72E-06 Normal BFGS step
TIMEINFO->: J/JK contribution 44.55 sec.
    8     -38.9347818319      5.52E-06 Normal BFGS step
TIMEINFO->: J/JK contribution 44.16 sec.
    9     -38.9347818319      3.20E-07 Normal BFGS step
TIMEINFO->: J/JK contribution 43.96 sec.
   10     -38.9347818319      2.82E-07 Normal BFGS step
TIMEINFO->: J/JK contribution 43.33 sec.
   GDM::WARNING energy changes are now smaller than effective accuracy.
   GDM::        calculation will continue, but THRESH should be increased
   GDM::        or SCF_CONVERGENCE decreased.
   GDM::        effective_thresh =   5.000000000000000E-011
   11     -38.9347818319      3.45E-08 Normal BFGS step
TIMEINFO->: J/JK contribution 43.11 sec.
   12     -38.9347818319      2.27E-08 Normal BFGS step
TIMEINFO->: J/JK contribution 42.19 sec.
   13     -38.9347818319      1.89E-09 Convergence criterion met
 ---------------------------------------
 SCF time:  CPU 600.61 s  wall 37.82 s
 SCF   energy in the final basis set = -38.93478183
 Total energy in the final basis set = -38.93478183
 
 Components of the MP2 correlation energy:
        aaaa  correlation energy =        -0.0287511366 au
        abab  correlation energy =        -0.1491732467 au
        bbbb  correlation energy =        -0.0036566181 au
        non-Brillouin singles    =        -0.0031085005 au

 Total  MP2   correlation energy =                    -0.18468950 au
        MP2         total energy =                   -39.11947133 au
 
 --------------------------------------------------------------
 
                    Orbital Energies (a.u.)
 --------------------------------------------------------------
 
 Alpha MOs
 -- Occupied --
-11.268  -0.921  -0.626  -0.464  -0.402
 -- Virtual --
  0.025   0.039   0.073   0.077   0.123   0.124   0.175   0.181
  0.212   0.225   0.226   0.260   0.266   0.271   0.298   0.312
  0.310   0.333   0.372   0.441   0.460   0.490   0.566   0.588
  0.641   0.644   0.676   0.699   0.701   0.704   0.731   0.757
  0.758   0.767   0.771   0.783   0.793   0.864   0.899   0.901
  0.930   0.953   1.021   1.059   1.066   1.137   1.136   1.218
  1.410   1.417   1.471   1.474   1.507   1.662   1.682   1.700
  1.714   1.709   1.751   1.757   1.798   1.900   1.923   1.946
  1.955   1.969   2.023   2.044   2.057   2.133   2.131   2.171
  2.204   2.244   2.269   2.277   2.287   2.301   2.327   2.373
  2.422   2.432   2.489   2.490   2.554   2.577   2.606   2.744
  2.769   2.815   2.872   3.014   3.298   3.316   3.448   3.526
  3.530   3.553   3.635   3.797   3.849   3.873   3.980   4.133
  4.185   4.227   4.269   4.312   4.557   4.822   5.553   5.618
  5.867   5.908   5.940   5.961   5.964   6.017   6.024   6.128
  6.296   6.298   6.316   6.381   6.443   6.456   6.543   6.595
  6.823   6.828   6.834   6.868   7.014   7.095   7.153   7.226
  7.379   7.600   7.612   7.846   8.009   8.158   8.235   8.327
  8.386   8.417   8.419   8.469   8.955   9.126   9.128   9.228
  9.289   9.306   9.483   9.549   9.618   9.939  10.147  10.356
 10.385  10.444  10.715  10.944  11.306  13.057  13.742  19.375
 19.733  21.321  26.717  26.761  27.079  27.749  28.031  37.348
 66.866  67.106  68.290  98.797  98.797  98.828  98.831  98.846
 98.881  98.883 115.341 115.363 115.536 115.866 116.008 123.459
225.284 225.478 226.456 509.828
 
 Beta MOs
 -- Occupied --
-11.226  -0.779  -0.581
 -- Virtual --
  0.170   0.184   0.027   0.039   0.079   0.085   0.125   0.131
  0.184   0.188   0.220   0.238   0.238   0.273   0.278   0.272
  0.301   0.314   0.322   0.350   0.386   0.465   0.508   0.514
  0.603   0.609   0.676   0.677   0.684   0.708   0.708   0.712
  0.754   0.763   0.781   0.772   0.799   0.806   0.814   0.892
  0.925   0.929   0.940   0.965   1.042   1.066   1.084   1.155
  1.170   1.266   1.419   1.439   1.481   1.494   1.530   1.674
  1.694   1.718   1.722   1.744   1.756   1.761   1.830   1.912
  1.932   1.950   1.969   1.999   2.029   2.062   2.078   2.169
  2.199   2.233   2.233   2.273   2.320   2.316   2.312   2.350
  2.370   2.388   2.446   2.452   2.514   2.516   2.584   2.598
  2.627   2.763   2.788   2.834   2.894   3.037   3.314   3.324
  3.463   3.543   3.547   3.566   3.648   3.807   3.869   3.889
  3.993   4.147   4.208   4.254   4.292   4.338   4.580   4.834
  5.608   5.671   5.889   5.930   5.967   6.002   6.002   6.042
  6.058   6.160   6.332   6.337   6.351   6.411   6.505   6.514
  6.568   6.630   6.850   6.843   6.849   6.884   7.035   7.125
  7.170   7.249   7.420   7.620   7.648   7.857   8.021   8.164
  8.243   8.339   8.394   8.425   8.425   8.477   8.960   9.135
  9.134   9.235   9.295   9.311   9.491   9.557   9.625   9.947
 10.165  10.371  10.399  10.456  10.732  10.951  11.318  13.064
 13.756  19.406  19.762  21.334  26.747  26.791  27.098  27.765
 28.043  37.364  66.878  67.117  68.296  98.807  98.807  98.835
 98.838  98.852  98.887  98.889 115.348 115.370 115.542 115.871
116.012 123.466 225.288 225.482 226.459 509.831
 --------------------------------------------------------------
 
          Ground-State Mulliken Net Atomic Charges

     Atom                 Charge (a.u.)
  ----------------------------------------
      1 C                    -0.727888
      2 H                     0.363944
      3 H                     0.363944
  ----------------------------------------
  Sum of atomic charges =    -0.000000

 -----------------------------------------------------------------
                    Cartesian Multipole Moments
 -----------------------------------------------------------------
    Charge (ESU x 10^10)
                -0.0000
    Dipole Moment (Debye)
         X       0.0000      Y      -0.0000      Z      -0.5678
       Tot       0.5678
    Quadrupole Moments (Debye-Ang)
        XX      -8.2728     XY      -0.0000     YY      -5.8193
        XZ       0.0000     YZ       0.0000     ZZ      -7.7503
    Octopole Moments (Debye-Ang^2)
       XXX       0.0000    XXY      -0.0000    XYY       0.0000
       YYY      -0.0000    XXZ      -0.3364    XYZ       0.0000
       YYZ      -0.9164    XZZ       0.0000    YZZ      -0.0000
       ZZZ      -0.9269
    Hexadecapole Moments (Debye-Ang^3)
      XXXX     -10.4634   XXXY      -0.0000   XXYY      -4.6002
      XYYY       0.0000   YYYY     -13.2816   XXXZ      -0.0000
      XXYZ       0.0000   XYYZ       0.0000   YYYZ       0.0000
      XXZZ      -3.5277   XYZZ      -0.0000   YYZZ      -4.2118
      XZZZ      -0.0000   YZZZ       0.0000   ZZZZ     -10.5969
 -----------------------------------------------------------------
Archival summary:
1\1\n0069.mhg0\SP\ROMP2\BasisUnspecified\12(3)\yhljason\SatSep1901:33:012020SatSep1901:33:012020\0\\#,ROMP2,BasisUnspecified,\\0,3\C\H,1,1.08498\H,1,1.08498,2,135.503\\HF=-38.9347818\MP2=-39.1194713\\@

 Total job time:  166.73s(wall), 2649.52s(cpu) 
 Sat Sep 19 01:33:01 2020

        *************************************************************
        *                                                           *
        *  Thank you very much for using Q-Chem.  Have a nice day.  *
        *                                                           *
        *************************************************************


 
User input: 3 of 7 
 
Q-Chem Developer Version!
                  Welcome to Q-Chem
     A Quantum Leap Into The Future Of Chemistry


 Q-Chem 5.1, Q-Chem, Inc., Pleasanton, CA (2018)

 Yihan Shao,  Zhengting Gan,  E. Epifanovsky,  A. T. B. Gilbert,  M. Wormit,  
 J. Kussmann,  A. W. Lange,  A. Behn,  Jia Deng,  Xintian Feng,  D. Ghosh,  
 M. Goldey,  P. R. Horn,  L. D. Jacobson,  I. Kaliman,  T. Kus,  A. Landau,  
 Jie Liu,  E. I. Proynov,  R. M. Richard,  R. P. Steele,  E. J. Sundstrom,  
 H. L. Woodcock III,  P. M. Zimmerman,  D. Zuev,  B. Albrecht,  E. Alguire,  
 S. A. Baeppler,  D. Barton,  Z. Benda,  Y. A. Bernard,  E. J. Berquist,  
 K. B. Bravaya,  H. Burton,  D. Casanova,  Chun-Min Chang,  Yunqing Chen,  
 A. Chien,  K. D. Closser,  M. P. Coons,  S. Coriani,  S. Dasgupta,  
 A. L. Dempwolff,  M. Diedenhofen,  Hainam Do,  R. G. Edgar,  Po-Tung Fang,  
 S. Faraji,  S. Fatehi,  Qingguo Feng,  K. D. Fenk,  J. Fosso-Tande,  
 Qinghui Ge,  A. Ghysels,  G. Gidofalvi,  J. Gomes,  J. Gonthier,  A. Gunina,  
 D. Hait,  M. W. D. Hanson-Heine,  P. H. P. Harbach,  A. W. Hauser,  
 J. E. Herr,  E. G. Hohenstein,  Z. C. Holden,  Kerwin Hui,  B. C. Huynh,  
 T.-C. Jagau,  Hyunjun Ji,  B. Kaduk,  K. Khistyaev,  Jaehoon Kim,  
 P. Klunzinger,  K. Koh,  D. Kosenkov,  L. Koulias,  T. Kowalczyk,  
 C. M. Krauter,  A. Kunitsa,  Ka Un Lao,  A. Laurent,  K. V. Lawler,  
 Joonho Lee,  D. Lefrancois,  S. Lehtola,  D. S. Levine,  Yi-Pei Li,  
 You-Sheng Lin,  Fenglai Liu,  E. Livshits,  A. Luenser,  P. Manohar,  
 E. Mansoor,  S. F. Manzer,  Shan-Ping Mao,  Yuezhi Mao,  N. Mardirossian,  
 A. V. Marenich,  T. Markovich,  L. A. Martinez-Martinez,  S. A. Maurer,  
 N. J. Mayhall,  S. C. McKenzie,  J.-M. Mewes,  A. F. Morrison,  
 J. W. Mullinax,  K. Nanda,  T. S. Nguyen-Beck,  R. Olivares-Amaya,  
 J. A. Parkhill,  T. M. Perrine,  F. Plasser,  P. Pokhilko,  S. Prager,  
 A. Prociuk,  E. Ramos,  D. R. Rehn,  F. Rob,  M. Schneider,  N. Sergueev,  
 S. M. Sharada,  S. Sharma,  D. W. Small,  T. Stauch,  T. Stein,  
 Yu-Chuan Su,  A. J. W. Thom,  A. Tkatchenko,  T. Tsuchimochi,  N. M. Tubman,  
 L. Vogt,  M. L. Vidal,  O. Vydrov,  M. A. Watson,  J. Wenzel,  
 M. de Wergifosse,  T. A. Wesolowski,  A. White,  J. Witte,  A. Yamada,  
 Jun Yang,  K. Yao,  S. Yeganeh,  S. R. Yost,  Zhi-Qiang You,  A. Zech,  
 Igor Ying Zhang,  Xing Zhang,  Yan Zhao,  Ying Zhu,  B. R. Brooks,  
 G. K. L. Chan,  C. J. Cramer,  M. S. Gordon,  W. J. Hehre,  A. Klamt,  
 M. W. Schmidt,  C. D. Sherrill,  D. G. Truhlar,  A. Aspuru-Guzik,  R. Baer,  
 A. T. Bell,  N. A. Besley,  Jeng-Da Chai,  A. E. DePrince, III,  
 R. A. DiStasio Jr.,  A. Dreuw,  B. D. Dunietz,  T. R. Furlani,  
 Chao-Ping Hsu,  Yousung Jung,  Jing Kong,  D. S. Lambrecht,  WanZhen Liang,  
 C. Ochsenfeld,  V. A. Rassolov,  L. V. Slipchenko,  J. E. Subotnik,  
 T. Van Voorhis,  J. M. Herbert,  A. I. Krylov,  P. M. W. Gill,  M. Head-Gordon

 Contributors to earlier versions of Q-Chem not listed above: 
 R. D. Adamson,  B. Austin,  J. Baker,  G. J. O. Beran,  K. Brandhorst,  
 S. T. Brown,  E. F. C. Byrd,  A. K. Chakraborty,  C.-L. Cheng,  
 Siu Hung Chien,  D. M. Chipman,  D. L. Crittenden,  H. Dachsel,  
 R. J. Doerksen,  A. D. Dutoi,  L. Fusti-Molnar,  W. A. Goddard III,  
 A. Golubeva-Zadorozhnaya,  S. R. Gwaltney,  G. Hawkins,  A. Heyden,  
 S. Hirata,  G. Kedziora,  F. J. Keil,  C. Kelley,  Jihan Kim,  R. A. King,  
 R. Z. Khaliullin,  P. P. Korambath,  W. Kurlancheek,  A. M. Lee,  M. S. Lee,  
 S. V. Levchenko,  Ching Yeh Lin,  D. Liotard,  R. C. Lochan,  I. Lotan,  
 P. E. Maslen,  N. Nair,  D. P. O'Neill,  D. Neuhauser,  E. Neuscamman,  
 C. M. Oana,  R. Olson,  B. Peters,  R. Peverati,  P. A. Pieniazek,  
 Y. M. Rhee,  J. Ritchie,  M. A. Rohrdanz,  E. Rosta,  N. J. Russ,  
 H. F. Schaefer III,  N. E. Schultz,  N. Shenvi,  A. C. Simmonett,  A. Sodt,  
 D. Stuck,  K. S. Thanthiriwatte,  V. Vanovschi,  Tao Wang,  A. Warshel,  
 C. F. Williams,  Q. Wu,  X. Xu,  W. Zhang

 Please cite Q-Chem as follows:
 Y. Shao et al., Mol. Phys. 113, 184-215 (2015)
 DOI: 10.1080/00268976.2014.952696

 Q-Chem 5.1.1 for Intel X86 EM64T Linux

 Parts of Q-Chem use Armadillo 8.300.2 (Tropical Shenanigans).
 http://arma.sourceforge.net/

 Q-Chem begins on Sat Sep 19 01:33:01 2020  

Host: n0069.mhg0
0

     Scratch files written to /local/scratch/users/yhljason/CH2-t_rmp2_aug-cc-pcVQZ.inp20200919012541//
The previous job contains 0 fragments, simply inherited here
Input Ideriv = 1
Curr. Ideriv = -1
Max.  Ideriv = 1

Checking the input file for inconsistencies... 	...done.

--------------------------------------------------------------
User input:
--------------------------------------------------------------
$molecule
read
$end

$rem

jobtype sp
method mp2
xc_grid 000099000590
basis aug-cc-pcVQZ
max_scf_cycles 200
thresh 14
scf_convergence 8
mem_total 128000
cc_memory 96000
cc_backend xm
mem_static 1500
symmetry false
sym_ignore true
scf_guess read
unrestricted false
scf_algorithm gdm
n_frozen_core 0
$end

$multipole_field
XX -0.0001
$end


--------------------------------------------------------------
 ----------------------------------------------------------------
             Standard Nuclear Orientation (Angstroms)
    I     Atom           X                Y                Z
 ----------------------------------------------------------------
    1      C       0.0000000000     0.0000000000     0.1027000000
    2      H       0.0000000000     1.0042000000    -0.3081000000
    3      H       0.0000000000    -1.0042000000    -0.3081000000
 ----------------------------------------------------------------
 Nuclear Repulsion Energy =     6.1162592434 hartrees
 There are        5 alpha and        3 beta electrons
 Requested basis set is aug-cc-pCVQZ
 There are 57 shells and 201 basis functions

 Total QAlloc Memory Limit 128000 MB
 Mega-Array Size      1467 MB
 MEM_STATIC part      1500 MB

                       Distance Matrix (Angstroms)
             C (  1)   H (  2)
   H (  2)  1.084977
   H (  3)  1.084977  2.008400
 
 Applying Cartesian multipole field
    Component          Value
    ---------          -----
     (2,0,0)       -1.00000E-04
 A cutoff of  1.0D-14 yielded   1653 shell pairs
 There are     20709 function pairs (     31923 Cartesian)
 
 -------------------------------------------------------
 OpenMP Integral Computing Module                       
 Release: version 1.0, May 2013, Q-Chem Inc. Pittsburgh 
 -------------------------------------------------------
 Integral Job Info:
 Integral job number is                      11
 Integral operator is                         1
 short-range coefficients                     0
 long-range coefficients              100000000
 Omega coefficients                           0
 if combine SR and LR in K                    0
 Integral screening is                        0
 Integral computing path is                   2
 max size of driver memory is           3200000
 size of driver memory is               1704330
 size of scratch memory is             18511652
 max col of scratch BK array              50625
 max len of scratch array in speh3         2114
 max len of scratch index in speh4           50
 max int batch size is                      520
 min int batch size is                       52
 fixed nKL is                                52
 max L of basis functions is                  4
 order of int derivative is                   0
 number of shells is                         57
 number of basis is                         249
 number of cartesian basis is               249
 number of contracted shell pairs          1653
 number of primitive shell pairs           3161
 maxK2 (contraction) of shell pair           81
 max number of K2 of shell pair               1
 max number of CS2 of shell pair            227
 max number of PS2 of shell pair            288
 mem total for path MDJ                  643177
 -------------------------------------------------------
 Smallest overlap matrix eigenvalue = 4.27E-05
 Guess MOs from SCF MO coefficient file
 Reading MOs from coefficient file
 Reading MOs from coefficient file
 A restricted Hartree-Fock SCF calculation will be
 performed using Geometric Direct Minimization
 SCF converges when RMS gradient is below 1.0E-08
Using Q-Chem read-in guess as SCF_GUESS READ specified.

 using 16 threads for integral computing
 -------------------------------------------------------
 OpenMP Integral computing Module                
 Release: version 2.0, May 2017, Q-Chem Inc. Pleasanton 
 -------------------------------------------------------
TIMEINFO->: J/JK contribution 44.96 sec.
 ---------------------------------------
  Cycle       Energy        RMS Gradient
 ---------------------------------------
    1     -38.9335517085      1.39E-03 Normal BFGS step
TIMEINFO->: J/JK contribution 44.73 sec.
    2     -38.9335523270      1.47E-03 Normal BFGS step
TIMEINFO->: J/JK contribution 44.74 sec.
    3     -38.9335529731      1.12E-04 Normal BFGS step
TIMEINFO->: J/JK contribution 44.87 sec.
    4     -38.9335529914      8.23E-05 Normal BFGS step
TIMEINFO->: J/JK contribution 44.68 sec.
    5     -38.9335529963      3.53E-05 Normal BFGS step
TIMEINFO->: J/JK contribution 44.76 sec.
    6     -38.9335529966      3.47E-05 Normal BFGS step
TIMEINFO->: J/JK contribution 44.56 sec.
    7     -38.9335529971      1.20E-05 Normal BFGS step
TIMEINFO->: J/JK contribution 44.67 sec.
    8     -38.9335529971      9.21E-06 Normal BFGS step
TIMEINFO->: J/JK contribution 44.26 sec.
    9     -38.9335529971      6.27E-07 Normal BFGS step
TIMEINFO->: J/JK contribution 44.27 sec.
   10     -38.9335529971      5.01E-07 Normal BFGS step
TIMEINFO->: J/JK contribution 43.83 sec.
   11     -38.9335529971      6.04E-08 Normal BFGS step
TIMEINFO->: J/JK contribution 43.65 sec.
   12     -38.9335529971      4.19E-08 Normal BFGS step
TIMEINFO->: J/JK contribution 42.87 sec.
   13     -38.9335529971      3.77E-09 Convergence criterion met
 ---------------------------------------
 SCF time:  CPU 602.21 s  wall 37.92 s
 SCF   energy in the final basis set = -38.93355300
 Total energy in the final basis set = -38.93355300
 
 Components of the MP2 correlation energy:
        aaaa  correlation energy =        -0.0287441354 au
        abab  correlation energy =        -0.1491674255 au
        bbbb  correlation energy =        -0.0036556824 au
        non-Brillouin singles    =        -0.0031123803 au

 Total  MP2   correlation energy =                    -0.18467962 au
        MP2         total energy =                   -39.11823262 au
 
 --------------------------------------------------------------
 
                    Orbital Energies (a.u.)
 --------------------------------------------------------------
 
 Alpha MOs
 -- Occupied --
-11.267  -0.921  -0.626  -0.464  -0.402
 -- Virtual --
  0.030   0.042   0.076   0.084   0.126   0.127   0.176   0.182
  0.214   0.228   0.229   0.262   0.273   0.270   0.300   0.314
  0.311   0.334   0.373   0.442   0.462   0.491   0.567   0.589
  0.642   0.646   0.677   0.700   0.701   0.705   0.732   0.758
  0.760   0.768   0.772   0.783   0.794   0.865   0.900   0.902
  0.931   0.954   1.021   1.060   1.067   1.138   1.136   1.219
  1.411   1.418   1.472   1.475   1.507   1.662   1.683   1.700
  1.715   1.710   1.751   1.757   1.799   1.900   1.924   1.946
  1.956   1.969   2.024   2.044   2.058   2.134   2.132   2.172
  2.204   2.244   2.269   2.277   2.288   2.302   2.328   2.374
  2.422   2.433   2.490   2.491   2.555   2.578   2.607   2.745
  2.770   2.816   2.873   3.014   3.299   3.316   3.448   3.527
  3.530   3.554   3.635   3.798   3.849   3.874   3.980   4.133
  4.185   4.228   4.270   4.313   4.558   4.823   5.554   5.619
  5.867   5.909   5.940   5.962   5.965   6.018   6.024   6.129
  6.296   6.298   6.317   6.382   6.444   6.457   6.543   6.595
  6.823   6.828   6.834   6.868   7.014   7.095   7.153   7.226
  7.379   7.600   7.613   7.846   8.010   8.159   8.236   8.328
  8.386   8.417   8.420   8.469   8.955   9.126   9.128   9.228
  9.290   9.307   9.483   9.549   9.619   9.939  10.147  10.357
 10.385  10.445  10.716  10.944  11.307  13.058  13.742  19.375
 19.734  21.322  26.718  26.762  27.079  27.750  28.032  37.349
 66.866  67.107  68.291  98.797  98.798  98.829  98.831  98.847
 98.882  98.884 115.341 115.364 115.537 115.867 116.008 123.460
225.285 225.479 226.457 509.829
 
 Beta MOs
 -- Occupied --
-11.225  -0.779  -0.581
 -- Virtual --
  0.171   0.185   0.032   0.043   0.081   0.092   0.127   0.134
  0.185   0.189   0.222   0.241   0.241   0.275   0.274   0.281
  0.303   0.317   0.324   0.352   0.387   0.466   0.510   0.515
  0.604   0.611   0.677   0.678   0.685   0.709   0.709   0.713
  0.755   0.764   0.783   0.773   0.801   0.807   0.815   0.893
  0.926   0.930   0.941   0.967   1.042   1.067   1.085   1.155
  1.170   1.267   1.421   1.440   1.482   1.495   1.531   1.674
  1.694   1.719   1.723   1.745   1.756   1.762   1.830   1.912
  1.933   1.950   1.970   1.999   2.029   2.063   2.078   2.170
  2.199   2.234   2.233   2.274   2.321   2.317   2.312   2.351
  2.371   2.389   2.447   2.453   2.515   2.516   2.584   2.599
  2.627   2.764   2.789   2.835   2.894   3.037   3.315   3.324
  3.464   3.544   3.548   3.566   3.648   3.807   3.869   3.890
  3.994   4.147   4.209   4.254   4.292   4.339   4.581   4.835
  5.608   5.672   5.889   5.931   5.967   6.003   6.003   6.042
  6.059   6.160   6.332   6.337   6.352   6.411   6.506   6.515
  6.568   6.630   6.850   6.843   6.849   6.885   7.035   7.125
  7.170   7.249   7.421   7.620   7.649   7.858   8.022   8.165
  8.244   8.339   8.394   8.425   8.426   8.477   8.961   9.135
  9.134   9.235   9.296   9.312   9.491   9.557   9.626   9.947
 10.166  10.371  10.399  10.457  10.732  10.952  11.318  13.065
 13.757  19.407  19.762  21.335  26.748  26.791  27.098  27.766
 28.044  37.365  66.878  67.117  68.297  98.807  98.808  98.836
 98.839  98.853  98.887  98.889 115.349 115.371 115.542 115.872
116.012 123.467 225.289 225.483 226.460 509.831
 --------------------------------------------------------------
 
          Ground-State Mulliken Net Atomic Charges

     Atom                 Charge (a.u.)
  ----------------------------------------
      1 C                    -0.723516
      2 H                     0.361758
      3 H                     0.361758
  ----------------------------------------
  Sum of atomic charges =    -0.000000

 -----------------------------------------------------------------
                    Cartesian Multipole Moments
 -----------------------------------------------------------------
    Charge (ESU x 10^10)
                -0.0000
    Dipole Moment (Debye)
         X      -0.0000      Y      -0.0000      Z      -0.5669
       Tot       0.5669
    Quadrupole Moments (Debye-Ang)
        XX      -8.2555     XY       0.0000     YY      -5.8180
        XZ       0.0000     YZ      -0.0000     ZZ      -7.7465
    Octopole Moments (Debye-Ang^2)
       XXX      -0.0000    XXY      -0.0000    XYY      -0.0000
       YYY      -0.0000    XXZ      -0.3345    XYZ      -0.0000
       YYZ      -0.9148    XZZ      -0.0000    YZZ      -0.0000
       ZZZ      -0.9249
    Hexadecapole Moments (Debye-Ang^3)
      XXXX     -10.3819   XXXY       0.0000   XXYY      -4.5848
      XYYY       0.0000   YYYY     -13.2749   XXXZ       0.0000
      XXYZ      -0.0000   XYYZ       0.0000   YYYZ      -0.0000
      XXZZ      -3.5112   XYZZ       0.0000   YYZZ      -4.2077
      XZZZ       0.0000   YZZZ      -0.0000   ZZZZ     -10.5793
 -----------------------------------------------------------------
Archival summary:
1\1\n0069.mhg0\SP\ROMP2\BasisUnspecified\12(3)\yhljason\SatSep1901:35:472020SatSep1901:35:472020\0\\#,ROMP2,BasisUnspecified,\\0,3\C\H,1,1.08498\H,1,1.08498,2,135.503\\HF=-38.933553\MP2=-39.1182326\\@

 Total job time:  166.20s(wall), 2640.74s(cpu) 
 Sat Sep 19 01:35:47 2020

        *************************************************************
        *                                                           *
        *  Thank you very much for using Q-Chem.  Have a nice day.  *
        *                                                           *
        *************************************************************


 
User input: 4 of 7 
 
Q-Chem Developer Version!
                  Welcome to Q-Chem
     A Quantum Leap Into The Future Of Chemistry


 Q-Chem 5.1, Q-Chem, Inc., Pleasanton, CA (2018)

 Yihan Shao,  Zhengting Gan,  E. Epifanovsky,  A. T. B. Gilbert,  M. Wormit,  
 J. Kussmann,  A. W. Lange,  A. Behn,  Jia Deng,  Xintian Feng,  D. Ghosh,  
 M. Goldey,  P. R. Horn,  L. D. Jacobson,  I. Kaliman,  T. Kus,  A. Landau,  
 Jie Liu,  E. I. Proynov,  R. M. Richard,  R. P. Steele,  E. J. Sundstrom,  
 H. L. Woodcock III,  P. M. Zimmerman,  D. Zuev,  B. Albrecht,  E. Alguire,  
 S. A. Baeppler,  D. Barton,  Z. Benda,  Y. A. Bernard,  E. J. Berquist,  
 K. B. Bravaya,  H. Burton,  D. Casanova,  Chun-Min Chang,  Yunqing Chen,  
 A. Chien,  K. D. Closser,  M. P. Coons,  S. Coriani,  S. Dasgupta,  
 A. L. Dempwolff,  M. Diedenhofen,  Hainam Do,  R. G. Edgar,  Po-Tung Fang,  
 S. Faraji,  S. Fatehi,  Qingguo Feng,  K. D. Fenk,  J. Fosso-Tande,  
 Qinghui Ge,  A. Ghysels,  G. Gidofalvi,  J. Gomes,  J. Gonthier,  A. Gunina,  
 D. Hait,  M. W. D. Hanson-Heine,  P. H. P. Harbach,  A. W. Hauser,  
 J. E. Herr,  E. G. Hohenstein,  Z. C. Holden,  Kerwin Hui,  B. C. Huynh,  
 T.-C. Jagau,  Hyunjun Ji,  B. Kaduk,  K. Khistyaev,  Jaehoon Kim,  
 P. Klunzinger,  K. Koh,  D. Kosenkov,  L. Koulias,  T. Kowalczyk,  
 C. M. Krauter,  A. Kunitsa,  Ka Un Lao,  A. Laurent,  K. V. Lawler,  
 Joonho Lee,  D. Lefrancois,  S. Lehtola,  D. S. Levine,  Yi-Pei Li,  
 You-Sheng Lin,  Fenglai Liu,  E. Livshits,  A. Luenser,  P. Manohar,  
 E. Mansoor,  S. F. Manzer,  Shan-Ping Mao,  Yuezhi Mao,  N. Mardirossian,  
 A. V. Marenich,  T. Markovich,  L. A. Martinez-Martinez,  S. A. Maurer,  
 N. J. Mayhall,  S. C. McKenzie,  J.-M. Mewes,  A. F. Morrison,  
 J. W. Mullinax,  K. Nanda,  T. S. Nguyen-Beck,  R. Olivares-Amaya,  
 J. A. Parkhill,  T. M. Perrine,  F. Plasser,  P. Pokhilko,  S. Prager,  
 A. Prociuk,  E. Ramos,  D. R. Rehn,  F. Rob,  M. Schneider,  N. Sergueev,  
 S. M. Sharada,  S. Sharma,  D. W. Small,  T. Stauch,  T. Stein,  
 Yu-Chuan Su,  A. J. W. Thom,  A. Tkatchenko,  T. Tsuchimochi,  N. M. Tubman,  
 L. Vogt,  M. L. Vidal,  O. Vydrov,  M. A. Watson,  J. Wenzel,  
 M. de Wergifosse,  T. A. Wesolowski,  A. White,  J. Witte,  A. Yamada,  
 Jun Yang,  K. Yao,  S. Yeganeh,  S. R. Yost,  Zhi-Qiang You,  A. Zech,  
 Igor Ying Zhang,  Xing Zhang,  Yan Zhao,  Ying Zhu,  B. R. Brooks,  
 G. K. L. Chan,  C. J. Cramer,  M. S. Gordon,  W. J. Hehre,  A. Klamt,  
 M. W. Schmidt,  C. D. Sherrill,  D. G. Truhlar,  A. Aspuru-Guzik,  R. Baer,  
 A. T. Bell,  N. A. Besley,  Jeng-Da Chai,  A. E. DePrince, III,  
 R. A. DiStasio Jr.,  A. Dreuw,  B. D. Dunietz,  T. R. Furlani,  
 Chao-Ping Hsu,  Yousung Jung,  Jing Kong,  D. S. Lambrecht,  WanZhen Liang,  
 C. Ochsenfeld,  V. A. Rassolov,  L. V. Slipchenko,  J. E. Subotnik,  
 T. Van Voorhis,  J. M. Herbert,  A. I. Krylov,  P. M. W. Gill,  M. Head-Gordon

 Contributors to earlier versions of Q-Chem not listed above: 
 R. D. Adamson,  B. Austin,  J. Baker,  G. J. O. Beran,  K. Brandhorst,  
 S. T. Brown,  E. F. C. Byrd,  A. K. Chakraborty,  C.-L. Cheng,  
 Siu Hung Chien,  D. M. Chipman,  D. L. Crittenden,  H. Dachsel,  
 R. J. Doerksen,  A. D. Dutoi,  L. Fusti-Molnar,  W. A. Goddard III,  
 A. Golubeva-Zadorozhnaya,  S. R. Gwaltney,  G. Hawkins,  A. Heyden,  
 S. Hirata,  G. Kedziora,  F. J. Keil,  C. Kelley,  Jihan Kim,  R. A. King,  
 R. Z. Khaliullin,  P. P. Korambath,  W. Kurlancheek,  A. M. Lee,  M. S. Lee,  
 S. V. Levchenko,  Ching Yeh Lin,  D. Liotard,  R. C. Lochan,  I. Lotan,  
 P. E. Maslen,  N. Nair,  D. P. O'Neill,  D. Neuhauser,  E. Neuscamman,  
 C. M. Oana,  R. Olson,  B. Peters,  R. Peverati,  P. A. Pieniazek,  
 Y. M. Rhee,  J. Ritchie,  M. A. Rohrdanz,  E. Rosta,  N. J. Russ,  
 H. F. Schaefer III,  N. E. Schultz,  N. Shenvi,  A. C. Simmonett,  A. Sodt,  
 D. Stuck,  K. S. Thanthiriwatte,  V. Vanovschi,  Tao Wang,  A. Warshel,  
 C. F. Williams,  Q. Wu,  X. Xu,  W. Zhang

 Please cite Q-Chem as follows:
 Y. Shao et al., Mol. Phys. 113, 184-215 (2015)
 DOI: 10.1080/00268976.2014.952696

 Q-Chem 5.1.1 for Intel X86 EM64T Linux

 Parts of Q-Chem use Armadillo 8.300.2 (Tropical Shenanigans).
 http://arma.sourceforge.net/

 Q-Chem begins on Sat Sep 19 01:35:47 2020  

Host: n0069.mhg0
0

     Scratch files written to /local/scratch/users/yhljason/CH2-t_rmp2_aug-cc-pcVQZ.inp20200919012541//
The previous job contains 0 fragments, simply inherited here
Input Ideriv = 1
Curr. Ideriv = -1
Max.  Ideriv = 1

Checking the input file for inconsistencies... 	...done.

--------------------------------------------------------------
User input:
--------------------------------------------------------------
$molecule
read
$end

$rem

jobtype sp
method mp2
xc_grid 000099000590
basis aug-cc-pcVQZ
max_scf_cycles 200
thresh 14
scf_convergence 8
mem_total 128000
cc_memory 96000
cc_backend xm
mem_static 1500
symmetry false
sym_ignore true
scf_guess read
unrestricted false
scf_algorithm gdm
n_frozen_core 0
$end

$multipole_field
YY 0.0001
$end


--------------------------------------------------------------
 ----------------------------------------------------------------
             Standard Nuclear Orientation (Angstroms)
    I     Atom           X                Y                Z
 ----------------------------------------------------------------
    1      C       0.0000000000     0.0000000000     0.1027000000
    2      H       0.0000000000     1.0042000000    -0.3081000000
    3      H       0.0000000000    -1.0042000000    -0.3081000000
 ----------------------------------------------------------------
 Nuclear Repulsion Energy =     6.1162592434 hartrees
 There are        5 alpha and        3 beta electrons
 Requested basis set is aug-cc-pCVQZ
 There are 57 shells and 201 basis functions

 Total QAlloc Memory Limit 128000 MB
 Mega-Array Size      1467 MB
 MEM_STATIC part      1500 MB

                       Distance Matrix (Angstroms)
             C (  1)   H (  2)
   H (  2)  1.084977
   H (  3)  1.084977  2.008400
 
 Applying Cartesian multipole field
    Component          Value
    ---------          -----
     (0,2,0)        1.00000E-04
 Nucleus-field energy     =     0.0007202250 hartrees
 A cutoff of  1.0D-14 yielded   1653 shell pairs
 There are     20709 function pairs (     31923 Cartesian)
 
 -------------------------------------------------------
 OpenMP Integral Computing Module                       
 Release: version 1.0, May 2013, Q-Chem Inc. Pittsburgh 
 -------------------------------------------------------
 Integral Job Info:
 Integral job number is                      11
 Integral operator is                         1
 short-range coefficients                     0
 long-range coefficients              100000000
 Omega coefficients                           0
 if combine SR and LR in K                    0
 Integral screening is                        0
 Integral computing path is                   2
 max size of driver memory is           3200000
 size of driver memory is               1704330
 size of scratch memory is             18511652
 max col of scratch BK array              50625
 max len of scratch array in speh3         2114
 max len of scratch index in speh4           50
 max int batch size is                      520
 min int batch size is                       52
 fixed nKL is                                52
 max L of basis functions is                  4
 order of int derivative is                   0
 number of shells is                         57
 number of basis is                         249
 number of cartesian basis is               249
 number of contracted shell pairs          1653
 number of primitive shell pairs           3161
 maxK2 (contraction) of shell pair           81
 max number of K2 of shell pair               1
 max number of CS2 of shell pair            227
 max number of PS2 of shell pair            288
 mem total for path MDJ                  643177
 -------------------------------------------------------
 Smallest overlap matrix eigenvalue = 4.27E-05
 Guess MOs from SCF MO coefficient file
 Reading MOs from coefficient file
 Reading MOs from coefficient file
 A restricted Hartree-Fock SCF calculation will be
 performed using Geometric Direct Minimization
 SCF converges when RMS gradient is below 1.0E-08
Using Q-Chem read-in guess as SCF_GUESS READ specified.

 using 16 threads for integral computing
 -------------------------------------------------------
 OpenMP Integral computing Module                
 Release: version 2.0, May 2017, Q-Chem Inc. Pleasanton 
 -------------------------------------------------------
TIMEINFO->: J/JK contribution 44.88 sec.
 ---------------------------------------
  Cycle       Energy        RMS Gradient
 ---------------------------------------
    1     -38.9345993307      8.80E-04 Normal BFGS step
TIMEINFO->: J/JK contribution 44.61 sec.
    2     -38.9345996962      1.04E-03 Normal BFGS step
TIMEINFO->: J/JK contribution 44.75 sec.
    3     -38.9346000886      1.19E-04 Normal BFGS step
TIMEINFO->: J/JK contribution 44.93 sec.
    4     -38.9346000975      1.72E-04 Normal BFGS step
TIMEINFO->: J/JK contribution 44.71 sec.
    5     -38.9346001077      9.33E-05 Normal BFGS step
TIMEINFO->: J/JK contribution 44.79 sec.
    6     -38.9346001082      4.47E-05 Normal BFGS step
TIMEINFO->: J/JK contribution 44.60 sec.
    7     -38.9346001100      9.08E-06 Normal BFGS step
TIMEINFO->: J/JK contribution 44.42 sec.
   GDM::WARNING energy changes are now smaller than effective accuracy.
   GDM::        calculation will continue, but THRESH should be increased
   GDM::        or SCF_CONVERGENCE decreased.
   GDM::        effective_thresh =   5.000000000000000E-011
    8     -38.9346001100      8.53E-06 Normal BFGS step
TIMEINFO->: J/JK contribution 44.50 sec.
    9     -38.9346001100      3.66E-07 Normal BFGS step
TIMEINFO->: J/JK contribution 44.28 sec.
   10     -38.9346001100      1.24E-07 Normal BFGS step
TIMEINFO->: J/JK contribution 44.16 sec.
   11     -38.9346001100      2.68E-08 Normal BFGS step
TIMEINFO->: J/JK contribution 43.63 sec.
   12     -38.9346001100      2.03E-08 Normal BFGS step
TIMEINFO->: J/JK contribution 42.40 sec.
   GDM::WARNING energy changes are now smaller than effective accuracy.
   GDM::        calculation will continue, but THRESH should be increased
   GDM::        or SCF_CONVERGENCE decreased.
   GDM::        effective_thresh =   5.000000000000000E-011
   13     -38.9346001100      6.35E-09 Convergence criterion met
 ---------------------------------------
 SCF time:  CPU 602.09 s  wall 37.90 s
 SCF   energy in the final basis set = -38.93460011
 Total energy in the final basis set = -38.93460011
 
 Components of the MP2 correlation energy:
        aaaa  correlation energy =        -0.0287484422 au
        abab  correlation energy =        -0.1491683527 au
        bbbb  correlation energy =        -0.0036554162 au
        non-Brillouin singles    =        -0.0031100993 au

 Total  MP2   correlation energy =                    -0.18468231 au
        MP2         total energy =                   -39.11928242 au
 
 --------------------------------------------------------------
 
                    Orbital Energies (a.u.)
 --------------------------------------------------------------
 
 Alpha MOs
 -- Occupied --
-11.268  -0.921  -0.626  -0.464  -0.402
 -- Virtual --
  0.025   0.035   0.073   0.080   0.121   0.123   0.174   0.180
  0.212   0.226   0.227   0.260   0.266   0.270   0.297   0.311
  0.309   0.331   0.370   0.441   0.460   0.490   0.566   0.587
  0.641   0.645   0.675   0.698   0.700   0.703   0.730   0.756
  0.758   0.767   0.771   0.781   0.792   0.864   0.899   0.901
  0.930   0.953   1.020   1.059   1.066   1.136   1.135   1.218
  1.410   1.417   1.471   1.473   1.506   1.661   1.682   1.699
  1.714   1.709   1.750   1.756   1.798   1.899   1.922   1.945
  1.955   1.968   2.023   2.043   2.057   2.133   2.131   2.171
  2.203   2.243   2.269   2.277   2.287   2.301   2.327   2.373
  2.422   2.432   2.489   2.490   2.554   2.577   2.606   2.744
  2.769   2.815   2.872   3.013   3.298   3.315   3.447   3.526
  3.529   3.553   3.635   3.797   3.848   3.873   3.980   4.132
  4.184   4.227   4.269   4.312   4.557   4.822   5.553   5.618
  5.867   5.908   5.939   5.961   5.964   6.017   6.024   6.128
  6.296   6.297   6.316   6.381   6.443   6.456   6.543   6.594
  6.823   6.828   6.834   6.868   7.014   7.094   7.153   7.226
  7.379   7.600   7.612   7.845   8.009   8.158   8.235   8.327
  8.386   8.417   8.419   8.468   8.954   9.126   9.127   9.227
  9.289   9.306   9.483   9.549   9.618   9.939  10.146  10.356
 10.385  10.444  10.715  10.943  11.306  13.057  13.741  19.375
 19.733  21.321  26.717  26.761  27.079  27.749  28.031  37.348
 66.866  67.106  68.290  98.797  98.797  98.828  98.831  98.846
 98.881  98.883 115.340 115.363 115.536 115.866 116.007 123.459
225.284 225.478 226.456 509.828
 
 Beta MOs
 -- Occupied --
-11.226  -0.779  -0.581
 -- Virtual --
  0.170   0.184   0.026   0.035   0.079   0.088   0.122   0.130
  0.183   0.186   0.219   0.239   0.239   0.272   0.278   0.271
  0.300   0.314   0.322   0.349   0.384   0.464   0.508   0.513
  0.603   0.609   0.676   0.677   0.683   0.707   0.707   0.711
  0.753   0.762   0.781   0.771   0.800   0.805   0.814   0.891
  0.925   0.929   0.940   0.965   1.041   1.065   1.084   1.154
  1.169   1.266   1.419   1.439   1.481   1.494   1.530   1.673
  1.693   1.718   1.722   1.744   1.755   1.761   1.829   1.911
  1.931   1.949   1.969   1.998   2.028   2.062   2.077   2.169
  2.199   2.233   2.232   2.273   2.320   2.316   2.311   2.350
  2.370   2.388   2.446   2.452   2.514   2.516   2.583   2.598
  2.627   2.763   2.788   2.834   2.894   3.036   3.314   3.323
  3.463   3.543   3.547   3.565   3.647   3.807   3.869   3.889
  3.993   4.147   4.208   4.253   4.292   4.338   4.580   4.834
  5.607   5.671   5.889   5.930   5.967   6.002   6.002   6.041
  6.058   6.160   6.331   6.337   6.351   6.411   6.505   6.514
  6.567   6.629   6.849   6.843   6.848   6.884   7.035   7.125
  7.169   7.249   7.420   7.620   7.648   7.857   8.021   8.164
  8.243   8.339   8.393   8.425   8.425   8.477   8.960   9.134
  9.134   9.234   9.295   9.311   9.491   9.557   9.625   9.946
 10.165  10.370  10.399  10.456  10.731  10.951  11.317  13.064
 13.756  19.406  19.761  21.334  26.747  26.791  27.098  27.765
 28.043  37.364  66.878  67.117  68.296  98.806  98.807  98.835
 98.838  98.852  98.886  98.888 115.348 115.370 115.542 115.871
116.012 123.466 225.288 225.482 226.459 509.831
 --------------------------------------------------------------
 
          Ground-State Mulliken Net Atomic Charges

     Atom                 Charge (a.u.)
  ----------------------------------------
      1 C                    -0.724083
      2 H                     0.362042
      3 H                     0.362042
  ----------------------------------------
  Sum of atomic charges =    -0.000000

 -----------------------------------------------------------------
                    Cartesian Multipole Moments
 -----------------------------------------------------------------
    Charge (ESU x 10^10)
                -0.0000
    Dipole Moment (Debye)
         X       0.0000      Y      -0.0000      Z      -0.5664
       Tot       0.5664
    Quadrupole Moments (Debye-Ang)
        XX      -8.2647     XY       0.0000     YY      -5.8298
        XZ       0.0000     YZ       0.0000     ZZ      -7.7490
    Octopole Moments (Debye-Ang^2)
       XXX       0.0000    XXY       0.0000    XYY       0.0000
       YYY      -0.0000    XXZ      -0.3350    XYZ      -0.0000
       YYZ      -0.9126    XZZ       0.0000    YZZ       0.0000
       ZZZ      -0.9244
    Hexadecapole Moments (Debye-Ang^3)
      XXXX     -10.4250   XXXY      -0.0000   XXYY      -4.5988
      XYYY       0.0000   YYYY     -13.3242   XXXZ      -0.0000
      XXYZ       0.0000   XYYZ       0.0000   YYYZ       0.0000
      XXZZ      -3.5203   XYZZ       0.0000   YYZZ      -4.2165
      XZZZ       0.0000   YZZZ       0.0000   ZZZZ     -10.5903
 -----------------------------------------------------------------
Archival summary:
1\1\n0069.mhg0\SP\ROMP2\BasisUnspecified\12(3)\yhljason\SatSep1901:38:352020SatSep1901:38:352020\0\\#,ROMP2,BasisUnspecified,\\0,3\C\H,1,1.08498\H,1,1.08498,2,135.503\\HF=-38.9346001\MP2=-39.1192824\\@

 Total job time:  167.23s(wall), 2657.96s(cpu) 
 Sat Sep 19 01:38:35 2020

        *************************************************************
        *                                                           *
        *  Thank you very much for using Q-Chem.  Have a nice day.  *
        *                                                           *
        *************************************************************


 
User input: 5 of 7 
 
Q-Chem Developer Version!
                  Welcome to Q-Chem
     A Quantum Leap Into The Future Of Chemistry


 Q-Chem 5.1, Q-Chem, Inc., Pleasanton, CA (2018)

 Yihan Shao,  Zhengting Gan,  E. Epifanovsky,  A. T. B. Gilbert,  M. Wormit,  
 J. Kussmann,  A. W. Lange,  A. Behn,  Jia Deng,  Xintian Feng,  D. Ghosh,  
 M. Goldey,  P. R. Horn,  L. D. Jacobson,  I. Kaliman,  T. Kus,  A. Landau,  
 Jie Liu,  E. I. Proynov,  R. M. Richard,  R. P. Steele,  E. J. Sundstrom,  
 H. L. Woodcock III,  P. M. Zimmerman,  D. Zuev,  B. Albrecht,  E. Alguire,  
 S. A. Baeppler,  D. Barton,  Z. Benda,  Y. A. Bernard,  E. J. Berquist,  
 K. B. Bravaya,  H. Burton,  D. Casanova,  Chun-Min Chang,  Yunqing Chen,  
 A. Chien,  K. D. Closser,  M. P. Coons,  S. Coriani,  S. Dasgupta,  
 A. L. Dempwolff,  M. Diedenhofen,  Hainam Do,  R. G. Edgar,  Po-Tung Fang,  
 S. Faraji,  S. Fatehi,  Qingguo Feng,  K. D. Fenk,  J. Fosso-Tande,  
 Qinghui Ge,  A. Ghysels,  G. Gidofalvi,  J. Gomes,  J. Gonthier,  A. Gunina,  
 D. Hait,  M. W. D. Hanson-Heine,  P. H. P. Harbach,  A. W. Hauser,  
 J. E. Herr,  E. G. Hohenstein,  Z. C. Holden,  Kerwin Hui,  B. C. Huynh,  
 T.-C. Jagau,  Hyunjun Ji,  B. Kaduk,  K. Khistyaev,  Jaehoon Kim,  
 P. Klunzinger,  K. Koh,  D. Kosenkov,  L. Koulias,  T. Kowalczyk,  
 C. M. Krauter,  A. Kunitsa,  Ka Un Lao,  A. Laurent,  K. V. Lawler,  
 Joonho Lee,  D. Lefrancois,  S. Lehtola,  D. S. Levine,  Yi-Pei Li,  
 You-Sheng Lin,  Fenglai Liu,  E. Livshits,  A. Luenser,  P. Manohar,  
 E. Mansoor,  S. F. Manzer,  Shan-Ping Mao,  Yuezhi Mao,  N. Mardirossian,  
 A. V. Marenich,  T. Markovich,  L. A. Martinez-Martinez,  S. A. Maurer,  
 N. J. Mayhall,  S. C. McKenzie,  J.-M. Mewes,  A. F. Morrison,  
 J. W. Mullinax,  K. Nanda,  T. S. Nguyen-Beck,  R. Olivares-Amaya,  
 J. A. Parkhill,  T. M. Perrine,  F. Plasser,  P. Pokhilko,  S. Prager,  
 A. Prociuk,  E. Ramos,  D. R. Rehn,  F. Rob,  M. Schneider,  N. Sergueev,  
 S. M. Sharada,  S. Sharma,  D. W. Small,  T. Stauch,  T. Stein,  
 Yu-Chuan Su,  A. J. W. Thom,  A. Tkatchenko,  T. Tsuchimochi,  N. M. Tubman,  
 L. Vogt,  M. L. Vidal,  O. Vydrov,  M. A. Watson,  J. Wenzel,  
 M. de Wergifosse,  T. A. Wesolowski,  A. White,  J. Witte,  A. Yamada,  
 Jun Yang,  K. Yao,  S. Yeganeh,  S. R. Yost,  Zhi-Qiang You,  A. Zech,  
 Igor Ying Zhang,  Xing Zhang,  Yan Zhao,  Ying Zhu,  B. R. Brooks,  
 G. K. L. Chan,  C. J. Cramer,  M. S. Gordon,  W. J. Hehre,  A. Klamt,  
 M. W. Schmidt,  C. D. Sherrill,  D. G. Truhlar,  A. Aspuru-Guzik,  R. Baer,  
 A. T. Bell,  N. A. Besley,  Jeng-Da Chai,  A. E. DePrince, III,  
 R. A. DiStasio Jr.,  A. Dreuw,  B. D. Dunietz,  T. R. Furlani,  
 Chao-Ping Hsu,  Yousung Jung,  Jing Kong,  D. S. Lambrecht,  WanZhen Liang,  
 C. Ochsenfeld,  V. A. Rassolov,  L. V. Slipchenko,  J. E. Subotnik,  
 T. Van Voorhis,  J. M. Herbert,  A. I. Krylov,  P. M. W. Gill,  M. Head-Gordon

 Contributors to earlier versions of Q-Chem not listed above: 
 R. D. Adamson,  B. Austin,  J. Baker,  G. J. O. Beran,  K. Brandhorst,  
 S. T. Brown,  E. F. C. Byrd,  A. K. Chakraborty,  C.-L. Cheng,  
 Siu Hung Chien,  D. M. Chipman,  D. L. Crittenden,  H. Dachsel,  
 R. J. Doerksen,  A. D. Dutoi,  L. Fusti-Molnar,  W. A. Goddard III,  
 A. Golubeva-Zadorozhnaya,  S. R. Gwaltney,  G. Hawkins,  A. Heyden,  
 S. Hirata,  G. Kedziora,  F. J. Keil,  C. Kelley,  Jihan Kim,  R. A. King,  
 R. Z. Khaliullin,  P. P. Korambath,  W. Kurlancheek,  A. M. Lee,  M. S. Lee,  
 S. V. Levchenko,  Ching Yeh Lin,  D. Liotard,  R. C. Lochan,  I. Lotan,  
 P. E. Maslen,  N. Nair,  D. P. O'Neill,  D. Neuhauser,  E. Neuscamman,  
 C. M. Oana,  R. Olson,  B. Peters,  R. Peverati,  P. A. Pieniazek,  
 Y. M. Rhee,  J. Ritchie,  M. A. Rohrdanz,  E. Rosta,  N. J. Russ,  
 H. F. Schaefer III,  N. E. Schultz,  N. Shenvi,  A. C. Simmonett,  A. Sodt,  
 D. Stuck,  K. S. Thanthiriwatte,  V. Vanovschi,  Tao Wang,  A. Warshel,  
 C. F. Williams,  Q. Wu,  X. Xu,  W. Zhang

 Please cite Q-Chem as follows:
 Y. Shao et al., Mol. Phys. 113, 184-215 (2015)
 DOI: 10.1080/00268976.2014.952696

 Q-Chem 5.1.1 for Intel X86 EM64T Linux

 Parts of Q-Chem use Armadillo 8.300.2 (Tropical Shenanigans).
 http://arma.sourceforge.net/

 Q-Chem begins on Sat Sep 19 01:38:35 2020  

Host: n0069.mhg0
0

     Scratch files written to /local/scratch/users/yhljason/CH2-t_rmp2_aug-cc-pcVQZ.inp20200919012541//
The previous job contains 0 fragments, simply inherited here
Input Ideriv = 1
Curr. Ideriv = -1
Max.  Ideriv = 1

Checking the input file for inconsistencies... 	...done.

--------------------------------------------------------------
User input:
--------------------------------------------------------------
$molecule
read
$end

$rem

jobtype sp
method mp2
xc_grid 000099000590
basis aug-cc-pcVQZ
max_scf_cycles 200
thresh 14
scf_convergence 8
mem_total 128000
cc_memory 96000
cc_backend xm
mem_static 1500
symmetry false
sym_ignore true
scf_guess read
unrestricted false
scf_algorithm gdm
n_frozen_core 0
$end

$multipole_field
YY -0.0001
$end


--------------------------------------------------------------
 ----------------------------------------------------------------
             Standard Nuclear Orientation (Angstroms)
    I     Atom           X                Y                Z
 ----------------------------------------------------------------
    1      C       0.0000000000     0.0000000000     0.1027000000
    2      H       0.0000000000     1.0042000000    -0.3081000000
    3      H       0.0000000000    -1.0042000000    -0.3081000000
 ----------------------------------------------------------------
 Nuclear Repulsion Energy =     6.1162592434 hartrees
 There are        5 alpha and        3 beta electrons
 Requested basis set is aug-cc-pCVQZ
 There are 57 shells and 201 basis functions

 Total QAlloc Memory Limit 128000 MB
 Mega-Array Size      1467 MB
 MEM_STATIC part      1500 MB

                       Distance Matrix (Angstroms)
             C (  1)   H (  2)
   H (  2)  1.084977
   H (  3)  1.084977  2.008400
 
 Applying Cartesian multipole field
    Component          Value
    ---------          -----
     (0,2,0)       -1.00000E-04
 Nucleus-field energy     =    -0.0007202250 hartrees
 A cutoff of  1.0D-14 yielded   1653 shell pairs
 There are     20709 function pairs (     31923 Cartesian)
 
 -------------------------------------------------------
 OpenMP Integral Computing Module                       
 Release: version 1.0, May 2013, Q-Chem Inc. Pittsburgh 
 -------------------------------------------------------
 Integral Job Info:
 Integral job number is                      11
 Integral operator is                         1
 short-range coefficients                     0
 long-range coefficients              100000000
 Omega coefficients                           0
 if combine SR and LR in K                    0
 Integral screening is                        0
 Integral computing path is                   2
 max size of driver memory is           3200000
 size of driver memory is               1704330
 size of scratch memory is             18511652
 max col of scratch BK array              50625
 max len of scratch array in speh3         2114
 max len of scratch index in speh4           50
 max int batch size is                      520
 min int batch size is                       52
 fixed nKL is                                52
 max L of basis functions is                  4
 order of int derivative is                   0
 number of shells is                         57
 number of basis is                         249
 number of cartesian basis is               249
 number of contracted shell pairs          1653
 number of primitive shell pairs           3161
 maxK2 (contraction) of shell pair           81
 max number of K2 of shell pair               1
 max number of CS2 of shell pair            227
 max number of PS2 of shell pair            288
 mem total for path MDJ                  643177
 -------------------------------------------------------
 Smallest overlap matrix eigenvalue = 4.27E-05
 Guess MOs from SCF MO coefficient file
 Reading MOs from coefficient file
 Reading MOs from coefficient file
 A restricted Hartree-Fock SCF calculation will be
 performed using Geometric Direct Minimization
 SCF converges when RMS gradient is below 1.0E-08
Using Q-Chem read-in guess as SCF_GUESS READ specified.

 using 16 threads for integral computing
 -------------------------------------------------------
 OpenMP Integral computing Module                
 Release: version 2.0, May 2017, Q-Chem Inc. Pleasanton 
 -------------------------------------------------------
TIMEINFO->: J/JK contribution 44.85 sec.
 ---------------------------------------
  Cycle       Energy        RMS Gradient
 ---------------------------------------
    1     -38.9337332460      5.33E-04 Normal BFGS step
TIMEINFO->: J/JK contribution 44.85 sec.
    2     -38.9337345383      5.76E-04 Normal BFGS step
TIMEINFO->: J/JK contribution 44.75 sec.
    3     -38.9337348381      3.06E-04 Normal BFGS step
TIMEINFO->: J/JK contribution 44.80 sec.
    4     -38.9337348752      2.80E-04 Normal BFGS step
TIMEINFO->: J/JK contribution 44.68 sec.
    5     -38.9337348997      1.14E-04 Normal BFGS step
TIMEINFO->: J/JK contribution 44.72 sec.
    6     -38.9337349023      5.60E-05 Normal BFGS step
TIMEINFO->: J/JK contribution 44.55 sec.
    7     -38.9337349052      6.41E-06 Normal BFGS step
TIMEINFO->: J/JK contribution 44.82 sec.
    8     -38.9337349053      7.10E-06 Normal BFGS step
TIMEINFO->: J/JK contribution 44.66 sec.
    9     -38.9337349053      1.08E-06 Normal BFGS step
TIMEINFO->: J/JK contribution 44.47 sec.
   10     -38.9337349053      3.86E-07 Normal BFGS step
TIMEINFO->: J/JK contribution 44.08 sec.
   11     -38.9337349053      9.75E-08 Normal BFGS step
TIMEINFO->: J/JK contribution 43.33 sec.
   12     -38.9337349053      6.89E-08 Normal BFGS step
TIMEINFO->: J/JK contribution 42.59 sec.
   GDM::WARNING energy changes are now smaller than effective accuracy.
   GDM::        calculation will continue, but THRESH should be increased
   GDM::        or SCF_CONVERGENCE decreased.
   GDM::        effective_thresh =   5.000000000000000E-011
   13     -38.9337349053      9.97E-09 Convergence criterion met
 ---------------------------------------
 SCF time:  CPU 602.44 s  wall 37.95 s
 SCF   energy in the final basis set = -38.93373491
 Total energy in the final basis set = -38.93373491
 
 Components of the MP2 correlation energy:
        aaaa  correlation energy =        -0.0287468119 au
        abab  correlation energy =        -0.1491723041 au
        bbbb  correlation energy =        -0.0036568842 au
        non-Brillouin singles    =        -0.0031107931 au

 Total  MP2   correlation energy =                    -0.18468679 au
        MP2         total energy =                   -39.11842170 au
 
 --------------------------------------------------------------
 
                    Orbital Energies (a.u.)
 --------------------------------------------------------------
 
 Alpha MOs
 -- Occupied --
-11.267  -0.921  -0.625  -0.464  -0.402
 -- Virtual --
  0.030   0.046   0.076   0.081   0.128   0.128   0.177   0.184
  0.215   0.227   0.228   0.262   0.269   0.274   0.301   0.314
  0.312   0.336   0.375   0.443   0.462   0.492   0.567   0.589
  0.642   0.646   0.678   0.701   0.702   0.706   0.733   0.758
  0.760   0.768   0.772   0.785   0.794   0.865   0.901   0.902
  0.931   0.954   1.022   1.061   1.067   1.138   1.137   1.219
  1.411   1.419   1.472   1.475   1.508   1.663   1.683   1.701
  1.715   1.711   1.752   1.758   1.799   1.901   1.924   1.947
  1.956   1.970   2.025   2.045   2.058   2.134   2.132   2.172
  2.205   2.244   2.269   2.277   2.288   2.302   2.328   2.374
  2.422   2.433   2.490   2.491   2.555   2.578   2.607   2.745
  2.770   2.816   2.873   3.015   3.299   3.317   3.449   3.527
  3.530   3.554   3.636   3.798   3.849   3.874   3.981   4.134
  4.186   4.228   4.270   4.313   4.558   4.823   5.554   5.619
[...]
  2.199   2.233   2.233   2.273   2.320   2.316   2.312   2.350
  2.370   2.389   2.446   2.452   2.514   2.516   2.584   2.598
  2.627   2.763   2.788   2.834   2.894   3.037   3.314   3.324
  3.463   3.543   3.547   3.566   3.648   3.807   3.869   3.889
  3.993   4.147   4.208   4.254   4.292   4.338   4.580   4.834
  5.608   5.671   5.889   5.930   5.967   6.002   6.002   6.042
  6.058   6.160   6.332   6.337   6.351   6.411   6.505   6.514
  6.568   6.630   6.850   6.843   6.848   6.884   7.035   7.125
  7.170   7.249   7.420   7.620   7.648   7.857   8.021   8.164
  8.243   8.339   8.394   8.425   8.425   8.477   8.960   9.135
  9.134   9.234   9.295   9.311   9.491   9.557   9.625   9.947
 10.165  10.371  10.399  10.456  10.732  10.951  11.317  13.064
 13.756  19.406  19.762  21.334  26.747  26.791  27.098  27.765
 28.043  37.364  66.878  67.117  68.296  98.807  98.807  98.835
 98.838  98.852  98.887  98.889 115.348 115.370 115.542 115.871
116.012 123.466 225.288 225.482 226.459 509.831
 --------------------------------------------------------------
 
          Ground-State Mulliken Net Atomic Charges

     Atom                 Charge (a.u.)
  ----------------------------------------
      1 C                    -0.725715
      2 H                     0.362858
      3 H                     0.362858
  ----------------------------------------
  Sum of atomic charges =    -0.000000

 -----------------------------------------------------------------
                    Cartesian Multipole Moments
 -----------------------------------------------------------------
    Charge (ESU x 10^10)
                -0.0000
    Dipole Moment (Debye)
         X       0.0000      Y      -0.0000      Z      -0.5680
       Tot       0.5680
    Quadrupole Moments (Debye-Ang)
        XX      -8.2660     XY       0.0000     YY      -5.8193
        XZ      -0.0000     YZ       0.0000     ZZ      -7.7559
    Octopole Moments (Debye-Ang^2)
       XXX       0.0000    XXY      -0.0000    XYY       0.0000
       YYY      -0.0000    XXZ      -0.3365    XYZ      -0.0000
       YYZ      -0.9156    XZZ       0.0000    YZZ      -0.0000
       ZZZ      -0.9299
    Hexadecapole Moments (Debye-Ang^3)
      XXXX     -10.4314   XXXY      -0.0000   XXYY      -4.5946
      XYYY      -0.0000   YYYY     -13.2808   XXXZ      -0.0000
      XXYZ       0.0000   XYYZ      -0.0000   YYYZ       0.0000
      XXZZ      -3.5262   XYZZ      -0.0000   YYZZ      -4.2162
      XZZZ      -0.0000   YZZZ       0.0000   ZZZZ     -10.6197
 -----------------------------------------------------------------
Archival summary:
1\1\n0069.mhg0\SP\ROMP2\BasisUnspecified\12(3)\yhljason\SatSep1901:44:092020SatSep1901:44:092020\0\\#,ROMP2,BasisUnspecified,\\0,3\C\H,1,1.08498\H,1,1.08498,2,135.503\\HF=-38.9347434\MP2=-39.1194324\\@

 Total job time:  166.87s(wall), 2650.25s(cpu) 
 Sat Sep 19 01:44:09 2020

        *************************************************************
        *                                                           *
        *  Thank you very much for using Q-Chem.  Have a nice day.  *
        *                                                           *
        *************************************************************


 
User input: 7 of 7 
 
Q-Chem Developer Version!
                  Welcome to Q-Chem
     A Quantum Leap Into The Future Of Chemistry


 Q-Chem 5.1, Q-Chem, Inc., Pleasanton, CA (2018)

 Yihan Shao,  Zhengting Gan,  E. Epifanovsky,  A. T. B. Gilbert,  M. Wormit,  
 J. Kussmann,  A. W. Lange,  A. Behn,  Jia Deng,  Xintian Feng,  D. Ghosh,  
 M. Goldey,  P. R. Horn,  L. D. Jacobson,  I. Kaliman,  T. Kus,  A. Landau,  
 Jie Liu,  E. I. Proynov,  R. M. Richard,  R. P. Steele,  E. J. Sundstrom,  
 H. L. Woodcock III,  P. M. Zimmerman,  D. Zuev,  B. Albrecht,  E. Alguire,  
 S. A. Baeppler,  D. Barton,  Z. Benda,  Y. A. Bernard,  E. J. Berquist,  
 K. B. Bravaya,  H. Burton,  D. Casanova,  Chun-Min Chang,  Yunqing Chen,  
 A. Chien,  K. D. Closser,  M. P. Coons,  S. Coriani,  S. Dasgupta,  
 A. L. Dempwolff,  M. Diedenhofen,  Hainam Do,  R. G. Edgar,  Po-Tung Fang,  
 S. Faraji,  S. Fatehi,  Qingguo Feng,  K. D. Fenk,  J. Fosso-Tande,  
 Qinghui Ge,  A. Ghysels,  G. Gidofalvi,  J. Gomes,  J. Gonthier,  A. Gunina,  
 D. Hait,  M. W. D. Hanson-Heine,  P. H. P. Harbach,  A. W. Hauser,  
 J. E. Herr,  E. G. Hohenstein,  Z. C. Holden,  Kerwin Hui,  B. C. Huynh,  
 T.-C. Jagau,  Hyunjun Ji,  B. Kaduk,  K. Khistyaev,  Jaehoon Kim,  
 P. Klunzinger,  K. Koh,  D. Kosenkov,  L. Koulias,  T. Kowalczyk,  
 C. M. Krauter,  A. Kunitsa,  Ka Un Lao,  A. Laurent,  K. V. Lawler,  
 Joonho Lee,  D. Lefrancois,  S. Lehtola,  D. S. Levine,  Yi-Pei Li,  
 You-Sheng Lin,  Fenglai Liu,  E. Livshits,  A. Luenser,  P. Manohar,  
 E. Mansoor,  S. F. Manzer,  Shan-Ping Mao,  Yuezhi Mao,  N. Mardirossian,  
 A. V. Marenich,  T. Markovich,  L. A. Martinez-Martinez,  S. A. Maurer,  
 N. J. Mayhall,  S. C. McKenzie,  J.-M. Mewes,  A. F. Morrison,  
 J. W. Mullinax,  K. Nanda,  T. S. Nguyen-Beck,  R. Olivares-Amaya,  
 J. A. Parkhill,  T. M. Perrine,  F. Plasser,  P. Pokhilko,  S. Prager,  
 A. Prociuk,  E. Ramos,  D. R. Rehn,  F. Rob,  M. Schneider,  N. Sergueev,  
 S. M. Sharada,  S. Sharma,  D. W. Small,  T. Stauch,  T. Stein,  
 Yu-Chuan Su,  A. J. W. Thom,  A. Tkatchenko,  T. Tsuchimochi,  N. M. Tubman,  
 L. Vogt,  M. L. Vidal,  O. Vydrov,  M. A. Watson,  J. Wenzel,  
 M. de Wergifosse,  T. A. Wesolowski,  A. White,  J. Witte,  A. Yamada,  
 Jun Yang,  K. Yao,  S. Yeganeh,  S. R. Yost,  Zhi-Qiang You,  A. Zech,  
 Igor Ying Zhang,  Xing Zhang,  Yan Zhao,  Ying Zhu,  B. R. Brooks,  
 G. K. L. Chan,  C. J. Cramer,  M. S. Gordon,  W. J. Hehre,  A. Klamt,  
 M. W. Schmidt,  C. D. Sherrill,  D. G. Truhlar,  A. Aspuru-Guzik,  R. Baer,  
 A. T. Bell,  N. A. Besley,  Jeng-Da Chai,  A. E. DePrince, III,  
 R. A. DiStasio Jr.,  A. Dreuw,  B. D. Dunietz,  T. R. Furlani,  
 Chao-Ping Hsu,  Yousung Jung,  Jing Kong,  D. S. Lambrecht,  WanZhen Liang,  
 C. Ochsenfeld,  V. A. Rassolov,  L. V. Slipchenko,  J. E. Subotnik,  
 T. Van Voorhis,  J. M. Herbert,  A. I. Krylov,  P. M. W. Gill,  M. Head-Gordon

 Contributors to earlier versions of Q-Chem not listed above: 
 R. D. Adamson,  B. Austin,  J. Baker,  G. J. O. Beran,  K. Brandhorst,  
 S. T. Brown,  E. F. C. Byrd,  A. K. Chakraborty,  C.-L. Cheng,  
 Siu Hung Chien,  D. M. Chipman,  D. L. Crittenden,  H. Dachsel,  
 R. J. Doerksen,  A. D. Dutoi,  L. Fusti-Molnar,  W. A. Goddard III,  
 A. Golubeva-Zadorozhnaya,  S. R. Gwaltney,  G. Hawkins,  A. Heyden,  
 S. Hirata,  G. Kedziora,  F. J. Keil,  C. Kelley,  Jihan Kim,  R. A. King,  
 R. Z. Khaliullin,  P. P. Korambath,  W. Kurlancheek,  A. M. Lee,  M. S. Lee,  
 S. V. Levchenko,  Ching Yeh Lin,  D. Liotard,  R. C. Lochan,  I. Lotan,  
 P. E. Maslen,  N. Nair,  D. P. O'Neill,  D. Neuhauser,  E. Neuscamman,  
 C. M. Oana,  R. Olson,  B. Peters,  R. Peverati,  P. A. Pieniazek,  
 Y. M. Rhee,  J. Ritchie,  M. A. Rohrdanz,  E. Rosta,  N. J. Russ,  
 H. F. Schaefer III,  N. E. Schultz,  N. Shenvi,  A. C. Simmonett,  A. Sodt,  
 D. Stuck,  K. S. Thanthiriwatte,  V. Vanovschi,  Tao Wang,  A. Warshel,  
 C. F. Williams,  Q. Wu,  X. Xu,  W. Zhang

 Please cite Q-Chem as follows:
 Y. Shao et al., Mol. Phys. 113, 184-215 (2015)
 DOI: 10.1080/00268976.2014.952696

 Q-Chem 5.1.1 for Intel X86 EM64T Linux

 Parts of Q-Chem use Armadillo 8.300.2 (Tropical Shenanigans).
 http://arma.sourceforge.net/

 Q-Chem begins on Sat Sep 19 01:44:09 2020  

Host: n0069.mhg0
0

     Scratch files written to /local/scratch/users/yhljason/CH2-t_rmp2_aug-cc-pcVQZ.inp20200919012541//
The previous job contains 0 fragments, simply inherited here
Input Ideriv = 1
Curr. Ideriv = -1
Max.  Ideriv = 1

Checking the input file for inconsistencies... 	...done.

--------------------------------------------------------------
User input:
--------------------------------------------------------------
$molecule
read
$end

$rem

jobtype sp
method mp2
xc_grid 000099000590
basis aug-cc-pcVQZ
max_scf_cycles 200
thresh 14
scf_convergence 8
mem_total 128000
cc_memory 96000
cc_backend xm
mem_static 1500
symmetry false
sym_ignore true
scf_guess read
unrestricted false
scf_algorithm gdm
n_frozen_core 0
$end

$multipole_field
ZZ -0.0001
$end

--------------------------------------------------------------
 ----------------------------------------------------------------
             Standard Nuclear Orientation (Angstroms)
    I     Atom           X                Y                Z
 ----------------------------------------------------------------
    1      C       0.0000000000     0.0000000000     0.1027000000
    2      H       0.0000000000     1.0042000000    -0.3081000000
    3      H       0.0000000000    -1.0042000000    -0.3081000000
 ----------------------------------------------------------------
 Nuclear Repulsion Energy =     6.1162592434 hartrees
 There are        5 alpha and        3 beta electrons
 Requested basis set is aug-cc-pCVQZ
 There are 57 shells and 201 basis functions

 Total QAlloc Memory Limit 128000 MB
 Mega-Array Size      1467 MB
 MEM_STATIC part      1500 MB

                       Distance Matrix (Angstroms)
             C (  1)   H (  2)
   H (  2)  1.084977
   H (  3)  1.084977  2.008400
 
 Applying Cartesian multipole field
    Component          Value
    ---------          -----
     (0,0,2)       -1.00000E-04
 Nucleus-field energy     =    -0.0000903961 hartrees
 A cutoff of  1.0D-14 yielded   1653 shell pairs
 There are     20709 function pairs (     31923 Cartesian)
 
 -------------------------------------------------------
 OpenMP Integral Computing Module                       
 Release: version 1.0, May 2013, Q-Chem Inc. Pittsburgh 
 -------------------------------------------------------
 Integral Job Info:
 Integral job number is                      11
 Integral operator is                         1
 short-range coefficients                     0
 long-range coefficients              100000000
 Omega coefficients                           0
 if combine SR and LR in K                    0
 Integral screening is                        0
 Integral computing path is                   2
 max size of driver memory is           3200000
 size of driver memory is               1704330
 size of scratch memory is             18511652
 max col of scratch BK array              50625
 max len of scratch array in speh3         2114
 max len of scratch index in speh4           50
 max int batch size is                      520
 min int batch size is                       52
 fixed nKL is                                52
 max L of basis functions is                  4
 order of int derivative is                   0
 number of shells is                         57
 number of basis is                         249
 number of cartesian basis is               249
 number of contracted shell pairs          1653
 number of primitive shell pairs           3161
 maxK2 (contraction) of shell pair           81
 max number of K2 of shell pair               1
 max number of CS2 of shell pair            227
 max number of PS2 of shell pair            288
 mem total for path MDJ                  643177
 -------------------------------------------------------
 Smallest overlap matrix eigenvalue = 4.27E-05
 Guess MOs from SCF MO coefficient file
 Reading MOs from coefficient file
 Reading MOs from coefficient file
 A restricted Hartree-Fock SCF calculation will be
 performed using Geometric Direct Minimization
 SCF converges when RMS gradient is below 1.0E-08
Using Q-Chem read-in guess as SCF_GUESS READ specified.

 using 16 threads for integral computing
 -------------------------------------------------------
 OpenMP Integral computing Module                
 Release: version 2.0, May 2017, Q-Chem Inc. Pleasanton 
 -------------------------------------------------------
TIMEINFO->: J/JK contribution 44.78 sec.
 ---------------------------------------
  Cycle       Energy        RMS Gradient
 ---------------------------------------
    1     -38.9335901812      9.87E-04 Normal BFGS step
TIMEINFO->: J/JK contribution 44.65 sec.
    2     -38.9335908419      1.10E-03 Normal BFGS step
TIMEINFO->: J/JK contribution 44.66 sec.
    3     -38.9335912612      2.25E-04 Normal BFGS step
TIMEINFO->: J/JK contribution 45.08 sec.
    4     -38.9335912910      9.07E-05 Normal BFGS step
TIMEINFO->: J/JK contribution 44.96 sec.
    5     -38.9335912989      6.97E-05 Normal BFGS step
TIMEINFO->: J/JK contribution 45.33 sec.
    6     -38.9335912986      8.96E-05 Line search: overstep
TIMEINFO->: J/JK contribution 45.14 sec.
    7     -38.9335912999      1.03E-05 Normal BFGS step
TIMEINFO->: J/JK contribution 44.75 sec.
    8     -38.9335913000      5.28E-06 Normal BFGS step
TIMEINFO->: J/JK contribution 44.61 sec.
    9     -38.9335913001      2.82E-06 Normal BFGS step
TIMEINFO->: J/JK contribution 44.42 sec.
   10     -38.9335913001      4.31E-07 Normal BFGS step
TIMEINFO->: J/JK contribution 44.23 sec.
   11     -38.9335913001      1.90E-07 Normal BFGS step
TIMEINFO->: J/JK contribution 43.83 sec.
   12     -38.9335913001      4.30E-08 Normal BFGS step
TIMEINFO->: J/JK contribution 42.60 sec.
   13     -38.9335913001      2.52E-08 Normal BFGS step
TIMEINFO->: J/JK contribution 42.09 sec.
   GDM::WARNING energy changes are now smaller than effective accuracy.
   GDM::        calculation will continue, but THRESH should be increased
   GDM::        or SCF_CONVERGENCE decreased.
   GDM::        effective_thresh =   5.000000000000000E-011
   14     -38.9335913001      5.43E-09 Convergence criterion met
 ---------------------------------------
 SCF time:  CPU 647.75 s  wall 40.77 s
 SCF   energy in the final basis set = -38.93359130
 Total energy in the final basis set = -38.93359130
 
 Components of the MP2 correlation energy:
        aaaa  correlation energy =        -0.0287449011 au
        abab  correlation energy =        -0.1491686260 au
        bbbb  correlation energy =        -0.0036557716 au
        non-Brillouin singles    =        -0.0031109056 au

 Total  MP2   correlation energy =                    -0.18468020 au
        MP2         total energy =                   -39.11827150 au
 
 --------------------------------------------------------------
 
                    Orbital Energies (a.u.)
 --------------------------------------------------------------
 
 Alpha MOs
 -- Occupied --
-11.267  -0.921  -0.626  -0.464  -0.402
 -- Virtual --
  0.030   0.042   0.078   0.082   0.126   0.127   0.176   0.183
  0.214   0.228   0.228   0.263   0.268   0.273   0.300   0.314
  0.312   0.334   0.373   0.443   0.461   0.492   0.568   0.589
  0.642   0.646   0.677   0.700   0.702   0.705   0.733   0.758
  0.759   0.768   0.772   0.784   0.794   0.865   0.900   0.902
  0.931   0.954   1.022   1.060   1.067   1.138   1.137   1.219
  1.411   1.418   1.472   1.475   1.508   1.662   1.683   1.701
  1.715   1.710   1.752   1.757   1.799   1.900   1.923   1.947
  1.956   1.969   2.024   2.044   2.058   2.134   2.132   2.172
  2.204   2.244   2.269   2.277   2.288   2.302   2.328   2.374
  2.422   2.433   2.490   2.491   2.555   2.578   2.607   2.745
  2.770   2.815   2.873   3.014   3.299   3.316   3.448   3.527
  3.530   3.554   3.635   3.798   3.849   3.874   3.980   4.133
  4.185   4.228   4.270   4.313   4.558   4.823   5.554   5.619
  5.867   5.909   5.940   5.962   5.965   6.018   6.024   6.129
  6.296   6.298   6.317   6.381   6.444   6.457   6.543   6.595
  6.823   6.828   6.834   6.868   7.014   7.095   7.153   7.226
  7.380   7.600   7.613   7.846   8.010   8.159   8.236   8.328
  8.386   8.417   8.420   8.469   8.955   9.126   9.128   9.228
  9.289   9.307   9.483   9.549   9.619   9.939  10.147  10.357
 10.385  10.445  10.716  10.944  11.307  13.058  13.742  19.375
 19.734  21.322  26.718  26.762  27.079  27.750  28.032  37.349
 66.866  67.107  68.291  98.797  98.798  98.829  98.831  98.846
 98.882  98.884 115.341 115.364 115.537 115.867 116.008 123.460
225.285 225.479 226.457 509.829
 
 Beta MOs
 -- Occupied --
-11.225  -0.779  -0.581
 -- Virtual --
  0.171   0.185   0.032   0.043   0.084   0.090   0.128   0.134
  0.186   0.190   0.221   0.241   0.241   0.276   0.280   0.274
  0.303   0.316   0.325   0.352   0.387   0.466   0.510   0.515
  0.604   0.611   0.677   0.678   0.685   0.709   0.709   0.713
  0.755   0.764   0.783   0.773   0.801   0.807   0.815   0.893
  0.926   0.930   0.941   0.966   1.043   1.067   1.085   1.155
  1.171   1.267   1.420   1.440   1.482   1.495   1.531   1.674
  1.694   1.719   1.723   1.745   1.757   1.762   1.831   1.912
  1.933   1.950   1.970   1.999   2.029   2.063   2.078   2.170
  2.199   2.234   2.233   2.274   2.321   2.317   2.312   2.351
  2.371   2.389   2.447   2.453   2.515   2.516   2.584   2.599
  2.627   2.764   2.789   2.834   2.895   3.038   3.315   3.325
  3.464   3.544   3.548   3.566   3.648   3.807   3.869   3.890
  3.994   4.147   4.209   4.254   4.293   4.339   4.581   4.835
  5.608   5.672   5.889   5.931   5.967   6.003   6.003   6.042
  6.059   6.160   6.332   6.337   6.352   6.411   6.506   6.515
  6.568   6.630   6.850   6.843   6.849   6.885   7.035   7.125
  7.170   7.249   7.421   7.620   7.649   7.858   8.022   8.165
  8.244   8.339   8.394   8.425   8.426   8.478   8.961   9.135
  9.134   9.235   9.296   9.312   9.491   9.558   9.625   9.947
 10.166  10.371  10.399  10.457  10.732  10.952  11.318  13.065
 13.757  19.407  19.762  21.335  26.748  26.791  27.098  27.766
 28.044  37.365  66.878  67.117  68.297  98.807  98.808  98.836
 98.839  98.853  98.887  98.889 115.349 115.371 115.542 115.872
116.012 123.467 225.289 225.483 226.460 509.831
 --------------------------------------------------------------
 
          Ground-State Mulliken Net Atomic Charges

     Atom                 Charge (a.u.)
  ----------------------------------------
      1 C                    -0.725657
      2 H                     0.362829
      3 H                     0.362829
  ----------------------------------------
  Sum of atomic charges =    -0.000000

 -----------------------------------------------------------------
                    Cartesian Multipole Moments
 -----------------------------------------------------------------
    Charge (ESU x 10^10)
                -0.0000
    Dipole Moment (Debye)
         X      -0.0000      Y      -0.0000      Z      -0.5667
       Tot       0.5667
    Quadrupole Moments (Debye-Ang)
        XX      -8.2622     XY       0.0000     YY      -5.8180
        XZ      -0.0000     YZ       0.0000     ZZ      -7.7409
    Octopole Moments (Debye-Ang^2)
       XXX      -0.0000    XXY      -0.0000    XYY      -0.0000
       YYY      -0.0000    XXZ      -0.3344    XYZ       0.0000
       YYZ      -0.9155    XZZ      -0.0000    YZZ      -0.0000
       ZZZ      -0.9219
    Hexadecapole Moments (Debye-Ang^3)
      XXXX     -10.4132   XXXY       0.0000   XXYY      -4.5902
      XYYY       0.0000   YYYY     -13.2756   XXXZ      -0.0000
      XXYZ       0.0000   XYYZ       0.0000   YYYZ      -0.0000
      XXZZ      -3.5126   XYZZ       0.0000   YYZZ      -4.2033
      XZZZ      -0.0000   YZZZ       0.0000   ZZZZ     -10.5567
 -----------------------------------------------------------------
Archival summary:
1\1\n0069.mhg0\SP\ROMP2\BasisUnspecified\12(3)\yhljason\SatSep1901:46:592020SatSep1901:46:592020\0\\#,ROMP2,BasisUnspecified,\\0,3\C\H,1,1.08498\H,1,1.08498,2,135.503\\HF=-38.9335913\MP2=-39.1182715\\@

 Total job time:  169.91s(wall), 2701.51s(cpu) 
 Sat Sep 19 01:46:59 2020

        *************************************************************
        *                                                           *
        *  Thank you very much for using Q-Chem.  Have a nice day.  *
        *                                                           *
        *************************************************************


