Q-Chem Developer Version!
                  Welcome to Q-Chem
     A Quantum Leap Into The Future Of Chemistry


 Q-Chem 5.1, Q-Chem, Inc., Pleasanton, CA (2018)

 Yihan Shao,  Zhengting Gan,  E. Epifanovsky,  A. T. B. Gilbert,  M. Wormit,  
 J. Kussmann,  A. W. Lange,  A. Behn,  Jia Deng,  Xintian Feng,  D. Ghosh,  
 M. Goldey,  P. R. Horn,  L. D. Jacobson,  I. Kaliman,  T. Kus,  A. Landau,  
 Jie Liu,  E. I. Proynov,  R. M. Richard,  R. P. Steele,  E. J. Sundstrom,  
 H. L. Woodcock III,  P. M. Zimmerman,  D. Zuev,  B. Albrecht,  E. Alguire,  
 S. A. Baeppler,  D. Barton,  Z. Benda,  Y. A. Bernard,  E. J. Berquist,  
 K. B. Bravaya,  H. Burton,  D. Casanova,  Chun-Min Chang,  Yunqing Chen,  
 A. Chien,  K. D. Closser,  M. P. Coons,  S. Coriani,  S. Dasgupta,  
 A. L. Dempwolff,  M. Diedenhofen,  Hainam Do,  R. G. Edgar,  Po-Tung Fang,  
 S. Faraji,  S. Fatehi,  Qingguo Feng,  K. D. Fenk,  J. Fosso-Tande,  
 Qinghui Ge,  A. Ghysels,  G. Gidofalvi,  J. Gomes,  J. Gonthier,  A. Gunina,  
 D. Hait,  M. W. D. Hanson-Heine,  P. H. P. Harbach,  A. W. Hauser,  
 J. E. Herr,  E. G. Hohenstein,  Z. C. Holden,  Kerwin Hui,  B. C. Huynh,  
 T.-C. Jagau,  Hyunjun Ji,  B. Kaduk,  K. Khistyaev,  Jaehoon Kim,  
 P. Klunzinger,  K. Koh,  D. Kosenkov,  L. Koulias,  T. Kowalczyk,  
 C. M. Krauter,  A. Kunitsa,  Ka Un Lao,  A. Laurent,  K. V. Lawler,  
 Joonho Lee,  D. Lefrancois,  S. Lehtola,  D. S. Levine,  Yi-Pei Li,  
 You-Sheng Lin,  Fenglai Liu,  E. Livshits,  A. Luenser,  P. Manohar,  
 E. Mansoor,  S. F. Manzer,  Shan-Ping Mao,  Yuezhi Mao,  N. Mardirossian,  
 A. V. Marenich,  T. Markovich,  L. A. Martinez-Martinez,  S. A. Maurer,  
 N. J. Mayhall,  S. C. McKenzie,  J.-M. Mewes,  A. F. Morrison,  
 J. W. Mullinax,  K. Nanda,  T. S. Nguyen-Beck,  R. Olivares-Amaya,  
 J. A. Parkhill,  T. M. Perrine,  F. Plasser,  P. Pokhilko,  S. Prager,  
 A. Prociuk,  E. Ramos,  D. R. Rehn,  F. Rob,  M. Schneider,  N. Sergueev,  
 S. M. Sharada,  S. Sharma,  D. W. Small,  T. Stauch,  T. Stein,  
 Yu-Chuan Su,  A. J. W. Thom,  A. Tkatchenko,  T. Tsuchimochi,  N. M. Tubman,  
 L. Vogt,  M. L. Vidal,  O. Vydrov,  M. A. Watson,  J. Wenzel,  
 M. de Wergifosse,  T. A. Wesolowski,  A. White,  J. Witte,  A. Yamada,  
 Jun Yang,  K. Yao,  S. Yeganeh,  S. R. Yost,  Zhi-Qiang You,  A. Zech,  
 Igor Ying Zhang,  Xing Zhang,  Yan Zhao,  Ying Zhu,  B. R. Brooks,  
 G. K. L. Chan,  C. J. Cramer,  M. S. Gordon,  W. J. Hehre,  A. Klamt,  
 M. W. Schmidt,  C. D. Sherrill,  D. G. Truhlar,  A. Aspuru-Guzik,  R. Baer,  
 A. T. Bell,  N. A. Besley,  Jeng-Da Chai,  A. E. DePrince, III,  
 R. A. DiStasio Jr.,  A. Dreuw,  B. D. Dunietz,  T. R. Furlani,  
 Chao-Ping Hsu,  Yousung Jung,  Jing Kong,  D. S. Lambrecht,  WanZhen Liang,  
 C. Ochsenfeld,  V. A. Rassolov,  L. V. Slipchenko,  J. E. Subotnik,  
 T. Van Voorhis,  J. M. Herbert,  A. I. Krylov,  P. M. W. Gill,  M. Head-Gordon

 Contributors to earlier versions of Q-Chem not listed above: 
 R. D. Adamson,  B. Austin,  J. Baker,  G. J. O. Beran,  K. Brandhorst,  
 S. T. Brown,  E. F. C. Byrd,  A. K. Chakraborty,  C.-L. Cheng,  
 Siu Hung Chien,  D. M. Chipman,  D. L. Crittenden,  H. Dachsel,  
 R. J. Doerksen,  A. D. Dutoi,  L. Fusti-Molnar,  W. A. Goddard III,  
 A. Golubeva-Zadorozhnaya,  S. R. Gwaltney,  G. Hawkins,  A. Heyden,  
 S. Hirata,  G. Kedziora,  F. J. Keil,  C. Kelley,  Jihan Kim,  R. A. King,  
 R. Z. Khaliullin,  P. P. Korambath,  W. Kurlancheek,  A. M. Lee,  M. S. Lee,  
 S. V. Levchenko,  Ching Yeh Lin,  D. Liotard,  R. C. Lochan,  I. Lotan,  
 P. E. Maslen,  N. Nair,  D. P. O'Neill,  D. Neuhauser,  E. Neuscamman,  
 C. M. Oana,  R. Olson,  B. Peters,  R. Peverati,  P. A. Pieniazek,  
 Y. M. Rhee,  J. Ritchie,  M. A. Rohrdanz,  E. Rosta,  N. J. Russ,  
 H. F. Schaefer III,  N. E. Schultz,  N. Shenvi,  A. C. Simmonett,  A. Sodt,  
 D. Stuck,  K. S. Thanthiriwatte,  V. Vanovschi,  Tao Wang,  A. Warshel,  
 C. F. Williams,  Q. Wu,  X. Xu,  W. Zhang

 Please cite Q-Chem as follows:
 Y. Shao et al., Mol. Phys. 113, 184-215 (2015)
 DOI: 10.1080/00268976.2014.952696

 Q-Chem 5.1.1 for Intel X86 EM64T Linux

 Parts of Q-Chem use Armadillo 8.300.2 (Tropical Shenanigans).
 http://arma.sourceforge.net/

 Q-Chem begins on Sat Oct  3 01:48:11 2020  

Host: n0060.mhg0
0

     Scratch files written to /local/scratch/users/yhljason/O2_hf_aug-cc-pcV5Z.inp20201003014809//
Input Ideriv = 1
Curr. Ideriv = -1
Max.  Ideriv = 1

Checking the input file for inconsistencies... 	...done.

--------------------------------------------------------------
User input:
--------------------------------------------------------------
$molecule
0 3
O1	0.0000	0.0000	0.0000
O2	0.0000	0.0000	1.2075
$end

$rem
jobtype sp
method hf
xc_grid 000099000590
basis aug-cc-pcV5Z
max_scf_cycles 200
thresh 14
scf_convergence 8
scf_algorithm gdm
symmetry false
sym_ignore true
unrestricted False
gen_scfman true
internal_stability_iter 15
internal_stability_davidson_iter 200
mem_total 64000
mem_static 1500
n_frozen_core 0
$end


--------------------------------------------------------------
 ----------------------------------------------------------------
             Standard Nuclear Orientation (Angstroms)
    I     Atom           X                Y                Z
 ----------------------------------------------------------------
    1      O       0.0000000000     0.0000000000     0.0000000000
    2      O       0.0000000000     0.0000000000     1.2075000000
 ----------------------------------------------------------------
 Nuclear Repulsion Energy =    28.0474877774 hartrees
 There are        9 alpha and        7 beta electrons
 Requested basis set is aug-cc-pCV5Z
 There are 82 shells and 362 basis functions

 Total QAlloc Memory Limit  64000 MB
 Mega-Array Size      1467 MB
 MEM_STATIC part      1500 MB

                       Distance Matrix (Angstroms)
             O (  1)
   O (  2)  1.207500
 
 A cutoff of  1.0D-14 yielded   3215 shell pairs
 There are     63967 function pairs (    124337 Cartesian)
 
 -------------------------------------------------------
 OpenMP Integral Computing Module                       
 Release: version 1.0, May 2013, Q-Chem Inc. Pittsburgh 
 -------------------------------------------------------
 Integral Job Info:
 Integral job number is                      11
 Integral operator is                         1
 short-range coefficients                     0
 long-range coefficients              100000000
 Omega coefficients                           0
 if combine SR and LR in K                    0
 Integral screening is                        0
 Integral computing path is                   2
 max size of driver memory is           6400000
 size of driver memory is               5498286
 size of scratch memory is             29551430
 max col of scratch BK array             194481
 max len of scratch array in speh3         5572
 max len of scratch index in speh4           72
 max int batch size is                      520
 min int batch size is                       52
 fixed nKL is                                30
 max L of basis functions is                  5
 order of int derivative is                   0
 number of shells is                         82
 number of basis is                         502
 number of cartesian basis is               502
 number of contracted shell pairs          3215
 number of primitive shell pairs           6699
 maxK2 (contraction) of shell pair          100
 max number of K2 of shell pair               1
 max number of CS2 of shell pair            312
 max number of PS2 of shell pair            600
 mem total for path MDJ                  998666
 -------------------------------------------------------
 Smallest overlap matrix eigenvalue = 1.59E-05

 Scale SEOQF with 1.000000e-01/1.000000e-01/1.000000e-01

 Standard Electronic Orientation quadrupole field applied
 Nucleus-field energy     =    -0.0000000012 hartrees
 Guess from superposition of atomic densities
 Warning:  Energy on first SCF cycle will be non-variational
 SAD guess density has 16.000000 electrons

 -----------------------------------------------------------------------
  General SCF calculation program by
  Eric Jon Sundstrom, Paul Horn, Yuezhi Mao, Dmitri Zuev, Alec White,
  David Stuck, Shaama M.S., Shane Yost, Joonho Lee, David Small,
  Daniel Levine, Susi Lehtola, Hugh Burton, Evgeny Epifanovsky
 -----------------------------------------------------------------------
Running Object-Oriented ROHF
ROHF occupied orbitals are orthonormal
ROHF occupied orbitals are orthogonal to virtual orbitals
ROHF virtual orbitals are orthonormal
 LTot/LBra/LKet=          16           7           9
 LTot/LBra/LKet=          16           7           9

 Q-Chem warning:

 in GenH1, ket side, handled with new code


 Q-Chem warning:

 in GenH1, ket side, handled with new code

We will preform up to 15 macro iterations over saddle points until a stable solution is found
Energy prior to optimization (guess energy) = -147.928614839348
Begin Timing: Total SCF Calculation
Begin Timing: SCF Single Stationary Point Calculation
begin iterations for algorithm: GDM          
the SCF tolerance is set to 1.00e-08
 LTot/LBra/LBra=          20          10          10

 Q-Chem warning:

 in GenH1, bra side, handled with new code

    1    -147.9286148393      7.24e-01     00000  Descent step
    2    -148.2430660028      5.06e-01     00000  Descent step
    3    -148.4460628659      2.88e-01     00000  Descent step
    4    -148.5502775855      1.81e-01     00000  Dog-leg BFGS step
    5    -148.6288895561      3.69e-01     00000  Descent step
    6    -148.7793684008      6.00e-01     00000  Descent step
    7    -148.9923977960      1.04e+00     00000  Descent step
    8    -149.2870791117      5.13e-01     00000  Descent step
    9    -149.3899161517      4.26e-02     00000  Dog-leg BFGS step
   10    -149.3690942336      1.75e-01     00000 Line search: overstep
   11    -149.3945621023      5.08e-02     00000  Dog-leg BFGS step
   12    -149.3858584053      7.97e-02     00000 Line search: overstep
   13    -149.4031273585      3.05e-02     00000  Normal BFGS step
   14    -149.4035377037      2.76e-02     00000  Normal BFGS step
   15    -149.4039444004      1.13e-03     00000  Normal BFGS step
   16    -149.4039477539      2.63e-04     00000  Normal BFGS step
   17    -149.4039479540      3.28e-05     00000  Normal BFGS step
   18    -149.4039479565      4.80e-06     00000  Normal BFGS step
   19    -149.4039479567      9.42e-07     00000  Normal BFGS step
   20    -149.4039479567      2.90e-06     00000  Normal BFGS step
   21    -149.4039479567      1.57e-06     00000  Normal BFGS step
   22    -149.4039479567      7.03e-08     00000  Normal BFGS step
   23    -149.4039479567      9.82e-09     00000 Convergence criterion met
The disked orbital energies are calculated using alpha and beta Focks
Timing for Single Stationary Point: 5474.00s (wall), 43519.63s (cpu)
Begin Timing: Stability
===================================================
Beginning Test for Internal Stability
===================================================
generating davidson guess vectors based on koopmans-like excitations
    1      5.33e-01     00000 Davidson Iteration
    2      1.58e-01     00000 Davidson Iteration
    3      2.36e-02     00000 Davidson Iteration
    4      7.96e-03     00000 Davidson Iteration
    5      1.59e-03     00000 Davidson Iteration
    6      7.95e-04     00000 Davidson Iteration
    7      2.79e-04     00000 Davidson Iteration
    8      4.28e-05     00000 Davidson Iteration
    9      6.44e-05     00000 Davidson Converged
converged_eigenvalues
  -0.5407
  -0.2847
Threshold for negative eigenvalues: -1.0e-05
solution was a saddle point (unstable)
displacing from saddle point as requested
performing a line search along the lowest hessian eigenvector after a small displacement (1E-3) to give a non-zero gradient along this direction 
Fro norm of D 1.386362146050e+00
transformation scaled by 2
Fro norm of D 1.788854382000e+00
transformation scaled by 2
===================================================
End Test for Internal Stability
===================================================
Timing for Internal Stability: 4648.00s (wall), 36909.83s (cpu)
The disked orbital energies are calculated using alpha and beta Focks
completed scf stability macro iteration 1
beginning next scf after displacing from saddle point
Begin Timing: SCF Single Stationary Point Calculation
begin iterations for algorithm: GDM          
the SCF tolerance is set to 1.00e-08
    1    -149.6234437013      2.24e-01     00000  Normal BFGS step
    2    -149.6539088329      1.71e-01     00000  Normal BFGS step
    3    -149.6664429096      1.90e-02     00000  Normal BFGS step
    4    -149.6672261840      2.76e-03     00000  Normal BFGS step
    5    -149.6672527855      6.88e-03     00000  Normal BFGS step
    6    -149.6669424872      5.10e-02     00000 Line search: overstep
    7    -149.6672577915      1.17e-03     00000  Normal BFGS step
    8    -149.6672591556      3.16e-04     00000  Normal BFGS step
    9    -149.6672589701      1.17e-03     00000 Line search: overstep
   10    -149.6672592051      1.53e-04     00000  Normal BFGS step
   11    -149.6672592322      9.32e-05     00000  Normal BFGS step
   12    -149.6672592489      7.18e-06     00000  Normal BFGS step
   13    -149.6672592490      2.61e-06     00000  Normal BFGS step
   14    -149.6672592490      3.01e-07     00000  Normal BFGS step
   15    -149.6672592490      3.43e-07     00000  Normal BFGS step
   16    -149.6672592490      5.86e-07     00000  Normal BFGS step
   17    -149.6672592491      5.36e-06     00000  Normal BFGS step
   18    -149.6672592491      2.91e-06     00000  Normal BFGS step
   19    -149.6672592492      4.87e-06     00000  Normal BFGS step
   20    -149.6672592496      9.56e-06     00000  Normal BFGS step
   21    -149.6672592498      4.49e-05     00000  Normal BFGS step
   22    -149.6672592896      6.07e-05     00000  Normal BFGS step
   23    -149.6672593118      9.90e-05     00000  Normal BFGS step
   24    -149.6672593210      1.12e-04     00000  Normal BFGS step
   25    -149.6672595055      3.80e-04     00000 Line search: understep
   26    -149.6672600587      2.69e-03     00000  Normal BFGS step
   27    -149.6672634837      4.81e-03     00000  Normal BFGS step
   28    -149.6657859545      5.98e-02     00000 Line search: overstep
   29    -149.6672812903      8.08e-03     00000 Line search: understep
   30    -149.6662630323      4.88e-02     00000 Line search: overstep
   31    -149.6672954589      1.03e-02     00000 Line search: understep
   32    -149.6665642189      4.09e-02     00000 Line search: overstep
Fro norm of D 1.152603215759e+00
transformation scaled by 2
   33    -149.6673033099      1.27e-02     00000  Dog-leg BFGS step
   34    -149.5772414374      6.23e-01     00000 Line search: overstep
   35    -149.6673263704      1.10e-02     00000  Normal BFGS step
   36    -149.6667931853      7.94e-02     00000 Line search: overstep
   37    -149.6674321800      1.71e-02     00000  Normal BFGS step
   38    -149.6675646030      2.37e-03     00000  Normal BFGS step
   39    -149.6675951517      4.59e-03     00000  Normal BFGS step
   40    -149.6675890786      8.65e-03     00000 Line search: overstep
   41    -149.6676026715      2.45e-03     00000  Normal BFGS step
   42    -149.6675995299      3.79e-03     00000 Line search: overstep
   43    -149.6676062065      5.94e-04     00000  Normal BFGS step
   44    -149.6676053154      1.13e-03     00000 Line search: overstep
   45    -149.6676068367      2.68e-04     00000  Normal BFGS step
   46    -149.6676070699      9.77e-05     00000  Normal BFGS step
   47    -149.6676070968      2.06e-05     00000  Normal BFGS step
   48    -149.6676070995      1.82e-05     00000  Normal BFGS step
   49    -149.6676071003      8.05e-06     00000  Normal BFGS step
   50    -149.6676071004      3.35e-06     00000  Normal BFGS step
   51    -149.6676071005      1.07e-06     00000  Normal BFGS step
   52    -149.6676071005      1.58e-07     00000  Normal BFGS step
   53    -149.6676071005      5.31e-08     00000  Normal BFGS step
   54    -149.6676071005      1.47e-08     00000  Normal BFGS step
   55    -149.6676071005      6.14e-08     00000  Normal BFGS step
   56    -149.6676071005      2.23e-07     00000  Normal BFGS step
   57    -149.6676071005      1.20e-08     00000  Normal BFGS step
   58    -149.6676071005      4.53e-08     00000  Normal BFGS step
   59    -149.6676071005      1.85e-09     00000 Convergence criterion met
The disked orbital energies are calculated using alpha and beta Focks
Timing for Single Stationary Point: 13979.00s (wall), 111261.11s (cpu)
Begin Timing: Stability
===================================================
Beginning Test for Internal Stability
===================================================
generating davidson guess vectors based on koopmans-like excitations
    1      4.63e-01     00000 Davidson Iteration
    2      4.46e-01     00000 Davidson Iteration
    3      9.57e-02     00000 Davidson Iteration
    4      2.71e-02     00000 Davidson Iteration
    5      1.00e-02     00000 Davidson Iteration
    6      2.32e-03     00000 Davidson Iteration
    7      5.68e-04     00000 Davidson Iteration
    8      1.19e-04     00000 Davidson Iteration
    9      5.66e-05     00000 Davidson Iteration
   10      1.44e-04     00000 Davidson Iteration
   11      3.77e-05     00000 Davidson Converged
converged_eigenvalues
   5.5132e-10
   5.8910e-02
Threshold for negative eigenvalues: -1.0e-05
solution was a local minimum (stable)
===================================================
End Test for Internal Stability
===================================================
Our SCF solution is stable!
The disked orbital energies are calculated using alpha and beta Focks
Timing for Total SCF: 27732.00s (wall), 220553.51s (cpu)
 Total energy in the final basis set =     -149.6676071005
<S^2> =          2.000000000
    ==================================================
              The end of Object-Oriented SCFman       
    ==================================================
 
 --------------------------------------------------------------
 
                    Orbital Energies (a.u.)
 --------------------------------------------------------------
 
 Alpha MOs
 -- Occupied --
-20.747 -20.746  -1.702  -1.188  -0.770  -0.811  -0.811  -0.543
 -0.543
 -- Virtual --
  0.069   0.102   0.102   0.102   0.141   0.141   0.145   0.226
  0.365   0.365   0.407   0.412   0.446   0.446   0.482   0.482
  0.486   0.486   0.509   0.509   0.517   0.534   0.595   0.595
  0.640   0.824   0.907   0.907   1.046   1.046   1.115   1.115
  1.116   1.116   1.127   1.127   1.146   1.184   1.184   1.197
  1.252   1.252   1.263   1.350   1.445   1.445   1.500   1.500
  1.558   1.558   1.624   1.624   1.673   2.331   2.331   2.339
  2.379   2.443   2.443   2.566   2.566   2.617   2.687   2.687
  2.820   2.820   2.824   2.824   2.829   2.829   2.848   2.848
  2.862   2.894   2.894   2.899   2.899   2.997   2.997   3.034
  3.184   3.184   3.184   3.274   3.274   3.297   3.297   3.438
  3.438   3.470   3.470   3.607   4.126   4.126   4.311   4.447
  4.447   4.584   4.771   4.825   4.825   5.178   5.178   5.508
  5.536   5.536   5.854   5.854   5.959   5.959   6.254   6.254
  6.344   6.344   6.502   6.502   6.573   6.573   6.806   6.911
  6.911   6.915   6.954   6.954   6.972   7.004   7.004   7.042
  7.042   7.088   7.088   7.158   7.158   7.159   7.159   7.185
  7.185   7.260   7.260   7.273   7.313   7.313   7.504   7.504
  7.549   7.549   7.619   7.619   7.910   8.139   8.139   8.264
  8.264   8.452   8.452   8.523   8.523   8.540   8.540   8.751
  9.114   9.319   9.415   9.415  10.464  10.464  10.569  10.662
 10.662  11.525  11.525  12.107  13.029  13.409  13.409  14.244
 14.244  15.024  15.713  15.713  15.818  15.818  15.866  15.937
 15.937  16.025  16.025  16.036  16.078  16.078  16.222  16.222
 16.497  16.497  17.141  17.141  17.616  17.674  17.674  17.716
 17.716  18.876  18.876  18.924  18.924  18.972  19.023  19.023
 19.040  19.040  19.057  19.057  19.110  19.110  19.369  19.369
 19.418  19.418  19.437  19.437  19.546  19.546  19.736  19.736
 19.830  19.830  20.104  20.298  20.301  20.333  21.478  21.478
 22.327  22.327  22.403  22.454  22.454  22.583  22.583  24.152
 24.152  24.335  25.126  29.892  31.734  37.981  37.981  38.498
 38.498  39.966  40.319  60.827  60.827  61.273  61.273  61.273
 61.273  61.763  62.218  62.218  62.694  71.628  71.628  71.676
 71.676  71.690  71.690  71.958  71.958  72.005  72.005  72.383
 73.115  73.115  73.512  82.297  83.705 107.219 107.219 107.629
107.629 108.720 109.206 180.994 180.994 181.296 181.296 181.306
181.306 181.615 182.009 182.009 182.368 219.988 221.102 245.581
245.581 245.583 245.585 245.587 245.587 245.587 245.589 245.589
245.589 245.590 245.592 245.592 245.595 245.598 245.599 245.599
245.599 291.306 291.306 291.325 291.325 291.331 291.331 291.434
291.434 291.455 291.455 291.510 291.876 291.876 292.119 298.391
298.391 298.748 298.748 299.655 300.174 556.324 556.324 556.533
556.533 556.540 556.540 556.739 557.033 557.033 557.271 583.491
584.537 837.083 837.083 837.373 837.373 838.116 838.5552072.314
*******
 
 Beta MOs
 -- Occupied --
-20.706 -20.705  -1.593  -1.008  -0.700  -0.596  -0.596
 -- Virtual --
  0.119   0.119   0.071   0.105   0.106   0.106   0.144   0.144
  0.146   0.233   0.371   0.371   0.410   0.445   0.463   0.463
  0.486   0.486   0.502   0.502   0.522   0.522   0.525   0.549
  0.605   0.605   0.672   0.832   0.910   0.910   1.060   1.060
  1.133   1.133   1.136   1.136   1.131   1.131   1.159   1.206
  1.206   1.205   1.258   1.258   1.270   1.364   1.469   1.469
  1.550   1.550   1.615   1.615   1.660   1.660   1.689   2.359
  2.359   2.357   2.397   2.449   2.449   2.574   2.574   2.640
  2.703   2.703   2.838   2.838   2.832   2.832   2.856   2.856
  2.858   2.858   2.870   2.913   2.913   2.918   2.918   3.034
  3.034   3.073   3.192   3.192   3.190   3.346   3.345   3.334
  3.334   3.450   3.450   3.506   3.506   3.633   4.168   4.168
  4.327   4.469   4.469   4.614   4.795   4.875   4.875   5.223
  5.223   5.532   5.580   5.580   5.861   5.861   5.969   5.969
  6.262   6.262   6.356   6.356   6.518   6.518   6.587   6.587
  6.834   6.935   6.935   6.928   6.971   6.971   6.984   7.016
  7.016   7.055   7.055   7.104   7.104   7.175   7.175   7.180
  7.180   7.207   7.207   7.280   7.280   7.289   7.360   7.360
  7.546   7.546   7.593   7.593   7.629   7.629   7.927   8.213
  8.213   8.300   8.300   8.495   8.495   8.537   8.537   8.562
  8.562   8.781   9.131   9.342   9.446   9.446  10.488  10.488
 10.591  10.693  10.693  11.556  11.556  12.140  13.050  13.458
 13.458  14.288  14.288  15.044  15.725  15.725  15.829  15.829
 15.887  15.952  15.952  16.045  16.045  16.049  16.103  16.103
 16.247  16.247  16.517  16.517  17.157  17.157  17.631  17.689
 17.689  17.731  17.731  18.915  18.915  18.964  18.964  18.993
 19.058  19.058  19.082  19.082  19.096  19.096  19.160  19.160
 19.398  19.398  19.444  19.444  19.465  19.465  19.565  19.565
 19.762  19.762  19.850  19.850  20.122  20.331  20.332  20.351
 21.529  21.529  22.373  22.373  22.425  22.480  22.480  22.610
 22.610  24.175  24.175  24.350  25.138  29.919  31.756  38.008
 38.008  38.525  38.525  39.976  40.330  60.852  60.852  61.288
 61.288  61.298  61.298  61.775  62.233  62.233  62.705  71.654
 71.654  71.695  71.695  71.716  71.716  71.972  71.972  72.024
 72.024  72.395  73.128  73.128  73.524  82.309  83.716 107.231
107.231 107.640 107.640 108.724 109.211 181.002 181.002 181.302
181.302 181.314 181.314 181.619 182.014 182.014 182.372 219.992
221.107 245.587 245.587 245.590 245.591 245.593 245.593 245.593
245.598 245.596 245.596 245.598 245.600 245.600 245.601 245.603
245.603 245.603 245.603 291.312 291.312 291.329 291.329 291.337
291.337 291.437 291.437 291.459 291.460 291.513 291.880 291.880
292.122 298.395 298.395 298.753 298.753 299.657 300.176 556.326
556.326 556.534 556.534 556.542 556.542 556.740 557.034 557.034
557.272 583.492 584.538 837.084 837.084 837.375 837.375 838.116
838.5562072.3152075.919
 --------------------------------------------------------------
 
          Ground-State Mulliken Net Atomic Charges

     Atom                 Charge (a.u.)
  ----------------------------------------
      1 O                     0.000000
      2 O                    -0.000000
  ----------------------------------------
  Sum of atomic charges =    -0.000000

 -----------------------------------------------------------------
                    Cartesian Multipole Moments
 -----------------------------------------------------------------
    Charge (ESU x 10^10)
                -0.0000
    Dipole Moment (Debye)
         X      -0.0000      Y      -0.0000      Z      -0.0000
       Tot       0.0000
    Quadrupole Moments (Debye-Ang)
        XX      -9.9791     XY       0.0000     YY      -9.9791
        XZ       0.0000     YZ      -0.0000     ZZ     -10.3855
    Octopole Moments (Debye-Ang^2)
       XXX       0.0000    XXY      -0.0000    XYY       0.0000
       YYY      -0.0000    XXZ      -5.8665    XYZ      -0.1468
       YYZ      -6.1832    XZZ       0.0000    YZZ      -0.0000
       ZZZ     -18.8107
    Hexadecapole Moments (Debye-Ang^3)
      XXXX      -7.1203   XXXY       0.0000   XXYY      -2.3734
      XYYY      -0.0000   YYYY      -7.1203   XXXZ       0.0000
      XXYZ      -0.0000   XYYZ       0.0000   YYYZ      -0.0000
      XXZZ      -9.6089   XYZZ      -0.1772   YYZZ      -9.9913
      XZZZ       0.0000   YZZZ      -0.0000   ZZZZ     -50.9912
 -----------------------------------------------------------------
Archival summary:
1\1\n0060.mhg0\SP\ROHF\BasisUnspecified\2(3)\yhljason\SatOct309:32:222020SatOct309:32:222020\0\\#,ROHF,BasisUnspecified,\\0,3\O\O,1,1.2075\\HF=-149.667607\\@

 Total job time:  27851.13s(wall), 221461.19s(cpu) 
 Sat Oct  3 09:32:22 2020

        *************************************************************
        *                                                           *
        *  Thank you very much for using Q-Chem.  Have a nice day.  *
        *                                                           *
        *************************************************************


