Q-Chem Developer Version!
                  Welcome to Q-Chem
     A Quantum Leap Into The Future Of Chemistry


 Q-Chem 5.1, Q-Chem, Inc., Pleasanton, CA (2018)

 Yihan Shao,  Zhengting Gan,  E. Epifanovsky,  A. T. B. Gilbert,  M. Wormit,  
 J. Kussmann,  A. W. Lange,  A. Behn,  Jia Deng,  Xintian Feng,  D. Ghosh,  
 M. Goldey,  P. R. Horn,  L. D. Jacobson,  I. Kaliman,  T. Kus,  A. Landau,  
 Jie Liu,  E. I. Proynov,  R. M. Richard,  R. P. Steele,  E. J. Sundstrom,  
 H. L. Woodcock III,  P. M. Zimmerman,  D. Zuev,  B. Albrecht,  E. Alguire,  
 S. A. Baeppler,  D. Barton,  Z. Benda,  Y. A. Bernard,  E. J. Berquist,  
 K. B. Bravaya,  H. Burton,  D. Casanova,  Chun-Min Chang,  Yunqing Chen,  
 A. Chien,  K. D. Closser,  M. P. Coons,  S. Coriani,  S. Dasgupta,  
 A. L. Dempwolff,  M. Diedenhofen,  Hainam Do,  R. G. Edgar,  Po-Tung Fang,  
 S. Faraji,  S. Fatehi,  Qingguo Feng,  K. D. Fenk,  J. Fosso-Tande,  
 Qinghui Ge,  A. Ghysels,  G. Gidofalvi,  J. Gomes,  J. Gonthier,  A. Gunina,  
 D. Hait,  M. W. D. Hanson-Heine,  P. H. P. Harbach,  A. W. Hauser,  
 J. E. Herr,  E. G. Hohenstein,  Z. C. Holden,  Kerwin Hui,  B. C. Huynh,  
 T.-C. Jagau,  Hyunjun Ji,  B. Kaduk,  K. Khistyaev,  Jaehoon Kim,  
 P. Klunzinger,  K. Koh,  D. Kosenkov,  L. Koulias,  T. Kowalczyk,  
 C. M. Krauter,  A. Kunitsa,  Ka Un Lao,  A. Laurent,  K. V. Lawler,  
 Joonho Lee,  D. Lefrancois,  S. Lehtola,  D. S. Levine,  Yi-Pei Li,  
 You-Sheng Lin,  Fenglai Liu,  E. Livshits,  A. Luenser,  P. Manohar,  
 E. Mansoor,  S. F. Manzer,  Shan-Ping Mao,  Yuezhi Mao,  N. Mardirossian,  
 A. V. Marenich,  T. Markovich,  L. A. Martinez-Martinez,  S. A. Maurer,  
 N. J. Mayhall,  S. C. McKenzie,  J.-M. Mewes,  A. F. Morrison,  
 J. W. Mullinax,  K. Nanda,  T. S. Nguyen-Beck,  R. Olivares-Amaya,  
 J. A. Parkhill,  T. M. Perrine,  F. Plasser,  P. Pokhilko,  S. Prager,  
 A. Prociuk,  E. Ramos,  D. R. Rehn,  F. Rob,  M. Schneider,  N. Sergueev,  
 S. M. Sharada,  S. Sharma,  D. W. Small,  T. Stauch,  T. Stein,  
 Yu-Chuan Su,  A. J. W. Thom,  A. Tkatchenko,  T. Tsuchimochi,  N. M. Tubman,  
 L. Vogt,  M. L. Vidal,  O. Vydrov,  M. A. Watson,  J. Wenzel,  
 M. de Wergifosse,  T. A. Wesolowski,  A. White,  J. Witte,  A. Yamada,  
 Jun Yang,  K. Yao,  S. Yeganeh,  S. R. Yost,  Zhi-Qiang You,  A. Zech,  
 Igor Ying Zhang,  Xing Zhang,  Yan Zhao,  Ying Zhu,  B. R. Brooks,  
 G. K. L. Chan,  C. J. Cramer,  M. S. Gordon,  W. J. Hehre,  A. Klamt,  
 M. W. Schmidt,  C. D. Sherrill,  D. G. Truhlar,  A. Aspuru-Guzik,  R. Baer,  
 A. T. Bell,  N. A. Besley,  Jeng-Da Chai,  A. E. DePrince, III,  
 R. A. DiStasio Jr.,  A. Dreuw,  B. D. Dunietz,  T. R. Furlani,  
 Chao-Ping Hsu,  Yousung Jung,  Jing Kong,  D. S. Lambrecht,  WanZhen Liang,  
 C. Ochsenfeld,  V. A. Rassolov,  L. V. Slipchenko,  J. E. Subotnik,  
 T. Van Voorhis,  J. M. Herbert,  A. I. Krylov,  P. M. W. Gill,  M. Head-Gordon

 Contributors to earlier versions of Q-Chem not listed above: 
 R. D. Adamson,  B. Austin,  J. Baker,  G. J. O. Beran,  K. Brandhorst,  
 S. T. Brown,  E. F. C. Byrd,  A. K. Chakraborty,  C.-L. Cheng,  
 Siu Hung Chien,  D. M. Chipman,  D. L. Crittenden,  H. Dachsel,  
 R. J. Doerksen,  A. D. Dutoi,  L. Fusti-Molnar,  W. A. Goddard III,  
 A. Golubeva-Zadorozhnaya,  S. R. Gwaltney,  G. Hawkins,  A. Heyden,  
 S. Hirata,  G. Kedziora,  F. J. Keil,  C. Kelley,  Jihan Kim,  R. A. King,  
 R. Z. Khaliullin,  P. P. Korambath,  W. Kurlancheek,  A. M. Lee,  M. S. Lee,  
 S. V. Levchenko,  Ching Yeh Lin,  D. Liotard,  R. C. Lochan,  I. Lotan,  
 P. E. Maslen,  N. Nair,  D. P. O'Neill,  D. Neuhauser,  E. Neuscamman,  
 C. M. Oana,  R. Olson,  B. Peters,  R. Peverati,  P. A. Pieniazek,  
 Y. M. Rhee,  J. Ritchie,  M. A. Rohrdanz,  E. Rosta,  N. J. Russ,  
 H. F. Schaefer III,  N. E. Schultz,  N. Shenvi,  A. C. Simmonett,  A. Sodt,  
 D. Stuck,  K. S. Thanthiriwatte,  V. Vanovschi,  Tao Wang,  A. Warshel,  
 C. F. Williams,  Q. Wu,  X. Xu,  W. Zhang

 Please cite Q-Chem as follows:
 Y. Shao et al., Mol. Phys. 113, 184-215 (2015)
 DOI: 10.1080/00268976.2014.952696

 Q-Chem 5.1.1 for Intel X86 EM64T Linux

 Parts of Q-Chem use Armadillo 8.300.2 (Tropical Shenanigans).
 http://arma.sourceforge.net/

 Q-Chem begins on Sat Sep 19 01:29:45 2020  

Host: n0035.mhg0
0

     Scratch files written to /local/scratch/users/yhljason/P_rmp2_aug-cc-pcVQZ.inp20200919012552//
Input Ideriv = 1
Curr. Ideriv = -1
Max.  Ideriv = 1

Checking the input file for inconsistencies... 	...done.

--------------------------------------------------------------
User input:
--------------------------------------------------------------
$molecule
0 4
P
$end

$rem
jobtype sp
method mp2
xc_grid 000099000590
basis aug-cc-pcVQZ
max_scf_cycles 200
thresh 14
scf_convergence 8
scf_algorithm gdm
symmetry false
sym_ignore true
unrestricted false
gen_scfman true
internal_stability_iter 15
internal_stability_davidson_iter 200
mem_total 128000
cc_memory 96000
cc_backend xm
mem_static 1500
n_frozen_core 0
$end


--------------------------------------------------------------
 ----------------------------------------------------------------
             Standard Nuclear Orientation (Angstroms)
    I     Atom           X                Y                Z
 ----------------------------------------------------------------
    1      P       0.0000000000     0.0000000000     0.0000000000
 ----------------------------------------------------------------
 Nuclear Repulsion Energy =     0.0000000000 hartrees
 There are        9 alpha and        6 beta electrons
 Requested basis set is aug-cc-pCVQZ
 There are 34 shells and 134 basis functions

 Total QAlloc Memory Limit 128000 MB
 Mega-Array Size      1467 MB
 MEM_STATIC part      1500 MB
 A cutoff of  1.0D-14 yielded    595 shell pairs
 There are      9355 function pairs (     15897 Cartesian)
 
 -------------------------------------------------------
 OpenMP Integral Computing Module                       
 Release: version 1.0, May 2013, Q-Chem Inc. Pittsburgh 
 -------------------------------------------------------
 Integral Job Info:
 Integral job number is                      11
 Integral operator is                         1
 short-range coefficients                     0
 long-range coefficients              100000000
 Omega coefficients                           0
 if combine SR and LR in K                    0
 Integral screening is                        0
 Integral computing path is                   2
 max size of driver memory is           3200000
 size of driver memory is               1704330
 size of scratch memory is             29435624
 max col of scratch BK array              50625
 max len of scratch array in speh3         2114
 max len of scratch index in speh4           50
 max int batch size is                      520
 min int batch size is                       52
 fixed nKL is                                22
 max L of basis functions is                  4
 order of int derivative is                   0
 number of shells is                         34
 number of basis is                         174
 number of cartesian basis is               174
 number of contracted shell pairs           595
 number of primitive shell pairs           3860
 maxK2 (contraction) of shell pair          169
 max number of K2 of shell pair               1
 max number of CS2 of shell pair             49
 max number of PS2 of shell pair           1014
 mem total for path MDJ                  631630
 -------------------------------------------------------
 Smallest overlap matrix eigenvalue = 3.31E-05

 Scale SEOQF with 1.000000e-01/1.000000e-01/1.000000e-01

 Standard Electronic Orientation quadrupole field applied
 Guess from superposition of atomic densities
 Warning:  Energy on first SCF cycle will be non-variational
 SAD guess density has 15.000000 electrons

 -----------------------------------------------------------------------
  General SCF calculation program by
  Eric Jon Sundstrom, Paul Horn, Yuezhi Mao, Dmitri Zuev, Alec White,
  David Stuck, Shaama M.S., Shane Yost, Joonho Lee, David Small,
  Daniel Levine, Susi Lehtola, Hugh Burton, Evgeny Epifanovsky
 -----------------------------------------------------------------------
Running Object-Oriented ROHF
ROHF occupied orbitals are orthonormal
ROHF occupied orbitals are orthogonal to virtual orbitals
ROHF virtual orbitals are orthonormal
We will preform up to 15 macro iterations over saddle points until a stable solution is found
Energy prior to optimization (guess energy) = -340.718338560384
Begin Timing: Total SCF Calculation
Begin Timing: SCF Single Stationary Point Calculation
begin iterations for algorithm: GDM          
the SCF tolerance is set to 1.00e-08
    1    -340.7183385604      2.85e-03     00000  Normal BFGS step
    2    -340.7183484442      7.41e-04     00000  Normal BFGS step
    3    -340.7183494609      1.00e-04     00000  Normal BFGS step
    4    -340.7183494765      2.51e-05     00000  Normal BFGS step
    5    -340.7183494776      1.40e-06     00000  Normal BFGS step
    6    -340.7183494776      2.41e-07     00000  Normal BFGS step
    7    -340.7183494776      5.38e-08     00000  Normal BFGS step
    8    -340.7183494776      5.57e-09     00000 Convergence criterion met
The disked orbital energies are calculated using alpha and beta Focks
Timing for Single Stationary Point: 7.00s (wall), 107.12s (cpu)
Begin Timing: Stability
===================================================
Beginning Test for Internal Stability
===================================================
generating davidson guess vectors based on koopmans-like excitations
    1      1.00e+00     00000 Davidson Iteration
    2      3.44e-01     00000 Davidson Iteration
    3      7.15e-02     00000 Davidson Iteration
    4      2.61e-02     00000 Davidson Iteration
    5      1.41e-02     00000 Davidson Iteration
    6      1.99e-03     00000 Davidson Iteration
    7      2.56e-04     00000 Davidson Iteration
    8      3.95e-05     00000 Davidson Converged
converged_eigenvalues
   0.3353
   0.3353
Threshold for negative eigenvalues: -1.0e-05
solution was a local minimum (stable)
===================================================
End Test for Internal Stability
===================================================
Our SCF solution is stable!
The disked orbital energies are calculated using alpha and beta Focks
Timing for Total SCF: 19.00s (wall), 307.30s (cpu)
 Total energy in the final basis set =     -340.7183494776
<S^2> =          3.750000000
    ==================================================
              The end of Object-Oriented SCFman       
    ==================================================
 
 Components of the MP2 correlation energy:
        aaaa  correlation energy =        -0.0752090502 au
        abab  correlation energy =        -0.3466636812 au
        bbbb  correlation energy =        -0.0472501852 au
        non-Brillouin singles    =        -0.0003875393 au

 Total  MP2   correlation energy =                    -0.46951046 au
        MP2         total energy =                  -341.18785993 au
 
 --------------------------------------------------------------
 
                    Orbital Energies (a.u.)
 --------------------------------------------------------------
 
 Alpha MOs
 -- Occupied --
-79.979  -7.522  -5.420  -5.420  -5.420  -0.835  -0.392  -0.392
 -0.392
 -- Virtual --
  0.071   0.071   0.071   0.066   0.165   0.165   0.165   0.165
  0.165   0.352   0.352   0.352   0.402   0.433   0.433   0.433
  0.433   0.433   0.433   0.433   0.423   0.423   0.423   0.423
  0.423   1.133   1.133   1.133   1.133   1.133   1.229   1.229
  1.229   1.229   1.229   1.229   1.229   1.229   1.229   1.221
  1.221   1.221   1.221   1.221   1.221   1.221   1.318   1.318
  1.318   1.603   2.884   2.884   2.884   2.884   2.884   3.023
  3.023   3.023   3.023   3.023   3.023   3.023   3.303   3.303
  3.303   3.303   3.303   3.303   3.303   3.303   3.303   4.545
  4.545   4.545   6.523   8.695   8.695   8.695   8.695   8.695
 14.295  14.295  14.295  16.441  16.441  16.441  16.441  16.441
 16.441  16.441  22.973  27.434  27.434  27.434  27.434  27.434
 40.313  40.313  40.313  47.145  47.145  47.145  47.145  47.145
 47.145  47.145  47.145  47.145  57.409  57.409  57.409  57.409
 57.409  57.409  57.409  68.119  80.507  80.507  80.507  80.507
 80.507 126.007 126.007 126.007 323.998
 
 Beta MOs
 -- Occupied --
-79.960  -7.501  -5.382  -5.382  -5.382  -0.558
 -- Virtual --
  0.077   0.077   0.077   0.077   0.077   0.077   0.077   0.182
  0.182   0.182   0.182   0.182   0.393   0.393   0.393   0.442
  0.446   0.446   0.446   0.446   0.446   0.446   0.446   0.522
  0.522   0.522   0.522   0.522   1.207   1.207   1.207   1.207
  1.207   1.253   1.253   1.253   1.253   1.253   1.253   1.253
  1.253   1.253   1.277   1.277   1.277   1.277   1.277   1.277
  1.277   1.384   1.384   1.384   1.655   2.915   2.915   2.915
  2.915   2.915   3.077   3.077   3.077   3.077   3.077   3.077
  3.077   3.349   3.349   3.349   3.349   3.349   3.349   3.349
  3.349   3.349   4.588   4.588   4.588   6.553   8.715   8.715
  8.715   8.715   8.715  14.317  14.317  14.317  16.445  16.445
 16.445  16.445  16.445  16.445  16.445  22.989  27.455  27.455
 27.455  27.455  27.455  40.327  40.327  40.327  47.149  47.149
 47.149  47.149  47.149  47.149  47.149  47.149  47.149  57.421
 57.421  57.421  57.421  57.421  57.421  57.421  68.129  80.521
 80.521  80.521  80.521  80.521 126.017 126.017 126.017 324.003
 --------------------------------------------------------------
 
          Ground-State Mulliken Net Atomic Charges

     Atom                 Charge (a.u.)
  ----------------------------------------
      1 P                    -0.000000
  ----------------------------------------
  Sum of atomic charges =    -0.000000

 -----------------------------------------------------------------
                    Cartesian Multipole Moments
 -----------------------------------------------------------------
    Charge (ESU x 10^10)
                -0.0000
    Dipole Moment (Debye)
         X      -0.0000      Y       0.0000      Z      -0.0000
       Tot       0.0000
    Quadrupole Moments (Debye-Ang)
        XX     -13.5798     XY      -0.0000     YY     -13.5798
        XZ      -0.0000     YZ       0.0000     ZZ     -13.5798
    Octopole Moments (Debye-Ang^2)
       XXX      -0.0000    XXY       0.0000    XYY      -0.0000
       YYY       0.0000    XXZ      -0.0000    XYZ      -0.0000
       YYZ      -0.0000    XZZ       0.0000    YZZ       0.0000
       ZZZ      -0.0000
    Hexadecapole Moments (Debye-Ang^3)
      XXXX     -21.8986   XXXY      -0.0000   XXYY      -7.2995
      XYYY      -0.0000   YYYY     -21.8986   XXXZ      -0.0000
      XXYZ       0.0000   XYYZ      -0.0000   YYYZ       0.0000
      XXZZ      -7.2995   XYZZ      -0.0000   YYZZ      -7.2995
      XZZZ      -0.0000   YZZZ       0.0000   ZZZZ     -21.8986
 -----------------------------------------------------------------

 STANDARD THERMODYNAMIC QUANTITIES AT   298.15 K  AND     1.00 ATM

   Translational Enthalpy:        0.889 kcal/mol
   Rotational Enthalpy:           0.000 kcal/mol
   Vibrational Enthalpy:          0.000 kcal/mol
   gas constant (RT):             0.592 kcal/mol
   Translational Entropy:        36.224  cal/mol.K
   Rotational Entropy:            0.000  cal/mol.K
   Vibrational Entropy:           0.000  cal/mol.K

   Total Enthalpy:                1.481 kcal/mol
   Total Entropy:                36.224  cal/mol.K

 -----------------------------------------------------------------

Archival summary:
1\1\n0035.mhg0\SP\ROMP2\BasisUnspecified\1(4)\yhljason\SatSep1901:31:062020SatSep1901:31:062020\0\\#,ROMP2,BasisUnspecified,\\0,4\P\\HF=-340.718349\MP2=-341.18786\\@

 Total job time:  80.56s(wall), 1278.34s(cpu) 
 Sat Sep 19 01:31:06 2020

        *************************************************************
        *                                                           *
        *  Thank you very much for using Q-Chem.  Have a nice day.  *
        *                                                           *
        *************************************************************


 
User input: 2 of 7 
 
Q-Chem Developer Version!
                  Welcome to Q-Chem
     A Quantum Leap Into The Future Of Chemistry


 Q-Chem 5.1, Q-Chem, Inc., Pleasanton, CA (2018)

 Yihan Shao,  Zhengting Gan,  E. Epifanovsky,  A. T. B. Gilbert,  M. Wormit,  
 J. Kussmann,  A. W. Lange,  A. Behn,  Jia Deng,  Xintian Feng,  D. Ghosh,  
 M. Goldey,  P. R. Horn,  L. D. Jacobson,  I. Kaliman,  T. Kus,  A. Landau,  
 Jie Liu,  E. I. Proynov,  R. M. Richard,  R. P. Steele,  E. J. Sundstrom,  
 H. L. Woodcock III,  P. M. Zimmerman,  D. Zuev,  B. Albrecht,  E. Alguire,  
 S. A. Baeppler,  D. Barton,  Z. Benda,  Y. A. Bernard,  E. J. Berquist,  
 K. B. Bravaya,  H. Burton,  D. Casanova,  Chun-Min Chang,  Yunqing Chen,  
 A. Chien,  K. D. Closser,  M. P. Coons,  S. Coriani,  S. Dasgupta,  
 A. L. Dempwolff,  M. Diedenhofen,  Hainam Do,  R. G. Edgar,  Po-Tung Fang,  
 S. Faraji,  S. Fatehi,  Qingguo Feng,  K. D. Fenk,  J. Fosso-Tande,  
 Qinghui Ge,  A. Ghysels,  G. Gidofalvi,  J. Gomes,  J. Gonthier,  A. Gunina,  
 D. Hait,  M. W. D. Hanson-Heine,  P. H. P. Harbach,  A. W. Hauser,  
 J. E. Herr,  E. G. Hohenstein,  Z. C. Holden,  Kerwin Hui,  B. C. Huynh,  
 T.-C. Jagau,  Hyunjun Ji,  B. Kaduk,  K. Khistyaev,  Jaehoon Kim,  
 P. Klunzinger,  K. Koh,  D. Kosenkov,  L. Koulias,  T. Kowalczyk,  
 C. M. Krauter,  A. Kunitsa,  Ka Un Lao,  A. Laurent,  K. V. Lawler,  
 Joonho Lee,  D. Lefrancois,  S. Lehtola,  D. S. Levine,  Yi-Pei Li,  
 You-Sheng Lin,  Fenglai Liu,  E. Livshits,  A. Luenser,  P. Manohar,  
 E. Mansoor,  S. F. Manzer,  Shan-Ping Mao,  Yuezhi Mao,  N. Mardirossian,  
 A. V. Marenich,  T. Markovich,  L. A. Martinez-Martinez,  S. A. Maurer,  
 N. J. Mayhall,  S. C. McKenzie,  J.-M. Mewes,  A. F. Morrison,  
 J. W. Mullinax,  K. Nanda,  T. S. Nguyen-Beck,  R. Olivares-Amaya,  
 J. A. Parkhill,  T. M. Perrine,  F. Plasser,  P. Pokhilko,  S. Prager,  
 A. Prociuk,  E. Ramos,  D. R. Rehn,  F. Rob,  M. Schneider,  N. Sergueev,  
 S. M. Sharada,  S. Sharma,  D. W. Small,  T. Stauch,  T. Stein,  
 Yu-Chuan Su,  A. J. W. Thom,  A. Tkatchenko,  T. Tsuchimochi,  N. M. Tubman,  
 L. Vogt,  M. L. Vidal,  O. Vydrov,  M. A. Watson,  J. Wenzel,  
 M. de Wergifosse,  T. A. Wesolowski,  A. White,  J. Witte,  A. Yamada,  
 Jun Yang,  K. Yao,  S. Yeganeh,  S. R. Yost,  Zhi-Qiang You,  A. Zech,  
 Igor Ying Zhang,  Xing Zhang,  Yan Zhao,  Ying Zhu,  B. R. Brooks,  
 G. K. L. Chan,  C. J. Cramer,  M. S. Gordon,  W. J. Hehre,  A. Klamt,  
 M. W. Schmidt,  C. D. Sherrill,  D. G. Truhlar,  A. Aspuru-Guzik,  R. Baer,  
 A. T. Bell,  N. A. Besley,  Jeng-Da Chai,  A. E. DePrince, III,  
 R. A. DiStasio Jr.,  A. Dreuw,  B. D. Dunietz,  T. R. Furlani,  
 Chao-Ping Hsu,  Yousung Jung,  Jing Kong,  D. S. Lambrecht,  WanZhen Liang,  
 C. Ochsenfeld,  V. A. Rassolov,  L. V. Slipchenko,  J. E. Subotnik,  
 T. Van Voorhis,  J. M. Herbert,  A. I. Krylov,  P. M. W. Gill,  M. Head-Gordon

 Contributors to earlier versions of Q-Chem not listed above: 
 R. D. Adamson,  B. Austin,  J. Baker,  G. J. O. Beran,  K. Brandhorst,  
 S. T. Brown,  E. F. C. Byrd,  A. K. Chakraborty,  C.-L. Cheng,  
 Siu Hung Chien,  D. M. Chipman,  D. L. Crittenden,  H. Dachsel,  
 R. J. Doerksen,  A. D. Dutoi,  L. Fusti-Molnar,  W. A. Goddard III,  
 A. Golubeva-Zadorozhnaya,  S. R. Gwaltney,  G. Hawkins,  A. Heyden,  
 S. Hirata,  G. Kedziora,  F. J. Keil,  C. Kelley,  Jihan Kim,  R. A. King,  
 R. Z. Khaliullin,  P. P. Korambath,  W. Kurlancheek,  A. M. Lee,  M. S. Lee,  
 S. V. Levchenko,  Ching Yeh Lin,  D. Liotard,  R. C. Lochan,  I. Lotan,  
 P. E. Maslen,  N. Nair,  D. P. O'Neill,  D. Neuhauser,  E. Neuscamman,  
 C. M. Oana,  R. Olson,  B. Peters,  R. Peverati,  P. A. Pieniazek,  
 Y. M. Rhee,  J. Ritchie,  M. A. Rohrdanz,  E. Rosta,  N. J. Russ,  
 H. F. Schaefer III,  N. E. Schultz,  N. Shenvi,  A. C. Simmonett,  A. Sodt,  
 D. Stuck,  K. S. Thanthiriwatte,  V. Vanovschi,  Tao Wang,  A. Warshel,  
 C. F. Williams,  Q. Wu,  X. Xu,  W. Zhang

 Please cite Q-Chem as follows:
 Y. Shao et al., Mol. Phys. 113, 184-215 (2015)
 DOI: 10.1080/00268976.2014.952696

 Q-Chem 5.1.1 for Intel X86 EM64T Linux

 Parts of Q-Chem use Armadillo 8.300.2 (Tropical Shenanigans).
 http://arma.sourceforge.net/

 Q-Chem begins on Sat Sep 19 01:31:06 2020  

Host: n0035.mhg0
0

     Scratch files written to /local/scratch/users/yhljason/P_rmp2_aug-cc-pcVQZ.inp20200919012552//
The previous job contains 0 fragments, simply inherited here
Input Ideriv = 1
Curr. Ideriv = -1
Max.  Ideriv = 1

Checking the input file for inconsistencies... 	...done.

--------------------------------------------------------------
User input:
--------------------------------------------------------------
$molecule
read
$end

$rem

jobtype sp
method mp2
xc_grid 000099000590
basis aug-cc-pcVQZ
max_scf_cycles 200
thresh 14
scf_convergence 8
mem_total 128000
cc_memory 96000
cc_backend xm
mem_static 1500
symmetry false
sym_ignore true
scf_guess read
unrestricted false
scf_algorithm gdm
n_frozen_core 0
$end

$multipole_field
XX 0.0001
$end


--------------------------------------------------------------
 ----------------------------------------------------------------
             Standard Nuclear Orientation (Angstroms)
    I     Atom           X                Y                Z
 ----------------------------------------------------------------
    1      P       0.0000000000     0.0000000000     0.0000000000
 ----------------------------------------------------------------
 Nuclear Repulsion Energy =     0.0000000000 hartrees
 There are        9 alpha and        6 beta electrons
 Requested basis set is aug-cc-pCVQZ
 There are 34 shells and 134 basis functions

 Total QAlloc Memory Limit 128000 MB
 Mega-Array Size      1467 MB
 MEM_STATIC part      1500 MB
 Applying Cartesian multipole field
    Component          Value
    ---------          -----
     (2,0,0)        1.00000E-04
 A cutoff of  1.0D-14 yielded    595 shell pairs
 There are      9355 function pairs (     15897 Cartesian)
 
 -------------------------------------------------------
 OpenMP Integral Computing Module                       
 Release: version 1.0, May 2013, Q-Chem Inc. Pittsburgh 
 -------------------------------------------------------
 Integral Job Info:
 Integral job number is                      11
 Integral operator is                         1
 short-range coefficients                     0
 long-range coefficients              100000000
 Omega coefficients                           0
 if combine SR and LR in K                    0
 Integral screening is                        0
 Integral computing path is                   2
 max size of driver memory is           3200000
 size of driver memory is               1704330
 size of scratch memory is             29435624
 max col of scratch BK array              50625
 max len of scratch array in speh3         2114
 max len of scratch index in speh4           50
 max int batch size is                      520
 min int batch size is                       52
 fixed nKL is                                22
 max L of basis functions is                  4
 order of int derivative is                   0
 number of shells is                         34
 number of basis is                         174
 number of cartesian basis is               174
 number of contracted shell pairs           595
 number of primitive shell pairs           3860
 maxK2 (contraction) of shell pair          169
 max number of K2 of shell pair               1
 max number of CS2 of shell pair             49
 max number of PS2 of shell pair           1014
 mem total for path MDJ                  631630
 -------------------------------------------------------
 Smallest overlap matrix eigenvalue = 3.31E-05
 Guess MOs from SCF MO coefficient file
 Reading MOs from coefficient file
 Reading MOs from coefficient file
 A restricted Hartree-Fock SCF calculation will be
 performed using Geometric Direct Minimization
 SCF converges when RMS gradient is below 1.0E-08
Using Q-Chem read-in guess as SCF_GUESS READ specified.

 using 16 threads for integral computing
 -------------------------------------------------------
 OpenMP Integral computing Module                
 Release: version 2.0, May 2017, Q-Chem Inc. Pleasanton 
 -------------------------------------------------------
TIMEINFO->: J/JK contribution 13.35 sec.
 ---------------------------------------
  Cycle       Energy        RMS Gradient
 ---------------------------------------
    1    -340.7193591040      7.63E-04 Normal BFGS step
TIMEINFO->: J/JK contribution 20.20 sec.
    2    -340.7193595957      6.00E-04 Normal BFGS step
TIMEINFO->: J/JK contribution 19.95 sec.
    3    -340.7193597450      8.44E-05 Normal BFGS step
TIMEINFO->: J/JK contribution 19.74 sec.
    4    -340.7193597528      1.93E-05 Normal BFGS step
TIMEINFO->: J/JK contribution 18.88 sec.
    5    -340.7193597533      2.93E-06 Normal BFGS step
TIMEINFO->: J/JK contribution 18.10 sec.
    6    -340.7193597533      1.40E-06 Normal BFGS step
TIMEINFO->: J/JK contribution 17.06 sec.
    7    -340.7193597533      1.78E-07 Normal BFGS step
TIMEINFO->: J/JK contribution 16.78 sec.
    8    -340.7193597533      3.64E-08 Normal BFGS step
TIMEINFO->: J/JK contribution 15.92 sec.
   GDM::WARNING energy changes are now smaller than effective accuracy.
   GDM::        calculation will continue, but THRESH should be increased
   GDM::        or SCF_CONVERGENCE decreased.
   GDM::        effective_thresh =   9.000000000000000E-011
    9    -340.7193597533      1.76E-09 Convergence criterion met
 ---------------------------------------
 SCF time:  CPU 166.42 s  wall 10.48 s
 SCF   energy in the final basis set = -340.71935975
 Total energy in the final basis set = -340.71935975
 
 Components of the MP2 correlation energy:
        aaaa  correlation energy =        -0.0752080514 au
        abab  correlation energy =        -0.3466550498 au
        bbbb  correlation energy =        -0.0472497497 au
        non-Brillouin singles    =        -0.0003871260 au

 Total  MP2   correlation energy =                    -0.46949998 au
        MP2         total energy =                  -341.18885973 au
 
 --------------------------------------------------------------
 
                    Orbital Energies (a.u.)
 --------------------------------------------------------------
 
 Alpha MOs
 -- Occupied --
-79.980  -7.522  -5.420  -5.420  -5.420  -0.836  -0.392  -0.392
 -0.392
 -- Virtual --
  0.064   0.067   0.069   0.069   0.159   0.159   0.159   0.160
  0.160   0.350   0.351   0.351   0.401   0.432   0.432   0.432
  0.432   0.432   0.432   0.432   0.423   0.423   0.423   0.423
  0.423   1.136   1.137   1.137   1.137   1.137   1.229   1.229
  1.229   1.229   1.229   1.229   1.229   1.229   1.229   1.220
  1.220   1.220   1.221   1.221   1.221   1.221   1.318   1.318
  1.318   1.603   2.884   2.884   2.884   2.884   2.884   3.023
  3.023   3.023   3.023   3.023   3.023   3.023   3.303   3.303
  3.303   3.303   3.303   3.303   3.303   3.303   3.303   4.545
  4.545   4.545   6.523   8.694   8.694   8.694   8.695   8.695
 14.295  14.295  14.295  16.441  16.441  16.441  16.441  16.441
 16.441  16.441  22.973  27.434  27.434  27.434  27.434  27.434
 40.312  40.312  40.312  47.145  47.145  47.145  47.145  47.145
 47.145  47.145  47.145  47.145  57.408  57.408  57.408  57.408
 57.408  57.408  57.408  68.118  80.506  80.506  80.506  80.506
 80.506 126.007 126.007 126.007 323.997
 
 Beta MOs
 -- Occupied --
-79.961  -7.501  -5.383  -5.383  -5.383  -0.558
 -- Virtual --
  0.077   0.077   0.077   0.076   0.073   0.076   0.076   0.183
  0.183   0.183   0.184   0.184   0.391   0.392   0.392   0.441
  0.445   0.445   0.445   0.445   0.445   0.446   0.446   0.520
  0.520   0.520   0.521   0.521   1.205   1.205   1.205   1.205
  1.205   1.252   1.252   1.252   1.252   1.252   1.252   1.252
  1.252   1.252   1.276   1.276   1.276   1.276   1.276   1.276
  1.276   1.383   1.383   1.383   1.654   2.914   2.914   2.914
  2.914   2.914   3.077   3.077   3.077   3.077   3.077   3.077
  3.077   3.348   3.348   3.348   3.348   3.348   3.348   3.348
  3.349   3.349   4.588   4.588   4.588   6.553   8.715   8.715
  8.715   8.715   8.715  14.317  14.317  14.317  16.444  16.444
 16.444  16.444  16.444  16.444  16.444  22.988  27.454  27.454
 27.454  27.454  27.454  40.327  40.327  40.327  47.148  47.148
 47.148  47.148  47.148  47.148  47.148  47.148  47.148  57.421
 57.421  57.421  57.421  57.421  57.421  57.421  68.129  80.521
 80.521  80.521  80.521  80.521 126.016 126.016 126.016 324.002
 --------------------------------------------------------------
 
          Ground-State Mulliken Net Atomic Charges

     Atom                 Charge (a.u.)
  ----------------------------------------
      1 P                     0.000000
  ----------------------------------------
  Sum of atomic charges =     0.000000

 -----------------------------------------------------------------
                    Cartesian Multipole Moments
 -----------------------------------------------------------------
    Charge (ESU x 10^10)
                 0.0000
    Dipole Moment (Debye)
         X       0.0000      Y       0.0000      Z       0.0000
       Tot       0.0000
    Quadrupole Moments (Debye-Ang)
        XX     -13.5973     XY       0.0000     YY     -13.5822
        XZ       0.0000     YZ      -0.0000     ZZ     -13.5822
    Octopole Moments (Debye-Ang^2)
       XXX      -0.0000    XXY       0.0000    XYY       0.0000
       YYY       0.0000    XXZ      -0.0000    XYZ      -0.0000
       YYZ       0.0000    XZZ      -0.0000    YZZ       0.0000
       ZZZ      -0.0000
    Hexadecapole Moments (Debye-Ang^3)
      XXXX     -21.9929   XXXY       0.0000   XXYY      -7.3176
      XYYY       0.0000   YYYY     -21.9129   XXXZ       0.0000
      XXYZ      -0.0000   XYYZ       0.0000   YYYZ      -0.0000
      XXZZ      -7.3176   XYZZ       0.0000   YYZZ      -7.3043
      XZZZ      -0.0000   YZZZ      -0.0000   ZZZZ     -21.9129
 -----------------------------------------------------------------

 STANDARD THERMODYNAMIC QUANTITIES AT   298.15 K  AND     1.00 ATM

   Translational Enthalpy:        0.889 kcal/mol
   Rotational Enthalpy:           0.000 kcal/mol
   Vibrational Enthalpy:          0.000 kcal/mol
   gas constant (RT):             0.592 kcal/mol
   Translational Entropy:        36.224  cal/mol.K
   Rotational Entropy:            0.000  cal/mol.K
   Vibrational Entropy:           0.000  cal/mol.K

   Total Enthalpy:                1.481 kcal/mol
   Total Entropy:                36.224  cal/mol.K

 -----------------------------------------------------------------

Archival summary:
1\1\n0035.mhg0\SP\ROMP2\BasisUnspecified\1(4)\yhljason\SatSep1901:32:162020SatSep1901:32:162020\0\\#,ROMP2,BasisUnspecified,\\0,4\P\\HF=-340.71936\MP2=-341.18886\\@

 Total job time:  70.67s(wall), 1121.42s(cpu) 
 Sat Sep 19 01:32:16 2020

        *************************************************************
        *                                                           *
        *  Thank you very much for using Q-Chem.  Have a nice day.  *
        *                                                           *
        *************************************************************


 
User input: 3 of 7 
 
Q-Chem Developer Version!
                  Welcome to Q-Chem
     A Quantum Leap Into The Future Of Chemistry


 Q-Chem 5.1, Q-Chem, Inc., Pleasanton, CA (2018)

 Yihan Shao,  Zhengting Gan,  E. Epifanovsky,  A. T. B. Gilbert,  M. Wormit,  
 J. Kussmann,  A. W. Lange,  A. Behn,  Jia Deng,  Xintian Feng,  D. Ghosh,  
 M. Goldey,  P. R. Horn,  L. D. Jacobson,  I. Kaliman,  T. Kus,  A. Landau,  
 Jie Liu,  E. I. Proynov,  R. M. Richard,  R. P. Steele,  E. J. Sundstrom,  
 H. L. Woodcock III,  P. M. Zimmerman,  D. Zuev,  B. Albrecht,  E. Alguire,  
 S. A. Baeppler,  D. Barton,  Z. Benda,  Y. A. Bernard,  E. J. Berquist,  
 K. B. Bravaya,  H. Burton,  D. Casanova,  Chun-Min Chang,  Yunqing Chen,  
 A. Chien,  K. D. Closser,  M. P. Coons,  S. Coriani,  S. Dasgupta,  
 A. L. Dempwolff,  M. Diedenhofen,  Hainam Do,  R. G. Edgar,  Po-Tung Fang,  
 S. Faraji,  S. Fatehi,  Qingguo Feng,  K. D. Fenk,  J. Fosso-Tande,  
 Qinghui Ge,  A. Ghysels,  G. Gidofalvi,  J. Gomes,  J. Gonthier,  A. Gunina,  
 D. Hait,  M. W. D. Hanson-Heine,  P. H. P. Harbach,  A. W. Hauser,  
 J. E. Herr,  E. G. Hohenstein,  Z. C. Holden,  Kerwin Hui,  B. C. Huynh,  
 T.-C. Jagau,  Hyunjun Ji,  B. Kaduk,  K. Khistyaev,  Jaehoon Kim,  
 P. Klunzinger,  K. Koh,  D. Kosenkov,  L. Koulias,  T. Kowalczyk,  
 C. M. Krauter,  A. Kunitsa,  Ka Un Lao,  A. Laurent,  K. V. Lawler,  
 Joonho Lee,  D. Lefrancois,  S. Lehtola,  D. S. Levine,  Yi-Pei Li,  
 You-Sheng Lin,  Fenglai Liu,  E. Livshits,  A. Luenser,  P. Manohar,  
 E. Mansoor,  S. F. Manzer,  Shan-Ping Mao,  Yuezhi Mao,  N. Mardirossian,  
 A. V. Marenich,  T. Markovich,  L. A. Martinez-Martinez,  S. A. Maurer,  
 N. J. Mayhall,  S. C. McKenzie,  J.-M. Mewes,  A. F. Morrison,  
 J. W. Mullinax,  K. Nanda,  T. S. Nguyen-Beck,  R. Olivares-Amaya,  
 J. A. Parkhill,  T. M. Perrine,  F. Plasser,  P. Pokhilko,  S. Prager,  
 A. Prociuk,  E. Ramos,  D. R. Rehn,  F. Rob,  M. Schneider,  N. Sergueev,  
 S. M. Sharada,  S. Sharma,  D. W. Small,  T. Stauch,  T. Stein,  
 Yu-Chuan Su,  A. J. W. Thom,  A. Tkatchenko,  T. Tsuchimochi,  N. M. Tubman,  
 L. Vogt,  M. L. Vidal,  O. Vydrov,  M. A. Watson,  J. Wenzel,  
 M. de Wergifosse,  T. A. Wesolowski,  A. White,  J. Witte,  A. Yamada,  
 Jun Yang,  K. Yao,  S. Yeganeh,  S. R. Yost,  Zhi-Qiang You,  A. Zech,  
 Igor Ying Zhang,  Xing Zhang,  Yan Zhao,  Ying Zhu,  B. R. Brooks,  
 G. K. L. Chan,  C. J. Cramer,  M. S. Gordon,  W. J. Hehre,  A. Klamt,  
 M. W. Schmidt,  C. D. Sherrill,  D. G. Truhlar,  A. Aspuru-Guzik,  R. Baer,  
 A. T. Bell,  N. A. Besley,  Jeng-Da Chai,  A. E. DePrince, III,  
 R. A. DiStasio Jr.,  A. Dreuw,  B. D. Dunietz,  T. R. Furlani,  
 Chao-Ping Hsu,  Yousung Jung,  Jing Kong,  D. S. Lambrecht,  WanZhen Liang,  
 C. Ochsenfeld,  V. A. Rassolov,  L. V. Slipchenko,  J. E. Subotnik,  
 T. Van Voorhis,  J. M. Herbert,  A. I. Krylov,  P. M. W. Gill,  M. Head-Gordon

 Contributors to earlier versions of Q-Chem not listed above: 
 R. D. Adamson,  B. Austin,  J. Baker,  G. J. O. Beran,  K. Brandhorst,  
 S. T. Brown,  E. F. C. Byrd,  A. K. Chakraborty,  C.-L. Cheng,  
 Siu Hung Chien,  D. M. Chipman,  D. L. Crittenden,  H. Dachsel,  
 R. J. Doerksen,  A. D. Dutoi,  L. Fusti-Molnar,  W. A. Goddard III,  
 A. Golubeva-Zadorozhnaya,  S. R. Gwaltney,  G. Hawkins,  A. Heyden,  
 S. Hirata,  G. Kedziora,  F. J. Keil,  C. Kelley,  Jihan Kim,  R. A. King,  
 R. Z. Khaliullin,  P. P. Korambath,  W. Kurlancheek,  A. M. Lee,  M. S. Lee,  
 S. V. Levchenko,  Ching Yeh Lin,  D. Liotard,  R. C. Lochan,  I. Lotan,  
 P. E. Maslen,  N. Nair,  D. P. O'Neill,  D. Neuhauser,  E. Neuscamman,  
 C. M. Oana,  R. Olson,  B. Peters,  R. Peverati,  P. A. Pieniazek,  
 Y. M. Rhee,  J. Ritchie,  M. A. Rohrdanz,  E. Rosta,  N. J. Russ,  
 H. F. Schaefer III,  N. E. Schultz,  N. Shenvi,  A. C. Simmonett,  A. Sodt,  
 D. Stuck,  K. S. Thanthiriwatte,  V. Vanovschi,  Tao Wang,  A. Warshel,  
 C. F. Williams,  Q. Wu,  X. Xu,  W. Zhang

 Please cite Q-Chem as follows:
 Y. Shao et al., Mol. Phys. 113, 184-215 (2015)
 DOI: 10.1080/00268976.2014.952696

 Q-Chem 5.1.1 for Intel X86 EM64T Linux

 Parts of Q-Chem use Armadillo 8.300.2 (Tropical Shenanigans).
 http://arma.sourceforge.net/

 Q-Chem begins on Sat Sep 19 01:32:17 2020  

Host: n0035.mhg0
0

     Scratch files written to /local/scratch/users/yhljason/P_rmp2_aug-cc-pcVQZ.inp20200919012552//
The previous job contains 0 fragments, simply inherited here
Input Ideriv = 1
Curr. Ideriv = -1
Max.  Ideriv = 1

Checking the input file for inconsistencies... 	...done.

--------------------------------------------------------------
User input:
--------------------------------------------------------------
$molecule
read
$end

$rem

jobtype sp
method mp2
xc_grid 000099000590
basis aug-cc-pcVQZ
max_scf_cycles 200
thresh 14
scf_convergence 8
mem_total 128000
cc_memory 96000
cc_backend xm
mem_static 1500
symmetry false
sym_ignore true
scf_guess read
unrestricted false
scf_algorithm gdm
n_frozen_core 0
$end

$multipole_field
XX -0.0001
$end


--------------------------------------------------------------
 ----------------------------------------------------------------
             Standard Nuclear Orientation (Angstroms)
    I     Atom           X                Y                Z
 ----------------------------------------------------------------
    1      P       0.0000000000     0.0000000000     0.0000000000
 ----------------------------------------------------------------
 Nuclear Repulsion Energy =     0.0000000000 hartrees
 There are        9 alpha and        6 beta electrons
 Requested basis set is aug-cc-pCVQZ
 There are 34 shells and 134 basis functions

 Total QAlloc Memory Limit 128000 MB
 Mega-Array Size      1467 MB
 MEM_STATIC part      1500 MB
 Applying Cartesian multipole field
    Component          Value
    ---------          -----
     (2,0,0)       -1.00000E-04
 A cutoff of  1.0D-14 yielded    595 shell pairs
 There are      9355 function pairs (     15897 Cartesian)
 
 -------------------------------------------------------
 OpenMP Integral Computing Module                       
 Release: version 1.0, May 2013, Q-Chem Inc. Pittsburgh 
 -------------------------------------------------------
 Integral Job Info:
 Integral job number is                      11
 Integral operator is                         1
 short-range coefficients                     0
 long-range coefficients              100000000
 Omega coefficients                           0
 if combine SR and LR in K                    0
 Integral screening is                        0
 Integral computing path is                   2
 max size of driver memory is           3200000
 size of driver memory is               1704330
 size of scratch memory is             29435624
 max col of scratch BK array              50625
 max len of scratch array in speh3         2114
 max len of scratch index in speh4           50
 max int batch size is                      520
 min int batch size is                       52
 fixed nKL is                                22
 max L of basis functions is                  4
 order of int derivative is                   0
 number of shells is                         34
 number of basis is                         174
 number of cartesian basis is               174
 number of contracted shell pairs           595
 number of primitive shell pairs           3860
 maxK2 (contraction) of shell pair          169
 max number of K2 of shell pair               1
 max number of CS2 of shell pair             49
 max number of PS2 of shell pair           1014
 mem total for path MDJ                  631630
 -------------------------------------------------------
 Smallest overlap matrix eigenvalue = 3.31E-05
 Guess MOs from SCF MO coefficient file
 Reading MOs from coefficient file
 Reading MOs from coefficient file
 A restricted Hartree-Fock SCF calculation will be
 performed using Geometric Direct Minimization
 SCF converges when RMS gradient is below 1.0E-08
Using Q-Chem read-in guess as SCF_GUESS READ specified.

 using 16 threads for integral computing
 -------------------------------------------------------
 OpenMP Integral computing Module                
 Release: version 2.0, May 2017, Q-Chem Inc. Pleasanton 
 -------------------------------------------------------
TIMEINFO->: J/JK contribution 20.10 sec.
 ---------------------------------------
  Cycle       Energy        RMS Gradient
 ---------------------------------------
    1    -340.7173378992      1.52E-03 Normal BFGS step
TIMEINFO->: J/JK contribution 20.60 sec.
    2    -340.7173399032      1.14E-03 Normal BFGS step
TIMEINFO->: J/JK contribution 19.83 sec.
    3    -340.7173404659      1.52E-04 Normal BFGS step
TIMEINFO->: J/JK contribution 19.90 sec.
    4    -340.7173404943      3.47E-05 Normal BFGS step
TIMEINFO->: J/JK contribution 19.46 sec.
    5    -340.7173404962      7.79E-06 Normal BFGS step
TIMEINFO->: J/JK contribution 18.91 sec.
    6    -340.7173404962      3.77E-06 Normal BFGS step
TIMEINFO->: J/JK contribution 17.57 sec.
    7    -340.7173404962      2.19E-07 Normal BFGS step
TIMEINFO->: J/JK contribution 17.24 sec.
    8    -340.7173404962      5.97E-08 Normal BFGS step
TIMEINFO->: J/JK contribution 16.14 sec.
    9    -340.7173404962      2.40E-09 Convergence criterion met
 ---------------------------------------
 SCF time:  CPU 176.61 s  wall 11.47 s
 SCF   energy in the final basis set = -340.71734050
 Total energy in the final basis set = -340.71734050
 
 Components of the MP2 correlation energy:
        aaaa  correlation energy =        -0.0752100643 au
        abab  correlation energy =        -0.3466722890 au
        bbbb  correlation energy =        -0.0472506214 au
        non-Brillouin singles    =        -0.0003879505 au

 Total  MP2   correlation energy =                    -0.46952093 au
        MP2         total energy =                  -341.18686142 au
 
 --------------------------------------------------------------
 
                    Orbital Energies (a.u.)
 --------------------------------------------------------------
 
 Alpha MOs
 -- Occupied --
-79.979  -7.521  -5.420  -5.420  -5.420  -0.835  -0.391  -0.391
 -0.391
 -- Virtual --
  0.067   0.072   0.072   0.074   0.161   0.161   0.162   0.162
  0.162   0.352   0.352   0.353   0.403   0.433   0.433   0.434
  0.434   0.434   0.434   0.434   0.424   0.424   0.424   0.424
  0.425   1.137   1.137   1.138   1.138   1.138   1.229   1.229
  1.230   1.230   1.230   1.230   1.230   1.230   1.230   1.221
  1.221   1.222   1.222   1.222   1.222   1.222   1.319   1.319
  1.319   1.604   2.885   2.885   2.885   2.885   2.885   3.024
  3.024   3.024   3.024   3.024   3.024   3.024   3.304   3.304
  3.304   3.304   3.304   3.304   3.304   3.304   3.304   4.546
  4.546   4.546   6.523   8.695   8.695   8.695   8.695   8.695
 14.295  14.295  14.295  16.442  16.442  16.442  16.442  16.442
 16.442  16.442  22.974  27.435  27.435  27.435  27.435  27.435
 40.313  40.313  40.313  47.145  47.145  47.145  47.145  47.145
 47.145  47.145  47.145  47.145  57.409  57.409  57.409  57.409
 57.409  57.409  57.409  68.119  80.507  80.507  80.507  80.507
 80.507 126.008 126.008 126.008 323.998
 
 Beta MOs
 -- Occupied --
-79.960  -7.500  -5.382  -5.382  -5.382  -0.557
 -- Virtual --
  0.078   0.078   0.078   0.079   0.078   0.078   0.081   0.185
  0.185   0.186   0.186   0.186   0.393   0.393   0.394   0.443
  0.446   0.446   0.447   0.447   0.447   0.447   0.447   0.521
  0.521   0.522   0.522   0.522   1.206   1.206   1.206   1.206
  1.206   1.253   1.253   1.253   1.253   1.253   1.253   1.253
  1.253   1.253   1.277   1.277   1.277   1.277   1.277   1.277
  1.277   1.384   1.384   1.385   1.655   2.915   2.915   2.915
  2.915   2.915   3.077   3.077   3.077   3.077   3.078   3.078
  3.078   3.349   3.349   3.349   3.349   3.349   3.349   3.349
  3.349   3.349   4.588   4.588   4.589   6.554   8.716   8.716
  8.716   8.716   8.716  14.318  14.318  14.318  16.445  16.445
 16.445  16.445  16.445  16.445  16.445  22.989  27.455  27.455
 27.455  27.455  27.455  40.328  40.328  40.328  47.149  47.149
 47.149  47.149  47.149  47.149  47.149  47.149  47.149  57.422
 57.422  57.422  57.422  57.422  57.422  57.422  68.130  80.522
 80.522  80.522  80.522  80.522 126.017 126.017 126.017 324.003
 --------------------------------------------------------------
 
          Ground-State Mulliken Net Atomic Charges

     Atom                 Charge (a.u.)
  ----------------------------------------
      1 P                    -0.000000
  ----------------------------------------
  Sum of atomic charges =    -0.000000

 -----------------------------------------------------------------
                    Cartesian Multipole Moments
 -----------------------------------------------------------------
    Charge (ESU x 10^10)
                -0.0000
    Dipole Moment (Debye)
         X       0.0000      Y       0.0000      Z       0.0000
       Tot       0.0000
    Quadrupole Moments (Debye-Ang)
        XX     -13.5625     XY      -0.0000     YY     -13.5775
        XZ       0.0000     YZ       0.0000     ZZ     -13.5775
    Octopole Moments (Debye-Ang^2)
       XXX      -0.0000    XXY       0.0000    XYY       0.0000
       YYY      -0.0000    XXZ      -0.0000    XYZ      -0.0000
       YYZ       0.0000    XZZ       0.0000    YZZ       0.0000
       ZZZ      -0.0000
    Hexadecapole Moments (Debye-Ang^3)
      XXXX     -21.8058   XXXY      -0.0000   XXYY      -7.2817
      XYYY      -0.0000   YYYY     -21.8845   XXXZ       0.0000
      XXYZ       0.0000   XYYZ      -0.0000   YYYZ       0.0000
      XXZZ      -7.2817   XYZZ      -0.0000   YYZZ      -7.2948
      XZZZ       0.0000   YZZZ       0.0000   ZZZZ     -21.8845
 -----------------------------------------------------------------

 STANDARD THERMODYNAMIC QUANTITIES AT   298.15 K  AND     1.00 ATM

   Translational Enthalpy:        0.889 kcal/mol
   Rotational Enthalpy:           0.000 kcal/mol
   Vibrational Enthalpy:          0.000 kcal/mol
   gas constant (RT):             0.592 kcal/mol
   Translational Entropy:        36.224  cal/mol.K
   Rotational Entropy:            0.000  cal/mol.K
   Vibrational Entropy:           0.000  cal/mol.K

   Total Enthalpy:                1.481 kcal/mol
   Total Entropy:                36.224  cal/mol.K

 -----------------------------------------------------------------

Archival summary:
1\1\n0035.mhg0\SP\ROMP2\BasisUnspecified\1(4)\yhljason\SatSep1901:33:302020SatSep1901:33:302020\0\\#,ROMP2,BasisUnspecified,\\0,4\P\\HF=-340.71734\MP2=-341.186861\\@

 Total job time:  73.01s(wall), 1153.14s(cpu) 
 Sat Sep 19 01:33:30 2020

        *************************************************************
        *                                                           *
        *  Thank you very much for using Q-Chem.  Have a nice day.  *
        *                                                           *
        *************************************************************


 
User input: 4 of 7 
 
Q-Chem Developer Version!
                  Welcome to Q-Chem
     A Quantum Leap Into The Future Of Chemistry


 Q-Chem 5.1, Q-Chem, Inc., Pleasanton, CA (2018)

 Yihan Shao,  Zhengting Gan,  E. Epifanovsky,  A. T. B. Gilbert,  M. Wormit,  
 J. Kussmann,  A. W. Lange,  A. Behn,  Jia Deng,  Xintian Feng,  D. Ghosh,  
 M. Goldey,  P. R. Horn,  L. D. Jacobson,  I. Kaliman,  T. Kus,  A. Landau,  
 Jie Liu,  E. I. Proynov,  R. M. Richard,  R. P. Steele,  E. J. Sundstrom,  
 H. L. Woodcock III,  P. M. Zimmerman,  D. Zuev,  B. Albrecht,  E. Alguire,  
 S. A. Baeppler,  D. Barton,  Z. Benda,  Y. A. Bernard,  E. J. Berquist,  
 K. B. Bravaya,  H. Burton,  D. Casanova,  Chun-Min Chang,  Yunqing Chen,  
 A. Chien,  K. D. Closser,  M. P. Coons,  S. Coriani,  S. Dasgupta,  
 A. L. Dempwolff,  M. Diedenhofen,  Hainam Do,  R. G. Edgar,  Po-Tung Fang,  
 S. Faraji,  S. Fatehi,  Qingguo Feng,  K. D. Fenk,  J. Fosso-Tande,  
 Qinghui Ge,  A. Ghysels,  G. Gidofalvi,  J. Gomes,  J. Gonthier,  A. Gunina,  
 D. Hait,  M. W. D. Hanson-Heine,  P. H. P. Harbach,  A. W. Hauser,  
 J. E. Herr,  E. G. Hohenstein,  Z. C. Holden,  Kerwin Hui,  B. C. Huynh,  
 T.-C. Jagau,  Hyunjun Ji,  B. Kaduk,  K. Khistyaev,  Jaehoon Kim,  
 P. Klunzinger,  K. Koh,  D. Kosenkov,  L. Koulias,  T. Kowalczyk,  
 C. M. Krauter,  A. Kunitsa,  Ka Un Lao,  A. Laurent,  K. V. Lawler,  
 Joonho Lee,  D. Lefrancois,  S. Lehtola,  D. S. Levine,  Yi-Pei Li,  
 You-Sheng Lin,  Fenglai Liu,  E. Livshits,  A. Luenser,  P. Manohar,  
 E. Mansoor,  S. F. Manzer,  Shan-Ping Mao,  Yuezhi Mao,  N. Mardirossian,  
 A. V. Marenich,  T. Markovich,  L. A. Martinez-Martinez,  S. A. Maurer,  
 N. J. Mayhall,  S. C. McKenzie,  J.-M. Mewes,  A. F. Morrison,  
 J. W. Mullinax,  K. Nanda,  T. S. Nguyen-Beck,  R. Olivares-Amaya,  
 J. A. Parkhill,  T. M. Perrine,  F. Plasser,  P. Pokhilko,  S. Prager,  
 A. Prociuk,  E. Ramos,  D. R. Rehn,  F. Rob,  M. Schneider,  N. Sergueev,  
 S. M. Sharada,  S. Sharma,  D. W. Small,  T. Stauch,  T. Stein,  
 Yu-Chuan Su,  A. J. W. Thom,  A. Tkatchenko,  T. Tsuchimochi,  N. M. Tubman,  
 L. Vogt,  M. L. Vidal,  O. Vydrov,  M. A. Watson,  J. Wenzel,  
 M. de Wergifosse,  T. A. Wesolowski,  A. White,  J. Witte,  A. Yamada,  
 Jun Yang,  K. Yao,  S. Yeganeh,  S. R. Yost,  Zhi-Qiang You,  A. Zech,  
 Igor Ying Zhang,  Xing Zhang,  Yan Zhao,  Ying Zhu,  B. R. Brooks,  
 G. K. L. Chan,  C. J. Cramer,  M. S. Gordon,  W. J. Hehre,  A. Klamt,  
 M. W. Schmidt,  C. D. Sherrill,  D. G. Truhlar,  A. Aspuru-Guzik,  R. Baer,  
 A. T. Bell,  N. A. Besley,  Jeng-Da Chai,  A. E. DePrince, III,  
 R. A. DiStasio Jr.,  A. Dreuw,  B. D. Dunietz,  T. R. Furlani,  
 Chao-Ping Hsu,  Yousung Jung,  Jing Kong,  D. S. Lambrecht,  WanZhen Liang,  
 C. Ochsenfeld,  V. A. Rassolov,  L. V. Slipchenko,  J. E. Subotnik,  
 T. Van Voorhis,  J. M. Herbert,  A. I. Krylov,  P. M. W. Gill,  M. Head-Gordon

 Contributors to earlier versions of Q-Chem not listed above: 
 R. D. Adamson,  B. Austin,  J. Baker,  G. J. O. Beran,  K. Brandhorst,  
 S. T. Brown,  E. F. C. Byrd,  A. K. Chakraborty,  C.-L. Cheng,  
 Siu Hung Chien,  D. M. Chipman,  D. L. Crittenden,  H. Dachsel,  
 R. J. Doerksen,  A. D. Dutoi,  L. Fusti-Molnar,  W. A. Goddard III,  
 A. Golubeva-Zadorozhnaya,  S. R. Gwaltney,  G. Hawkins,  A. Heyden,  
 S. Hirata,  G. Kedziora,  F. J. Keil,  C. Kelley,  Jihan Kim,  R. A. King,  
 R. Z. Khaliullin,  P. P. Korambath,  W. Kurlancheek,  A. M. Lee,  M. S. Lee,  
 S. V. Levchenko,  Ching Yeh Lin,  D. Liotard,  R. C. Lochan,  I. Lotan,  
 P. E. Maslen,  N. Nair,  D. P. O'Neill,  D. Neuhauser,  E. Neuscamman,  
 C. M. Oana,  R. Olson,  B. Peters,  R. Peverati,  P. A. Pieniazek,  
 Y. M. Rhee,  J. Ritchie,  M. A. Rohrdanz,  E. Rosta,  N. J. Russ,  
 H. F. Schaefer III,  N. E. Schultz,  N. Shenvi,  A. C. Simmonett,  A. Sodt,  
 D. Stuck,  K. S. Thanthiriwatte,  V. Vanovschi,  Tao Wang,  A. Warshel,  
 C. F. Williams,  Q. Wu,  X. Xu,  W. Zhang

 Please cite Q-Chem as follows:
 Y. Shao et al., Mol. Phys. 113, 184-215 (2015)
 DOI: 10.1080/00268976.2014.952696

 Q-Chem 5.1.1 for Intel X86 EM64T Linux

 Parts of Q-Chem use Armadillo 8.300.2 (Tropical Shenanigans).
 http://arma.sourceforge.net/

 Q-Chem begins on Sat Sep 19 01:33:30 2020  

Host: n0035.mhg0
0

     Scratch files written to /local/scratch/users/yhljason/P_rmp2_aug-cc-pcVQZ.inp20200919012552//
The previous job contains 0 fragments, simply inherited here
Input Ideriv = 1
Curr. Ideriv = -1
Max.  Ideriv = 1

Checking the input file for inconsistencies... 	...done.

--------------------------------------------------------------
User input:
--------------------------------------------------------------
$molecule
read
$end

$rem

jobtype sp
method mp2
xc_grid 000099000590
basis aug-cc-pcVQZ
max_scf_cycles 200
thresh 14
scf_convergence 8
mem_total 128000
cc_memory 96000
cc_backend xm
mem_static 1500
symmetry false
sym_ignore true
scf_guess read
unrestricted false
scf_algorithm gdm
n_frozen_core 0
$end

$multipole_field
YY 0.0001
$end


--------------------------------------------------------------
 ----------------------------------------------------------------
             Standard Nuclear Orientation (Angstroms)
    I     Atom           X                Y                Z
 ----------------------------------------------------------------
    1      P       0.0000000000     0.0000000000     0.0000000000
 ----------------------------------------------------------------
 Nuclear Repulsion Energy =     0.0000000000 hartrees
 There are        9 alpha and        6 beta electrons
 Requested basis set is aug-cc-pCVQZ
 There are 34 shells and 134 basis functions

 Total QAlloc Memory Limit 128000 MB
 Mega-Array Size      1467 MB
 MEM_STATIC part      1500 MB
 Applying Cartesian multipole field
    Component          Value
    ---------          -----
     (0,2,0)        1.00000E-04
 A cutoff of  1.0D-14 yielded    595 shell pairs
 There are      9355 function pairs (     15897 Cartesian)
 
 -------------------------------------------------------
 OpenMP Integral Computing Module                       
 Release: version 1.0, May 2013, Q-Chem Inc. Pittsburgh 
 -------------------------------------------------------
 Integral Job Info:
 Integral job number is                      11
 Integral operator is                         1
 short-range coefficients                     0
 long-range coefficients              100000000
 Omega coefficients                           0
 if combine SR and LR in K                    0
 Integral screening is                        0
 Integral computing path is                   2
 max size of driver memory is           3200000
 size of driver memory is               1704330
 size of scratch memory is             29435624
 max col of scratch BK array              50625
 max len of scratch array in speh3         2114
 max len of scratch index in speh4           50
 max int batch size is                      520
 min int batch size is                       52
 fixed nKL is                                22
 max L of basis functions is                  4
 order of int derivative is                   0
 number of shells is                         34
 number of basis is                         174
 number of cartesian basis is               174
 number of contracted shell pairs           595
 number of primitive shell pairs           3860
 maxK2 (contraction) of shell pair          169
 max number of K2 of shell pair               1
 max number of CS2 of shell pair             49
 max number of PS2 of shell pair           1014
 mem total for path MDJ                  631630
 -------------------------------------------------------
 Smallest overlap matrix eigenvalue = 3.31E-05
 Guess MOs from SCF MO coefficient file
 Reading MOs from coefficient file
 Reading MOs from coefficient file
 A restricted Hartree-Fock SCF calculation will be
 performed using Geometric Direct Minimization
 SCF converges when RMS gradient is below 1.0E-08
Using Q-Chem read-in guess as SCF_GUESS READ specified.

 using 16 threads for integral computing
 -------------------------------------------------------
 OpenMP Integral computing Module                
 Release: version 2.0, May 2017, Q-Chem Inc. Pleasanton 
 -------------------------------------------------------
TIMEINFO->: J/JK contribution 21.19 sec.
 ---------------------------------------
  Cycle       Energy        RMS Gradient
 ---------------------------------------
    1    -340.7193582857      1.01E-03 Normal BFGS step
TIMEINFO->: J/JK contribution 21.05 sec.
    2    -340.7193592205      8.68E-04 Normal BFGS step
TIMEINFO->: J/JK contribution 20.58 sec.
    3    -340.7193597406      7.93E-05 Normal BFGS step
TIMEINFO->: J/JK contribution 20.40 sec.
    4    -340.7193597519      3.21E-05 Normal BFGS step
TIMEINFO->: J/JK contribution 19.26 sec.
    5    -340.7193597533      2.49E-06 Normal BFGS step
TIMEINFO->: J/JK contribution 18.72 sec.
    6    -340.7193597533      2.10E-06 Normal BFGS step
TIMEINFO->: J/JK contribution 17.57 sec.
    7    -340.7193597533      2.26E-07 Normal BFGS step
TIMEINFO->: J/JK contribution 17.22 sec.
    8    -340.7193597533      2.48E-08 Normal BFGS step
TIMEINFO->: J/JK contribution 16.11 sec.
   GDM::WARNING energy changes are now smaller than effective accuracy.
   GDM::        calculation will continue, but THRESH should be increased
   GDM::        or SCF_CONVERGENCE decreased.
   GDM::        effective_thresh =   9.000000000000000E-011
    9    -340.7193597533      1.83E-09 Convergence criterion met
 ---------------------------------------
 SCF time:  CPU 178.63 s  wall 11.24 s
 SCF   energy in the final basis set = -340.71935975
 Total energy in the final basis set = -340.71935975
 
 Components of the MP2 correlation energy:
        aaaa  correlation energy =        -0.0752080514 au
        abab  correlation energy =        -0.3466550498 au
        bbbb  correlation energy =        -0.0472497497 au
        non-Brillouin singles    =        -0.0003871260 au

 Total  MP2   correlation energy =                    -0.46949998 au
        MP2         total energy =                  -341.18885973 au
 
 --------------------------------------------------------------
 
                    Orbital Energies (a.u.)
 --------------------------------------------------------------
 
 Alpha MOs
 -- Occupied --
-79.980  -7.522  -5.420  -5.420  -5.420  -0.836  -0.392  -0.392
 -0.392
 -- Virtual --
  0.064   0.067   0.069   0.069   0.159   0.159   0.159   0.160
  0.160   0.350   0.351   0.351   0.401   0.432   0.432   0.432
  0.432   0.432   0.432   0.432   0.423   0.423   0.423   0.423
  0.423   1.136   1.137   1.137   1.137   1.137   1.229   1.229
  1.229   1.229   1.229   1.229   1.229   1.229   1.229   1.220
  1.220   1.220   1.221   1.221   1.221   1.221   1.318   1.318
  1.318   1.603   2.884   2.884   2.884   2.884   2.884   3.023
  3.023   3.023   3.023   3.023   3.023   3.023   3.303   3.303
  3.303   3.303   3.303   3.303   3.303   3.303   3.303   4.545
  4.545   4.545   6.523   8.694   8.694   8.694   8.695   8.695
 14.295  14.295  14.295  16.441  16.441  16.441  16.441  16.441
 16.441  16.441  22.973  27.434  27.434  27.434  27.434  27.434
 40.312  40.312  40.312  47.145  47.145  47.145  47.145  47.145
 47.145  47.145  47.145  47.145  57.408  57.408  57.408  57.408
 57.408  57.408  57.408  68.118  80.506  80.506  80.506  80.506
 80.506 126.007 126.007 126.007 323.997
 
 Beta MOs
 -- Occupied --
-79.961  -7.501  -5.383  -5.383  -5.383  -0.558
 -- Virtual --
  0.077   0.077   0.077   0.076   0.073   0.076   0.076   0.183
  0.183   0.183   0.184   0.184   0.391   0.392   0.392   0.441
  0.445   0.445   0.445   0.445   0.445   0.446   0.446   0.520
  0.520   0.520   0.521   0.521   1.205   1.205   1.205   1.205
  1.205   1.252   1.252   1.252   1.252   1.252   1.252   1.252
  1.252   1.252   1.276   1.276   1.276   1.276   1.276   1.276
  1.276   1.383   1.383   1.383   1.654   2.914   2.914   2.914
  2.914   2.914   3.077   3.077   3.077   3.077   3.077   3.077
  3.077   3.348   3.348   3.348   3.348   3.348   3.348   3.348
  3.349   3.349   4.588   4.588   4.588   6.553   8.715   8.715
  8.715   8.715   8.715  14.317  14.317  14.317  16.444  16.444
 16.444  16.444  16.444  16.444  16.444  22.988  27.454  27.454
 27.454  27.454  27.454  40.327  40.327  40.327  47.148  47.148
 47.148  47.148  47.148  47.148  47.148  47.148  47.148  57.421
 57.421  57.421  57.421  57.421  57.421  57.421  68.129  80.521
 80.521  80.521  80.521  80.521 126.016 126.016 126.016 324.002
 --------------------------------------------------------------
 
          Ground-State Mulliken Net Atomic Charges

     Atom                 Charge (a.u.)
  ----------------------------------------
      1 P                    -0.000000
  ----------------------------------------
  Sum of atomic charges =    -0.000000

 -----------------------------------------------------------------
                    Cartesian Multipole Moments
 -----------------------------------------------------------------
    Charge (ESU x 10^10)
                -0.0000
    Dipole Moment (Debye)
         X      -0.0000      Y       0.0000      Z       0.0000
       Tot       0.0000
    Quadrupole Moments (Debye-Ang)
        XX     -13.5822     XY      -0.0000     YY     -13.5973
        XZ      -0.0000     YZ      -0.0000     ZZ     -13.5822
    Octopole Moments (Debye-Ang^2)
       XXX      -0.0000    XXY       0.0000    XYY      -0.0000
       YYY       0.0000    XXZ      -0.0000    XYZ      -0.0000
       YYZ      -0.0000    XZZ       0.0000    YZZ       0.0000
       ZZZ      -0.0000
    Hexadecapole Moments (Debye-Ang^3)
      XXXX     -21.9129   XXXY      -0.0000   XXYY      -7.3176
      XYYY      -0.0000   YYYY     -21.9929   XXXZ      -0.0000
      XXYZ       0.0000   XYYZ      -0.0000   YYYZ       0.0000
      XXZZ      -7.3043   XYZZ      -0.0000   YYZZ      -7.3176
      XZZZ      -0.0000   YZZZ      -0.0000   ZZZZ     -21.9129
 -----------------------------------------------------------------

 STANDARD THERMODYNAMIC QUANTITIES AT   298.15 K  AND     1.00 ATM

   Translational Enthalpy:        0.889 kcal/mol
   Rotational Enthalpy:           0.000 kcal/mol
   Vibrational Enthalpy:          0.000 kcal/mol
   gas constant (RT):             0.592 kcal/mol
   Translational Entropy:        36.224  cal/mol.K
   Rotational Entropy:            0.000  cal/mol.K
   Vibrational Entropy:           0.000  cal/mol.K

   Total Enthalpy:                1.481 kcal/mol
   Total Entropy:                36.224  cal/mol.K

 -----------------------------------------------------------------

Archival summary:
1\1\n0035.mhg0\SP\ROMP2\BasisUnspecified\1(4)\yhljason\SatSep1901:34:412020SatSep1901:34:412020\0\\#,ROMP2,BasisUnspecified,\\0,4\P\\HF=-340.71936\MP2=-341.18886\\@

 Total job time:  71.55s(wall), 1135.50s(cpu) 
 Sat Sep 19 01:34:41 2020

        *************************************************************
        *                                                           *
        *  Thank you very much for using Q-Chem.  Have a nice day.  *
        *                                                           *
        *************************************************************


 
User input: 5 of 7 
 
Q-Chem Developer Version!
                  Welcome to Q-Chem
     A Quantum Leap Into The Future Of Chemistry


 Q-Chem 5.1, Q-Chem, Inc., Pleasanton, CA (2018)

 Yihan Shao,  Zhengting Gan,  E. Epifanovsky,  A. T. B. Gilbert,  M. Wormit,  
 J. Kussmann,  A. W. Lange,  A. Behn,  Jia Deng,  Xintian Feng,  D. Ghosh,  
 M. Goldey,  P. R. Horn,  L. D. Jacobson,  I. Kaliman,  T. Kus,  A. Landau,  
 Jie Liu,  E. I. Proynov,  R. M. Richard,  R. P. Steele,  E. J. Sundstrom,  
 H. L. Woodcock III,  P. M. Zimmerman,  D. Zuev,  B. Albrecht,  E. Alguire,  
 S. A. Baeppler,  D. Barton,  Z. Benda,  Y. A. Bernard,  E. J. Berquist,  
 K. B. Bravaya,  H. Burton,  D. Casanova,  Chun-Min Chang,  Yunqing Chen,  
 A. Chien,  K. D. Closser,  M. P. Coons,  S. Coriani,  S. Dasgupta,  
 A. L. Dempwolff,  M. Diedenhofen,  Hainam Do,  R. G. Edgar,  Po-Tung Fang,  
 S. Faraji,  S. Fatehi,  Qingguo Feng,  K. D. Fenk,  J. Fosso-Tande,  
 Qinghui Ge,  A. Ghysels,  G. Gidofalvi,  J. Gomes,  J. Gonthier,  A. Gunina,  
 D. Hait,  M. W. D. Hanson-Heine,  P. H. P. Harbach,  A. W. Hauser,  
 J. E. Herr,  E. G. Hohenstein,  Z. C. Holden,  Kerwin Hui,  B. C. Huynh,  
 T.-C. Jagau,  Hyunjun Ji,  B. Kaduk,  K. Khistyaev,  Jaehoon Kim,  
 P. Klunzinger,  K. Koh,  D. Kosenkov,  L. Koulias,  T. Kowalczyk,  
 C. M. Krauter,  A. Kunitsa,  Ka Un Lao,  A. Laurent,  K. V. Lawler,  
 Joonho Lee,  D. Lefrancois,  S. Lehtola,  D. S. Levine,  Yi-Pei Li,  
 You-Sheng Lin,  Fenglai Liu,  E. Livshits,  A. Luenser,  P. Manohar,  
 E. Mansoor,  S. F. Manzer,  Shan-Ping Mao,  Yuezhi Mao,  N. Mardirossian,  
 A. V. Marenich,  T. Markovich,  L. A. Martinez-Martinez,  S. A. Maurer,  
 N. J. Mayhall,  S. C. McKenzie,  J.-M. Mewes,  A. F. Morrison,  
 J. W. Mullinax,  K. Nanda,  T. S. Nguyen-Beck,  R. Olivares-Amaya,  
 J. A. Parkhill,  T. M. Perrine,  F. Plasser,  P. Pokhilko,  S. Prager,  
 A. Prociuk,  E. Ramos,  D. R. Rehn,  F. Rob,  M. Schneider,  N. Sergueev,  
 S. M. Sharada,  S. Sharma,  D. W. Small,  T. Stauch,  T. Stein,  
 Yu-Chuan Su,  A. J. W. Thom,  A. Tkatchenko,  T. Tsuchimochi,  N. M. Tubman,  
 L. Vogt,  M. L. Vidal,  O. Vydrov,  M. A. Watson,  J. Wenzel,  
 M. de Wergifosse,  T. A. Wesolowski,  A. White,  J. Witte,  A. Yamada,  
 Jun Yang,  K. Yao,  S. Yeganeh,  S. R. Yost,  Zhi-Qiang You,  A. Zech,  
 Igor Ying Zhang,  Xing Zhang,  Yan Zhao,  Ying Zhu,  B. R. Brooks,  
 G. K. L. Chan,  C. J. Cramer,  M. S. Gordon,  W. J. Hehre,  A. Klamt,  
 M. W. Schmidt,  C. D. Sherrill,  D. G. Truhlar,  A. Aspuru-Guzik,  R. Baer,  
 A. T. Bell,  N. A. Besley,  Jeng-Da Chai,  A. E. DePrince, III,  
 R. A. DiStasio Jr.,  A. Dreuw,  B. D. Dunietz,  T. R. Furlani,  
 Chao-Ping Hsu,  Yousung Jung,  Jing Kong,  D. S. Lambrecht,  WanZhen Liang,  
 C. Ochsenfeld,  V. A. Rassolov,  L. V. Slipchenko,  J. E. Subotnik,  
 T. Van Voorhis,  J. M. Herbert,  A. I. Krylov,  P. M. W. Gill,  M. Head-Gordon

 Contributors to earlier versions of Q-Chem not listed above: 
 R. D. Adamson,  B. Austin,  J. Baker,  G. J. O. Beran,  K. Brandhorst,  
 S. T. Brown,  E. F. C. Byrd,  A. K. Chakraborty,  C.-L. Cheng,  
 Siu Hung Chien,  D. M. Chipman,  D. L. Crittenden,  H. Dachsel,  
 R. J. Doerksen,  A. D. Dutoi,  L. Fusti-Molnar,  W. A. Goddard III,  
 A. Golubeva-Zadorozhnaya,  S. R. Gwaltney,  G. Hawkins,  A. Heyden,  
 S. Hirata,  G. Kedziora,  F. J. Keil,  C. Kelley,  Jihan Kim,  R. A. King,  
 R. Z. Khaliullin,  P. P. Korambath,  W. Kurlancheek,  A. M. Lee,  M. S. Lee,  
 S. V. Levchenko,  Ching Yeh Lin,  D. Liotard,  R. C. Lochan,  I. Lotan,  
 P. E. Maslen,  N. Nair,  D. P. O'Neill,  D. Neuhauser,  E. Neuscamman,  
 C. M. Oana,  R. Olson,  B. Peters,  R. Peverati,  P. A. Pieniazek,  
 Y. M. Rhee,  J. Ritchie,  M. A. Rohrdanz,  E. Rosta,  N. J. Russ,  
 H. F. Schaefer III,  N. E. Schultz,  N. Shenvi,  A. C. Simmonett,  A. Sodt,  
 D. Stuck,  K. S. Thanthiriwatte,  V. Vanovschi,  Tao Wang,  A. Warshel,  
 C. F. Williams,  Q. Wu,  X. Xu,  W. Zhang

 Please cite Q-Chem as follows:
 Y. Shao et al., Mol. Phys. 113, 184-215 (2015)
 DOI: 10.1080/00268976.2014.952696

 Q-Chem 5.1.1 for Intel X86 EM64T Linux

 Parts of Q-Chem use Armadillo 8.300.2 (Tropical Shenanigans).
 http://arma.sourceforge.net/

 Q-Chem begins on Sat Sep 19 01:34:42 2020  

Host: n0035.mhg0
0

     Scratch files written to /local/scratch/users/yhljason/P_rmp2_aug-cc-pcVQZ.inp20200919012552//
The previous job contains 0 fragments, simply inherited here
Input Ideriv = 1
Curr. Ideriv = -1
Max.  Ideriv = 1

Checking the input file for inconsistencies... 	...done.

--------------------------------------------------------------
User input:
--------------------------------------------------------------
$molecule
read
$end

$rem

jobtype sp
method mp2
xc_grid 000099000590
basis aug-cc-pcVQZ
max_scf_cycles 200
thresh 14
scf_convergence 8
mem_total 128000
cc_memory 96000
cc_backend xm
mem_static 1500
symmetry false
sym_ignore true
scf_guess read
unrestricted false
scf_algorithm gdm
n_frozen_core 0
$end

$multipole_field
YY -0.0001
$end


--------------------------------------------------------------
 ----------------------------------------------------------------
             Standard Nuclear Orientation (Angstroms)
    I     Atom           X                Y                Z
 ----------------------------------------------------------------
    1      P       0.0000000000     0.0000000000     0.0000000000
 ----------------------------------------------------------------
 Nuclear Repulsion Energy =     0.0000000000 hartrees
 There are        9 alpha and        6 beta electrons
 Requested basis set is aug-cc-pCVQZ
 There are 34 shells and 134 basis functions

 Total QAlloc Memory Limit 128000 MB
 Mega-Array Size      1467 MB
 MEM_STATIC part      1500 MB
 Applying Cartesian multipole field
    Component          Value
    ---------          -----
     (0,2,0)       -1.00000E-04
 A cutoff of  1.0D-14 yielded    595 shell pairs
 There are      9355 function pairs (     15897 Cartesian)
 
 -------------------------------------------------------
 OpenMP Integral Computing Module                       
 Release: version 1.0, May 2013, Q-Chem Inc. Pittsburgh 
 -------------------------------------------------------
 Integral Job Info:
 Integral job number is                      11
 Integral operator is                         1
 short-range coefficients                     0
 long-range coefficients              100000000
 Omega coefficients                           0
 if combine SR and LR in K                    0
 Integral screening is                        0
 Integral computing path is                   2
 max size of driver memory is           3200000
 size of driver memory is               1704330
 size of scratch memory is             29435624
 max col of scratch BK array              50625
 max len of scratch array in speh3         2114
 max len of scratch index in speh4           50
 max int batch size is                      520
 min int batch size is                       52
 fixed nKL is                                22
 max L of basis functions is                  4
 order of int derivative is                   0
 number of shells is                         34
 number of basis is                         174
 number of cartesian basis is               174
 number of contracted shell pairs           595
 number of primitive shell pairs           3860
 maxK2 (contraction) of shell pair          169
 max number of K2 of shell pair               1
 max number of CS2 of shell pair             49
 max number of PS2 of shell pair           1014
 mem total for path MDJ                  631630
 -------------------------------------------------------
 Smallest overlap matrix eigenvalue = 3.31E-05
 Guess MOs from SCF MO coefficient file
 Reading MOs from coefficient file
 Reading MOs from coefficient file
 A restricted Hartree-Fock SCF calculation will be
 performed using Geometric Direct Minimization
 SCF converges when RMS gradient is below 1.0E-08
Using Q-Chem read-in guess as SCF_GUESS READ specified.

 using 16 threads for integral computing
 -------------------------------------------------------
 OpenMP Integral computing Module                
 Release: version 2.0, May 2017, Q-Chem Inc. Pleasanton 
 -------------------------------------------------------
TIMEINFO->: J/JK contribution 20.78 sec.
 ---------------------------------------
  Cycle       Energy        RMS Gradient
 ---------------------------------------
    1    -340.7173378992      1.52E-03 Normal BFGS step
TIMEINFO->: J/JK contribution 20.73 sec.
    2    -340.7173399032      1.14E-03 Normal BFGS step
TIMEINFO->: J/JK contribution 20.56 sec.
    3    -340.7173404659      1.52E-04 Normal BFGS step
TIMEINFO->: J/JK contribution 20.33 sec.
    4    -340.7173404943      3.47E-05 Normal BFGS step
TIMEINFO->: J/JK contribution 19.53 sec.
    5    -340.7173404962      7.79E-06 Normal BFGS step
TIMEINFO->: J/JK contribution 18.83 sec.
    6    -340.7173404962      3.77E-06 Normal BFGS step
TIMEINFO->: J/JK contribution 17.81 sec.
    7    -340.7173404962      2.19E-07 Normal BFGS step
TIMEINFO->: J/JK contribution 17.76 sec.
    8    -340.7173404962      5.97E-08 Normal BFGS step
TIMEINFO->: J/JK contribution 16.43 sec.
   GDM::WARNING energy changes are now smaller than effective accuracy.
   GDM::        calculation will continue, but THRESH should be increased
   GDM::        or SCF_CONVERGENCE decreased.
   GDM::        effective_thresh =   9.000000000000000E-011
    9    -340.7173404962      2.40E-09 Convergence criterion met
 ---------------------------------------
 SCF time:  CPU 179.25 s  wall 11.31 s
 SCF   energy in the final basis set = -340.71734050
 Total energy in the final basis set = -340.71734050
 
 Components of the MP2 correlation energy:
        aaaa  correlation energy =        -0.0752100643 au
        abab  correlation energy =        -0.3466722890 au
        bbbb  correlation energy =        -0.0472506214 au
        non-Brillouin singles    =        -0.0003879505 au

 Total  MP2   correlation energy =                    -0.46952093 au
        MP2         total energy =                  -341.18686142 au
 
 --------------------------------------------------------------
 
                    Orbital Energies (a.u.)
 --------------------------------------------------------------
 
 Alpha MOs
 -- Occupied --
-79.979  -7.521  -5.420  -5.420  -5.420  -0.835  -0.391  -0.391
 -0.391
 -- Virtual --
  0.067   0.072   0.072   0.074   0.161   0.161   0.162   0.162
  0.162   0.352   0.352   0.353   0.403   0.433   0.433   0.434
  0.434   0.434   0.434   0.434   0.424   0.424   0.424   0.424
  0.425   1.137   1.137   1.138   1.138   1.138   1.229   1.229
  1.230   1.230   1.230   1.230   1.230   1.230   1.230   1.221
  1.221   1.222   1.222   1.222   1.222   1.222   1.319   1.319
  1.319   1.604   2.885   2.885   2.885   2.885   2.885   3.024
  3.024   3.024   3.024   3.024   3.024   3.024   3.304   3.304
  3.304   3.304   3.304   3.304   3.304   3.304   3.304   4.546
  4.546   4.546   6.523   8.695   8.695   8.695   8.695   8.695
 14.295  14.295  14.295  16.442  16.442  16.442  16.442  16.442
 16.442  16.442  22.974  27.435  27.435  27.435  27.435  27.435
 40.313  40.313  40.313  47.145  47.145  47.145  47.145  47.145
 47.145  47.145  47.145  47.145  57.409  57.409  57.409  57.409
 57.409  57.409  57.409  68.119  80.507  80.507  80.507  80.507
 80.507 126.008 126.008 126.008 323.998
 
 Beta MOs
 -- Occupied --
-79.960  -7.500  -5.382  -5.382  -5.382  -0.557
 -- Virtual --
  0.078   0.078   0.078   0.079   0.078   0.078   0.081   0.185
  0.185   0.186   0.186   0.186   0.393   0.393   0.394   0.443
  0.446   0.446   0.447   0.447   0.447   0.447   0.447   0.521
  0.521   0.522   0.522   0.522   1.206   1.206   1.206   1.206
  1.206   1.253   1.253   1.253   1.253   1.253   1.253   1.253
  1.253   1.253   1.277   1.277   1.277   1.277   1.277   1.277
  1.277   1.384   1.384   1.385   1.655   2.915   2.915   2.915
  2.915   2.915   3.077   3.077   3.077   3.077   3.078   3.078
  3.078   3.349   3.349   3.349   3.349   3.349   3.349   3.349
  3.349   3.349   4.588   4.588   4.589   6.554   8.716   8.716
  8.716   8.716   8.716  14.318  14.318  14.318  16.445  16.445
 16.445  16.445  16.445  16.445  16.445  22.989  27.455  27.455
 27.455  27.455  27.455  40.328  40.328  40.328  47.149  47.149
 47.149  47.149  47.149  47.149  47.149  47.149  47.149  57.422
 57.422  57.422  57.422  57.422  57.422  57.422  68.130  80.522
 80.522  80.522  80.522  80.522 126.017 126.017 126.017 324.003
 --------------------------------------------------------------
 
          Ground-State Mulliken Net Atomic Charges

     Atom                 Charge (a.u.)
  ----------------------------------------
      1 P                     0.000000
  ----------------------------------------
  Sum of atomic charges =     0.000000

 -----------------------------------------------------------------
                    Cartesian Multipole Moments
 -----------------------------------------------------------------
    Charge (ESU x 10^10)
                -0.0000
    Dipole Moment (Debye)
         X      -0.0000      Y      -0.0000      Z      -0.0000
       Tot       0.0000
    Quadrupole Moments (Debye-Ang)
        XX     -13.5775     XY      -0.0000     YY     -13.5625
        XZ      -0.0000     YZ       0.0000     ZZ     -13.5775
    Octopole Moments (Debye-Ang^2)
       XXX      -0.0000    XXY       0.0000    XYY      -0.0000
       YYY      -0.0000    XXZ      -0.0000    XYZ      -0.0000
       YYZ      -0.0000    XZZ      -0.0000    YZZ      -0.0000
       ZZZ      -0.0000
    Hexadecapole Moments (Debye-Ang^3)
      XXXX     -21.8845   XXXY      -0.0000   XXYY      -7.2817
      XYYY      -0.0000   YYYY     -21.8058   XXXZ      -0.0000
      XXYZ       0.0000   XYYZ      -0.0000   YYYZ       0.0000
      XXZZ      -7.2948   XYZZ      -0.0000   YYZZ      -7.2817
      XZZZ      -0.0000   YZZZ       0.0000   ZZZZ     -21.8845
 -----------------------------------------------------------------

 STANDARD THERMODYNAMIC QUANTITIES AT   298.15 K  AND     1.00 ATM

   Translational Enthalpy:        0.889 kcal/mol
   Rotational Enthalpy:           0.000 kcal/mol
   Vibrational Enthalpy:          0.000 kcal/mol
   gas constant (RT):             0.592 kcal/mol
   Translational Entropy:        36.224  cal/mol.K
   Rotational Entropy:            0.000  cal/mol.K
   Vibrational Entropy:           0.000  cal/mol.K

   Total Enthalpy:                1.481 kcal/mol
   Total Entropy:                36.224  cal/mol.K

 -----------------------------------------------------------------

Archival summary:
1\1\n0035.mhg0\SP\ROMP2\BasisUnspecified\1(4)\yhljason\SatSep1901:35:532020SatSep1901:35:532020\0\\#,ROMP2,BasisUnspecified,\\0,4\P\\HF=-340.71734\MP2=-341.186861\\@

 Total job time:  71.89s(wall), 1140.03s(cpu) 
 Sat Sep 19 01:35:53 2020

        *************************************************************
        *                                                           *
        *  Thank you very much for using Q-Chem.  Have a nice day.  *
        *                                                           *
        *************************************************************


 
User input: 6 of 7 
 
Q-Chem Developer Version!
                  Welcome to Q-Chem
     A Quantum Leap Into The Future Of Chemistry


 Q-Chem 5.1, Q-Chem, Inc., Pleasanton, CA (2018)

 Yihan Shao,  Zhengting Gan,  E. Epifanovsky,  A. T. B. Gilbert,  M. Wormit,  
 J. Kussmann,  A. W. Lange,  A. Behn,  Jia Deng,  Xintian Feng,  D. Ghosh,  
 M. Goldey,  P. R. Horn,  L. D. Jacobson,  I. Kaliman,  T. Kus,  A. Landau,  
 Jie Liu,  E. I. Proynov,  R. M. Richard,  R. P. Steele,  E. J. Sundstrom,  
 H. L. Woodcock III,  P. M. Zimmerman,  D. Zuev,  B. Albrecht,  E. Alguire,  
 S. A. Baeppler,  D. Barton,  Z. Benda,  Y. A. Bernard,  E. J. Berquist,  
 K. B. Bravaya,  H. Burton,  D. Casanova,  Chun-Min Chang,  Yunqing Chen,  
 A. Chien,  K. D. Closser,  M. P. Coons,  S. Coriani,  S. Dasgupta,  
 A. L. Dempwolff,  M. Diedenhofen,  Hainam Do,  R. G. Edgar,  Po-Tung Fang,  
 S. Faraji,  S. Fatehi,  Qingguo Feng,  K. D. Fenk,  J. Fosso-Tande,  
 Qinghui Ge,  A. Ghysels,  G. Gidofalvi,  J. Gomes,  J. Gonthier,  A. Gunina,  
 D. Hait,  M. W. D. Hanson-Heine,  P. H. P. Harbach,  A. W. Hauser,  
 J. E. Herr,  E. G. Hohenstein,  Z. C. Holden,  Kerwin Hui,  B. C. Huynh,  
 T.-C. Jagau,  Hyunjun Ji,  B. Kaduk,  K. Khistyaev,  Jaehoon Kim,  
 P. Klunzinger,  K. Koh,  D. Kosenkov,  L. Koulias,  T. Kowalczyk,  
 C. M. Krauter,  A. Kunitsa,  Ka Un Lao,  A. Laurent,  K. V. Lawler,  
 Joonho Lee,  D. Lefrancois,  S. Lehtola,  D. S. Levine,  Yi-Pei Li,  
 You-Sheng Lin,  Fenglai Liu,  E. Livshits,  A. Luenser,  P. Manohar,  
 E. Mansoor,  S. F. Manzer,  Shan-Ping Mao,  Yuezhi Mao,  N. Mardirossian,  
 A. V. Marenich,  T. Markovich,  L. A. Martinez-Martinez,  S. A. Maurer,  
 N. J. Mayhall,  S. C. McKenzie,  J.-M. Mewes,  A. F. Morrison,  
 J. W. Mullinax,  K. Nanda,  T. S. Nguyen-Beck,  R. Olivares-Amaya,  
 J. A. Parkhill,  T. M. Perrine,  F. Plasser,  P. Pokhilko,  S. Prager,  
 A. Prociuk,  E. Ramos,  D. R. Rehn,  F. Rob,  M. Schneider,  N. Sergueev,  
 S. M. Sharada,  S. Sharma,  D. W. Small,  T. Stauch,  T. Stein,  
 Yu-Chuan Su,  A. J. W. Thom,  A. Tkatchenko,  T. Tsuchimochi,  N. M. Tubman,  
 L. Vogt,  M. L. Vidal,  O. Vydrov,  M. A. Watson,  J. Wenzel,  
 M. de Wergifosse,  T. A. Wesolowski,  A. White,  J. Witte,  A. Yamada,  
 Jun Yang,  K. Yao,  S. Yeganeh,  S. R. Yost,  Zhi-Qiang You,  A. Zech,  
 Igor Ying Zhang,  Xing Zhang,  Yan Zhao,  Ying Zhu,  B. R. Brooks,  
 G. K. L. Chan,  C. J. Cramer,  M. S. Gordon,  W. J. Hehre,  A. Klamt,  
 M. W. Schmidt,  C. D. Sherrill,  D. G. Truhlar,  A. Aspuru-Guzik,  R. Baer,  
 A. T. Bell,  N. A. Besley,  Jeng-Da Chai,  A. E. DePrince, III,  
 R. A. DiStasio Jr.,  A. Dreuw,  B. D. Dunietz,  T. R. Furlani,  
 Chao-Ping Hsu,  Yousung Jung,  Jing Kong,  D. S. Lambrecht,  WanZhen Liang,  
 C. Ochsenfeld,  V. A. Rassolov,  L. V. Slipchenko,  J. E. Subotnik,  
[...]
  1.318   1.603   2.884   2.884   2.884   2.884   2.884   3.023
  3.023   3.023   3.023   3.023   3.023   3.023   3.303   3.303
  3.303   3.303   3.303   3.303   3.303   3.303   3.303   4.545
  4.545   4.545   6.523   8.694   8.694   8.694   8.695   8.695
 14.295  14.295  14.295  16.441  16.441  16.441  16.441  16.441
 16.441  16.441  22.973  27.434  27.434  27.434  27.434  27.434
 40.312  40.312  40.312  47.145  47.145  47.145  47.145  47.145
 47.145  47.145  47.145  47.145  57.408  57.408  57.408  57.408
 57.408  57.408  57.408  68.118  80.506  80.506  80.506  80.506
 80.506 126.007 126.007 126.007 323.997
 
 Beta MOs
 -- Occupied --
-79.961  -7.501  -5.383  -5.383  -5.383  -0.558
 -- Virtual --
  0.077   0.077   0.077   0.076   0.073   0.076   0.076   0.183
  0.183   0.183   0.184   0.184   0.391   0.392   0.392   0.441
  0.445   0.445   0.445   0.445   0.445   0.446   0.446   0.520
  0.520   0.520   0.521   0.521   1.205   1.205   1.205   1.205
  1.205   1.252   1.252   1.252   1.252   1.252   1.252   1.252
  1.252   1.252   1.276   1.276   1.276   1.276   1.276   1.276
  1.276   1.383   1.383   1.383   1.654   2.914   2.914   2.914
  2.914   2.914   3.077   3.077   3.077   3.077   3.077   3.077
  3.077   3.348   3.348   3.348   3.348   3.348   3.348   3.348
  3.349   3.349   4.588   4.588   4.588   6.553   8.715   8.715
  8.715   8.715   8.715  14.317  14.317  14.317  16.444  16.444
 16.444  16.444  16.444  16.444  16.444  22.988  27.454  27.454
 27.454  27.454  27.454  40.327  40.327  40.327  47.148  47.148
 47.148  47.148  47.148  47.148  47.148  47.148  47.148  57.421
 57.421  57.421  57.421  57.421  57.421  57.421  68.129  80.521
 80.521  80.521  80.521  80.521 126.016 126.016 126.016 324.002
 --------------------------------------------------------------
 
          Ground-State Mulliken Net Atomic Charges

     Atom                 Charge (a.u.)
  ----------------------------------------
      1 P                    -0.000000
  ----------------------------------------
  Sum of atomic charges =    -0.000000

 -----------------------------------------------------------------
                    Cartesian Multipole Moments
 -----------------------------------------------------------------
    Charge (ESU x 10^10)
                -0.0000
    Dipole Moment (Debye)
         X       0.0000      Y       0.0000      Z      -0.0000
       Tot       0.0000
    Quadrupole Moments (Debye-Ang)
        XX     -13.5822     XY      -0.0000     YY     -13.5822
        XZ      -0.0000     YZ       0.0000     ZZ     -13.5973
    Octopole Moments (Debye-Ang^2)
       XXX      -0.0000    XXY       0.0000    XYY      -0.0000
       YYY       0.0000    XXZ       0.0000    XYZ      -0.0000
       YYZ       0.0000    XZZ       0.0000    YZZ       0.0000
       ZZZ      -0.0000
    Hexadecapole Moments (Debye-Ang^3)
      XXXX     -21.9129   XXXY      -0.0000   XXYY      -7.3043
      XYYY      -0.0000   YYYY     -21.9129   XXXZ      -0.0000
      XXYZ       0.0000   XYYZ      -0.0000   YYYZ       0.0000
      XXZZ      -7.3176   XYZZ      -0.0000   YYZZ      -7.3176
      XZZZ      -0.0000   YZZZ       0.0000   ZZZZ     -21.9929
 -----------------------------------------------------------------

 STANDARD THERMODYNAMIC QUANTITIES AT   298.15 K  AND     1.00 ATM

   Translational Enthalpy:        0.889 kcal/mol
   Rotational Enthalpy:           0.000 kcal/mol
   Vibrational Enthalpy:          0.000 kcal/mol
   gas constant (RT):             0.592 kcal/mol
   Translational Entropy:        36.224  cal/mol.K
   Rotational Entropy:            0.000  cal/mol.K
   Vibrational Entropy:           0.000  cal/mol.K

   Total Enthalpy:                1.481 kcal/mol
   Total Entropy:                36.224  cal/mol.K

 -----------------------------------------------------------------

Archival summary:
1\1\n0035.mhg0\SP\ROMP2\BasisUnspecified\1(4)\yhljason\SatSep1901:37:052020SatSep1901:37:052020\0\\#,ROMP2,BasisUnspecified,\\0,4\P\\HF=-340.71936\MP2=-341.18886\\@

 Total job time:  71.12s(wall), 1128.39s(cpu) 
 Sat Sep 19 01:37:05 2020

        *************************************************************
        *                                                           *
        *  Thank you very much for using Q-Chem.  Have a nice day.  *
        *                                                           *
        *************************************************************


 
User input: 7 of 7 
 
Q-Chem Developer Version!
                  Welcome to Q-Chem
     A Quantum Leap Into The Future Of Chemistry


 Q-Chem 5.1, Q-Chem, Inc., Pleasanton, CA (2018)

 Yihan Shao,  Zhengting Gan,  E. Epifanovsky,  A. T. B. Gilbert,  M. Wormit,  
 J. Kussmann,  A. W. Lange,  A. Behn,  Jia Deng,  Xintian Feng,  D. Ghosh,  
 M. Goldey,  P. R. Horn,  L. D. Jacobson,  I. Kaliman,  T. Kus,  A. Landau,  
 Jie Liu,  E. I. Proynov,  R. M. Richard,  R. P. Steele,  E. J. Sundstrom,  
 H. L. Woodcock III,  P. M. Zimmerman,  D. Zuev,  B. Albrecht,  E. Alguire,  
 S. A. Baeppler,  D. Barton,  Z. Benda,  Y. A. Bernard,  E. J. Berquist,  
 K. B. Bravaya,  H. Burton,  D. Casanova,  Chun-Min Chang,  Yunqing Chen,  
 A. Chien,  K. D. Closser,  M. P. Coons,  S. Coriani,  S. Dasgupta,  
 A. L. Dempwolff,  M. Diedenhofen,  Hainam Do,  R. G. Edgar,  Po-Tung Fang,  
 S. Faraji,  S. Fatehi,  Qingguo Feng,  K. D. Fenk,  J. Fosso-Tande,  
 Qinghui Ge,  A. Ghysels,  G. Gidofalvi,  J. Gomes,  J. Gonthier,  A. Gunina,  
 D. Hait,  M. W. D. Hanson-Heine,  P. H. P. Harbach,  A. W. Hauser,  
 J. E. Herr,  E. G. Hohenstein,  Z. C. Holden,  Kerwin Hui,  B. C. Huynh,  
 T.-C. Jagau,  Hyunjun Ji,  B. Kaduk,  K. Khistyaev,  Jaehoon Kim,  
 P. Klunzinger,  K. Koh,  D. Kosenkov,  L. Koulias,  T. Kowalczyk,  
 C. M. Krauter,  A. Kunitsa,  Ka Un Lao,  A. Laurent,  K. V. Lawler,  
 Joonho Lee,  D. Lefrancois,  S. Lehtola,  D. S. Levine,  Yi-Pei Li,  
 You-Sheng Lin,  Fenglai Liu,  E. Livshits,  A. Luenser,  P. Manohar,  
 E. Mansoor,  S. F. Manzer,  Shan-Ping Mao,  Yuezhi Mao,  N. Mardirossian,  
 A. V. Marenich,  T. Markovich,  L. A. Martinez-Martinez,  S. A. Maurer,  
 N. J. Mayhall,  S. C. McKenzie,  J.-M. Mewes,  A. F. Morrison,  
 J. W. Mullinax,  K. Nanda,  T. S. Nguyen-Beck,  R. Olivares-Amaya,  
 J. A. Parkhill,  T. M. Perrine,  F. Plasser,  P. Pokhilko,  S. Prager,  
 A. Prociuk,  E. Ramos,  D. R. Rehn,  F. Rob,  M. Schneider,  N. Sergueev,  
 S. M. Sharada,  S. Sharma,  D. W. Small,  T. Stauch,  T. Stein,  
 Yu-Chuan Su,  A. J. W. Thom,  A. Tkatchenko,  T. Tsuchimochi,  N. M. Tubman,  
 L. Vogt,  M. L. Vidal,  O. Vydrov,  M. A. Watson,  J. Wenzel,  
 M. de Wergifosse,  T. A. Wesolowski,  A. White,  J. Witte,  A. Yamada,  
 Jun Yang,  K. Yao,  S. Yeganeh,  S. R. Yost,  Zhi-Qiang You,  A. Zech,  
 Igor Ying Zhang,  Xing Zhang,  Yan Zhao,  Ying Zhu,  B. R. Brooks,  
 G. K. L. Chan,  C. J. Cramer,  M. S. Gordon,  W. J. Hehre,  A. Klamt,  
 M. W. Schmidt,  C. D. Sherrill,  D. G. Truhlar,  A. Aspuru-Guzik,  R. Baer,  
 A. T. Bell,  N. A. Besley,  Jeng-Da Chai,  A. E. DePrince, III,  
 R. A. DiStasio Jr.,  A. Dreuw,  B. D. Dunietz,  T. R. Furlani,  
 Chao-Ping Hsu,  Yousung Jung,  Jing Kong,  D. S. Lambrecht,  WanZhen Liang,  
 C. Ochsenfeld,  V. A. Rassolov,  L. V. Slipchenko,  J. E. Subotnik,  
 T. Van Voorhis,  J. M. Herbert,  A. I. Krylov,  P. M. W. Gill,  M. Head-Gordon

 Contributors to earlier versions of Q-Chem not listed above: 
 R. D. Adamson,  B. Austin,  J. Baker,  G. J. O. Beran,  K. Brandhorst,  
 S. T. Brown,  E. F. C. Byrd,  A. K. Chakraborty,  C.-L. Cheng,  
 Siu Hung Chien,  D. M. Chipman,  D. L. Crittenden,  H. Dachsel,  
 R. J. Doerksen,  A. D. Dutoi,  L. Fusti-Molnar,  W. A. Goddard III,  
 A. Golubeva-Zadorozhnaya,  S. R. Gwaltney,  G. Hawkins,  A. Heyden,  
 S. Hirata,  G. Kedziora,  F. J. Keil,  C. Kelley,  Jihan Kim,  R. A. King,  
 R. Z. Khaliullin,  P. P. Korambath,  W. Kurlancheek,  A. M. Lee,  M. S. Lee,  
 S. V. Levchenko,  Ching Yeh Lin,  D. Liotard,  R. C. Lochan,  I. Lotan,  
 P. E. Maslen,  N. Nair,  D. P. O'Neill,  D. Neuhauser,  E. Neuscamman,  
 C. M. Oana,  R. Olson,  B. Peters,  R. Peverati,  P. A. Pieniazek,  
 Y. M. Rhee,  J. Ritchie,  M. A. Rohrdanz,  E. Rosta,  N. J. Russ,  
 H. F. Schaefer III,  N. E. Schultz,  N. Shenvi,  A. C. Simmonett,  A. Sodt,  
 D. Stuck,  K. S. Thanthiriwatte,  V. Vanovschi,  Tao Wang,  A. Warshel,  
 C. F. Williams,  Q. Wu,  X. Xu,  W. Zhang

 Please cite Q-Chem as follows:
 Y. Shao et al., Mol. Phys. 113, 184-215 (2015)
 DOI: 10.1080/00268976.2014.952696

 Q-Chem 5.1.1 for Intel X86 EM64T Linux

 Parts of Q-Chem use Armadillo 8.300.2 (Tropical Shenanigans).
 http://arma.sourceforge.net/

 Q-Chem begins on Sat Sep 19 01:37:05 2020  

Host: n0035.mhg0
0

     Scratch files written to /local/scratch/users/yhljason/P_rmp2_aug-cc-pcVQZ.inp20200919012552//
The previous job contains 0 fragments, simply inherited here
Input Ideriv = 1
Curr. Ideriv = -1
Max.  Ideriv = 1

Checking the input file for inconsistencies... 	...done.

--------------------------------------------------------------
User input:
--------------------------------------------------------------
$molecule
read
$end

$rem

jobtype sp
method mp2
xc_grid 000099000590
basis aug-cc-pcVQZ
max_scf_cycles 200
thresh 14
scf_convergence 8
mem_total 128000
cc_memory 96000
cc_backend xm
mem_static 1500
symmetry false
sym_ignore true
scf_guess read
unrestricted false
scf_algorithm gdm
n_frozen_core 0
$end

$multipole_field
ZZ -0.0001
$end

--------------------------------------------------------------
 ----------------------------------------------------------------
             Standard Nuclear Orientation (Angstroms)
    I     Atom           X                Y                Z
 ----------------------------------------------------------------
    1      P       0.0000000000     0.0000000000     0.0000000000
 ----------------------------------------------------------------
 Nuclear Repulsion Energy =     0.0000000000 hartrees
 There are        9 alpha and        6 beta electrons
 Requested basis set is aug-cc-pCVQZ
 There are 34 shells and 134 basis functions

 Total QAlloc Memory Limit 128000 MB
 Mega-Array Size      1467 MB
 MEM_STATIC part      1500 MB
 Applying Cartesian multipole field
    Component          Value
    ---------          -----
     (0,0,2)       -1.00000E-04
 A cutoff of  1.0D-14 yielded    595 shell pairs
 There are      9355 function pairs (     15897 Cartesian)
 
 -------------------------------------------------------
 OpenMP Integral Computing Module                       
 Release: version 1.0, May 2013, Q-Chem Inc. Pittsburgh 
 -------------------------------------------------------
 Integral Job Info:
 Integral job number is                      11
 Integral operator is                         1
 short-range coefficients                     0
 long-range coefficients              100000000
 Omega coefficients                           0
 if combine SR and LR in K                    0
 Integral screening is                        0
 Integral computing path is                   2
 max size of driver memory is           3200000
 size of driver memory is               1704330
 size of scratch memory is             29435624
 max col of scratch BK array              50625
 max len of scratch array in speh3         2114
 max len of scratch index in speh4           50
 max int batch size is                      520
 min int batch size is                       52
 fixed nKL is                                22
 max L of basis functions is                  4
 order of int derivative is                   0
 number of shells is                         34
 number of basis is                         174
 number of cartesian basis is               174
 number of contracted shell pairs           595
 number of primitive shell pairs           3860
 maxK2 (contraction) of shell pair          169
 max number of K2 of shell pair               1
 max number of CS2 of shell pair             49
 max number of PS2 of shell pair           1014
 mem total for path MDJ                  631630
 -------------------------------------------------------
 Smallest overlap matrix eigenvalue = 3.31E-05
 Guess MOs from SCF MO coefficient file
 Reading MOs from coefficient file
 Reading MOs from coefficient file
 A restricted Hartree-Fock SCF calculation will be
 performed using Geometric Direct Minimization
 SCF converges when RMS gradient is below 1.0E-08
Using Q-Chem read-in guess as SCF_GUESS READ specified.

 using 16 threads for integral computing
 -------------------------------------------------------
 OpenMP Integral computing Module                
 Release: version 2.0, May 2017, Q-Chem Inc. Pleasanton 
 -------------------------------------------------------
TIMEINFO->: J/JK contribution 21.06 sec.
 ---------------------------------------
  Cycle       Energy        RMS Gradient
 ---------------------------------------
    1    -340.7173378992      1.52E-03 Normal BFGS step
TIMEINFO->: J/JK contribution 21.22 sec.
    2    -340.7173399032      1.14E-03 Normal BFGS step
TIMEINFO->: J/JK contribution 20.66 sec.
    3    -340.7173404659      1.52E-04 Normal BFGS step
TIMEINFO->: J/JK contribution 20.41 sec.
    4    -340.7173404943      3.47E-05 Normal BFGS step
TIMEINFO->: J/JK contribution 19.29 sec.
    5    -340.7173404962      7.79E-06 Normal BFGS step
TIMEINFO->: J/JK contribution 18.78 sec.
    6    -340.7173404962      3.77E-06 Normal BFGS step
TIMEINFO->: J/JK contribution 17.73 sec.
    7    -340.7173404962      2.19E-07 Normal BFGS step
TIMEINFO->: J/JK contribution 17.06 sec.
   GDM::WARNING energy changes are now smaller than effective accuracy.
   GDM::        calculation will continue, but THRESH should be increased
   GDM::        or SCF_CONVERGENCE decreased.
   GDM::        effective_thresh =   9.000000000000000E-011
    8    -340.7173404962      5.97E-08 Normal BFGS step
TIMEINFO->: J/JK contribution 16.09 sec.
   GDM::WARNING energy changes are now smaller than effective accuracy.
   GDM::        calculation will continue, but THRESH should be increased
   GDM::        or SCF_CONVERGENCE decreased.
   GDM::        effective_thresh =   9.000000000000000E-011
    9    -340.7173404962      2.40E-09 Convergence criterion met
 ---------------------------------------
 SCF time:  CPU 178.61 s  wall 11.30 s
 SCF   energy in the final basis set = -340.71734050
 Total energy in the final basis set = -340.71734050
 
 Components of the MP2 correlation energy:
        aaaa  correlation energy =        -0.0752100643 au
        abab  correlation energy =        -0.3466722890 au
        bbbb  correlation energy =        -0.0472506214 au
        non-Brillouin singles    =        -0.0003879505 au

 Total  MP2   correlation energy =                    -0.46952093 au
        MP2         total energy =                  -341.18686142 au
 
 --------------------------------------------------------------
 
                    Orbital Energies (a.u.)
 --------------------------------------------------------------
 
 Alpha MOs
 -- Occupied --
-79.979  -7.521  -5.420  -5.420  -5.420  -0.835  -0.391  -0.391
 -0.391
 -- Virtual --
  0.067   0.072   0.072   0.074   0.161   0.161   0.162   0.162
  0.162   0.352   0.352   0.353   0.403   0.433   0.433   0.434
  0.434   0.434   0.434   0.434   0.424   0.424   0.424   0.424
  0.425   1.137   1.137   1.138   1.138   1.138   1.229   1.229
  1.230   1.230   1.230   1.230   1.230   1.230   1.230   1.221
  1.221   1.222   1.222   1.222   1.222   1.222   1.319   1.319
  1.319   1.604   2.885   2.885   2.885   2.885   2.885   3.024
  3.024   3.024   3.024   3.024   3.024   3.024   3.304   3.304
  3.304   3.304   3.304   3.304   3.304   3.304   3.304   4.546
  4.546   4.546   6.523   8.695   8.695   8.695   8.695   8.695
 14.295  14.295  14.295  16.442  16.442  16.442  16.442  16.442
 16.442  16.442  22.974  27.435  27.435  27.435  27.435  27.435
 40.313  40.313  40.313  47.145  47.145  47.145  47.145  47.145
 47.145  47.145  47.145  47.145  57.409  57.409  57.409  57.409
 57.409  57.409  57.409  68.119  80.507  80.507  80.507  80.507
 80.507 126.008 126.008 126.008 323.998
 
 Beta MOs
 -- Occupied --
-79.960  -7.500  -5.382  -5.382  -5.382  -0.557
 -- Virtual --
  0.078   0.078   0.078   0.079   0.078   0.078   0.081   0.185
  0.185   0.186   0.186   0.186   0.393   0.393   0.394   0.443
  0.446   0.446   0.447   0.447   0.447   0.447   0.447   0.521
  0.521   0.522   0.522   0.522   1.206   1.206   1.206   1.206
  1.206   1.253   1.253   1.253   1.253   1.253   1.253   1.253
  1.253   1.253   1.277   1.277   1.277   1.277   1.277   1.277
  1.277   1.384   1.384   1.385   1.655   2.915   2.915   2.915
  2.915   2.915   3.077   3.077   3.077   3.077   3.078   3.078
  3.078   3.349   3.349   3.349   3.349   3.349   3.349   3.349
  3.349   3.349   4.588   4.588   4.589   6.554   8.716   8.716
  8.716   8.716   8.716  14.318  14.318  14.318  16.445  16.445
 16.445  16.445  16.445  16.445  16.445  22.989  27.455  27.455
 27.455  27.455  27.455  40.328  40.328  40.328  47.149  47.149
 47.149  47.149  47.149  47.149  47.149  47.149  47.149  57.422
 57.422  57.422  57.422  57.422  57.422  57.422  68.130  80.522
 80.522  80.522  80.522  80.522 126.017 126.017 126.017 324.003
 --------------------------------------------------------------
 
          Ground-State Mulliken Net Atomic Charges

     Atom                 Charge (a.u.)
  ----------------------------------------
      1 P                    -0.000000
  ----------------------------------------
  Sum of atomic charges =    -0.000000

 -----------------------------------------------------------------
                    Cartesian Multipole Moments
 -----------------------------------------------------------------
    Charge (ESU x 10^10)
                -0.0000
    Dipole Moment (Debye)
         X       0.0000      Y      -0.0000      Z      -0.0000
       Tot       0.0000
    Quadrupole Moments (Debye-Ang)
        XX     -13.5775     XY      -0.0000     YY     -13.5775
        XZ      -0.0000     YZ      -0.0000     ZZ     -13.5625
    Octopole Moments (Debye-Ang^2)
       XXX       0.0000    XXY       0.0000    XYY       0.0000
       YYY      -0.0000    XXZ      -0.0000    XYZ      -0.0000
       YYZ      -0.0000    XZZ       0.0000    YZZ      -0.0000
       ZZZ      -0.0000
    Hexadecapole Moments (Debye-Ang^3)
      XXXX     -21.8845   XXXY      -0.0000   XXYY      -7.2948
      XYYY      -0.0000   YYYY     -21.8845   XXXZ      -0.0000
      XXYZ      -0.0000   XYYZ      -0.0000   YYYZ      -0.0000
      XXZZ      -7.2817   XYZZ      -0.0000   YYZZ      -7.2817
      XZZZ      -0.0000   YZZZ      -0.0000   ZZZZ     -21.8058
 -----------------------------------------------------------------

 STANDARD THERMODYNAMIC QUANTITIES AT   298.15 K  AND     1.00 ATM

   Translational Enthalpy:        0.889 kcal/mol
   Rotational Enthalpy:           0.000 kcal/mol
   Vibrational Enthalpy:          0.000 kcal/mol
   gas constant (RT):             0.592 kcal/mol
   Translational Entropy:        36.224  cal/mol.K
   Rotational Entropy:            0.000  cal/mol.K
   Vibrational Entropy:           0.000  cal/mol.K

   Total Enthalpy:                1.481 kcal/mol
   Total Entropy:                36.224  cal/mol.K

 -----------------------------------------------------------------

Archival summary:
1\1\n0035.mhg0\SP\ROMP2\BasisUnspecified\1(4)\yhljason\SatSep1901:38:162020SatSep1901:38:162020\0\\#,ROMP2,BasisUnspecified,\\0,4\P\\HF=-340.71734\MP2=-341.186861\\@

 Total job time:  70.84s(wall), 1122.96s(cpu) 
 Sat Sep 19 01:38:16 2020

        *************************************************************
        *                                                           *
        *  Thank you very much for using Q-Chem.  Have a nice day.  *
        *                                                           *
        *************************************************************


