Q-Chem Developer Version!
                  Welcome to Q-Chem
     A Quantum Leap Into The Future Of Chemistry


 Q-Chem 5.1, Q-Chem, Inc., Pleasanton, CA (2018)

 Yihan Shao,  Zhengting Gan,  E. Epifanovsky,  A. T. B. Gilbert,  M. Wormit,  
 J. Kussmann,  A. W. Lange,  A. Behn,  Jia Deng,  Xintian Feng,  D. Ghosh,  
 M. Goldey,  P. R. Horn,  L. D. Jacobson,  I. Kaliman,  T. Kus,  A. Landau,  
 Jie Liu,  E. I. Proynov,  R. M. Richard,  R. P. Steele,  E. J. Sundstrom,  
 H. L. Woodcock III,  P. M. Zimmerman,  D. Zuev,  B. Albrecht,  E. Alguire,  
 S. A. Baeppler,  D. Barton,  Z. Benda,  Y. A. Bernard,  E. J. Berquist,  
 K. B. Bravaya,  H. Burton,  D. Casanova,  Chun-Min Chang,  Yunqing Chen,  
 A. Chien,  K. D. Closser,  M. P. Coons,  S. Coriani,  S. Dasgupta,  
 A. L. Dempwolff,  M. Diedenhofen,  Hainam Do,  R. G. Edgar,  Po-Tung Fang,  
 S. Faraji,  S. Fatehi,  Qingguo Feng,  K. D. Fenk,  J. Fosso-Tande,  
 Qinghui Ge,  A. Ghysels,  G. Gidofalvi,  J. Gomes,  J. Gonthier,  A. Gunina,  
 D. Hait,  M. W. D. Hanson-Heine,  P. H. P. Harbach,  A. W. Hauser,  
 J. E. Herr,  E. G. Hohenstein,  Z. C. Holden,  Kerwin Hui,  B. C. Huynh,  
 T.-C. Jagau,  Hyunjun Ji,  B. Kaduk,  K. Khistyaev,  Jaehoon Kim,  
 P. Klunzinger,  K. Koh,  D. Kosenkov,  L. Koulias,  T. Kowalczyk,  
 C. M. Krauter,  A. Kunitsa,  Ka Un Lao,  A. Laurent,  K. V. Lawler,  
 Joonho Lee,  D. Lefrancois,  S. Lehtola,  D. S. Levine,  Yi-Pei Li,  
 You-Sheng Lin,  Fenglai Liu,  E. Livshits,  A. Luenser,  P. Manohar,  
 E. Mansoor,  S. F. Manzer,  Shan-Ping Mao,  Yuezhi Mao,  N. Mardirossian,  
 A. V. Marenich,  T. Markovich,  L. A. Martinez-Martinez,  S. A. Maurer,  
 N. J. Mayhall,  S. C. McKenzie,  J.-M. Mewes,  A. F. Morrison,  
 J. W. Mullinax,  K. Nanda,  T. S. Nguyen-Beck,  R. Olivares-Amaya,  
 J. A. Parkhill,  T. M. Perrine,  F. Plasser,  P. Pokhilko,  S. Prager,  
 A. Prociuk,  E. Ramos,  D. R. Rehn,  F. Rob,  M. Schneider,  N. Sergueev,  
 S. M. Sharada,  S. Sharma,  D. W. Small,  T. Stauch,  T. Stein,  
 Yu-Chuan Su,  A. J. W. Thom,  A. Tkatchenko,  T. Tsuchimochi,  N. M. Tubman,  
 L. Vogt,  M. L. Vidal,  O. Vydrov,  M. A. Watson,  J. Wenzel,  
 M. de Wergifosse,  T. A. Wesolowski,  A. White,  J. Witte,  A. Yamada,  
 Jun Yang,  K. Yao,  S. Yeganeh,  S. R. Yost,  Zhi-Qiang You,  A. Zech,  
 Igor Ying Zhang,  Xing Zhang,  Yan Zhao,  Ying Zhu,  B. R. Brooks,  
 G. K. L. Chan,  C. J. Cramer,  M. S. Gordon,  W. J. Hehre,  A. Klamt,  
 M. W. Schmidt,  C. D. Sherrill,  D. G. Truhlar,  A. Aspuru-Guzik,  R. Baer,  
 A. T. Bell,  N. A. Besley,  Jeng-Da Chai,  A. E. DePrince, III,  
 R. A. DiStasio Jr.,  A. Dreuw,  B. D. Dunietz,  T. R. Furlani,  
 Chao-Ping Hsu,  Yousung Jung,  Jing Kong,  D. S. Lambrecht,  WanZhen Liang,  
 C. Ochsenfeld,  V. A. Rassolov,  L. V. Slipchenko,  J. E. Subotnik,  
 T. Van Voorhis,  J. M. Herbert,  A. I. Krylov,  P. M. W. Gill,  M. Head-Gordon

 Contributors to earlier versions of Q-Chem not listed above: 
 R. D. Adamson,  B. Austin,  J. Baker,  G. J. O. Beran,  K. Brandhorst,  
 S. T. Brown,  E. F. C. Byrd,  A. K. Chakraborty,  C.-L. Cheng,  
 Siu Hung Chien,  D. M. Chipman,  D. L. Crittenden,  H. Dachsel,  
 R. J. Doerksen,  A. D. Dutoi,  L. Fusti-Molnar,  W. A. Goddard III,  
 A. Golubeva-Zadorozhnaya,  S. R. Gwaltney,  G. Hawkins,  A. Heyden,  
 S. Hirata,  G. Kedziora,  F. J. Keil,  C. Kelley,  Jihan Kim,  R. A. King,  
 R. Z. Khaliullin,  P. P. Korambath,  W. Kurlancheek,  A. M. Lee,  M. S. Lee,  
 S. V. Levchenko,  Ching Yeh Lin,  D. Liotard,  R. C. Lochan,  I. Lotan,  
 P. E. Maslen,  N. Nair,  D. P. O'Neill,  D. Neuhauser,  E. Neuscamman,  
 C. M. Oana,  R. Olson,  B. Peters,  R. Peverati,  P. A. Pieniazek,  
 Y. M. Rhee,  J. Ritchie,  M. A. Rohrdanz,  E. Rosta,  N. J. Russ,  
 H. F. Schaefer III,  N. E. Schultz,  N. Shenvi,  A. C. Simmonett,  A. Sodt,  
 D. Stuck,  K. S. Thanthiriwatte,  V. Vanovschi,  Tao Wang,  A. Warshel,  
 C. F. Williams,  Q. Wu,  X. Xu,  W. Zhang

 Please cite Q-Chem as follows:
 Y. Shao et al., Mol. Phys. 113, 184-215 (2015)
 DOI: 10.1080/00268976.2014.952696

 Q-Chem 5.1.1 for Intel X86 EM64T Linux

 Parts of Q-Chem use Armadillo 8.300.2 (Tropical Shenanigans).
 http://arma.sourceforge.net/

 Q-Chem begins on Sun Aug 16 21:50:36 2020  

Host: n0051.mhg0
0

     Scratch files written to /local/scratch/users/yhljason/ClF_hf_aug-cc-pcV5Z.inp20200816182618//
Input Ideriv = 2
Curr. Ideriv = -1
Max.  Ideriv = 2

Checking the input file for inconsistencies... 	...done.

--------------------------------------------------------------
User input:
--------------------------------------------------------------
$molecule
0 1
F1      0.0000  0.0000  0.0000
Cl2     0.0000  0.0000  1.6283
$end

$rem
jobtype sp
method hf
xc_grid 000099000590
basis aug-cc-pcV5Z
max_scf_cycles 200
thresh 14
scf_convergence 8
scf_algorithm gdm
symmetry false
sym_ignore true
unrestricted true
gen_scfman true
internal_stability_iter 15
internal_stability_davidson_iter 200
mem_total 64000
mem_static 1500
n_frozen_core 0
$end


--------------------------------------------------------------
 ----------------------------------------------------------------
             Standard Nuclear Orientation (Angstroms)
    I     Atom           X                Y                Z
 ----------------------------------------------------------------
    1      F       0.0000000000     0.0000000000     0.0000000000
    2      Cl      0.0000000000     0.0000000000     1.6283000000
 ----------------------------------------------------------------
 Nuclear Repulsion Energy =    49.7230935653 hartrees
 There are       13 alpha and       13 beta electrons
 Requested basis set is aug-cc-pCV5Z
 There are 88 shells and 398 basis functions

 Total QAlloc Memory Limit  64000 MB
 Mega-Array Size      1467 MB
 MEM_STATIC part      1500 MB

                       Distance Matrix (Angstroms)
             F (  1)
   Cl(  2)  1.628300
 
 A cutoff of  1.0D-14 yielded   3547 shell pairs
 There are     74893 function pairs (    149182 Cartesian)
 
 -------------------------------------------------------
 OpenMP Integral Computing Module                       
 Release: version 1.0, May 2013, Q-Chem Inc. Pittsburgh 
 -------------------------------------------------------
 Integral Job Info:
 Integral job number is                      11
 Integral operator is                         1
 short-range coefficients                     0
 long-range coefficients              100000000
 Omega coefficients                           0
 if combine SR and LR in K                    0
 Integral screening is                        0
 Integral computing path is                   2
 max size of driver memory is           6400000
 size of driver memory is               5498286
 size of scratch memory is             29792225
 max col of scratch BK array             194481
 max len of scratch array in speh3         5572
 max len of scratch index in speh4           72
 max int batch size is                      520
 min int batch size is                       52
 fixed nKL is                                25
 max L of basis functions is                  5
 order of int derivative is                   0
 number of shells is                         88
 number of basis is                         558
 number of cartesian basis is               558
 number of contracted shell pairs          3547
 number of primitive shell pairs           7127
 maxK2 (contraction) of shell pair          121
 max number of K2 of shell pair               1
 max number of CS2 of shell pair            332
 max number of PS2 of shell pair            363
 mem total for path MDJ                 1108732
 -------------------------------------------------------
 Smallest overlap matrix eigenvalue = 1.96E-05

 Scale SEOQF with 1.000000e-01/1.000000e-01/1.000000e-01

 Standard Electronic Orientation quadrupole field applied
 Nucleus-field energy     =    -0.0000000048 hartrees
 Guess from superposition of atomic densities
 Warning:  Energy on first SCF cycle will be non-variational
 SAD guess density has 26.000000 electrons

 -----------------------------------------------------------------------
  General SCF calculation program by
  Eric Jon Sundstrom, Paul Horn, Yuezhi Mao, Dmitri Zuev, Alec White,
  David Stuck, Shaama M.S., Shane Yost, Joonho Lee, David Small,
  Daniel Levine, Susi Lehtola, Hugh Burton, Evgeny Epifanovsky
 -----------------------------------------------------------------------
Running Object-Oriented UHF
performing a single roothaan step with Fock from read density so that orbitals are available to all algorithms
 LTot/LBra/LKet=          19           9          10
 LTot/LBra/LKet=          19           9          10
 LTot/LBra/LKet=          18           9           9

 Q-Chem warning:

 in GenH1, ket side, handled with new code


 Q-Chem warning:

 in GenH1, ket side, handled with new code

 LTot/LBra/LKet=          18           8          10
 LTot/LBra/LKet=          20          10          10
 LTot/LBra/LKet=          20          10          10
 LTot/LBra/LKet=          19           9          10

 Q-Chem warning:

 in GenH1, ket side, handled with new code

 LTot/LBra/LKet=          18           8          10
 LTot/LBra/LKet=          20          10          10

 Q-Chem warning:

 in GenH1, ket side, handled with new code


 Q-Chem warning:

 in GenH1, ket side, handled with new code


 Q-Chem warning:

 in GenH1, ket side, handled with new code


 Q-Chem warning:

 in GenH1, ket side, handled with new code

 LTot/LBra/LKet=          19           9          10
 LTot/LBra/LKet=          18           9           9

 Q-Chem warning:

 in GenH1, ket side, handled with new code


 Q-Chem warning:

 in GenH1, ket side, handled with new code


 Q-Chem warning:

 in GenH1, ket side, handled with new code

 LTot/LBra/LKet=          18           9           9
 LTot/LBra/LKet=          18           9           9

 Q-Chem warning:

 in GenH1, ket side, handled with new code


 Q-Chem warning:

 in GenH1, ket side, handled with new code

 LTot/LBra/LKet=          19           9          10
 LTot/LBra/LKet=          20          10          10
 LTot/LBra/LKet=          18           9           9

 Q-Chem warning:

 in GenH1, ket side, handled with new code


 Q-Chem warning:

 in GenH1, ket side, handled with new code


 Q-Chem warning:

 in GenH1, ket side, handled with new code

 LTot/LBra/LBra=          18           9           9

 Q-Chem warning:

 in GenH1, bra side, handled with new code


 Q-Chem warning:

 in GenH1, ket side, handled with new code

energy of the guess density (C=0) -558.903575371542
We will preform up to 15 macro iterations over saddle points until a stable solution is found
Energy prior to optimization (guess energy) = -558.894767576215
Begin Timing: Total SCF Calculation
Begin Timing: SCF Single Stationary Point Calculation
begin iterations for algorithm: GDM          
the SCF tolerance is set to 1.00e-08
    1    -558.8947675762      5.23e-02     00000  Normal BFGS step
    2    -558.9167012560      1.80e-02     00000  Normal BFGS step
    3    -558.9195813944      4.22e-03     00000  Normal BFGS step
    4    -558.9197703905      2.52e-03     00000  Normal BFGS step
    5    -558.9198086366      4.04e-04     00000  Normal BFGS step
    6    -558.9198099125      1.52e-04     00000  Normal BFGS step
    7    -558.9198101348      2.67e-05     00000  Normal BFGS step
    8    -558.9198101516      1.12e-05     00000  Normal BFGS step
    9    -558.9198101534      2.89e-06     00000  Normal BFGS step
   10    -558.9198101535      4.17e-07     00000  Normal BFGS step
   11    -558.9198101535      5.34e-08     00000  Normal BFGS step
   12    -558.9198101535      1.19e-08     00000  Normal BFGS step
   13    -558.9198101535      2.03e-09     00000 Convergence criterion met
Timing for Single Stationary Point: 1870.00s (wall), 29733.26s (cpu)
Begin Timing: Stability
===================================================
Beginning Test for Internal Stability
===================================================
generating davidson guess vectors based on koopmans excitations
    1      4.82e+00     00000 Davidson Iteration
    2      2.72e+00     00000 Davidson Iteration
    3      3.74e-01     00000 Davidson Iteration
    4      6.41e-02     00000 Davidson Iteration
    5      1.86e-02     00000 Davidson Iteration
    6      1.14e-02     00000 Davidson Iteration
    7      2.85e-03     00000 Davidson Iteration
    8      1.61e-03     00000 Davidson Iteration
    9      8.61e-04     00000 Davidson Iteration
   10      2.94e-04     00000 Davidson Iteration
   11      3.65e-05     00000 Davidson Iteration
   12      1.19e-04     00000 Davidson Iteration
   13      3.98e-03     00000 Davidson Iteration
   14      1.45e-04     00000 Davidson Iteration
   15      4.72e-05     00000 Davidson Converged
converged_eigenvalues
   0.1252
   0.3674
Threshold for negative eigenvalues: -1.0e-05
solution was a local minimum (stable)
===================================================
End Test for Internal Stability
===================================================
Our SCF solution is stable!
Timing for Total SCF: 5363.00s (wall), 80164.87s (cpu)
 Total energy in the final basis set =     -558.9198101535
<S^2> =         -0.000000000
    ==================================================
              The end of Object-Oriented SCFman       
    ==================================================
 
 --------------------------------------------------------------
 
                    Orbital Energies (a.u.)
 --------------------------------------------------------------
 
 Alpha MOs
 -- Occupied --
******* -26.355 -10.655  -8.122  -8.119  -8.119  -1.640  -1.105
 -0.726  -0.726  -0.701  -0.493  -0.493
 -- Virtual --
  0.035   0.063   0.082   0.082   0.109   0.156   0.165   0.165
  0.263   0.263   0.269   0.321   0.321   0.349   0.369   0.369
  0.390   0.537   0.553   0.553   0.607   0.607   0.609   0.609
  0.628   0.628   0.646   0.646   0.684   0.722   0.722   0.728
  0.743   0.743   0.765   0.906   0.906   0.969   1.159   1.267
  1.267   1.333   1.333   1.362   1.362   1.376   1.376   1.437
  1.437   1.488   1.515   1.515   1.525   1.525   1.531   1.531
  1.582   1.592   1.592   1.595   1.595   1.658   1.699   1.699
  1.773   1.797   1.797   1.882   1.902   1.902   1.988   1.988
  2.066   2.066   2.082   2.513   2.704   2.704   3.055   3.099
  3.099   3.146   3.146   3.192   3.192   3.201   3.201   3.209
  3.209   3.263   3.279   3.279   3.315   3.315   3.390   3.390
  3.411   3.411   3.509   3.513   3.513   3.607   3.607   3.784
  3.784   3.831   3.831   3.909   3.955   3.955   3.960   3.960
  3.980   3.980   4.083   4.083   4.115   4.115   4.143   4.143
  4.152   4.186   4.352   4.375   4.375   4.515   4.515   4.718
  4.914   4.977   4.977   5.083   5.083   5.519   5.519   6.335
  6.419   6.419   6.556   6.556   6.595   6.595   6.725   6.881
  7.080   7.080   7.348   7.348   7.373   7.373   7.398   7.399
  7.399   7.401   7.401   7.654   7.654   7.669   7.669   7.687
  7.687   7.690   7.690   7.752   7.861   7.861   7.992   7.992
  8.033   8.033   8.223   8.317   8.317   9.041   9.041   9.090
  9.090   9.216   9.248   9.248   9.515   9.515   9.571   9.571
  9.646   9.646   9.835   9.907   9.907  10.118  10.118  10.426
 10.426  10.461  10.461  10.738  10.962  10.962  11.270  11.270
 11.332  11.548  11.548  11.866  12.463  12.463  12.902  14.536
 16.806  16.806  17.649  17.973  18.684  18.684  18.707  18.707
 18.898  18.898  19.179  20.927  20.927  20.929  20.929  21.039
 21.039  21.324  21.324  21.573  21.584  21.584  24.526  24.526
 24.593  24.593  24.742  24.742  24.763  24.763  24.900  25.529
 25.529  25.616  25.616  25.777  25.777  25.789  25.789  26.404
 26.657  26.657  26.886  28.320  28.320  28.662  28.662  29.103
 31.933  31.933  32.879  37.090  39.114  39.114  39.124  39.124
 39.126  39.126  39.199  39.199  39.327  45.598  46.887  46.887
 47.688  53.091  53.091  53.108  53.108  53.234  53.234  53.365
 60.362  60.362  60.782  60.782  61.298  79.456  79.456  79.692
 79.692  79.948  84.061  84.061  84.841  92.841  92.841  92.902
 92.902  93.111  93.111  93.241 101.656 101.657 101.657 101.659
101.659 101.664 101.664 101.671 101.671 101.681 101.681 103.073
117.501 122.931 122.931 122.933 122.933 122.939 122.939 122.963
122.963 123.015 131.756 131.756 132.431 137.352 137.352 137.698
137.698 138.134 142.437 142.437 142.447 142.447 142.542 142.542
142.623 225.242 225.242 225.890 234.080 234.080 234.252 234.252
234.435 249.690 249.690 249.692 249.696 249.696 249.704 249.704
249.719 249.719 273.679 309.015 309.015 309.303 309.303 309.672
319.583 366.530 366.530 367.018 367.362 367.362 367.386 367.386
367.484 367.484 367.644 712.797 712.797 712.921 712.921 713.027
717.802 722.915 722.915 723.5471028.8811028.8811029.3831393.398
*******
 
 Beta MOs
 -- Occupied --
******* -26.355 -10.655  -8.122  -8.119  -8.119  -1.640  -1.105
 -0.726  -0.726  -0.701  -0.493  -0.493
 -- Virtual --
  0.035   0.063   0.082   0.082   0.109   0.156   0.165   0.165
  0.263   0.263   0.269   0.321   0.321   0.349   0.369   0.369
  0.390   0.537   0.553   0.553   0.607   0.607   0.609   0.609
  0.628   0.628   0.646   0.646   0.684   0.722   0.722   0.728
  0.743   0.743   0.765   0.906   0.906   0.969   1.159   1.267
  1.267   1.333   1.333   1.362   1.362   1.376   1.376   1.437
  1.437   1.488   1.515   1.515   1.525   1.525   1.531   1.531
  1.582   1.592   1.592   1.595   1.595   1.658   1.699   1.699
  1.773   1.797   1.797   1.882   1.902   1.902   1.988   1.988
  2.066   2.066   2.082   2.513   2.704   2.704   3.055   3.099
  3.099   3.146   3.146   3.192   3.192   3.201   3.201   3.209
  3.209   3.263   3.279   3.279   3.315   3.315   3.390   3.390
  3.411   3.411   3.509   3.513   3.513   3.607   3.607   3.784
  3.784   3.831   3.831   3.909   3.955   3.955   3.960   3.960
  3.980   3.980   4.083   4.083   4.115   4.115   4.143   4.143
  4.152   4.186   4.352   4.375   4.375   4.515   4.515   4.718
  4.914   4.977   4.977   5.083   5.083   5.519   5.519   6.335
  6.419   6.419   6.556   6.556   6.595   6.595   6.725   6.881
  7.080   7.080   7.348   7.348   7.373   7.373   7.398   7.399
  7.399   7.401   7.401   7.654   7.654   7.669   7.669   7.687
  7.687   7.690   7.690   7.752   7.861   7.861   7.992   7.992
  8.033   8.033   8.223   8.317   8.317   9.041   9.041   9.090
  9.090   9.216   9.248   9.248   9.515   9.515   9.571   9.571
  9.646   9.646   9.835   9.907   9.907  10.118  10.118  10.426
 10.426  10.461  10.461  10.738  10.962  10.962  11.270  11.270
 11.332  11.548  11.548  11.866  12.463  12.463  12.902  14.536
 16.806  16.806  17.649  17.973  18.684  18.684  18.707  18.707
 18.898  18.898  19.179  20.927  20.927  20.929  20.929  21.039
 21.039  21.324  21.324  21.573  21.584  21.584  24.526  24.526
 24.593  24.593  24.742  24.742  24.763  24.763  24.900  25.529
 25.529  25.616  25.616  25.777  25.777  25.789  25.789  26.404
 26.657  26.657  26.886  28.320  28.320  28.662  28.662  29.103
 31.933  31.933  32.879  37.090  39.114  39.114  39.124  39.124
 39.126  39.126  39.199  39.199  39.327  45.598  46.887  46.887
 47.688  53.091  53.091  53.108  53.108  53.234  53.234  53.365
 60.362  60.362  60.782  60.782  61.298  79.456  79.456  79.692
 79.692  79.948  84.061  84.061  84.841  92.841  92.841  92.902
 92.902  93.111  93.111  93.241 101.656 101.657 101.657 101.659
101.659 101.664 101.664 101.671 101.671 101.681 101.681 103.073
117.501 122.931 122.931 122.933 122.933 122.939 122.939 122.963
122.963 123.015 131.756 131.756 132.431 137.352 137.352 137.698
137.698 138.134 142.437 142.437 142.447 142.447 142.542 142.542
142.623 225.242 225.242 225.890 234.080 234.080 234.252 234.252
234.435 249.690 249.690 249.692 249.696 249.696 249.704 249.704
249.719 249.719 273.679 309.015 309.015 309.303 309.303 309.672
319.583 366.530 366.530 367.018 367.362 367.362 367.386 367.386
367.484 367.484 367.644 712.797 712.797 712.921 712.921 713.027
717.802 722.915 722.915 723.5471028.8811028.8811029.3831393.398
*******
 --------------------------------------------------------------
 
          Ground-State Mulliken Net Atomic Charges

     Atom                 Charge (a.u.)    Spin (a.u.)
  --------------------------------------------------------
      1 F                    -0.329311      -0.000000
      2 Cl                    0.329311       0.000000
  --------------------------------------------------------
  Sum of atomic charges =    -0.000000
  Sum of spin   charges =    -0.000000

 -----------------------------------------------------------------
                    Cartesian Multipole Moments
 -----------------------------------------------------------------
    Charge (ESU x 10^10)
                -0.0000
    Dipole Moment (Debye)
         X       0.0000      Y      -0.0000      Z       1.1083
       Tot       1.1083
    Quadrupole Moments (Debye-Ang)
        XX     -17.3584     XY      -0.0000     YY     -17.3584
        XZ      -0.0000     YZ      -0.0000     ZZ     -13.9076
    Octopole Moments (Debye-Ang^2)
       XXX      -0.0000    XXY      -0.0000    XYY      -0.0000
       YYY      -0.0000    XXZ     -20.8624    XYZ      -0.0000
       YYZ     -20.8624    XZZ      -0.0000    YZZ      -0.0000
       ZZZ     -49.5674
    Hexadecapole Moments (Debye-Ang^3)
      XXXX     -16.8785   XXXY      -0.0000   XXYY      -5.6262
      XYYY       0.0000   YYYY     -16.8785   XXXZ      -0.0000
      XXYZ      -0.0000   XYYZ      -0.0000   YYYZ      -0.0000
      XXZZ     -39.7423   XYZZ      -0.0000   YYZZ     -39.7423
      XZZZ      -0.0000   YZZZ      -0.0000   ZZZZ    -175.1152
 -----------------------------------------------------------------
Archival summary:
1\1\n0051.mhg0\SP\HF\BasisUnspecified\l11\yhljason\SunAug1623:23:022020SunAug1623:23:022020\0\\#,HF,BasisUnspecified,\\0,1\F\Cl,1,1.6283\\HF=-558.91981\\@

 Total job time:  5545.26s(wall), 82894.84s(cpu) 
 Sun Aug 16 23:23:02 2020

        *************************************************************
        *                                                           *
        *  Thank you very much for using Q-Chem.  Have a nice day.  *
        *                                                           *
        *************************************************************


