Q-Chem Developer Version!
                  Welcome to Q-Chem
     A Quantum Leap Into The Future Of Chemistry


 Q-Chem 5.1, Q-Chem, Inc., Pleasanton, CA (2018)

 Yihan Shao,  Zhengting Gan,  E. Epifanovsky,  A. T. B. Gilbert,  M. Wormit,  
 J. Kussmann,  A. W. Lange,  A. Behn,  Jia Deng,  Xintian Feng,  D. Ghosh,  
 M. Goldey,  P. R. Horn,  L. D. Jacobson,  I. Kaliman,  T. Kus,  A. Landau,  
 Jie Liu,  E. I. Proynov,  R. M. Richard,  R. P. Steele,  E. J. Sundstrom,  
 H. L. Woodcock III,  P. M. Zimmerman,  D. Zuev,  B. Albrecht,  E. Alguire,  
 S. A. Baeppler,  D. Barton,  Z. Benda,  Y. A. Bernard,  E. J. Berquist,  
 K. B. Bravaya,  H. Burton,  D. Casanova,  Chun-Min Chang,  Yunqing Chen,  
 A. Chien,  K. D. Closser,  M. P. Coons,  S. Coriani,  S. Dasgupta,  
 A. L. Dempwolff,  M. Diedenhofen,  Hainam Do,  R. G. Edgar,  Po-Tung Fang,  
 S. Faraji,  S. Fatehi,  Qingguo Feng,  K. D. Fenk,  J. Fosso-Tande,  
 Qinghui Ge,  A. Ghysels,  G. Gidofalvi,  J. Gomes,  J. Gonthier,  A. Gunina,  
 D. Hait,  M. W. D. Hanson-Heine,  P. H. P. Harbach,  A. W. Hauser,  
 J. E. Herr,  E. G. Hohenstein,  Z. C. Holden,  Kerwin Hui,  B. C. Huynh,  
 T.-C. Jagau,  Hyunjun Ji,  B. Kaduk,  K. Khistyaev,  Jaehoon Kim,  
 P. Klunzinger,  K. Koh,  D. Kosenkov,  L. Koulias,  T. Kowalczyk,  
 C. M. Krauter,  A. Kunitsa,  Ka Un Lao,  A. Laurent,  K. V. Lawler,  
 Joonho Lee,  D. Lefrancois,  S. Lehtola,  D. S. Levine,  Yi-Pei Li,  
 You-Sheng Lin,  Fenglai Liu,  E. Livshits,  A. Luenser,  P. Manohar,  
 E. Mansoor,  S. F. Manzer,  Shan-Ping Mao,  Yuezhi Mao,  N. Mardirossian,  
 A. V. Marenich,  T. Markovich,  L. A. Martinez-Martinez,  S. A. Maurer,  
 N. J. Mayhall,  S. C. McKenzie,  J.-M. Mewes,  A. F. Morrison,  
 J. W. Mullinax,  K. Nanda,  T. S. Nguyen-Beck,  R. Olivares-Amaya,  
 J. A. Parkhill,  T. M. Perrine,  F. Plasser,  P. Pokhilko,  S. Prager,  
 A. Prociuk,  E. Ramos,  D. R. Rehn,  F. Rob,  M. Schneider,  N. Sergueev,  
 S. M. Sharada,  S. Sharma,  D. W. Small,  T. Stauch,  T. Stein,  
 Yu-Chuan Su,  A. J. W. Thom,  A. Tkatchenko,  T. Tsuchimochi,  N. M. Tubman,  
 L. Vogt,  M. L. Vidal,  O. Vydrov,  M. A. Watson,  J. Wenzel,  
 M. de Wergifosse,  T. A. Wesolowski,  A. White,  J. Witte,  A. Yamada,  
 Jun Yang,  K. Yao,  S. Yeganeh,  S. R. Yost,  Zhi-Qiang You,  A. Zech,  
 Igor Ying Zhang,  Xing Zhang,  Yan Zhao,  Ying Zhu,  B. R. Brooks,  
 G. K. L. Chan,  C. J. Cramer,  M. S. Gordon,  W. J. Hehre,  A. Klamt,  
 M. W. Schmidt,  C. D. Sherrill,  D. G. Truhlar,  A. Aspuru-Guzik,  R. Baer,  
 A. T. Bell,  N. A. Besley,  Jeng-Da Chai,  A. E. DePrince, III,  
 R. A. DiStasio Jr.,  A. Dreuw,  B. D. Dunietz,  T. R. Furlani,  
 Chao-Ping Hsu,  Yousung Jung,  Jing Kong,  D. S. Lambrecht,  WanZhen Liang,  
 C. Ochsenfeld,  V. A. Rassolov,  L. V. Slipchenko,  J. E. Subotnik,  
 T. Van Voorhis,  J. M. Herbert,  A. I. Krylov,  P. M. W. Gill,  M. Head-Gordon

 Contributors to earlier versions of Q-Chem not listed above: 
 R. D. Adamson,  B. Austin,  J. Baker,  G. J. O. Beran,  K. Brandhorst,  
 S. T. Brown,  E. F. C. Byrd,  A. K. Chakraborty,  C.-L. Cheng,  
 Siu Hung Chien,  D. M. Chipman,  D. L. Crittenden,  H. Dachsel,  
 R. J. Doerksen,  A. D. Dutoi,  L. Fusti-Molnar,  W. A. Goddard III,  
 A. Golubeva-Zadorozhnaya,  S. R. Gwaltney,  G. Hawkins,  A. Heyden,  
 S. Hirata,  G. Kedziora,  F. J. Keil,  C. Kelley,  Jihan Kim,  R. A. King,  
 R. Z. Khaliullin,  P. P. Korambath,  W. Kurlancheek,  A. M. Lee,  M. S. Lee,  
 S. V. Levchenko,  Ching Yeh Lin,  D. Liotard,  R. C. Lochan,  I. Lotan,  
 P. E. Maslen,  N. Nair,  D. P. O'Neill,  D. Neuhauser,  E. Neuscamman,  
 C. M. Oana,  R. Olson,  B. Peters,  R. Peverati,  P. A. Pieniazek,  
 Y. M. Rhee,  J. Ritchie,  M. A. Rohrdanz,  E. Rosta,  N. J. Russ,  
 H. F. Schaefer III,  N. E. Schultz,  N. Shenvi,  A. C. Simmonett,  A. Sodt,  
 D. Stuck,  K. S. Thanthiriwatte,  V. Vanovschi,  Tao Wang,  A. Warshel,  
 C. F. Williams,  Q. Wu,  X. Xu,  W. Zhang

 Please cite Q-Chem as follows:
 Y. Shao et al., Mol. Phys. 113, 184-215 (2015)
 DOI: 10.1080/00268976.2014.952696

 Q-Chem 5.1.1 for Intel X86 EM64T Linux

 Parts of Q-Chem use Armadillo 8.300.2 (Tropical Shenanigans).
 http://arma.sourceforge.net/

 Q-Chem begins on Mon Jul 13 10:40:04 2020  

Host: n0056.mhg0
0

     Scratch files written to /local/scratch/users/yhljason/BH3_ccsdT_aug-cc-pcVQZ.inp20200713022958//
Input Ideriv = 0
Curr. Ideriv = -1
Max.  Ideriv = 0

Checking the input file for inconsistencies... 	...done.

--------------------------------------------------------------
User input:
--------------------------------------------------------------
$molecule
0 1
B1	0.0000	0.0000	0.0000
H2	0.0000	1.1900	0.0000
H3	1.0306	-0.5950	0.0000
H4	-1.0306	-0.5950	0.0000
$end

$rem
jobtype sp
method CCSD(T)
xc_grid 000099000590
basis aug-cc-pcVQZ
max_scf_cycles 200
thresh 14
scf_convergence 8
scf_algorithm gdm
symmetry false
sym_ignore true
unrestricted true
gen_scfman true
internal_stability_iter 15
internal_stability_davidson_iter 200
mem_total 128000
cc_memory 96000
cc_backend xm
mem_static 1500
n_frozen_core 0
$end


--------------------------------------------------------------
 ----------------------------------------------------------------
             Standard Nuclear Orientation (Angstroms)
    I     Atom           X                Y                Z
 ----------------------------------------------------------------
    1      B       0.0000000000     0.0000000000     0.0000000000
    2      H       0.0000000000     1.1900000000     0.0000000000
    3      H       1.0306000000    -0.5950000000     0.0000000000
    4      H      -1.0306000000    -0.5950000000     0.0000000000
 ----------------------------------------------------------------
 Nuclear Repulsion Energy =     7.4404135262 hartrees
 There are        4 alpha and        4 beta electrons
 Requested basis set is aug-cc-pCVQZ
 There are 71 shells and 247 basis functions
 Total memory of 128000MB is distributed as follows: 
   QALLOC including MEM_STATIC uses 32000MB
   MEM_STATIC is set to 1500MB
   CCMAN JOB total memory use is  96000MB
 Warning: actual memory use might exceed 128000MB

 Total QAlloc Memory Limit  32000 MB
 Mega-Array Size      1467 MB
 MEM_STATIC part      1500 MB

                       Distance Matrix (Angstroms)
             B (  1)   H (  2)   H (  3)
   H (  2)  1.190000
   H (  3)  1.190026  2.061155
   H (  4)  1.190026  2.061155  2.061200
 
 A cutoff of  1.0D-14 yielded   2556 shell pairs
 There are     31120 function pairs (     47305 Cartesian)
 
 -------------------------------------------------------
 OpenMP Integral Computing Module                       
 Release: version 1.0, May 2013, Q-Chem Inc. Pittsburgh 
 -------------------------------------------------------
 Integral Job Info:
 Integral job number is                      11
 Integral operator is                         1
 short-range coefficients                     0
 long-range coefficients              100000000
 Omega coefficients                           0
 if combine SR and LR in K                    0
 Integral screening is                        0
 Integral computing path is                   2
 max size of driver memory is           3200000
 size of driver memory is               1704330
 size of scratch memory is             18511652
 max col of scratch BK array              50625
 max len of scratch array in speh3         2114
 max len of scratch index in speh4           50
 max int batch size is                      520
 min int batch size is                       52
 fixed nKL is                                52
 max L of basis functions is                  4
 order of int derivative is                   0
 number of shells is                         71
 number of basis is                         304
 number of cartesian basis is               304
 number of contracted shell pairs          2556
 number of primitive shell pairs           4503
 maxK2 (contraction) of shell pair           81
 max number of K2 of shell pair               1
 max number of CS2 of shell pair            364
 max number of PS2 of shell pair            369
 mem total for path MDJ                  671149
 -------------------------------------------------------
 Smallest overlap matrix eigenvalue = 2.66E-05

 Scale SEOQF with 1.000000e-01/1.000000e-01/1.000000e-01

 Standard Electronic Orientation quadrupole field applied
 Nucleus-field energy     =     0.0000000002 hartrees
 Guess from superposition of atomic densities
 Warning:  Energy on first SCF cycle will be non-variational
 SAD guess density has 8.000000 electrons

 -----------------------------------------------------------------------
  General SCF calculation program by
  Eric Jon Sundstrom, Paul Horn, Yuezhi Mao, Dmitri Zuev, Alec White,
  David Stuck, Shaama M.S., Shane Yost, Joonho Lee, David Small,
  Daniel Levine, Susi Lehtola, Hugh Burton, Evgeny Epifanovsky
 -----------------------------------------------------------------------
Running Object-Oriented UHF
performing a single roothaan step with Fock from read density so that orbitals are available to all algorithms
energy of the guess density (C=0) -26.246855741035
We will preform up to 15 macro iterations over saddle points until a stable solution is found
Energy prior to optimization (guess energy) = -26.389305986087
Begin Timing: Total SCF Calculation
Begin Timing: SCF Single Stationary Point Calculation
begin iterations for algorithm: GDM          
the SCF tolerance is set to 1.00e-08
    1     -26.3893059861      3.06e-02     00000  Normal BFGS step
    2     -26.4013769755      1.03e-02     00000  Normal BFGS step
    3     -26.4021887836      6.58e-04     00000  Normal BFGS step
    4     -26.4021926737      1.52e-04     00000  Normal BFGS step
    5     -26.4021928487      1.16e-05     00000  Normal BFGS step
    6     -26.4021928500      2.73e-06     00000  Normal BFGS step
    7     -26.4021928501      3.42e-07     00000  Normal BFGS step
    8     -26.4021928501      1.25e-07     00000  Normal BFGS step
    9     -26.4021928501      9.58e-09     00000 Convergence criterion met
Timing for Single Stationary Point: 89.00s (wall), 715.17s (cpu)
Begin Timing: Stability
===================================================
Beginning Test for Internal Stability
===================================================
generating davidson guess vectors based on koopmans excitations
    1      6.25e-01     00000 Davidson Iteration
    2      7.47e-01     00000 Davidson Iteration
    3      1.59e-01     00000 Davidson Iteration
    4      2.03e-02     00000 Davidson Iteration
    5      2.56e-03     00000 Davidson Iteration
    6      7.96e-04     00000 Davidson Iteration
    7      1.17e-04     00000 Davidson Iteration
    8      6.04e-05     00000 Davidson Iteration
    9      1.23e-04     00000 Davidson Iteration
   10      9.04e-05     00000 Davidson Converged
converged_eigenvalues
   0.3384
   0.5167
Threshold for negative eigenvalues: -1.0e-05
solution was a local minimum (stable)
===================================================
End Test for Internal Stability
===================================================
Our SCF solution is stable!
Timing for Total SCF: 272.00s (wall), 2176.03s (cpu)
 Total energy in the final basis set =      -26.4021928501
<S^2> =         -0.000000000
    ==================================================
              The end of Object-Oriented SCFman       
    ==================================================


 ------------------------------------------------------------------------------

   CCMAN2: suite of methods based on coupled cluster
           and equation of motion theories.

   Components:
   * libvmm-1.3-trunk
     by Evgeny Epifanovsky, Ilya Kaliman.
   * libtensor-2.5-trunk
     by Evgeny Epifanovsky, Michael Wormit, Dmitry Zuev, Sam Manzer, 
        Ilya Kaliman.
   * libcc-2.5-trunk
     by Evgeny Epifanovsky, Arik Landau, Tomasz Kus, Kirill Khistyaev, 
        Dmitry Zuev, Prashant Manohar, Xintian Feng, Anna Krylov, 
        Matthew Goldey, Alec White, Thomas Jagau, Kaushik Nanda, 
        Anastasia Gunina, Alexander Kunitsa, Joonho Lee.

   CCMAN original authors:
   Anna I. Krylov, C. David Sherrill, Steven R. Gwaltney,
   Edward F. C. Byrd (2000)
   Sergey V. Levchenko, Lyudmila V. Slipchenko, Tao Wang,
   Ana-Maria C. Cristian (2003)
   Piotr A. Pieniazek, C. Melania Oana, Evgeny Epifanovsky (2007)
   Prashant Manohar (2009)

 ------------------------------------------------------------------------------


 Calculation will run on 8 cores using libxm for tensor contractions

 ------------------------------------------------------------------------------
Libxm Tensor Library
Copyright (c) 2014-2018 Ilya Kaliman
https://github.com/ilyak/libxm
Reference: https://dx.doi.org/10.1002/jcc.24713
 ------------------------------------------------------------------------------

 
 Alpha MOs, Unrestricted
 -- Occupied --                  
 -7.611  -0.704  -0.499  -0.499
  1 A     2 A     3 A     4 A                                                  
 -- Virtual --                   
  0.028   0.029   0.037   0.037   0.077   0.077   0.086   0.103
  5 A     6 A     7 A     8 A     9 A    10 A    11 A    12 A                  
  0.126   0.126   0.135   0.141   0.141   0.216   0.216   0.236
 13 A    14 A    15 A    16 A    17 A    18 A    19 A    20 A                  
  0.260   0.260   0.278   0.278   0.284   0.286   0.286   0.315
 21 A    22 A    23 A    24 A    25 A    26 A    27 A    28 A                  
  0.315   0.333   0.394   0.433   0.433   0.483   0.483   0.512
 29 A    30 A    31 A    32 A    33 A    34 A    35 A    36 A                  
  0.523   0.523   0.569   0.569   0.570   0.600   0.600   0.613
 37 A    38 A    39 A    40 A    41 A    42 A    43 A    44 A                  
  0.615   0.708   0.732   0.760   0.760   0.767   0.798   0.798
 45 A    46 A    47 A    48 A    49 A    50 A    51 A    52 A                  
  0.803   0.803   0.866   0.888   0.888   0.925   0.925   0.925
 53 A    54 A    55 A    56 A    57 A    58 A    59 A    60 A                  
  0.945   0.945   0.958   1.048   1.144   1.144   1.192   1.192
 61 A    62 A    63 A    64 A    65 A    66 A    67 A    68 A                  
  1.219   1.268   1.291   1.291   1.292   1.516   1.516   1.525
 69 A    70 A    71 A    72 A    73 A    74 A    75 A    76 A                  
  1.529   1.529   1.550   1.568   1.568   1.607   1.628   1.628
 77 A    78 A    79 A    80 A    81 A    82 A    83 A    84 A                  
  1.686   1.718   1.718   1.815   1.815   1.818   1.818   1.833
 85 A    86 A    87 A    88 A    89 A    90 A    91 A    92 A                  
  1.858   1.900   1.938   1.938   1.982   2.017   2.023   2.023
 93 A    94 A    95 A    96 A    97 A    98 A    99 A   100 A                  
  2.023   2.127   2.127   2.138   2.138   2.207   2.207   2.226
101 A   102 A   103 A   104 A   105 A   106 A   107 A   108 A                  
  2.238   2.260   2.260   2.274   2.274   2.360   2.377   2.397
109 A   110 A   111 A   112 A   113 A   114 A   115 A   116 A                  
  2.416   2.416   2.764   2.901   2.901   3.031   3.155   3.155
117 A   118 A   119 A   120 A   121 A   122 A   123 A   124 A                  
  3.202   3.202   3.302   3.302   3.351   3.353   3.385   3.387
125 A   126 A   127 A   128 A   129 A   130 A   131 A   132 A                  
  3.387   3.414   3.414   3.519   3.601   3.601   3.636   3.636
133 A   134 A   135 A   136 A   137 A   138 A   139 A   140 A                  
  3.776   3.913   3.983   4.105   4.182   4.182   4.207   4.207
141 A   142 A   143 A   144 A   145 A   146 A   147 A   148 A                  
  4.255   4.340   4.340   4.355   4.450   4.450   4.482   4.482
149 A   150 A   151 A   152 A   153 A   154 A   155 A   156 A                  
  4.803   4.921   5.137   5.137   5.323   5.329   5.329   5.356
157 A   158 A   159 A   160 A   161 A   162 A   163 A   164 A                  
  5.472   5.472   5.547   6.015   6.015   6.707   6.760   6.760
165 A   166 A   167 A   168 A   169 A   170 A   171 A   172 A                  
  6.902   6.917   6.917   7.163   7.163   7.497   7.530   7.530
173 A   174 A   175 A   176 A   177 A   178 A   179 A   180 A                  
  7.666   7.833   7.833   7.849   7.849   7.896   8.022   8.157
181 A   182 A   183 A   184 A   185 A   186 A   187 A   188 A                  
  8.157   8.188   8.240   8.635   8.638   8.638   8.964   8.964
189 A   190 A   191 A   192 A   193 A   194 A   195 A   196 A                  
  9.083   9.083   9.132   9.174   9.174   9.215   9.438   9.475
197 A   198 A   199 A   200 A   201 A   202 A   203 A   204 A                  
  9.489   9.489   9.518   9.682   9.682   9.885   9.973   9.973
205 A   206 A   207 A   208 A   209 A   210 A   211 A   212 A                  
 10.026  10.512  10.512  11.437  11.437  12.108  13.178  14.786
213 A   214 A   215 A   216 A   217 A   218 A   219 A   220 A                  
 14.786  20.014  20.014  20.727  21.109  21.110  26.100  45.257
221 A   222 A   223 A   224 A   225 A   226 A   227 A   228 A                  
 46.364  46.364  76.007  76.010  76.010  76.010  76.010  76.047
229 A   230 A   231 A   232 A   233 A   234 A   235 A   236 A                  
 76.057  84.524  86.304  86.304  86.847  86.847  86.856 152.528
237 A   238 A   239 A   240 A   241 A   242 A   243 A   244 A                  
153.426 153.426 350.086
245 A   246 A   247 A                                                          
 
 Beta MOs, Unrestricted
 -- Occupied --                  
 -7.611  -0.704  -0.499  -0.499
  1 A     2 A     3 A     4 A                                                  
 -- Virtual --                   
  0.028   0.029   0.037   0.037   0.077   0.077   0.086   0.103
  5 A     6 A     7 A     8 A     9 A    10 A    11 A    12 A                  
  0.126   0.126   0.135   0.141   0.141   0.216   0.216   0.236
 13 A    14 A    15 A    16 A    17 A    18 A    19 A    20 A                  
  0.260   0.260   0.278   0.278   0.284   0.286   0.286   0.315
 21 A    22 A    23 A    24 A    25 A    26 A    27 A    28 A                  
  0.315   0.333   0.394   0.433   0.433   0.483   0.483   0.512
 29 A    30 A    31 A    32 A    33 A    34 A    35 A    36 A                  
  0.523   0.523   0.569   0.569   0.570   0.600   0.600   0.613
 37 A    38 A    39 A    40 A    41 A    42 A    43 A    44 A                  
  0.615   0.708   0.732   0.760   0.760   0.767   0.798   0.798
 45 A    46 A    47 A    48 A    49 A    50 A    51 A    52 A                  
  0.803   0.803   0.866   0.888   0.888   0.925   0.925   0.925
 53 A    54 A    55 A    56 A    57 A    58 A    59 A    60 A                  
  0.945   0.945   0.958   1.048   1.144   1.144   1.192   1.192
 61 A    62 A    63 A    64 A    65 A    66 A    67 A    68 A                  
  1.219   1.268   1.291   1.291   1.292   1.516   1.516   1.525
 69 A    70 A    71 A    72 A    73 A    74 A    75 A    76 A                  
  1.529   1.529   1.550   1.568   1.568   1.607   1.628   1.628
 77 A    78 A    79 A    80 A    81 A    82 A    83 A    84 A                  
  1.686   1.718   1.718   1.815   1.815   1.818   1.818   1.833
 85 A    86 A    87 A    88 A    89 A    90 A    91 A    92 A                  
  1.858   1.900   1.938   1.938   1.982   2.017   2.023   2.023
 93 A    94 A    95 A    96 A    97 A    98 A    99 A   100 A                  
  2.023   2.127   2.127   2.138   2.138   2.207   2.207   2.226
101 A   102 A   103 A   104 A   105 A   106 A   107 A   108 A                  
  2.238   2.260   2.260   2.274   2.274   2.360   2.377   2.397
109 A   110 A   111 A   112 A   113 A   114 A   115 A   116 A                  
  2.416   2.416   2.764   2.901   2.901   3.031   3.155   3.155
117 A   118 A   119 A   120 A   121 A   122 A   123 A   124 A                  
  3.202   3.202   3.302   3.302   3.351   3.353   3.385   3.387
125 A   126 A   127 A   128 A   129 A   130 A   131 A   132 A                  
  3.387   3.414   3.414   3.519   3.601   3.601   3.636   3.636
133 A   134 A   135 A   136 A   137 A   138 A   139 A   140 A                  
  3.776   3.913   3.983   4.105   4.182   4.182   4.207   4.207
141 A   142 A   143 A   144 A   145 A   146 A   147 A   148 A                  
  4.255   4.340   4.340   4.355   4.450   4.450   4.482   4.482
149 A   150 A   151 A   152 A   153 A   154 A   155 A   156 A                  
  4.803   4.921   5.137   5.137   5.323   5.329   5.329   5.356
157 A   158 A   159 A   160 A   161 A   162 A   163 A   164 A                  
  5.472   5.472   5.547   6.015   6.015   6.707   6.760   6.760
165 A   166 A   167 A   168 A   169 A   170 A   171 A   172 A                  
  6.902   6.917   6.917   7.163   7.163   7.497   7.530   7.530
173 A   174 A   175 A   176 A   177 A   178 A   179 A   180 A                  
  7.666   7.833   7.833   7.849   7.849   7.896   8.022   8.157
181 A   182 A   183 A   184 A   185 A   186 A   187 A   188 A                  
  8.157   8.188   8.240   8.635   8.638   8.638   8.964   8.964
189 A   190 A   191 A   192 A   193 A   194 A   195 A   196 A                  
  9.083   9.083   9.132   9.174   9.174   9.215   9.438   9.475
197 A   198 A   199 A   200 A   201 A   202 A   203 A   204 A                  
  9.489   9.489   9.518   9.682   9.682   9.885   9.973   9.973
205 A   206 A   207 A   208 A   209 A   210 A   211 A   212 A                  
 10.026  10.512  10.512  11.437  11.437  12.108  13.178  14.786
213 A   214 A   215 A   216 A   217 A   218 A   219 A   220 A                  
 14.786  20.014  20.014  20.727  21.109  21.110  26.100  45.257
221 A   222 A   223 A   224 A   225 A   226 A   227 A   228 A                  
 46.364  46.364  76.007  76.010  76.010  76.010  76.010  76.047
229 A   230 A   231 A   232 A   233 A   234 A   235 A   236 A                  
 76.057  84.524  86.304  86.304  86.847  86.847  86.856 152.528
237 A   238 A   239 A   240 A   241 A   242 A   243 A   244 A                  
153.426 153.426 350.086
245 A   246 A   247 A                                                          

 Occupation and symmetry of molecular orbitals

 Point group: C1 (1 irreducible representation).

                           A     All 
 -------------------------------------
 All molecular orbitals:
  - Alpha                  247   247 
  - Beta                   247   247 
 -------------------------------------
 Alpha orbitals:
  - Frozen occupied        0     0   
  - Active occupied        4     4   
  - Active virtual         243   243 
  - Frozen virtual         0     0   
 -------------------------------------
 Beta orbitals:
  - Frozen occupied        0     0   
  - Active occupied        4     4   
  - Active virtual         243   243 
  - Frozen virtual         0     0   
 -------------------------------------

 Import integrals:   CPU 0.00 s  wall 0.00 s

 Import integrals:   CPU 2305.27 s  wall 439.73 s

 MP2 amplitudes:   CPU 2.00 s  wall 0.80 s

Running a double precision version
           CCSD T amplitudes will be solved using DIIS.

           Start     Size      MaxIter   EConv     TConv     
           3         7         100       1.00e-06  1.00e-04  
 ------------------------------------------------------------------------------
           Energy (a.u.)   Ediff      Tdiff       Comment
 ------------------------------------------------------------------------------
           -26.57174055                           
     1     -26.58751139   1.58e-02   3.33e-01     
     2     -26.59181734   4.31e-03   5.23e-02     
     3     -26.59294183   1.12e-03   1.63e-02     
     4     -26.59352845   5.87e-04   8.30e-03     Switched to DIIS steps.
     5     -26.59354429   1.58e-05   9.14e-04     
     6     -26.59354380   4.89e-07   2.97e-04     
     7     -26.59354362   1.80e-07   7.40e-05     
 ------------------------------------------------------------------------------
           -26.59354362                           CCSD T converged.

End of double precision

----------------------------------------
libpt (c) 2016-2018 Ilya Kaliman
Fast Coupled Cluster Triples Corrections
https://github.com/ilyak/libpt
----------------------------------------

 Starting (T) calculation...
 Using double precision libpt code
 (T) calculation completed in 77 sec
 (T) energy is -0.0031587946

 SCF energy                 = -26.40219285
 MP2 energy                 = -26.57174055
 CCSD correlation energy     =  -0.19135077
 CCSD total energy           = -26.59354362
 CCSD(T) correlation energy =  -0.00315879
 CCSD(T) total energy       = -26.59670241

 CCSD  T1^2 = 0.0008  T2^2 = 0.0633  Leading amplitudes:

 Amplitude    Orbitals with energies
  0.0066       4 (A) A                   ->    34 (A) A                   
              -0.4986                          0.4830                     
  0.0066       4 (A) B                   ->    34 (A) B                   
              -0.4986                          0.4830                     
  0.0066       3 (A) A                   ->    35 (A) A                   
              -0.4986                          0.4830                     
  0.0066       3 (A) B                   ->    35 (A) B                   
              -0.4986                          0.4830                     

 Amplitude    Orbitals with energies
 -0.0263       2 (A) A       2 (A) B     ->    11 (A) A      11 (A) B     
              -0.7045       -0.7045            0.0858        0.0858       
  0.0263       2 (A) A       2 (A) B     ->    11 (A) B      11 (A) A     
              -0.7045       -0.7045            0.0858        0.0858       
  0.0263       2 (A) B       2 (A) A     ->    11 (A) A      11 (A) B     
              -0.7045       -0.7045            0.0858        0.0858       
 -0.0263       2 (A) B       2 (A) A     ->    11 (A) B      11 (A) A     
              -0.7045       -0.7045            0.0858        0.0858       

 CCSD calculation:   CPU 2404.85 s  wall 359.63 s

 Total ccman2 time:   CPU 4760.94 s  wall 838.34 s

 
 --------------------------------------------------------------
 
                    Orbital Energies (a.u.)
 --------------------------------------------------------------
 
 Alpha MOs
 -- Occupied --
 -7.611  -0.704  -0.499  -0.499
 -- Virtual --
  0.028   0.029   0.037   0.037   0.077   0.077   0.086   0.103
  0.126   0.126   0.135   0.141   0.141   0.216   0.216   0.236
  0.260   0.260   0.278   0.278   0.284   0.286   0.286   0.315
  0.315   0.333   0.394   0.433   0.433   0.483   0.483   0.512
  0.523   0.523   0.569   0.569   0.570   0.600   0.600   0.613
  0.615   0.708   0.732   0.760   0.760   0.767   0.798   0.798
  0.803   0.803   0.866   0.888   0.888   0.925   0.925   0.925
  0.945   0.945   0.958   1.048   1.144   1.144   1.192   1.192
  1.219   1.268   1.291   1.291   1.292   1.516   1.516   1.525
  1.529   1.529   1.550   1.568   1.568   1.607   1.628   1.628
  1.686   1.718   1.718   1.815   1.815   1.818   1.818   1.833
  1.858   1.900   1.938   1.938   1.982   2.017   2.023   2.023
  2.023   2.127   2.127   2.138   2.138   2.207   2.207   2.226
  2.238   2.260   2.260   2.274   2.274   2.360   2.377   2.397
  2.416   2.416   2.764   2.901   2.901   3.031   3.155   3.155
  3.202   3.202   3.302   3.302   3.351   3.353   3.385   3.387
  3.387   3.414   3.414   3.519   3.601   3.601   3.636   3.636
  3.776   3.913   3.983   4.105   4.182   4.182   4.207   4.207
  4.255   4.340   4.340   4.355   4.450   4.450   4.482   4.482
  4.803   4.921   5.137   5.137   5.323   5.329   5.329   5.356
  5.472   5.472   5.547   6.015   6.015   6.707   6.760   6.760
  6.902   6.917   6.917   7.163   7.163   7.497   7.530   7.530
  7.666   7.833   7.833   7.849   7.849   7.896   8.022   8.157
  8.157   8.188   8.240   8.635   8.638   8.638   8.964   8.964
  9.083   9.083   9.132   9.174   9.174   9.215   9.438   9.475
  9.489   9.489   9.518   9.682   9.682   9.885   9.973   9.973
 10.026  10.512  10.512  11.437  11.437  12.108  13.178  14.786
 14.786  20.014  20.014  20.727  21.109  21.110  26.100  45.257
 46.364  46.364  76.007  76.010  76.010  76.010  76.010  76.047
 76.057  84.524  86.304  86.304  86.847  86.847  86.856 152.528
153.426 153.426 350.086
 
 Beta MOs
 -- Occupied --
 -7.611  -0.704  -0.499  -0.499
 -- Virtual --
  0.028   0.029   0.037   0.037   0.077   0.077   0.086   0.103
  0.126   0.126   0.135   0.141   0.141   0.216   0.216   0.236
  0.260   0.260   0.278   0.278   0.284   0.286   0.286   0.315
  0.315   0.333   0.394   0.433   0.433   0.483   0.483   0.512
  0.523   0.523   0.569   0.569   0.570   0.600   0.600   0.613
  0.615   0.708   0.732   0.760   0.760   0.767   0.798   0.798
  0.803   0.803   0.866   0.888   0.888   0.925   0.925   0.925
  0.945   0.945   0.958   1.048   1.144   1.144   1.192   1.192
  1.219   1.268   1.291   1.291   1.292   1.516   1.516   1.525
  1.529   1.529   1.550   1.568   1.568   1.607   1.628   1.628
  1.686   1.718   1.718   1.815   1.815   1.818   1.818   1.833
  1.858   1.900   1.938   1.938   1.982   2.017   2.023   2.023
  2.023   2.127   2.127   2.138   2.138   2.207   2.207   2.226
  2.238   2.260   2.260   2.274   2.274   2.360   2.377   2.397
  2.416   2.416   2.764   2.901   2.901   3.031   3.155   3.155
  3.202   3.202   3.302   3.302   3.351   3.353   3.385   3.387
  3.387   3.414   3.414   3.519   3.601   3.601   3.636   3.636
  3.776   3.913   3.983   4.105   4.182   4.182   4.207   4.207
  4.255   4.340   4.340   4.355   4.450   4.450   4.482   4.482
  4.803   4.921   5.137   5.137   5.323   5.329   5.329   5.356
  5.472   5.472   5.547   6.015   6.015   6.707   6.760   6.760
  6.902   6.917   6.917   7.163   7.163   7.497   7.530   7.530
  7.666   7.833   7.833   7.849   7.849   7.896   8.022   8.157
  8.157   8.188   8.240   8.635   8.638   8.638   8.964   8.964
  9.083   9.083   9.132   9.174   9.174   9.215   9.438   9.475
  9.489   9.489   9.518   9.682   9.682   9.885   9.973   9.973
 10.026  10.512  10.512  11.437  11.437  12.108  13.178  14.786
 14.786  20.014  20.014  20.727  21.109  21.110  26.100  45.257
 46.364  46.364  76.007  76.010  76.010  76.010  76.010  76.047
 76.057  84.524  86.304  86.304  86.847  86.847  86.856 152.528
153.426 153.426 350.086
 --------------------------------------------------------------
 
          Ground-State Mulliken Net Atomic Charges

     Atom                 Charge (a.u.)    Spin (a.u.)
  --------------------------------------------------------
      1 B                     0.255019       0.000000
      2 H                    -0.085005       0.000000
      3 H                    -0.085007       0.000000
      4 H                    -0.085007       0.000000
  --------------------------------------------------------
  Sum of atomic charges =    -0.000000
  Sum of spin   charges =     0.000000

 -----------------------------------------------------------------
                    Cartesian Multipole Moments
 -----------------------------------------------------------------
    Charge (ESU x 10^10)
                 0.0000
    Dipole Moment (Debye)
         X       0.0000      Y       0.0000      Z       0.0000
       Tot       0.0000
    Quadrupole Moments (Debye-Ang)
        XX      -9.4242     XY      -0.0000     YY      -9.4242
        XZ      -0.0000     YZ       0.0000     ZZ      -7.1129
    Octopole Moments (Debye-Ang^2)
       XXX       0.0000    XXY       0.0176    XYY       0.0000
       YYY      -0.0174    XXZ      -0.0000    XYZ      -0.0000
       YYZ      -0.0000    XZZ       0.0000    YZZ       0.0001
       ZZZ      -0.0000
    Hexadecapole Moments (Debye-Ang^3)
      XXXX     -24.4263   XXXY      -0.0000   XXYY      -8.1420
      XYYY      -0.0000   YYYY     -24.4256   XXXZ      -0.0000
      XXYZ      -0.0000   XYYZ      -0.0000   YYYZ      -0.0000
      XXZZ      -5.5554   XYZZ      -0.0000   YYZZ      -5.5553
      XZZZ      -0.0000   YZZZ      -0.0000   ZZZZ      -7.1786
 -----------------------------------------------------------------
Archival summary:
1\1\n0056.mhg0\SP\ProcedureUnspecified\BasisUnspecified\13\yhljason\MonJul1311:01:102020MonJul1311:01:102020\0\\#,ProcedureUnspecified,BasisUnspecified,\\0,1\B\H,1,1.19\H,1,1.19003,2,119.999\H,1,1.19003,2,119.999,3,-180,0\\HF=-26.4021929\\@

 Total job time:  1266.17s(wall), 7063.35s(cpu) 
 Mon Jul 13 11:01:10 2020

        *************************************************************
        *                                                           *
        *  Thank you very much for using Q-Chem.  Have a nice day.  *
        *                                                           *
        *************************************************************


 
User input: 2 of 7 
 
Q-Chem Developer Version!
                  Welcome to Q-Chem
     A Quantum Leap Into The Future Of Chemistry


 Q-Chem 5.1, Q-Chem, Inc., Pleasanton, CA (2018)

 Yihan Shao,  Zhengting Gan,  E. Epifanovsky,  A. T. B. Gilbert,  M. Wormit,  
 J. Kussmann,  A. W. Lange,  A. Behn,  Jia Deng,  Xintian Feng,  D. Ghosh,  
 M. Goldey,  P. R. Horn,  L. D. Jacobson,  I. Kaliman,  T. Kus,  A. Landau,  
 Jie Liu,  E. I. Proynov,  R. M. Richard,  R. P. Steele,  E. J. Sundstrom,  
 H. L. Woodcock III,  P. M. Zimmerman,  D. Zuev,  B. Albrecht,  E. Alguire,  
 S. A. Baeppler,  D. Barton,  Z. Benda,  Y. A. Bernard,  E. J. Berquist,  
 K. B. Bravaya,  H. Burton,  D. Casanova,  Chun-Min Chang,  Yunqing Chen,  
 A. Chien,  K. D. Closser,  M. P. Coons,  S. Coriani,  S. Dasgupta,  
 A. L. Dempwolff,  M. Diedenhofen,  Hainam Do,  R. G. Edgar,  Po-Tung Fang,  
 S. Faraji,  S. Fatehi,  Qingguo Feng,  K. D. Fenk,  J. Fosso-Tande,  
 Qinghui Ge,  A. Ghysels,  G. Gidofalvi,  J. Gomes,  J. Gonthier,  A. Gunina,  
 D. Hait,  M. W. D. Hanson-Heine,  P. H. P. Harbach,  A. W. Hauser,  
 J. E. Herr,  E. G. Hohenstein,  Z. C. Holden,  Kerwin Hui,  B. C. Huynh,  
 T.-C. Jagau,  Hyunjun Ji,  B. Kaduk,  K. Khistyaev,  Jaehoon Kim,  
 P. Klunzinger,  K. Koh,  D. Kosenkov,  L. Koulias,  T. Kowalczyk,  
 C. M. Krauter,  A. Kunitsa,  Ka Un Lao,  A. Laurent,  K. V. Lawler,  
 Joonho Lee,  D. Lefrancois,  S. Lehtola,  D. S. Levine,  Yi-Pei Li,  
 You-Sheng Lin,  Fenglai Liu,  E. Livshits,  A. Luenser,  P. Manohar,  
 E. Mansoor,  S. F. Manzer,  Shan-Ping Mao,  Yuezhi Mao,  N. Mardirossian,  
 A. V. Marenich,  T. Markovich,  L. A. Martinez-Martinez,  S. A. Maurer,  
 N. J. Mayhall,  S. C. McKenzie,  J.-M. Mewes,  A. F. Morrison,  
 J. W. Mullinax,  K. Nanda,  T. S. Nguyen-Beck,  R. Olivares-Amaya,  
 J. A. Parkhill,  T. M. Perrine,  F. Plasser,  P. Pokhilko,  S. Prager,  
 A. Prociuk,  E. Ramos,  D. R. Rehn,  F. Rob,  M. Schneider,  N. Sergueev,  
 S. M. Sharada,  S. Sharma,  D. W. Small,  T. Stauch,  T. Stein,  
 Yu-Chuan Su,  A. J. W. Thom,  A. Tkatchenko,  T. Tsuchimochi,  N. M. Tubman,  
 L. Vogt,  M. L. Vidal,  O. Vydrov,  M. A. Watson,  J. Wenzel,  
 M. de Wergifosse,  T. A. Wesolowski,  A. White,  J. Witte,  A. Yamada,  
 Jun Yang,  K. Yao,  S. Yeganeh,  S. R. Yost,  Zhi-Qiang You,  A. Zech,  
 Igor Ying Zhang,  Xing Zhang,  Yan Zhao,  Ying Zhu,  B. R. Brooks,  
 G. K. L. Chan,  C. J. Cramer,  M. S. Gordon,  W. J. Hehre,  A. Klamt,  
 M. W. Schmidt,  C. D. Sherrill,  D. G. Truhlar,  A. Aspuru-Guzik,  R. Baer,  
 A. T. Bell,  N. A. Besley,  Jeng-Da Chai,  A. E. DePrince, III,  
 R. A. DiStasio Jr.,  A. Dreuw,  B. D. Dunietz,  T. R. Furlani,  
 Chao-Ping Hsu,  Yousung Jung,  Jing Kong,  D. S. Lambrecht,  WanZhen Liang,  
 C. Ochsenfeld,  V. A. Rassolov,  L. V. Slipchenko,  J. E. Subotnik,  
 T. Van Voorhis,  J. M. Herbert,  A. I. Krylov,  P. M. W. Gill,  M. Head-Gordon

 Contributors to earlier versions of Q-Chem not listed above: 
 R. D. Adamson,  B. Austin,  J. Baker,  G. J. O. Beran,  K. Brandhorst,  
 S. T. Brown,  E. F. C. Byrd,  A. K. Chakraborty,  C.-L. Cheng,  
 Siu Hung Chien,  D. M. Chipman,  D. L. Crittenden,  H. Dachsel,  
 R. J. Doerksen,  A. D. Dutoi,  L. Fusti-Molnar,  W. A. Goddard III,  
 A. Golubeva-Zadorozhnaya,  S. R. Gwaltney,  G. Hawkins,  A. Heyden,  
 S. Hirata,  G. Kedziora,  F. J. Keil,  C. Kelley,  Jihan Kim,  R. A. King,  
 R. Z. Khaliullin,  P. P. Korambath,  W. Kurlancheek,  A. M. Lee,  M. S. Lee,  
 S. V. Levchenko,  Ching Yeh Lin,  D. Liotard,  R. C. Lochan,  I. Lotan,  
 P. E. Maslen,  N. Nair,  D. P. O'Neill,  D. Neuhauser,  E. Neuscamman,  
 C. M. Oana,  R. Olson,  B. Peters,  R. Peverati,  P. A. Pieniazek,  
 Y. M. Rhee,  J. Ritchie,  M. A. Rohrdanz,  E. Rosta,  N. J. Russ,  
 H. F. Schaefer III,  N. E. Schultz,  N. Shenvi,  A. C. Simmonett,  A. Sodt,  
 D. Stuck,  K. S. Thanthiriwatte,  V. Vanovschi,  Tao Wang,  A. Warshel,  
 C. F. Williams,  Q. Wu,  X. Xu,  W. Zhang

 Please cite Q-Chem as follows:
 Y. Shao et al., Mol. Phys. 113, 184-215 (2015)
 DOI: 10.1080/00268976.2014.952696

 Q-Chem 5.1.1 for Intel X86 EM64T Linux

 Parts of Q-Chem use Armadillo 8.300.2 (Tropical Shenanigans).
 http://arma.sourceforge.net/

 Q-Chem begins on Mon Jul 13 11:01:10 2020  

Host: n0056.mhg0
0

     Scratch files written to /local/scratch/users/yhljason/BH3_ccsdT_aug-cc-pcVQZ.inp20200713022958//
The previous job contains 0 fragments, simply inherited here
Input Ideriv = 0
Curr. Ideriv = -1
Max.  Ideriv = 0

Checking the input file for inconsistencies... 	...done.

--------------------------------------------------------------
User input:
--------------------------------------------------------------
$molecule
read
$end

$rem

jobtype sp
method CCSD(T)
xc_grid 000099000590
basis aug-cc-pcVQZ
max_scf_cycles 200
thresh 14
scf_convergence 8
mem_total 128000
cc_memory 96000
cc_backend xm
mem_static 1500
symmetry false
sym_ignore true
scf_guess read
unrestricted true
scf_algorithm gdm
n_frozen_core 0
$end

$multipole_field
XX 0.0001
$end


--------------------------------------------------------------
 ----------------------------------------------------------------
             Standard Nuclear Orientation (Angstroms)
    I     Atom           X                Y                Z
 ----------------------------------------------------------------
    1      B       0.0000000000     0.0000000000     0.0000000000
    2      H       0.0000000000     1.1900000000     0.0000000000
    3      H       1.0306000000    -0.5950000000     0.0000000000
    4      H      -1.0306000000    -0.5950000000     0.0000000000
 ----------------------------------------------------------------
 Nuclear Repulsion Energy =     7.4404135262 hartrees
 There are        4 alpha and        4 beta electrons
 Requested basis set is aug-cc-pCVQZ
 There are 71 shells and 247 basis functions
 Total memory of 128000MB is distributed as follows: 
   QALLOC including MEM_STATIC uses 32000MB
   MEM_STATIC is set to 1500MB
   CCMAN JOB total memory use is  96000MB
 Warning: actual memory use might exceed 128000MB

 Total QAlloc Memory Limit  32000 MB
 Mega-Array Size      1467 MB
 MEM_STATIC part      1500 MB

                       Distance Matrix (Angstroms)
             B (  1)   H (  2)   H (  3)
   H (  2)  1.190000
   H (  3)  1.190026  2.061155
   H (  4)  1.190026  2.061155  2.061200
 
 Applying Cartesian multipole field
    Component          Value
    ---------          -----
     (2,0,0)        1.00000E-04
 Nucleus-field energy     =     0.0007585916 hartrees
 A cutoff of  1.0D-14 yielded   2556 shell pairs
 There are     31120 function pairs (     47305 Cartesian)
 
 -------------------------------------------------------
 OpenMP Integral Computing Module                       
 Release: version 1.0, May 2013, Q-Chem Inc. Pittsburgh 
 -------------------------------------------------------
 Integral Job Info:
 Integral job number is                      11
 Integral operator is                         1
 short-range coefficients                     0
 long-range coefficients              100000000
 Omega coefficients                           0
 if combine SR and LR in K                    0
 Integral screening is                        0
 Integral computing path is                   2
 max size of driver memory is           3200000
 size of driver memory is               1704330
 size of scratch memory is             18511652
 max col of scratch BK array              50625
 max len of scratch array in speh3         2114
 max len of scratch index in speh4           50
 max int batch size is                      520
 min int batch size is                       52
 fixed nKL is                                52
 max L of basis functions is                  4
 order of int derivative is                   0
 number of shells is                         71
 number of basis is                         304
 number of cartesian basis is               304
 number of contracted shell pairs          2556
 number of primitive shell pairs           4503
 maxK2 (contraction) of shell pair           81
 max number of K2 of shell pair               1
 max number of CS2 of shell pair            364
 max number of PS2 of shell pair            369
 mem total for path MDJ                  671149
 -------------------------------------------------------
 Smallest overlap matrix eigenvalue = 2.66E-05
 Guess MOs from SCF MO coefficient file

 -----------------------------------------------------------------------
  General SCF calculation program by
  Eric Jon Sundstrom, Paul Horn, Yuezhi Mao, Dmitri Zuev, Alec White,
  David Stuck, Shaama M.S., Shane Yost, Joonho Lee, David Small,
  Daniel Levine, Susi Lehtola, Hugh Burton, Evgeny Epifanovsky
 -----------------------------------------------------------------------
 Hartree-Fock
 using 8 threads for integral computing
 -------------------------------------------------------
 OpenMP Integral computing Module                
 Release: version 2.0, May 2017, Q-Chem Inc. Pleasanton 
 -------------------------------------------------------
 A unrestricted SCF calculation will be
 performed using GDM
 SCF converges when RMS gradient is below 1.0e-08
 ---------------------------------------
  Cycle       Energy        RMS Gradient
 ---------------------------------------
    1     -26.4028935177      3.03e-04   Normal BFGS step
    2     -26.4028941761      5.74e-05   Normal BFGS step
    3     -26.4028942243      1.15e-05   Normal BFGS step
    4     -26.4028942253      2.96e-06   Normal BFGS step
    5     -26.4028942254      3.08e-07   Normal BFGS step
    6     -26.4028942254      6.00e-08   Normal BFGS step
    7     -26.4028942254      7.26e-09  Convergence criterion met
 ---------------------------------------
 SCF time:   CPU 635.87s  wall 80.00s 
<S^2> =         -0.000000000
 SCF   energy in the final basis set =      -26.4028942254
 Total energy in the final basis set =      -26.4028942254


 ------------------------------------------------------------------------------

   CCMAN2: suite of methods based on coupled cluster
           and equation of motion theories.

   Components:
   * libvmm-1.3-trunk
     by Evgeny Epifanovsky, Ilya Kaliman.
   * libtensor-2.5-trunk
     by Evgeny Epifanovsky, Michael Wormit, Dmitry Zuev, Sam Manzer, 
        Ilya Kaliman.
   * libcc-2.5-trunk
     by Evgeny Epifanovsky, Arik Landau, Tomasz Kus, Kirill Khistyaev, 
        Dmitry Zuev, Prashant Manohar, Xintian Feng, Anna Krylov, 
        Matthew Goldey, Alec White, Thomas Jagau, Kaushik Nanda, 
        Anastasia Gunina, Alexander Kunitsa, Joonho Lee.

   CCMAN original authors:
   Anna I. Krylov, C. David Sherrill, Steven R. Gwaltney,
   Edward F. C. Byrd (2000)
   Sergey V. Levchenko, Lyudmila V. Slipchenko, Tao Wang,
   Ana-Maria C. Cristian (2003)
   Piotr A. Pieniazek, C. Melania Oana, Evgeny Epifanovsky (2007)
   Prashant Manohar (2009)

 ------------------------------------------------------------------------------


 Calculation will run on 8 cores using libxm for tensor contractions

 ------------------------------------------------------------------------------
Libxm Tensor Library
Copyright (c) 2014-2018 Ilya Kaliman
https://github.com/ilyak/libxm
Reference: https://dx.doi.org/10.1002/jcc.24713
 ------------------------------------------------------------------------------

 
 Alpha MOs, Unrestricted
 -- Occupied --                  
 -7.612  -0.705  -0.499  -0.499
  1 A     2 A     3 A     4 A                                                  
 -- Virtual --                   
  0.025   0.027   0.030   0.034   0.073   0.074   0.085   0.101
  5 A     6 A     7 A     8 A     9 A    10 A    11 A    12 A                  
  0.124   0.125   0.133   0.138   0.139   0.213   0.214   0.234
 13 A    14 A    15 A    16 A    17 A    18 A    19 A    20 A                  
  0.258   0.260   0.276   0.277   0.284   0.285   0.285   0.313
 21 A    22 A    23 A    24 A    25 A    26 A    27 A    28 A                  
  0.314   0.332   0.392   0.432   0.432   0.481   0.482   0.511
 29 A    30 A    31 A    32 A    33 A    34 A    35 A    36 A                  
  0.522   0.522   0.567   0.568   0.570   0.598   0.599   0.612
 37 A    38 A    39 A    40 A    41 A    42 A    43 A    44 A                  
  0.614   0.707   0.731   0.758   0.759   0.766   0.797   0.797
 45 A    46 A    47 A    48 A    49 A    50 A    51 A    52 A                  
  0.802   0.802   0.865   0.887   0.887   0.924   0.924   0.924
 53 A    54 A    55 A    56 A    57 A    58 A    59 A    60 A                  
  0.944   0.944   0.957   1.047   1.143   1.144   1.191   1.191
 61 A    62 A    63 A    64 A    65 A    66 A    67 A    68 A                  
  1.218   1.267   1.290   1.290   1.291   1.515   1.515   1.524
 69 A    70 A    71 A    72 A    73 A    74 A    75 A    76 A                  
  1.528   1.528   1.550   1.567   1.567   1.606   1.627   1.627
 77 A    78 A    79 A    80 A    81 A    82 A    83 A    84 A                  
  1.685   1.717   1.718   1.814   1.814   1.817   1.817   1.833
 85 A    86 A    87 A    88 A    89 A    90 A    91 A    92 A                  
  1.858   1.900   1.937   1.938   1.981   2.017   2.022   2.023
 93 A    94 A    95 A    96 A    97 A    98 A    99 A   100 A                  
  2.023   2.126   2.126   2.137   2.138   2.206   2.206   2.226
101 A   102 A   103 A   104 A   105 A   106 A   107 A   108 A                  
  2.238   2.260   2.260   2.273   2.273   2.359   2.376   2.396
109 A   110 A   111 A   112 A   113 A   114 A   115 A   116 A                  
  2.415   2.415   2.764   2.900   2.900   3.030   3.154   3.155
117 A   118 A   119 A   120 A   121 A   122 A   123 A   124 A                  
  3.202   3.202   3.301   3.301   3.351   3.353   3.385   3.386
125 A   126 A   127 A   128 A   129 A   130 A   131 A   132 A                  
  3.386   3.414   3.414   3.518   3.600   3.600   3.635   3.635
133 A   134 A   135 A   136 A   137 A   138 A   139 A   140 A                  
  3.776   3.912   3.983   4.104   4.182   4.182   4.206   4.206
141 A   142 A   143 A   144 A   145 A   146 A   147 A   148 A                  
  4.255   4.339   4.340   4.355   4.449   4.449   4.481   4.481
149 A   150 A   151 A   152 A   153 A   154 A   155 A   156 A                  
  4.802   4.921   5.137   5.137   5.323   5.328   5.328   5.356
157 A   158 A   159 A   160 A   161 A   162 A   163 A   164 A                  
  5.471   5.471   5.546   6.015   6.015   6.706   6.760   6.760
165 A   166 A   167 A   168 A   169 A   170 A   171 A   172 A                  
  6.902   6.916   6.916   7.162   7.162   7.496   7.529   7.530
173 A   174 A   175 A   176 A   177 A   178 A   179 A   180 A                  
  7.665   7.832   7.832   7.849   7.849   7.896   8.022   8.157
181 A   182 A   183 A   184 A   185 A   186 A   187 A   188 A                  
  8.157   8.188   8.239   8.635   8.638   8.638   8.964   8.964
189 A   190 A   191 A   192 A   193 A   194 A   195 A   196 A                  
  9.083   9.083   9.131   9.173   9.173   9.214   9.437   9.475
197 A   198 A   199 A   200 A   201 A   202 A   203 A   204 A                  
  9.489   9.489   9.517   9.681   9.682   9.885   9.973   9.973
205 A   206 A   207 A   208 A   209 A   210 A   211 A   212 A                  
 10.026  10.512  10.512  11.437  11.437  12.107  13.177  14.786
213 A   214 A   215 A   216 A   217 A   218 A   219 A   220 A                  
 14.786  20.014  20.014  20.726  21.109  21.109  26.100  45.256
221 A   222 A   223 A   224 A   225 A   226 A   227 A   228 A                  
 46.363  46.363  76.006  76.010  76.010  76.010  76.010  76.047
229 A   230 A   231 A   232 A   233 A   234 A   235 A   236 A                  
 76.056  84.523  86.304  86.304  86.846  86.846  86.855 152.528
237 A   238 A   239 A   240 A   241 A   242 A   243 A   244 A                  
153.425 153.425 350.085
245 A   246 A   247 A                                                          
 
 Beta MOs, Unrestricted
 -- Occupied --                  
 -7.612  -0.705  -0.499  -0.499
  1 A     2 A     3 A     4 A                                                  
 -- Virtual --                   
  0.025   0.027   0.030   0.034   0.073   0.074   0.085   0.101
  5 A     6 A     7 A     8 A     9 A    10 A    11 A    12 A                  
  0.124   0.125   0.133   0.138   0.139   0.213   0.214   0.234
 13 A    14 A    15 A    16 A    17 A    18 A    19 A    20 A                  
  0.258   0.260   0.276   0.277   0.284   0.285   0.285   0.313
 21 A    22 A    23 A    24 A    25 A    26 A    27 A    28 A                  
  0.314   0.332   0.392   0.432   0.432   0.481   0.482   0.511
 29 A    30 A    31 A    32 A    33 A    34 A    35 A    36 A                  
  0.522   0.522   0.567   0.568   0.570   0.598   0.599   0.612
 37 A    38 A    39 A    40 A    41 A    42 A    43 A    44 A                  
  0.614   0.707   0.731   0.758   0.759   0.766   0.797   0.797
 45 A    46 A    47 A    48 A    49 A    50 A    51 A    52 A                  
  0.802   0.802   0.865   0.887   0.887   0.924   0.924   0.924
 53 A    54 A    55 A    56 A    57 A    58 A    59 A    60 A                  
  0.944   0.944   0.957   1.047   1.143   1.144   1.191   1.191
 61 A    62 A    63 A    64 A    65 A    66 A    67 A    68 A                  
  1.218   1.267   1.290   1.290   1.291   1.515   1.515   1.524
 69 A    70 A    71 A    72 A    73 A    74 A    75 A    76 A                  
  1.528   1.528   1.550   1.567   1.567   1.606   1.627   1.627
 77 A    78 A    79 A    80 A    81 A    82 A    83 A    84 A                  
  1.685   1.717   1.718   1.814   1.814   1.817   1.817   1.833
 85 A    86 A    87 A    88 A    89 A    90 A    91 A    92 A                  
  1.858   1.900   1.937   1.938   1.981   2.017   2.022   2.023
 93 A    94 A    95 A    96 A    97 A    98 A    99 A   100 A                  
  2.023   2.126   2.126   2.137   2.138   2.206   2.206   2.226
101 A   102 A   103 A   104 A   105 A   106 A   107 A   108 A                  
  2.238   2.260   2.260   2.273   2.273   2.359   2.376   2.396
109 A   110 A   111 A   112 A   113 A   114 A   115 A   116 A                  
  2.415   2.415   2.764   2.900   2.900   3.030   3.154   3.155
117 A   118 A   119 A   120 A   121 A   122 A   123 A   124 A                  
  3.202   3.202   3.301   3.301   3.351   3.353   3.385   3.386
125 A   126 A   127 A   128 A   129 A   130 A   131 A   132 A                  
  3.386   3.414   3.414   3.518   3.600   3.600   3.635   3.635
133 A   134 A   135 A   136 A   137 A   138 A   139 A   140 A                  
  3.776   3.912   3.983   4.104   4.182   4.182   4.206   4.206
141 A   142 A   143 A   144 A   145 A   146 A   147 A   148 A                  
  4.255   4.339   4.340   4.355   4.449   4.449   4.481   4.481
149 A   150 A   151 A   152 A   153 A   154 A   155 A   156 A                  
  4.802   4.921   5.137   5.137   5.323   5.328   5.328   5.356
157 A   158 A   159 A   160 A   161 A   162 A   163 A   164 A                  
  5.471   5.471   5.546   6.015   6.015   6.706   6.760   6.760
165 A   166 A   167 A   168 A   169 A   170 A   171 A   172 A                  
  6.902   6.916   6.916   7.162   7.162   7.496   7.529   7.530
173 A   174 A   175 A   176 A   177 A   178 A   179 A   180 A                  
  7.665   7.832   7.832   7.849   7.849   7.896   8.022   8.157
181 A   182 A   183 A   184 A   185 A   186 A   187 A   188 A                  
  8.157   8.188   8.239   8.635   8.638   8.638   8.964   8.964
189 A   190 A   191 A   192 A   193 A   194 A   195 A   196 A                  
  9.083   9.083   9.131   9.173   9.173   9.214   9.437   9.475
197 A   198 A   199 A   200 A   201 A   202 A   203 A   204 A                  
  9.489   9.489   9.517   9.681   9.682   9.885   9.973   9.973
205 A   206 A   207 A   208 A   209 A   210 A   211 A   212 A                  
 10.026  10.512  10.512  11.437  11.437  12.107  13.177  14.786
213 A   214 A   215 A   216 A   217 A   218 A   219 A   220 A                  
 14.786  20.014  20.014  20.726  21.109  21.109  26.100  45.256
221 A   222 A   223 A   224 A   225 A   226 A   227 A   228 A                  
 46.363  46.363  76.006  76.010  76.010  76.010  76.010  76.047
229 A   230 A   231 A   232 A   233 A   234 A   235 A   236 A                  
 76.056  84.523  86.304  86.304  86.846  86.846  86.855 152.528
237 A   238 A   239 A   240 A   241 A   242 A   243 A   244 A                  
153.425 153.425 350.085
245 A   246 A   247 A                                                          

 Occupation and symmetry of molecular orbitals

 Point group: C1 (1 irreducible representation).

                           A     All 
 -------------------------------------
 All molecular orbitals:
  - Alpha                  247   247 
  - Beta                   247   247 
 -------------------------------------
 Alpha orbitals:
  - Frozen occupied        0     0   
  - Active occupied        4     4   
  - Active virtual         243   243 
  - Frozen virtual         0     0   
 -------------------------------------
 Beta orbitals:
  - Frozen occupied        0     0   
  - Active occupied        4     4   
  - Active virtual         243   243 
  - Frozen virtual         0     0   
 -------------------------------------

 Import integrals:   CPU 0.00 s  wall 0.00 s

 Import integrals:   CPU 2290.60 s  wall 439.50 s

 MP2 amplitudes:   CPU 2.00 s  wall 0.79 s

Running a double precision version
           CCSD T amplitudes will be solved using DIIS.

           Start     Size      MaxIter   EConv     TConv     
           3         7         100       1.00e-06  1.00e-04  
 ------------------------------------------------------------------------------
           Energy (a.u.)   Ediff      Tdiff       Comment
 ------------------------------------------------------------------------------
           -26.57243257                           
     1     -26.58820144   1.58e-02   3.33e-01     
     2     -26.59250714   4.31e-03   5.23e-02     
     3     -26.59363143   1.12e-03   1.63e-02     
     4     -26.59421788   5.86e-04   8.30e-03     Switched to DIIS steps.
     5     -26.59423373   1.58e-05   9.14e-04     
     6     -26.59423324   4.87e-07   2.98e-04     
     7     -26.59423306   1.80e-07   7.40e-05     
 ------------------------------------------------------------------------------
           -26.59423306                           CCSD T converged.

End of double precision

----------------------------------------
libpt (c) 2016-2018 Ilya Kaliman
Fast Coupled Cluster Triples Corrections
https://github.com/ilyak/libpt
----------------------------------------

 Starting (T) calculation...
 Using double precision libpt code
 (T) calculation completed in 76 sec
 (T) energy is -0.0031588799

 SCF energy                 = -26.40289423
 MP2 energy                 = -26.57243257
 CCSD correlation energy     =  -0.19133883
 CCSD total energy           = -26.59423306
 CCSD(T) correlation energy =  -0.00315888
 CCSD(T) total energy       = -26.59739194

 CCSD  T1^2 = 0.0008  T2^2 = 0.0633  Leading amplitudes:

 Amplitude    Orbitals with energies
 -0.0066       4 (A) A                   ->    35 (A) A                   
              -0.4989                          0.4819                     
 -0.0066       4 (A) B                   ->    35 (A) B                   
              -0.4989                          0.4819                     
  0.0066       3 (A) B                   ->    34 (A) B                   
              -0.4991                          0.4812                     
  0.0066       3 (A) A                   ->    34 (A) A                   
              -0.4991                          0.4812                     

 Amplitude    Orbitals with energies
 -0.0266       2 (A) A       2 (A) B     ->    11 (A) A      11 (A) B     
              -0.7048       -0.7048            0.0847        0.0847       
  0.0266       2 (A) A       2 (A) B     ->    11 (A) B      11 (A) A     
              -0.7048       -0.7048            0.0847        0.0847       
  0.0266       2 (A) B       2 (A) A     ->    11 (A) A      11 (A) B     
              -0.7048       -0.7048            0.0847        0.0847       
 -0.0266       2 (A) B       2 (A) A     ->    11 (A) B      11 (A) A     
              -0.7048       -0.7048            0.0847        0.0847       

 CCSD calculation:   CPU 2409.81 s  wall 375.88 s

 Total ccman2 time:   CPU 4750.83 s  wall 854.46 s

 
 --------------------------------------------------------------
 
                    Orbital Energies (a.u.)
 --------------------------------------------------------------
 
 Alpha MOs
 -- Occupied --
 -7.612  -0.705  -0.499  -0.499
 -- Virtual --
  0.025   0.027   0.030   0.034   0.073   0.074   0.085   0.101
  0.124   0.125   0.133   0.138   0.139   0.213   0.214   0.234
  0.258   0.260   0.276   0.277   0.284   0.285   0.285   0.313
  0.314   0.332   0.392   0.432   0.432   0.481   0.482   0.511
  0.522   0.522   0.567   0.568   0.570   0.598   0.599   0.612
  0.614   0.707   0.731   0.758   0.759   0.766   0.797   0.797
  0.802   0.802   0.865   0.887   0.887   0.924   0.924   0.924
  0.944   0.944   0.957   1.047   1.143   1.144   1.191   1.191
  1.218   1.267   1.290   1.290   1.291   1.515   1.515   1.524
  1.528   1.528   1.550   1.567   1.567   1.606   1.627   1.627
  1.685   1.717   1.718   1.814   1.814   1.817   1.817   1.833
  1.858   1.900   1.937   1.938   1.981   2.017   2.022   2.023
  2.023   2.126   2.126   2.137   2.138   2.206   2.206   2.226
  2.238   2.260   2.260   2.273   2.273   2.359   2.376   2.396
  2.415   2.415   2.764   2.900   2.900   3.030   3.154   3.155
  3.202   3.202   3.301   3.301   3.351   3.353   3.385   3.386
  3.386   3.414   3.414   3.518   3.600   3.600   3.635   3.635
  3.776   3.912   3.983   4.104   4.182   4.182   4.206   4.206
  4.255   4.339   4.340   4.355   4.449   4.449   4.481   4.481
  4.802   4.921   5.137   5.137   5.323   5.328   5.328   5.356
  5.471   5.471   5.546   6.015   6.015   6.706   6.760   6.760
  6.902   6.916   6.916   7.162   7.162   7.496   7.529   7.530
  7.665   7.832   7.832   7.849   7.849   7.896   8.022   8.157
  8.157   8.188   8.239   8.635   8.638   8.638   8.964   8.964
  9.083   9.083   9.131   9.173   9.173   9.214   9.437   9.475
  9.489   9.489   9.517   9.681   9.682   9.885   9.973   9.973
 10.026  10.512  10.512  11.437  11.437  12.107  13.177  14.786
 14.786  20.014  20.014  20.726  21.109  21.109  26.100  45.256
 46.363  46.363  76.006  76.010  76.010  76.010  76.010  76.047
 76.056  84.523  86.304  86.304  86.846  86.846  86.855 152.528
153.425 153.425 350.085
 
 Beta MOs
 -- Occupied --
 -7.612  -0.705  -0.499  -0.499
 -- Virtual --
  0.025   0.027   0.030   0.034   0.073   0.074   0.085   0.101
  0.124   0.125   0.133   0.138   0.139   0.213   0.214   0.234
  0.258   0.260   0.276   0.277   0.284   0.285   0.285   0.313
  0.314   0.332   0.392   0.432   0.432   0.481   0.482   0.511
  0.522   0.522   0.567   0.568   0.570   0.598   0.599   0.612
  0.614   0.707   0.731   0.758   0.759   0.766   0.797   0.797
  0.802   0.802   0.865   0.887   0.887   0.924   0.924   0.924
  0.944   0.944   0.957   1.047   1.143   1.144   1.191   1.191
  1.218   1.267   1.290   1.290   1.291   1.515   1.515   1.524
  1.528   1.528   1.550   1.567   1.567   1.606   1.627   1.627
  1.685   1.717   1.718   1.814   1.814   1.817   1.817   1.833
  1.858   1.900   1.937   1.938   1.981   2.017   2.022   2.023
  2.023   2.126   2.126   2.137   2.138   2.206   2.206   2.226
  2.238   2.260   2.260   2.273   2.273   2.359   2.376   2.396
  2.415   2.415   2.764   2.900   2.900   3.030   3.154   3.155
  3.202   3.202   3.301   3.301   3.351   3.353   3.385   3.386
  3.386   3.414   3.414   3.518   3.600   3.600   3.635   3.635
  3.776   3.912   3.983   4.104   4.182   4.182   4.206   4.206
  4.255   4.339   4.340   4.355   4.449   4.449   4.481   4.481
  4.802   4.921   5.137   5.137   5.323   5.328   5.328   5.356
  5.471   5.471   5.546   6.015   6.015   6.706   6.760   6.760
  6.902   6.916   6.916   7.162   7.162   7.496   7.529   7.530
  7.665   7.832   7.832   7.849   7.849   7.896   8.022   8.157
  8.157   8.188   8.239   8.635   8.638   8.638   8.964   8.964
  9.083   9.083   9.131   9.173   9.173   9.214   9.437   9.475
  9.489   9.489   9.517   9.681   9.682   9.885   9.973   9.973
 10.026  10.512  10.512  11.437  11.437  12.107  13.177  14.786
 14.786  20.014  20.014  20.726  21.109  21.109  26.100  45.256
 46.363  46.363  76.006  76.010  76.010  76.010  76.010  76.047
 76.056  84.523  86.304  86.304  86.846  86.846  86.855 152.528
153.425 153.425 350.085
 --------------------------------------------------------------
 
          Ground-State Mulliken Net Atomic Charges

     Atom                 Charge (a.u.)    Spin (a.u.)
  --------------------------------------------------------
      1 B                     0.256429       0.000000
      2 H                    -0.084683       0.000000
      3 H                    -0.085873       0.000000
      4 H                    -0.085873       0.000000
  --------------------------------------------------------
  Sum of atomic charges =    -0.000000
  Sum of spin   charges =     0.000000

 -----------------------------------------------------------------
                    Cartesian Multipole Moments
 -----------------------------------------------------------------
    Charge (ESU x 10^10)
                -0.0000
    Dipole Moment (Debye)
         X       0.0000      Y       0.0017      Z       0.0000
       Tot       0.0017
    Quadrupole Moments (Debye-Ang)
        XX      -9.4433     XY      -0.0000     YY      -9.4247
        XZ      -0.0000     YZ       0.0000     ZZ      -7.1139
    Octopole Moments (Debye-Ang^2)
       XXX       0.0000    XXY       0.0263    XYY       0.0000
       YYY      -0.0124    XXZ       0.0000    XYZ      -0.0000
       YYZ       0.0000    XZZ       0.0000    YZZ       0.0008
       ZZZ       0.0000
    Hexadecapole Moments (Debye-Ang^3)
      XXXX     -24.5227   XXXY      -0.0000   XXYY      -8.1590
      XYYY      -0.0000   YYYY     -24.4276   XXXZ       0.0000
      XXYZ      -0.0000   XYYZ      -0.0000   YYYZ      -0.0000
      XXZZ      -5.5663   XYZZ      -0.0000   YYZZ      -5.5566
      XZZZ       0.0000   YZZZ      -0.0000   ZZZZ      -7.1820
 -----------------------------------------------------------------
Archival summary:
1\1\n0056.mhg0\SP\ProcedureUnspecified\BasisUnspecified\13\yhljason\MonJul1311:19:012020MonJul1311:19:012020\0\\#,ProcedureUnspecified,BasisUnspecified,\\0,1\B\H,1,1.19\H,1,1.19003,2,119.999\H,1,1.19003,2,119.999,3,-180,0\\HF=-26.4028942\\@

 Total job time:  1070.87s(wall), 5413.75s(cpu) 
 Mon Jul 13 11:19:01 2020

        *************************************************************
        *                                                           *
        *  Thank you very much for using Q-Chem.  Have a nice day.  *
        *                                                           *
        *************************************************************


 
User input: 3 of 7 
 
Q-Chem Developer Version!
                  Welcome to Q-Chem
     A Quantum Leap Into The Future Of Chemistry


 Q-Chem 5.1, Q-Chem, Inc., Pleasanton, CA (2018)

 Yihan Shao,  Zhengting Gan,  E. Epifanovsky,  A. T. B. Gilbert,  M. Wormit,  
 J. Kussmann,  A. W. Lange,  A. Behn,  Jia Deng,  Xintian Feng,  D. Ghosh,  
 M. Goldey,  P. R. Horn,  L. D. Jacobson,  I. Kaliman,  T. Kus,  A. Landau,  
 Jie Liu,  E. I. Proynov,  R. M. Richard,  R. P. Steele,  E. J. Sundstrom,  
 H. L. Woodcock III,  P. M. Zimmerman,  D. Zuev,  B. Albrecht,  E. Alguire,  
 S. A. Baeppler,  D. Barton,  Z. Benda,  Y. A. Bernard,  E. J. Berquist,  
 K. B. Bravaya,  H. Burton,  D. Casanova,  Chun-Min Chang,  Yunqing Chen,  
 A. Chien,  K. D. Closser,  M. P. Coons,  S. Coriani,  S. Dasgupta,  
 A. L. Dempwolff,  M. Diedenhofen,  Hainam Do,  R. G. Edgar,  Po-Tung Fang,  
 S. Faraji,  S. Fatehi,  Qingguo Feng,  K. D. Fenk,  J. Fosso-Tande,  
 Qinghui Ge,  A. Ghysels,  G. Gidofalvi,  J. Gomes,  J. Gonthier,  A. Gunina,  
 D. Hait,  M. W. D. Hanson-Heine,  P. H. P. Harbach,  A. W. Hauser,  
 J. E. Herr,  E. G. Hohenstein,  Z. C. Holden,  Kerwin Hui,  B. C. Huynh,  
 T.-C. Jagau,  Hyunjun Ji,  B. Kaduk,  K. Khistyaev,  Jaehoon Kim,  
 P. Klunzinger,  K. Koh,  D. Kosenkov,  L. Koulias,  T. Kowalczyk,  
 C. M. Krauter,  A. Kunitsa,  Ka Un Lao,  A. Laurent,  K. V. Lawler,  
 Joonho Lee,  D. Lefrancois,  S. Lehtola,  D. S. Levine,  Yi-Pei Li,  
 You-Sheng Lin,  Fenglai Liu,  E. Livshits,  A. Luenser,  P. Manohar,  
 E. Mansoor,  S. F. Manzer,  Shan-Ping Mao,  Yuezhi Mao,  N. Mardirossian,  
 A. V. Marenich,  T. Markovich,  L. A. Martinez-Martinez,  S. A. Maurer,  
 N. J. Mayhall,  S. C. McKenzie,  J.-M. Mewes,  A. F. Morrison,  
 J. W. Mullinax,  K. Nanda,  T. S. Nguyen-Beck,  R. Olivares-Amaya,  
 J. A. Parkhill,  T. M. Perrine,  F. Plasser,  P. Pokhilko,  S. Prager,  
 A. Prociuk,  E. Ramos,  D. R. Rehn,  F. Rob,  M. Schneider,  N. Sergueev,  
 S. M. Sharada,  S. Sharma,  D. W. Small,  T. Stauch,  T. Stein,  
 Yu-Chuan Su,  A. J. W. Thom,  A. Tkatchenko,  T. Tsuchimochi,  N. M. Tubman,  
 L. Vogt,  M. L. Vidal,  O. Vydrov,  M. A. Watson,  J. Wenzel,  
 M. de Wergifosse,  T. A. Wesolowski,  A. White,  J. Witte,  A. Yamada,  
 Jun Yang,  K. Yao,  S. Yeganeh,  S. R. Yost,  Zhi-Qiang You,  A. Zech,  
 Igor Ying Zhang,  Xing Zhang,  Yan Zhao,  Ying Zhu,  B. R. Brooks,  
 G. K. L. Chan,  C. J. Cramer,  M. S. Gordon,  W. J. Hehre,  A. Klamt,  
 M. W. Schmidt,  C. D. Sherrill,  D. G. Truhlar,  A. Aspuru-Guzik,  R. Baer,  
 A. T. Bell,  N. A. Besley,  Jeng-Da Chai,  A. E. DePrince, III,  
 R. A. DiStasio Jr.,  A. Dreuw,  B. D. Dunietz,  T. R. Furlani,  
 Chao-Ping Hsu,  Yousung Jung,  Jing Kong,  D. S. Lambrecht,  WanZhen Liang,  
 C. Ochsenfeld,  V. A. Rassolov,  L. V. Slipchenko,  J. E. Subotnik,  
 T. Van Voorhis,  J. M. Herbert,  A. I. Krylov,  P. M. W. Gill,  M. Head-Gordon

 Contributors to earlier versions of Q-Chem not listed above: 
 R. D. Adamson,  B. Austin,  J. Baker,  G. J. O. Beran,  K. Brandhorst,  
 S. T. Brown,  E. F. C. Byrd,  A. K. Chakraborty,  C.-L. Cheng,  
 Siu Hung Chien,  D. M. Chipman,  D. L. Crittenden,  H. Dachsel,  
 R. J. Doerksen,  A. D. Dutoi,  L. Fusti-Molnar,  W. A. Goddard III,  
 A. Golubeva-Zadorozhnaya,  S. R. Gwaltney,  G. Hawkins,  A. Heyden,  
 S. Hirata,  G. Kedziora,  F. J. Keil,  C. Kelley,  Jihan Kim,  R. A. King,  
 R. Z. Khaliullin,  P. P. Korambath,  W. Kurlancheek,  A. M. Lee,  M. S. Lee,  
 S. V. Levchenko,  Ching Yeh Lin,  D. Liotard,  R. C. Lochan,  I. Lotan,  
 P. E. Maslen,  N. Nair,  D. P. O'Neill,  D. Neuhauser,  E. Neuscamman,  
 C. M. Oana,  R. Olson,  B. Peters,  R. Peverati,  P. A. Pieniazek,  
 Y. M. Rhee,  J. Ritchie,  M. A. Rohrdanz,  E. Rosta,  N. J. Russ,  
 H. F. Schaefer III,  N. E. Schultz,  N. Shenvi,  A. C. Simmonett,  A. Sodt,  
 D. Stuck,  K. S. Thanthiriwatte,  V. Vanovschi,  Tao Wang,  A. Warshel,  
 C. F. Williams,  Q. Wu,  X. Xu,  W. Zhang

 Please cite Q-Chem as follows:
 Y. Shao et al., Mol. Phys. 113, 184-215 (2015)
 DOI: 10.1080/00268976.2014.952696

 Q-Chem 5.1.1 for Intel X86 EM64T Linux

 Parts of Q-Chem use Armadillo 8.300.2 (Tropical Shenanigans).
 http://arma.sourceforge.net/

 Q-Chem begins on Mon Jul 13 11:19:02 2020  

Host: n0056.mhg0
0

     Scratch files written to /local/scratch/users/yhljason/BH3_ccsdT_aug-cc-pcVQZ.inp20200713022958//
The previous job contains 0 fragments, simply inherited here
Input Ideriv = 0
Curr. Ideriv = -1
Max.  Ideriv = 0

Checking the input file for inconsistencies... 	...done.

--------------------------------------------------------------
User input:
--------------------------------------------------------------
$molecule
read
$end

$rem

jobtype sp
method CCSD(T)
xc_grid 000099000590
basis aug-cc-pcVQZ
max_scf_cycles 200
thresh 14
scf_convergence 8
mem_total 128000
cc_memory 96000
cc_backend xm
mem_static 1500
symmetry false
sym_ignore true
scf_guess read
unrestricted true
scf_algorithm gdm
n_frozen_core 0
$end

$multipole_field
XX -0.0001
$end


--------------------------------------------------------------
 ----------------------------------------------------------------
             Standard Nuclear Orientation (Angstroms)
    I     Atom           X                Y                Z
 ----------------------------------------------------------------
    1      B       0.0000000000     0.0000000000     0.0000000000
    2      H       0.0000000000     1.1900000000     0.0000000000
    3      H       1.0306000000    -0.5950000000     0.0000000000
    4      H      -1.0306000000    -0.5950000000     0.0000000000
 ----------------------------------------------------------------
 Nuclear Repulsion Energy =     7.4404135262 hartrees
 There are        4 alpha and        4 beta electrons
 Requested basis set is aug-cc-pCVQZ
 There are 71 shells and 247 basis functions
 Total memory of 128000MB is distributed as follows: 
   QALLOC including MEM_STATIC uses 32000MB
   MEM_STATIC is set to 1500MB
   CCMAN JOB total memory use is  96000MB
 Warning: actual memory use might exceed 128000MB

 Total QAlloc Memory Limit  32000 MB
 Mega-Array Size      1467 MB
 MEM_STATIC part      1500 MB

                       Distance Matrix (Angstroms)
             B (  1)   H (  2)   H (  3)
   H (  2)  1.190000
   H (  3)  1.190026  2.061155
   H (  4)  1.190026  2.061155  2.061200
 
 Applying Cartesian multipole field
    Component          Value
    ---------          -----
     (2,0,0)       -1.00000E-04
 Nucleus-field energy     =    -0.0007585916 hartrees
 A cutoff of  1.0D-14 yielded   2556 shell pairs
 There are     31120 function pairs (     47305 Cartesian)
 
 -------------------------------------------------------
 OpenMP Integral Computing Module                       
 Release: version 1.0, May 2013, Q-Chem Inc. Pittsburgh 
 -------------------------------------------------------
 Integral Job Info:
 Integral job number is                      11
 Integral operator is                         1
 short-range coefficients                     0
 long-range coefficients              100000000
 Omega coefficients                           0
 if combine SR and LR in K                    0
 Integral screening is                        0
 Integral computing path is                   2
 max size of driver memory is           3200000
 size of driver memory is               1704330
 size of scratch memory is             18511652
 max col of scratch BK array              50625
 max len of scratch array in speh3         2114
 max len of scratch index in speh4           50
 max int batch size is                      520
 min int batch size is                       52
 fixed nKL is                                52
 max L of basis functions is                  4
 order of int derivative is                   0
 number of shells is                         71
 number of basis is                         304
 number of cartesian basis is               304
 number of contracted shell pairs          2556
 number of primitive shell pairs           4503
 maxK2 (contraction) of shell pair           81
 max number of K2 of shell pair               1
 max number of CS2 of shell pair            364
 max number of PS2 of shell pair            369
 mem total for path MDJ                  671149
 -------------------------------------------------------
 Smallest overlap matrix eigenvalue = 2.66E-05
 Guess MOs from SCF MO coefficient file

 -----------------------------------------------------------------------
  General SCF calculation program by
  Eric Jon Sundstrom, Paul Horn, Yuezhi Mao, Dmitri Zuev, Alec White,
  David Stuck, Shaama M.S., Shane Yost, Joonho Lee, David Small,
  Daniel Levine, Susi Lehtola, Hugh Burton, Evgeny Epifanovsky
 -----------------------------------------------------------------------
 Hartree-Fock
 using 8 threads for integral computing
 -------------------------------------------------------
 OpenMP Integral computing Module                
 Release: version 2.0, May 2017, Q-Chem Inc. Pleasanton 
 -------------------------------------------------------
 A unrestricted SCF calculation will be
 performed using GDM
 SCF converges when RMS gradient is below 1.0e-08
 ---------------------------------------
  Cycle       Energy        RMS Gradient
 ---------------------------------------
    1     -26.4014900563      5.93e-04   Normal BFGS step
    2     -26.4014926909      1.11e-04   Normal BFGS step
    3     -26.4014928828      2.26e-05   Normal BFGS step
    4     -26.4014928867      5.71e-06   Normal BFGS step
    5     -26.4014928870      6.08e-07   Normal BFGS step
    6     -26.4014928870      1.18e-07   Normal BFGS step
    7     -26.4014928870      1.43e-08   Normal BFGS step
    8     -26.4014928870      3.03e-09  Convergence criterion met
 ---------------------------------------
 SCF time:   CPU 715.64s  wall 90.00s 
<S^2> =         -0.000000000
 SCF   energy in the final basis set =      -26.4014928870
 Total energy in the final basis set =      -26.4014928870


 ------------------------------------------------------------------------------

   CCMAN2: suite of methods based on coupled cluster
           and equation of motion theories.

   Components:
   * libvmm-1.3-trunk
     by Evgeny Epifanovsky, Ilya Kaliman.
   * libtensor-2.5-trunk
     by Evgeny Epifanovsky, Michael Wormit, Dmitry Zuev, Sam Manzer, 
        Ilya Kaliman.
   * libcc-2.5-trunk
     by Evgeny Epifanovsky, Arik Landau, Tomasz Kus, Kirill Khistyaev, 
        Dmitry Zuev, Prashant Manohar, Xintian Feng, Anna Krylov, 
        Matthew Goldey, Alec White, Thomas Jagau, Kaushik Nanda, 
        Anastasia Gunina, Alexander Kunitsa, Joonho Lee.

   CCMAN original authors:
   Anna I. Krylov, C. David Sherrill, Steven R. Gwaltney,
   Edward F. C. Byrd (2000)
   Sergey V. Levchenko, Lyudmila V. Slipchenko, Tao Wang,
   Ana-Maria C. Cristian (2003)
   Piotr A. Pieniazek, C. Melania Oana, Evgeny Epifanovsky (2007)
   Prashant Manohar (2009)

 ------------------------------------------------------------------------------


 Calculation will run on 8 cores using libxm for tensor contractions

 ------------------------------------------------------------------------------
Libxm Tensor Library
Copyright (c) 2014-2018 Ilya Kaliman
https://github.com/ilyak/libxm
Reference: https://dx.doi.org/10.1002/jcc.24713
 ------------------------------------------------------------------------------

 
 Alpha MOs, Unrestricted
 -- Occupied --                  
 -7.611  -0.704  -0.498  -0.498
  1 A     2 A     3 A     4 A                                                  
 -- Virtual --                   
  0.029   0.032   0.039   0.043   0.081   0.082   0.087   0.105
  5 A     6 A     7 A     8 A     9 A    10 A    11 A    12 A                  
  0.126   0.128   0.137   0.143   0.144   0.218   0.219   0.238
 13 A    14 A    15 A    16 A    17 A    18 A    19 A    20 A                  
  0.261   0.262   0.279   0.280   0.285   0.287   0.288   0.317
 21 A    22 A    23 A    24 A    25 A    26 A    27 A    28 A                  
  0.318   0.334   0.396   0.434   0.434   0.484   0.485   0.514
 29 A    30 A    31 A    32 A    33 A    34 A    35 A    36 A                  
  0.524   0.524   0.571   0.571   0.571   0.600   0.601   0.614
 37 A    38 A    39 A    40 A    41 A    42 A    43 A    44 A                  
  0.617   0.709   0.733   0.760   0.761   0.768   0.799   0.799
 45 A    46 A    47 A    48 A    49 A    50 A    51 A    52 A                  
  0.804   0.804   0.867   0.889   0.889   0.925   0.926   0.926
 53 A    54 A    55 A    56 A    57 A    58 A    59 A    60 A                  
  0.946   0.946   0.959   1.048   1.145   1.146   1.192   1.193
 61 A    62 A    63 A    64 A    65 A    66 A    67 A    68 A                  
  1.220   1.268   1.291   1.292   1.292   1.516   1.516   1.525
 69 A    70 A    71 A    72 A    73 A    74 A    75 A    76 A                  
  1.529   1.529   1.551   1.568   1.568   1.607   1.629   1.629
 77 A    78 A    79 A    80 A    81 A    82 A    83 A    84 A                  
  1.686   1.719   1.719   1.815   1.816   1.819   1.819   1.834
 85 A    86 A    87 A    88 A    89 A    90 A    91 A    92 A                  
  1.859   1.901   1.939   1.939   1.983   2.018   2.024   2.024
 93 A    94 A    95 A    96 A    97 A    98 A    99 A   100 A                  
  2.024   2.127   2.127   2.139   2.139   2.207   2.207   2.227
101 A   102 A   103 A   104 A   105 A   106 A   107 A   108 A                  
  2.239   2.261   2.261   2.274   2.274   2.360   2.377   2.397
109 A   110 A   111 A   112 A   113 A   114 A   115 A   116 A                  
  2.416   2.416   2.765   2.901   2.901   3.031   3.155   3.156
117 A   118 A   119 A   120 A   121 A   122 A   123 A   124 A                  
  3.203   3.203   3.302   3.302   3.352   3.354   3.386   3.387
125 A   126 A   127 A   128 A   129 A   130 A   131 A   132 A                  
  3.387   3.414   3.415   3.520   3.601   3.601   3.636   3.636
133 A   134 A   135 A   136 A   137 A   138 A   139 A   140 A                  
  3.777   3.913   3.984   4.105   4.183   4.183   4.207   4.207
141 A   142 A   143 A   144 A   145 A   146 A   147 A   148 A                  
  4.256   4.340   4.340   4.356   4.450   4.450   4.482   4.482
149 A   150 A   151 A   152 A   153 A   154 A   155 A   156 A                  
  4.803   4.922   5.138   5.138   5.324   5.329   5.329   5.357
157 A   158 A   159 A   160 A   161 A   162 A   163 A   164 A                  
  5.472   5.472   5.547   6.016   6.016   6.707   6.761   6.761
165 A   166 A   167 A   168 A   169 A   170 A   171 A   172 A                  
  6.903   6.917   6.917   7.163   7.163   7.497   7.530   7.531
173 A   174 A   175 A   176 A   177 A   178 A   179 A   180 A                  
  7.666   7.833   7.833   7.850   7.850   7.897   8.023   8.158
181 A   182 A   183 A   184 A   185 A   186 A   187 A   188 A                  
  8.158   8.189   8.240   8.636   8.639   8.639   8.965   8.965
189 A   190 A   191 A   192 A   193 A   194 A   195 A   196 A                  
  9.084   9.084   9.132   9.174   9.174   9.215   9.438   9.476
197 A   198 A   199 A   200 A   201 A   202 A   203 A   204 A                  
  9.490   9.490   9.518   9.682   9.682   9.886   9.974   9.974
205 A   206 A   207 A   208 A   209 A   210 A   211 A   212 A                  
 10.027  10.513  10.513  11.438  11.438  12.108  13.178  14.787
213 A   214 A   215 A   216 A   217 A   218 A   219 A   220 A                  
 14.787  20.015  20.015  20.727  21.110  21.110  26.101  45.257
221 A   222 A   223 A   224 A   225 A   226 A   227 A   228 A                  
 46.364  46.364  76.007  76.011  76.011  76.011  76.011  76.048
229 A   230 A   231 A   232 A   233 A   234 A   235 A   236 A                  
 76.057  84.524  86.305  86.305  86.847  86.847  86.856 152.529
237 A   238 A   239 A   240 A   241 A   242 A   243 A   244 A                  
[...]
 ------------------------------------------------------------------------------

 
 Alpha MOs, Unrestricted
 -- Occupied --                  
 -7.611  -0.704  -0.498  -0.498
  1 A     2 A     3 A     4 A                                                  
 -- Virtual --                   
  0.031   0.031   0.039   0.039   0.079   0.079   0.089   0.105
  5 A     6 A     7 A     8 A     9 A    10 A    11 A    12 A                  
  0.128   0.128   0.137   0.142   0.142   0.217   0.217   0.237
 13 A    14 A    15 A    16 A    17 A    18 A    19 A    20 A                  
  0.261   0.263   0.279   0.279   0.286   0.288   0.288   0.316
 21 A    22 A    23 A    24 A    25 A    26 A    27 A    28 A                  
  0.316   0.335   0.395   0.434   0.434   0.484   0.484   0.513
 29 A    30 A    31 A    32 A    33 A    34 A    35 A    36 A                  
  0.524   0.524   0.570   0.570   0.572   0.601   0.601   0.614
 37 A    38 A    39 A    40 A    41 A    42 A    43 A    44 A                  
  0.616   0.709   0.733   0.760   0.760   0.768   0.799   0.799
 45 A    46 A    47 A    48 A    49 A    50 A    51 A    52 A                  
  0.804   0.804   0.867   0.888   0.888   0.925   0.926   0.926
 53 A    54 A    55 A    56 A    57 A    58 A    59 A    60 A                  
  0.945   0.945   0.959   1.048   1.145   1.145   1.192   1.192
 61 A    62 A    63 A    64 A    65 A    66 A    67 A    68 A                  
  1.219   1.269   1.291   1.291   1.293   1.516   1.516   1.525
 69 A    70 A    71 A    72 A    73 A    74 A    75 A    76 A                  
  1.529   1.529   1.551   1.568   1.568   1.607   1.628   1.628
 77 A    78 A    79 A    80 A    81 A    82 A    83 A    84 A                  
  1.686   1.719   1.719   1.815   1.815   1.818   1.818   1.834
 85 A    86 A    87 A    88 A    89 A    90 A    91 A    92 A                  
  1.859   1.900   1.939   1.939   1.982   2.018   2.023   2.024
 93 A    94 A    95 A    96 A    97 A    98 A    99 A   100 A                  
  2.024   2.127   2.127   2.139   2.139   2.207   2.207   2.227
101 A   102 A   103 A   104 A   105 A   106 A   107 A   108 A                  
  2.239   2.261   2.261   2.274   2.274   2.360   2.377   2.397
109 A   110 A   111 A   112 A   113 A   114 A   115 A   116 A                  
  2.416   2.416   2.765   2.901   2.901   3.031   3.155   3.155
117 A   118 A   119 A   120 A   121 A   122 A   123 A   124 A                  
  3.203   3.203   3.302   3.302   3.352   3.353   3.385   3.387
125 A   126 A   127 A   128 A   129 A   130 A   131 A   132 A                  
  3.387   3.414   3.414   3.519   3.601   3.601   3.636   3.636
133 A   134 A   135 A   136 A   137 A   138 A   139 A   140 A                  
  3.777   3.913   3.984   4.105   4.183   4.183   4.207   4.207
141 A   142 A   143 A   144 A   145 A   146 A   147 A   148 A                  
  4.255   4.340   4.340   4.356   4.450   4.450   4.482   4.482
149 A   150 A   151 A   152 A   153 A   154 A   155 A   156 A                  
  4.803   4.922   5.137   5.137   5.323   5.329   5.329   5.356
157 A   158 A   159 A   160 A   161 A   162 A   163 A   164 A                  
  5.472   5.472   5.547   6.015   6.015   6.707   6.760   6.760
165 A   166 A   167 A   168 A   169 A   170 A   171 A   172 A                  
  6.902   6.917   6.917   7.163   7.163   7.497   7.530   7.530
173 A   174 A   175 A   176 A   177 A   178 A   179 A   180 A                  
  7.666   7.833   7.833   7.849   7.849   7.896   8.022   8.158
181 A   182 A   183 A   184 A   185 A   186 A   187 A   188 A                  
  8.158   8.188   8.240   8.636   8.639   8.639   8.965   8.965
189 A   190 A   191 A   192 A   193 A   194 A   195 A   196 A                  
  9.084   9.084   9.132   9.174   9.174   9.215   9.438   9.476
197 A   198 A   199 A   200 A   201 A   202 A   203 A   204 A                  
  9.489   9.489   9.518   9.682   9.682   9.885   9.973   9.973
205 A   206 A   207 A   208 A   209 A   210 A   211 A   212 A                  
 10.026  10.512  10.512  11.438  11.438  12.108  13.178  14.786
213 A   214 A   215 A   216 A   217 A   218 A   219 A   220 A                  
 14.786  20.014  20.014  20.727  21.110  21.110  26.101  45.257
221 A   222 A   223 A   224 A   225 A   226 A   227 A   228 A                  
 46.364  46.364  76.007  76.010  76.010  76.011  76.011  76.047
229 A   230 A   231 A   232 A   233 A   234 A   235 A   236 A                  
 76.057  84.524  86.305  86.305  86.847  86.847  86.856 152.529
237 A   238 A   239 A   240 A   241 A   242 A   243 A   244 A                  
153.426 153.426 350.086
245 A   246 A   247 A                                                          
 
 Beta MOs, Unrestricted
 -- Occupied --                  
 -7.611  -0.704  -0.498  -0.498
  1 A     2 A     3 A     4 A                                                  
 -- Virtual --                   
  0.031   0.031   0.039   0.039   0.079   0.079   0.089   0.105
  5 A     6 A     7 A     8 A     9 A    10 A    11 A    12 A                  
  0.128   0.128   0.137   0.142   0.142   0.217   0.217   0.237
 13 A    14 A    15 A    16 A    17 A    18 A    19 A    20 A                  
  0.261   0.263   0.279   0.279   0.286   0.288   0.288   0.316
 21 A    22 A    23 A    24 A    25 A    26 A    27 A    28 A                  
  0.316   0.335   0.395   0.434   0.434   0.484   0.484   0.513
 29 A    30 A    31 A    32 A    33 A    34 A    35 A    36 A                  
  0.524   0.524   0.570   0.570   0.572   0.601   0.601   0.614
 37 A    38 A    39 A    40 A    41 A    42 A    43 A    44 A                  
  0.616   0.709   0.733   0.760   0.760   0.768   0.799   0.799
 45 A    46 A    47 A    48 A    49 A    50 A    51 A    52 A                  
  0.804   0.804   0.867   0.888   0.888   0.925   0.926   0.926
 53 A    54 A    55 A    56 A    57 A    58 A    59 A    60 A                  
  0.945   0.945   0.959   1.048   1.145   1.145   1.192   1.192
 61 A    62 A    63 A    64 A    65 A    66 A    67 A    68 A                  
  1.219   1.269   1.291   1.291   1.293   1.516   1.516   1.525
 69 A    70 A    71 A    72 A    73 A    74 A    75 A    76 A                  
  1.529   1.529   1.551   1.568   1.568   1.607   1.628   1.628
 77 A    78 A    79 A    80 A    81 A    82 A    83 A    84 A                  
  1.686   1.719   1.719   1.815   1.815   1.818   1.818   1.834
 85 A    86 A    87 A    88 A    89 A    90 A    91 A    92 A                  
  1.859   1.900   1.939   1.939   1.982   2.018   2.023   2.024
 93 A    94 A    95 A    96 A    97 A    98 A    99 A   100 A                  
  2.024   2.127   2.127   2.139   2.139   2.207   2.207   2.227
101 A   102 A   103 A   104 A   105 A   106 A   107 A   108 A                  
  2.239   2.261   2.261   2.274   2.274   2.360   2.377   2.397
109 A   110 A   111 A   112 A   113 A   114 A   115 A   116 A                  
  2.416   2.416   2.765   2.901   2.901   3.031   3.155   3.155
117 A   118 A   119 A   120 A   121 A   122 A   123 A   124 A                  
  3.203   3.203   3.302   3.302   3.352   3.353   3.385   3.387
125 A   126 A   127 A   128 A   129 A   130 A   131 A   132 A                  
  3.387   3.414   3.414   3.519   3.601   3.601   3.636   3.636
133 A   134 A   135 A   136 A   137 A   138 A   139 A   140 A                  
  3.777   3.913   3.984   4.105   4.183   4.183   4.207   4.207
141 A   142 A   143 A   144 A   145 A   146 A   147 A   148 A                  
  4.255   4.340   4.340   4.356   4.450   4.450   4.482   4.482
149 A   150 A   151 A   152 A   153 A   154 A   155 A   156 A                  
  4.803   4.922   5.137   5.137   5.323   5.329   5.329   5.356
157 A   158 A   159 A   160 A   161 A   162 A   163 A   164 A                  
  5.472   5.472   5.547   6.015   6.015   6.707   6.760   6.760
165 A   166 A   167 A   168 A   169 A   170 A   171 A   172 A                  
  6.902   6.917   6.917   7.163   7.163   7.497   7.530   7.530
173 A   174 A   175 A   176 A   177 A   178 A   179 A   180 A                  
  7.666   7.833   7.833   7.849   7.849   7.896   8.022   8.158
181 A   182 A   183 A   184 A   185 A   186 A   187 A   188 A                  
  8.158   8.188   8.240   8.636   8.639   8.639   8.965   8.965
189 A   190 A   191 A   192 A   193 A   194 A   195 A   196 A                  
  9.084   9.084   9.132   9.174   9.174   9.215   9.438   9.476
197 A   198 A   199 A   200 A   201 A   202 A   203 A   204 A                  
  9.489   9.489   9.518   9.682   9.682   9.885   9.973   9.973
205 A   206 A   207 A   208 A   209 A   210 A   211 A   212 A                  
 10.026  10.512  10.512  11.438  11.438  12.108  13.178  14.786
213 A   214 A   215 A   216 A   217 A   218 A   219 A   220 A                  
 14.786  20.014  20.014  20.727  21.110  21.110  26.101  45.257
221 A   222 A   223 A   224 A   225 A   226 A   227 A   228 A                  
 46.364  46.364  76.007  76.010  76.010  76.011  76.011  76.047
229 A   230 A   231 A   232 A   233 A   234 A   235 A   236 A                  
 76.057  84.524  86.305  86.305  86.847  86.847  86.856 152.529
237 A   238 A   239 A   240 A   241 A   242 A   243 A   244 A                  
153.426 153.426 350.086
245 A   246 A   247 A                                                          

 Occupation and symmetry of molecular orbitals

 Point group: C1 (1 irreducible representation).

                           A     All 
 -------------------------------------
 All molecular orbitals:
  - Alpha                  247   247 
  - Beta                   247   247 
 -------------------------------------
 Alpha orbitals:
  - Frozen occupied        0     0   
  - Active occupied        4     4   
  - Active virtual         243   243 
  - Frozen virtual         0     0   
 -------------------------------------
 Beta orbitals:
  - Frozen occupied        0     0   
  - Active occupied        4     4   
  - Active virtual         243   243 
  - Frozen virtual         0     0   
 -------------------------------------

 Import integrals:   CPU 0.00 s  wall 0.00 s

 Import integrals:   CPU 2305.29 s  wall 731.94 s

 MP2 amplitudes:   CPU 2.00 s  wall 0.80 s

Running a double precision version
           CCSD T amplitudes will be solved using DIIS.

           Start     Size      MaxIter   EConv     TConv     
           3         7         100       1.00e-06  1.00e-04  
 ------------------------------------------------------------------------------
           Energy (a.u.)   Ediff      Tdiff       Comment
 ------------------------------------------------------------------------------
           -26.57121031                           
     1     -26.58698200   1.58e-02   3.33e-01     Step took 01.14.
     2     -26.59128792   4.31e-03   5.23e-02     
     3     -26.59241243   1.12e-03   1.63e-02     
     4     -26.59299901   5.87e-04   8.30e-03     Switched to DIIS steps.
     5     -26.59301484   1.58e-05   9.14e-04     
     6     -26.59301435   4.89e-07   2.97e-04     
     7     -26.59301417   1.79e-07   7.39e-05     
 ------------------------------------------------------------------------------
           -26.59301417                           CCSD T converged.

End of double precision

----------------------------------------
libpt (c) 2016-2018 Ilya Kaliman
Fast Coupled Cluster Triples Corrections
https://github.com/ilyak/libpt
----------------------------------------

 Starting (T) calculation...
 Using double precision libpt code
 (T) calculation completed in 65 sec
 (T) energy is -0.0031577603

 SCF energy                 = -26.40166422
 MP2 energy                 = -26.57121031
 CCSD correlation energy     =  -0.19134995
 CCSD total energy           = -26.59301417
 CCSD(T) correlation energy =  -0.00315776
 CCSD(T) total energy       = -26.59617193

 CCSD  T1^2 = 0.0008  T2^2 = 0.0632  Leading amplitudes:

 Amplitude    Orbitals with energies
 -0.0066       3 (A) B                   ->    34 (A) B                   
              -0.4984                          0.4835                     
 -0.0066       3 (A) A                   ->    34 (A) A                   
              -0.4984                          0.4835                     
 -0.0066       4 (A) A                   ->    35 (A) A                   
              -0.4984                          0.4835                     
 -0.0066       4 (A) B                   ->    35 (A) B                   
              -0.4984                          0.4835                     

 Amplitude    Orbitals with energies
 -0.0251       2 (A) A       2 (A) B     ->    11 (A) A      11 (A) B     
              -0.7043       -0.7043            0.0886        0.0886       
  0.0251       2 (A) A       2 (A) B     ->    11 (A) B      11 (A) A     
              -0.7043       -0.7043            0.0886        0.0886       
  0.0251       2 (A) B       2 (A) A     ->    11 (A) A      11 (A) B     
              -0.7043       -0.7043            0.0886        0.0886       
 -0.0251       2 (A) B       2 (A) A     ->    11 (A) B      11 (A) A     
              -0.7043       -0.7043            0.0886        0.0886       

 CCSD calculation:   CPU 2336.22 s  wall 384.81 s

 Total ccman2 time:   CPU 4694.13 s  wall 1354.38 s

 
 --------------------------------------------------------------
 
                    Orbital Energies (a.u.)
 --------------------------------------------------------------
 
 Alpha MOs
 -- Occupied --
 -7.611  -0.704  -0.498  -0.498
 -- Virtual --
  0.031   0.031   0.039   0.039   0.079   0.079   0.089   0.105
  0.128   0.128   0.137   0.142   0.142   0.217   0.217   0.237
  0.261   0.263   0.279   0.279   0.286   0.288   0.288   0.316
  0.316   0.335   0.395   0.434   0.434   0.484   0.484   0.513
  0.524   0.524   0.570   0.570   0.572   0.601   0.601   0.614
  0.616   0.709   0.733   0.760   0.760   0.768   0.799   0.799
  0.804   0.804   0.867   0.888   0.888   0.925   0.926   0.926
  0.945   0.945   0.959   1.048   1.145   1.145   1.192   1.192
  1.219   1.269   1.291   1.291   1.293   1.516   1.516   1.525
  1.529   1.529   1.551   1.568   1.568   1.607   1.628   1.628
  1.686   1.719   1.719   1.815   1.815   1.818   1.818   1.834
  1.859   1.900   1.939   1.939   1.982   2.018   2.023   2.024
  2.024   2.127   2.127   2.139   2.139   2.207   2.207   2.227
  2.239   2.261   2.261   2.274   2.274   2.360   2.377   2.397
  2.416   2.416   2.765   2.901   2.901   3.031   3.155   3.155
  3.203   3.203   3.302   3.302   3.352   3.353   3.385   3.387
  3.387   3.414   3.414   3.519   3.601   3.601   3.636   3.636
  3.777   3.913   3.984   4.105   4.183   4.183   4.207   4.207
  4.255   4.340   4.340   4.356   4.450   4.450   4.482   4.482
  4.803   4.922   5.137   5.137   5.323   5.329   5.329   5.356
  5.472   5.472   5.547   6.015   6.015   6.707   6.760   6.760
  6.902   6.917   6.917   7.163   7.163   7.497   7.530   7.530
  7.666   7.833   7.833   7.849   7.849   7.896   8.022   8.158
  8.158   8.188   8.240   8.636   8.639   8.639   8.965   8.965
  9.084   9.084   9.132   9.174   9.174   9.215   9.438   9.476
  9.489   9.489   9.518   9.682   9.682   9.885   9.973   9.973
 10.026  10.512  10.512  11.438  11.438  12.108  13.178  14.786
 14.786  20.014  20.014  20.727  21.110  21.110  26.101  45.257
 46.364  46.364  76.007  76.010  76.010  76.011  76.011  76.047
 76.057  84.524  86.305  86.305  86.847  86.847  86.856 152.529
153.426 153.426 350.086
 
 Beta MOs
 -- Occupied --
 -7.611  -0.704  -0.498  -0.498
 -- Virtual --
  0.031   0.031   0.039   0.039   0.079   0.079   0.089   0.105
  0.128   0.128   0.137   0.142   0.142   0.217   0.217   0.237
  0.261   0.263   0.279   0.279   0.286   0.288   0.288   0.316
  0.316   0.335   0.395   0.434   0.434   0.484   0.484   0.513
  0.524   0.524   0.570   0.570   0.572   0.601   0.601   0.614
  0.616   0.709   0.733   0.760   0.760   0.768   0.799   0.799
  0.804   0.804   0.867   0.888   0.888   0.925   0.926   0.926
  0.945   0.945   0.959   1.048   1.145   1.145   1.192   1.192
  1.219   1.269   1.291   1.291   1.293   1.516   1.516   1.525
  1.529   1.529   1.551   1.568   1.568   1.607   1.628   1.628
  1.686   1.719   1.719   1.815   1.815   1.818   1.818   1.834
  1.859   1.900   1.939   1.939   1.982   2.018   2.023   2.024
  2.024   2.127   2.127   2.139   2.139   2.207   2.207   2.227
  2.239   2.261   2.261   2.274   2.274   2.360   2.377   2.397
  2.416   2.416   2.765   2.901   2.901   3.031   3.155   3.155
  3.203   3.203   3.302   3.302   3.352   3.353   3.385   3.387
  3.387   3.414   3.414   3.519   3.601   3.601   3.636   3.636
  3.777   3.913   3.984   4.105   4.183   4.183   4.207   4.207
  4.255   4.340   4.340   4.356   4.450   4.450   4.482   4.482
  4.803   4.922   5.137   5.137   5.323   5.329   5.329   5.356
  5.472   5.472   5.547   6.015   6.015   6.707   6.760   6.760
  6.902   6.917   6.917   7.163   7.163   7.497   7.530   7.530
  7.666   7.833   7.833   7.849   7.849   7.896   8.022   8.158
  8.158   8.188   8.240   8.636   8.639   8.639   8.965   8.965
  9.084   9.084   9.132   9.174   9.174   9.215   9.438   9.476
  9.489   9.489   9.518   9.682   9.682   9.885   9.973   9.973
 10.026  10.512  10.512  11.438  11.438  12.108  13.178  14.786
 14.786  20.014  20.014  20.727  21.110  21.110  26.101  45.257
 46.364  46.364  76.007  76.010  76.010  76.011  76.011  76.047
 76.057  84.524  86.305  86.305  86.847  86.847  86.856 152.529
153.426 153.426 350.086
 --------------------------------------------------------------
 
          Ground-State Mulliken Net Atomic Charges

     Atom                 Charge (a.u.)    Spin (a.u.)
  --------------------------------------------------------
      1 B                     0.259989       0.000000
      2 H                    -0.086661       0.000000
      3 H                    -0.086664       0.000000
      4 H                    -0.086664       0.000000
  --------------------------------------------------------
  Sum of atomic charges =    -0.000000
  Sum of spin   charges =     0.000000

 -----------------------------------------------------------------
                    Cartesian Multipole Moments
 -----------------------------------------------------------------
    Charge (ESU x 10^10)
                -0.0000
    Dipole Moment (Debye)
         X      -0.0000      Y       0.0000      Z       0.0000
       Tot       0.0000
    Quadrupole Moments (Debye-Ang)
        XX      -9.4231     XY       0.0000     YY      -9.4232
        XZ      -0.0000     YZ       0.0000     ZZ      -7.1077
    Octopole Moments (Debye-Ang^2)
       XXX      -0.0000    XXY       0.0178    XYY      -0.0000
       YYY      -0.0176    XXZ       0.0000    XYZ      -0.0000
       YYZ      -0.0000    XZZ      -0.0000    YZZ       0.0001
       ZZZ       0.0000
    Hexadecapole Moments (Debye-Ang^3)
      XXXX     -24.4192   XXXY       0.0000   XXYY      -8.1396
      XYYY      -0.0000   YYYY     -24.4185   XXXZ      -0.0000
      XXYZ      -0.0000   XYYZ       0.0000   YYYZ      -0.0000
      XXZZ      -5.5492   XYZZ      -0.0000   YYZZ      -5.5491
      XZZZ      -0.0000   YZZZ       0.0000   ZZZZ      -7.1625
 -----------------------------------------------------------------
Archival summary:
1\1\n0056.mhg0\SP\ProcedureUnspecified\BasisUnspecified\13\yhljason\MonJul1318:26:552020MonJul1318:26:552020\0\\#,ProcedureUnspecified,BasisUnspecified,\\0,1\B\H,1,1.19\H,1,1.19003,2,119.999\H,1,1.19003,2,119.999,3,-180,0\\HF=-26.4016642\\@

 Total job time:  6098.60s(wall), 5374.32s(cpu) 
 Mon Jul 13 18:26:55 2020

        *************************************************************
        *                                                           *
        *  Thank you very much for using Q-Chem.  Have a nice day.  *
        *                                                           *
        *************************************************************


