Q-Chem Developer Version!
                  Welcome to Q-Chem
     A Quantum Leap Into The Future Of Chemistry


 Q-Chem 5.1, Q-Chem, Inc., Pleasanton, CA (2018)

 Yihan Shao,  Zhengting Gan,  E. Epifanovsky,  A. T. B. Gilbert,  M. Wormit,  
 J. Kussmann,  A. W. Lange,  A. Behn,  Jia Deng,  Xintian Feng,  D. Ghosh,  
 M. Goldey,  P. R. Horn,  L. D. Jacobson,  I. Kaliman,  T. Kus,  A. Landau,  
 Jie Liu,  E. I. Proynov,  R. M. Richard,  R. P. Steele,  E. J. Sundstrom,  
 H. L. Woodcock III,  P. M. Zimmerman,  D. Zuev,  B. Albrecht,  E. Alguire,  
 S. A. Baeppler,  D. Barton,  Z. Benda,  Y. A. Bernard,  E. J. Berquist,  
 K. B. Bravaya,  H. Burton,  D. Casanova,  Chun-Min Chang,  Yunqing Chen,  
 A. Chien,  K. D. Closser,  M. P. Coons,  S. Coriani,  S. Dasgupta,  
 A. L. Dempwolff,  M. Diedenhofen,  Hainam Do,  R. G. Edgar,  Po-Tung Fang,  
 S. Faraji,  S. Fatehi,  Qingguo Feng,  K. D. Fenk,  J. Fosso-Tande,  
 Qinghui Ge,  A. Ghysels,  G. Gidofalvi,  J. Gomes,  J. Gonthier,  A. Gunina,  
 D. Hait,  M. W. D. Hanson-Heine,  P. H. P. Harbach,  A. W. Hauser,  
 J. E. Herr,  E. G. Hohenstein,  Z. C. Holden,  Kerwin Hui,  B. C. Huynh,  
 T.-C. Jagau,  Hyunjun Ji,  B. Kaduk,  K. Khistyaev,  Jaehoon Kim,  
 P. Klunzinger,  K. Koh,  D. Kosenkov,  L. Koulias,  T. Kowalczyk,  
 C. M. Krauter,  A. Kunitsa,  Ka Un Lao,  A. Laurent,  K. V. Lawler,  
 Joonho Lee,  D. Lefrancois,  S. Lehtola,  D. S. Levine,  Yi-Pei Li,  
 You-Sheng Lin,  Fenglai Liu,  E. Livshits,  A. Luenser,  P. Manohar,  
 E. Mansoor,  S. F. Manzer,  Shan-Ping Mao,  Yuezhi Mao,  N. Mardirossian,  
 A. V. Marenich,  T. Markovich,  L. A. Martinez-Martinez,  S. A. Maurer,  
 N. J. Mayhall,  S. C. McKenzie,  J.-M. Mewes,  A. F. Morrison,  
 J. W. Mullinax,  K. Nanda,  T. S. Nguyen-Beck,  R. Olivares-Amaya,  
 J. A. Parkhill,  T. M. Perrine,  F. Plasser,  P. Pokhilko,  S. Prager,  
 A. Prociuk,  E. Ramos,  D. R. Rehn,  F. Rob,  M. Schneider,  N. Sergueev,  
 S. M. Sharada,  S. Sharma,  D. W. Small,  T. Stauch,  T. Stein,  
 Yu-Chuan Su,  A. J. W. Thom,  A. Tkatchenko,  T. Tsuchimochi,  N. M. Tubman,  
 L. Vogt,  M. L. Vidal,  O. Vydrov,  M. A. Watson,  J. Wenzel,  
 M. de Wergifosse,  T. A. Wesolowski,  A. White,  J. Witte,  A. Yamada,  
 Jun Yang,  K. Yao,  S. Yeganeh,  S. R. Yost,  Zhi-Qiang You,  A. Zech,  
 Igor Ying Zhang,  Xing Zhang,  Yan Zhao,  Ying Zhu,  B. R. Brooks,  
 G. K. L. Chan,  C. J. Cramer,  M. S. Gordon,  W. J. Hehre,  A. Klamt,  
 M. W. Schmidt,  C. D. Sherrill,  D. G. Truhlar,  A. Aspuru-Guzik,  R. Baer,  
 A. T. Bell,  N. A. Besley,  Jeng-Da Chai,  A. E. DePrince, III,  
 R. A. DiStasio Jr.,  A. Dreuw,  B. D. Dunietz,  T. R. Furlani,  
 Chao-Ping Hsu,  Yousung Jung,  Jing Kong,  D. S. Lambrecht,  WanZhen Liang,  
 C. Ochsenfeld,  V. A. Rassolov,  L. V. Slipchenko,  J. E. Subotnik,  
 T. Van Voorhis,  J. M. Herbert,  A. I. Krylov,  P. M. W. Gill,  M. Head-Gordon

 Contributors to earlier versions of Q-Chem not listed above: 
 R. D. Adamson,  B. Austin,  J. Baker,  G. J. O. Beran,  K. Brandhorst,  
 S. T. Brown,  E. F. C. Byrd,  A. K. Chakraborty,  C.-L. Cheng,  
 Siu Hung Chien,  D. M. Chipman,  D. L. Crittenden,  H. Dachsel,  
 R. J. Doerksen,  A. D. Dutoi,  L. Fusti-Molnar,  W. A. Goddard III,  
 A. Golubeva-Zadorozhnaya,  S. R. Gwaltney,  G. Hawkins,  A. Heyden,  
 S. Hirata,  G. Kedziora,  F. J. Keil,  C. Kelley,  Jihan Kim,  R. A. King,  
 R. Z. Khaliullin,  P. P. Korambath,  W. Kurlancheek,  A. M. Lee,  M. S. Lee,  
 S. V. Levchenko,  Ching Yeh Lin,  D. Liotard,  R. C. Lochan,  I. Lotan,  
 P. E. Maslen,  N. Nair,  D. P. O'Neill,  D. Neuhauser,  E. Neuscamman,  
 C. M. Oana,  R. Olson,  B. Peters,  R. Peverati,  P. A. Pieniazek,  
 Y. M. Rhee,  J. Ritchie,  M. A. Rohrdanz,  E. Rosta,  N. J. Russ,  
 H. F. Schaefer III,  N. E. Schultz,  N. Shenvi,  A. C. Simmonett,  A. Sodt,  
 D. Stuck,  K. S. Thanthiriwatte,  V. Vanovschi,  Tao Wang,  A. Warshel,  
 C. F. Williams,  Q. Wu,  X. Xu,  W. Zhang

 Please cite Q-Chem as follows:
 Y. Shao et al., Mol. Phys. 113, 184-215 (2015)
 DOI: 10.1080/00268976.2014.952696

 Q-Chem 5.1.1 for Intel X86 EM64T Linux

 Parts of Q-Chem use Armadillo 8.300.2 (Tropical Shenanigans).
 http://arma.sourceforge.net/

 Q-Chem begins on Mon Jul 13 19:27:31 2020  

Host: n0087.mhg0
0

     Scratch files written to /local/scratch/users/yhljason/H2_ccsdT_aug-cc-pcVQZ.inp20200713023005//
Input Ideriv = 0
Curr. Ideriv = -1
Max.  Ideriv = 0

Checking the input file for inconsistencies... 	...done.

--------------------------------------------------------------
User input:
--------------------------------------------------------------
$molecule
0 1
H1 0.0000   0.0000   0.0000
H2 0.0000   0.0000   0.7414
$end

$rem
jobtype sp
method CCSD(T)
xc_grid 000099000590
basis aug-cc-pcVQZ
max_scf_cycles 200
thresh 14
scf_convergence 8
scf_algorithm gdm
symmetry false
sym_ignore true
unrestricted true
gen_scfman true
internal_stability_iter 15
internal_stability_davidson_iter 200
mem_total 128000
cc_memory 96000
cc_backend xm
mem_static 1500
n_frozen_core 0
$end


--------------------------------------------------------------
 ----------------------------------------------------------------
             Standard Nuclear Orientation (Angstroms)
    I     Atom           X                Y                Z
 ----------------------------------------------------------------
    1      H       0.0000000000     0.0000000000     0.0000000000
    2      H       0.0000000000     0.0000000000     0.7414000000
 ----------------------------------------------------------------
 Nuclear Repulsion Energy =     0.7137539935 hartrees
 There are        1 alpha and        1 beta electrons
 Requested basis set is aug-cc-pCVQZ
 There are 28 shells and 92 basis functions
 Total memory of 128000MB is distributed as follows: 
   QALLOC including MEM_STATIC uses 32000MB
   MEM_STATIC is set to 1500MB
   CCMAN JOB total memory use is  96000MB
 Warning: actual memory use might exceed 128000MB

 Total QAlloc Memory Limit  32000 MB
 Mega-Array Size      1467 MB
 MEM_STATIC part      1500 MB

                       Distance Matrix (Angstroms)
             H (  1)
   H (  2)  0.741400
 
 A cutoff of  1.0D-14 yielded    406 shell pairs
 There are      4446 function pairs (      6399 Cartesian)
 
 -------------------------------------------------------
 OpenMP Integral Computing Module                       
 Release: version 1.0, May 2013, Q-Chem Inc. Pittsburgh 
 -------------------------------------------------------
 Integral Job Info:
 Integral job number is                      11
 Integral operator is                         1
 short-range coefficients                     0
 long-range coefficients              100000000
 Omega coefficients                           0
 if combine SR and LR in K                    0
 Integral screening is                        0
 Integral computing path is                   2
 max size of driver memory is            800000
 size of driver memory is                776718
 size of scratch memory is              1423620
 max col of scratch BK array              10000
 max len of scratch array in speh3          662
 max len of scratch index in speh4           32
 max int batch size is                      520
 min int batch size is                       52
 fixed nKL is                                52
 max L of basis functions is                  3
 order of int derivative is                   0
 number of shells is                         28
 number of basis is                         110
 number of cartesian basis is               110
 number of contracted shell pairs           406
 number of primitive shell pairs            533
 maxK2 (contraction) of shell pair            9
 max number of K2 of shell pair               1
 max number of CS2 of shell pair             64
 max number of PS2 of shell pair             64
 mem total for path MDJ                  546996
 -------------------------------------------------------
 Smallest overlap matrix eigenvalue = 3.30E-05

 Scale SEOQF with 1.000000e-01/1.000000e-01/1.000000e-01

 Standard Electronic Orientation quadrupole field applied
 Guess from superposition of atomic densities
 Warning:  Energy on first SCF cycle will be non-variational
 SAD guess density has 2.000000 electrons

 -----------------------------------------------------------------------
  General SCF calculation program by
  Eric Jon Sundstrom, Paul Horn, Yuezhi Mao, Dmitri Zuev, Alec White,
  David Stuck, Shaama M.S., Shane Yost, Joonho Lee, David Small,
  Daniel Levine, Susi Lehtola, Hugh Burton, Evgeny Epifanovsky
 -----------------------------------------------------------------------
Running Object-Oriented UHF
performing a single roothaan step with Fock from read density so that orbitals are available to all algorithms
energy of the guess density (C=0) -0.851343526512
We will preform up to 15 macro iterations over saddle points until a stable solution is found
Energy prior to optimization (guess energy) = -1.132134447046
Begin Timing: Total SCF Calculation
Begin Timing: SCF Single Stationary Point Calculation
begin iterations for algorithm: GDM          
the SCF tolerance is set to 1.00e-08
    1      -1.1321344470      2.28e-02     00000  Normal BFGS step
    2      -1.1334189569      4.45e-03     00000  Normal BFGS step
    3      -1.1334669665      2.96e-04     00000  Normal BFGS step
    4      -1.1334673234      6.90e-05     00000  Normal BFGS step
    5      -1.1334673349      3.65e-06     00000  Normal BFGS step
    6      -1.1334673349      4.86e-07     00000  Normal BFGS step
    7      -1.1334673349      3.46e-08     00000  Normal BFGS step
    8      -1.1334673349      4.74e-09     00000 Convergence criterion met
Timing for Single Stationary Point: 3.00s (wall), 21.40s (cpu)
Begin Timing: Stability
===================================================
Beginning Test for Internal Stability
===================================================
generating davidson guess vectors based on koopmans excitations
    1      1.31e-01     00000 Davidson Iteration
    2      4.19e-02     00000 Davidson Iteration
    3      7.11e-03     00000 Davidson Iteration
    4      6.50e-03     00000 Davidson Iteration
    5      2.92e-03     00000 Davidson Iteration
    6      6.83e-04     00000 Davidson Iteration
    7      2.45e-04     00000 Davidson Iteration
    8      1.05e-04     00000 Davidson Iteration
    9      1.19e-04     00000 Davidson Iteration
   10      4.25e-05     00000 Davidson Iteration
   11      3.20e-05     00000 Davidson Converged
converged_eigenvalues
   0.8116
   0.5348
Threshold for negative eigenvalues: -1.0e-05
solution was a local minimum (stable)
===================================================
End Test for Internal Stability
===================================================
Our SCF solution is stable!
Timing for Total SCF: 9.00s (wall), 69.49s (cpu)
 Total energy in the final basis set =       -1.1334673349
<S^2> =          0.000000000
    ==================================================
              The end of Object-Oriented SCFman       
    ==================================================


 ------------------------------------------------------------------------------

   CCMAN2: suite of methods based on coupled cluster
           and equation of motion theories.

   Components:
   * libvmm-1.3-trunk
     by Evgeny Epifanovsky, Ilya Kaliman.
   * libtensor-2.5-trunk
     by Evgeny Epifanovsky, Michael Wormit, Dmitry Zuev, Sam Manzer, 
        Ilya Kaliman.
   * libcc-2.5-trunk
     by Evgeny Epifanovsky, Arik Landau, Tomasz Kus, Kirill Khistyaev, 
        Dmitry Zuev, Prashant Manohar, Xintian Feng, Anna Krylov, 
        Matthew Goldey, Alec White, Thomas Jagau, Kaushik Nanda, 
        Anastasia Gunina, Alexander Kunitsa, Joonho Lee.

   CCMAN original authors:
   Anna I. Krylov, C. David Sherrill, Steven R. Gwaltney,
   Edward F. C. Byrd (2000)
   Sergey V. Levchenko, Lyudmila V. Slipchenko, Tao Wang,
   Ana-Maria C. Cristian (2003)
   Piotr A. Pieniazek, C. Melania Oana, Evgeny Epifanovsky (2007)
   Prashant Manohar (2009)

 ------------------------------------------------------------------------------


 Calculation will run on 8 cores using libxm for tensor contractions

 ------------------------------------------------------------------------------
Libxm Tensor Library
Copyright (c) 2014-2018 Ilya Kaliman
https://github.com/ilyak/libxm
Reference: https://dx.doi.org/10.1002/jcc.24713
 ------------------------------------------------------------------------------

 
 Alpha MOs, Unrestricted
 -- Occupied --                  
 -0.594
  1 A                                                                          
 -- Virtual --                   
  0.047   0.047   0.161   0.174   0.174   0.229   0.233   0.233
  2 A     3 A     4 A     5 A     6 A     7 A     8 A     9 A                  
  0.327   0.364   0.602   0.602   0.610   0.662   0.662   0.687
 10 A    11 A    12 A    13 A    14 A    15 A    16 A    17 A                  
  0.700   0.700   0.710   0.710   0.734   0.734   0.824   1.118
 18 A    19 A    20 A    21 A    22 A    23 A    24 A    25 A                  
  1.440   1.440   1.517   1.517   1.569   1.744   1.804   1.804
 26 A    27 A    28 A    29 A    30 A    31 A    32 A    33 A                  
  1.810   1.810   1.811   1.811   1.859   1.859   1.863   1.864
 34 A    35 A    36 A    37 A    38 A    39 A    40 A    41 A                  
  1.876   1.876   2.305   2.363   2.363   2.397   2.397   2.753
 42 A    43 A    44 A    45 A    46 A    47 A    48 A    49 A                  
  3.058   3.058   3.486   3.542   3.542   3.684   3.684   4.241
 50 A    51 A    52 A    53 A    54 A    55 A    56 A    57 A                  
  4.251   4.489   4.489   5.939   6.247   6.247   6.574   6.574
 58 A    59 A    60 A    61 A    62 A    63 A    64 A    65 A                  
  7.155   7.155   7.166   7.166   7.672   7.672   7.733   7.875
 66 A    67 A    68 A    69 A    70 A    71 A    72 A    73 A                  
  7.875   8.013   8.392   8.392   8.401   8.401   8.628   9.027
 74 A    75 A    76 A    77 A    78 A    79 A    80 A    81 A                  
  9.121   9.121   9.137   9.137   9.725   9.725  10.834  12.913
 82 A    83 A    84 A    85 A    86 A    87 A    88 A    89 A                  
 12.913  13.358  16.453
 90 A    91 A    92 A                                                          
 
 Beta MOs, Unrestricted
 -- Occupied --                  
 -0.594
  1 A                                                                          
 -- Virtual --                   
  0.047   0.047   0.161   0.174   0.174   0.229   0.233   0.233
  2 A     3 A     4 A     5 A     6 A     7 A     8 A     9 A                  
  0.327   0.364   0.602   0.602   0.610   0.662   0.662   0.687
 10 A    11 A    12 A    13 A    14 A    15 A    16 A    17 A                  
  0.700   0.700   0.710   0.710   0.734   0.734   0.824   1.118
 18 A    19 A    20 A    21 A    22 A    23 A    24 A    25 A                  
  1.440   1.440   1.517   1.517   1.569   1.744   1.804   1.804
 26 A    27 A    28 A    29 A    30 A    31 A    32 A    33 A                  
  1.810   1.810   1.811   1.811   1.859   1.859   1.863   1.864
 34 A    35 A    36 A    37 A    38 A    39 A    40 A    41 A                  
  1.876   1.876   2.305   2.363   2.363   2.397   2.397   2.753
 42 A    43 A    44 A    45 A    46 A    47 A    48 A    49 A                  
  3.058   3.058   3.486   3.542   3.542   3.684   3.684   4.241
 50 A    51 A    52 A    53 A    54 A    55 A    56 A    57 A                  
  4.251   4.489   4.489   5.939   6.247   6.247   6.574   6.574
 58 A    59 A    60 A    61 A    62 A    63 A    64 A    65 A                  
  7.155   7.155   7.166   7.166   7.672   7.672   7.733   7.875
 66 A    67 A    68 A    69 A    70 A    71 A    72 A    73 A                  
  7.875   8.013   8.392   8.392   8.401   8.401   8.628   9.027
 74 A    75 A    76 A    77 A    78 A    79 A    80 A    81 A                  
  9.121   9.121   9.137   9.137   9.725   9.725  10.834  12.913
 82 A    83 A    84 A    85 A    86 A    87 A    88 A    89 A                  
 12.913  13.358  16.453
 90 A    91 A    92 A                                                          

 Occupation and symmetry of molecular orbitals

 Point group: C1 (1 irreducible representation).

                           A     All 
 -------------------------------------
 All molecular orbitals:
  - Alpha                  92    92  
  - Beta                   92    92  
 -------------------------------------
 Alpha orbitals:
  - Frozen occupied        0     0   
  - Active occupied        1     1   
  - Active virtual         91    91  
  - Frozen virtual         0     0   
 -------------------------------------
 Beta orbitals:
  - Frozen occupied        0     0   
  - Active occupied        1     1   
  - Active virtual         91    91  
  - Frozen virtual         0     0   
 -------------------------------------

 Import integrals:   CPU 0.00 s  wall 0.00 s

 Import integrals:   CPU 30.08 s  wall 7.83 s

 MP2 amplitudes:   CPU 0.20 s  wall 0.12 s

Running a double precision version
           CCSD T amplitudes will be solved using DIIS.

           Start     Size      MaxIter   EConv     TConv     
           3         7         100       1.00e-06  1.00e-04  
 ------------------------------------------------------------------------------
           Energy (a.u.)   Ediff      Tdiff       Comment
 ------------------------------------------------------------------------------
            -1.16672192                           
     1      -1.17141448   4.69e-03   1.55e-01     
     2      -1.17304294   1.63e-03   3.13e-02     
     3      -1.17356736   5.24e-04   1.09e-02     
     4      -1.17386295   2.96e-04   6.09e-03     Switched to DIIS steps.
     5      -1.17386777   4.81e-06   6.01e-04     
     6      -1.17386720   5.68e-07   5.25e-05     
 ------------------------------------------------------------------------------
            -1.17386720                           CCSD T converged.

End of double precision

----------------------------------------
libpt (c) 2016-2018 Ilya Kaliman
Fast Coupled Cluster Triples Corrections
https://github.com/ilyak/libpt
----------------------------------------

 Starting (T) calculation...
 Using double precision libpt code
 (T) calculation completed in 0 sec
 (T) energy is 0.0000000000

 SCF energy                 = -1.13346733
 MP2 energy                 = -1.16672192
 CCSD correlation energy     = -0.04039986
 CCSD total energy           = -1.17386720
 CCSD(T) correlation energy =  0.00000000
 CCSD(T) total energy       = -1.17386720

 CCSD  T1^2 = 0.0001  T2^2 = 0.0182  Leading amplitudes:

 Amplitude    Orbitals with energies
 -0.0054       1 (A) B                   ->    10 (A) B                   
              -0.5944                          0.3266                     
 -0.0054       1 (A) A                   ->    10 (A) A                   
              -0.5944                          0.3266                     
 -0.0031       1 (A) B                   ->    2 (A) B                    
              -0.5944                          0.0472                     
  0.0031       1 (A) A                   ->    2 (A) A                    
              -0.5944                          0.0472                     

 Amplitude    Orbitals with energies
 -0.0341       1 (A) A       1 (A) B     ->    11 (A) A      11 (A) B     
              -0.5944       -0.5944            0.3643        0.3643       
  0.0341       1 (A) A       1 (A) B     ->    11 (A) B      11 (A) A     
              -0.5944       -0.5944            0.3643        0.3643       
  0.0341       1 (A) B       1 (A) A     ->    11 (A) A      11 (A) B     
              -0.5944       -0.5944            0.3643        0.3643       
 -0.0341       1 (A) B       1 (A) A     ->    11 (A) B      11 (A) A     
              -0.5944       -0.5944            0.3643        0.3643       

 CCSD calculation:   CPU 25.24 s  wall 6.27 s

 Total ccman2 time:   CPU 62.95 s  wall 17.90 s

 
 --------------------------------------------------------------
 
                    Orbital Energies (a.u.)
 --------------------------------------------------------------
 
 Alpha MOs
 -- Occupied --
 -0.594
 -- Virtual --
  0.047   0.047   0.161   0.174   0.174   0.229   0.233   0.233
  0.327   0.364   0.602   0.602   0.610   0.662   0.662   0.687
  0.700   0.700   0.710   0.710   0.734   0.734   0.824   1.118
  1.440   1.440   1.517   1.517   1.569   1.744   1.804   1.804
  1.810   1.810   1.811   1.811   1.859   1.859   1.863   1.864
  1.876   1.876   2.305   2.363   2.363   2.397   2.397   2.753
  3.058   3.058   3.486   3.542   3.542   3.684   3.684   4.241
  4.251   4.489   4.489   5.939   6.247   6.247   6.574   6.574
  7.155   7.155   7.166   7.166   7.672   7.672   7.733   7.875
  7.875   8.013   8.392   8.392   8.401   8.401   8.628   9.027
  9.121   9.121   9.137   9.137   9.725   9.725  10.834  12.913
 12.913  13.358  16.453
 
 Beta MOs
 -- Occupied --
 -0.594
 -- Virtual --
  0.047   0.047   0.161   0.174   0.174   0.229   0.233   0.233
  0.327   0.364   0.602   0.602   0.610   0.662   0.662   0.687
  0.700   0.700   0.710   0.710   0.734   0.734   0.824   1.118
  1.440   1.440   1.517   1.517   1.569   1.744   1.804   1.804
  1.810   1.810   1.811   1.811   1.859   1.859   1.863   1.864
  1.876   1.876   2.305   2.363   2.363   2.397   2.397   2.753
  3.058   3.058   3.486   3.542   3.542   3.684   3.684   4.241
  4.251   4.489   4.489   5.939   6.247   6.247   6.574   6.574
  7.155   7.155   7.166   7.166   7.672   7.672   7.733   7.875
  7.875   8.013   8.392   8.392   8.401   8.401   8.628   9.027
  9.121   9.121   9.137   9.137   9.725   9.725  10.834  12.913
 12.913  13.358  16.453
 --------------------------------------------------------------
 
          Ground-State Mulliken Net Atomic Charges

     Atom                 Charge (a.u.)    Spin (a.u.)
  --------------------------------------------------------
      1 H                    -0.000000       0.000000
      2 H                     0.000000      -0.000000
  --------------------------------------------------------
  Sum of atomic charges =     0.000000
  Sum of spin   charges =    -0.000000

 -----------------------------------------------------------------
                    Cartesian Multipole Moments
 -----------------------------------------------------------------
    Charge (ESU x 10^10)
                 0.0000
    Dipole Moment (Debye)
         X       0.0000      Y       0.0000      Z       0.0000
       Tot       0.0000
    Quadrupole Moments (Debye-Ang)
        XX      -2.0928     XY       0.0000     YY      -2.0928
        XZ       0.0000     YZ       0.0000     ZZ      -1.4262
    Octopole Moments (Debye-Ang^2)
       XXX       0.0000    XXY       0.0000    XYY       0.0000
       YYY       0.0000    XXZ      -0.7758    XYZ       0.0000
       YYZ      -0.7758    XZZ       0.0000    YZZ       0.0000
       ZZZ      -1.5860
    Hexadecapole Moments (Debye-Ang^3)
      XXXX      -2.0911   XXXY       0.0000   XXYY      -0.6970
      XYYY       0.0000   YYYY      -2.0911   XXXZ       0.0000
      XXYZ       0.0000   XYYZ       0.0000   YYYZ       0.0000
      XXZZ      -1.1053   XYZZ       0.0000   YYZZ      -1.1053
      XZZZ       0.0000   YZZZ       0.0000   ZZZZ      -3.8815
 -----------------------------------------------------------------
Archival summary:
1\1\n0087.mhg0\SP\ProcedureUnspecified\BasisUnspecified\2\yhljason\MonJul1319:27:592020MonJul1319:27:592020\0\\#,ProcedureUnspecified,BasisUnspecified,\\0,1\H\H,1,0.7414\\HF=-1.13346733\\@

 Total job time:  28.61s(wall), 141.42s(cpu) 
 Mon Jul 13 19:27:59 2020

        *************************************************************
        *                                                           *
        *  Thank you very much for using Q-Chem.  Have a nice day.  *
        *                                                           *
        *************************************************************


 
User input: 2 of 7 
 
Q-Chem Developer Version!
                  Welcome to Q-Chem
     A Quantum Leap Into The Future Of Chemistry


 Q-Chem 5.1, Q-Chem, Inc., Pleasanton, CA (2018)

 Yihan Shao,  Zhengting Gan,  E. Epifanovsky,  A. T. B. Gilbert,  M. Wormit,  
 J. Kussmann,  A. W. Lange,  A. Behn,  Jia Deng,  Xintian Feng,  D. Ghosh,  
 M. Goldey,  P. R. Horn,  L. D. Jacobson,  I. Kaliman,  T. Kus,  A. Landau,  
 Jie Liu,  E. I. Proynov,  R. M. Richard,  R. P. Steele,  E. J. Sundstrom,  
 H. L. Woodcock III,  P. M. Zimmerman,  D. Zuev,  B. Albrecht,  E. Alguire,  
 S. A. Baeppler,  D. Barton,  Z. Benda,  Y. A. Bernard,  E. J. Berquist,  
 K. B. Bravaya,  H. Burton,  D. Casanova,  Chun-Min Chang,  Yunqing Chen,  
 A. Chien,  K. D. Closser,  M. P. Coons,  S. Coriani,  S. Dasgupta,  
 A. L. Dempwolff,  M. Diedenhofen,  Hainam Do,  R. G. Edgar,  Po-Tung Fang,  
 S. Faraji,  S. Fatehi,  Qingguo Feng,  K. D. Fenk,  J. Fosso-Tande,  
 Qinghui Ge,  A. Ghysels,  G. Gidofalvi,  J. Gomes,  J. Gonthier,  A. Gunina,  
 D. Hait,  M. W. D. Hanson-Heine,  P. H. P. Harbach,  A. W. Hauser,  
 J. E. Herr,  E. G. Hohenstein,  Z. C. Holden,  Kerwin Hui,  B. C. Huynh,  
 T.-C. Jagau,  Hyunjun Ji,  B. Kaduk,  K. Khistyaev,  Jaehoon Kim,  
 P. Klunzinger,  K. Koh,  D. Kosenkov,  L. Koulias,  T. Kowalczyk,  
 C. M. Krauter,  A. Kunitsa,  Ka Un Lao,  A. Laurent,  K. V. Lawler,  
 Joonho Lee,  D. Lefrancois,  S. Lehtola,  D. S. Levine,  Yi-Pei Li,  
 You-Sheng Lin,  Fenglai Liu,  E. Livshits,  A. Luenser,  P. Manohar,  
 E. Mansoor,  S. F. Manzer,  Shan-Ping Mao,  Yuezhi Mao,  N. Mardirossian,  
 A. V. Marenich,  T. Markovich,  L. A. Martinez-Martinez,  S. A. Maurer,  
 N. J. Mayhall,  S. C. McKenzie,  J.-M. Mewes,  A. F. Morrison,  
 J. W. Mullinax,  K. Nanda,  T. S. Nguyen-Beck,  R. Olivares-Amaya,  
 J. A. Parkhill,  T. M. Perrine,  F. Plasser,  P. Pokhilko,  S. Prager,  
 A. Prociuk,  E. Ramos,  D. R. Rehn,  F. Rob,  M. Schneider,  N. Sergueev,  
 S. M. Sharada,  S. Sharma,  D. W. Small,  T. Stauch,  T. Stein,  
 Yu-Chuan Su,  A. J. W. Thom,  A. Tkatchenko,  T. Tsuchimochi,  N. M. Tubman,  
 L. Vogt,  M. L. Vidal,  O. Vydrov,  M. A. Watson,  J. Wenzel,  
 M. de Wergifosse,  T. A. Wesolowski,  A. White,  J. Witte,  A. Yamada,  
 Jun Yang,  K. Yao,  S. Yeganeh,  S. R. Yost,  Zhi-Qiang You,  A. Zech,  
 Igor Ying Zhang,  Xing Zhang,  Yan Zhao,  Ying Zhu,  B. R. Brooks,  
 G. K. L. Chan,  C. J. Cramer,  M. S. Gordon,  W. J. Hehre,  A. Klamt,  
 M. W. Schmidt,  C. D. Sherrill,  D. G. Truhlar,  A. Aspuru-Guzik,  R. Baer,  
 A. T. Bell,  N. A. Besley,  Jeng-Da Chai,  A. E. DePrince, III,  
 R. A. DiStasio Jr.,  A. Dreuw,  B. D. Dunietz,  T. R. Furlani,  
 Chao-Ping Hsu,  Yousung Jung,  Jing Kong,  D. S. Lambrecht,  WanZhen Liang,  
 C. Ochsenfeld,  V. A. Rassolov,  L. V. Slipchenko,  J. E. Subotnik,  
 T. Van Voorhis,  J. M. Herbert,  A. I. Krylov,  P. M. W. Gill,  M. Head-Gordon

 Contributors to earlier versions of Q-Chem not listed above: 
 R. D. Adamson,  B. Austin,  J. Baker,  G. J. O. Beran,  K. Brandhorst,  
 S. T. Brown,  E. F. C. Byrd,  A. K. Chakraborty,  C.-L. Cheng,  
 Siu Hung Chien,  D. M. Chipman,  D. L. Crittenden,  H. Dachsel,  
 R. J. Doerksen,  A. D. Dutoi,  L. Fusti-Molnar,  W. A. Goddard III,  
 A. Golubeva-Zadorozhnaya,  S. R. Gwaltney,  G. Hawkins,  A. Heyden,  
 S. Hirata,  G. Kedziora,  F. J. Keil,  C. Kelley,  Jihan Kim,  R. A. King,  
 R. Z. Khaliullin,  P. P. Korambath,  W. Kurlancheek,  A. M. Lee,  M. S. Lee,  
 S. V. Levchenko,  Ching Yeh Lin,  D. Liotard,  R. C. Lochan,  I. Lotan,  
 P. E. Maslen,  N. Nair,  D. P. O'Neill,  D. Neuhauser,  E. Neuscamman,  
 C. M. Oana,  R. Olson,  B. Peters,  R. Peverati,  P. A. Pieniazek,  
 Y. M. Rhee,  J. Ritchie,  M. A. Rohrdanz,  E. Rosta,  N. J. Russ,  
 H. F. Schaefer III,  N. E. Schultz,  N. Shenvi,  A. C. Simmonett,  A. Sodt,  
 D. Stuck,  K. S. Thanthiriwatte,  V. Vanovschi,  Tao Wang,  A. Warshel,  
 C. F. Williams,  Q. Wu,  X. Xu,  W. Zhang

 Please cite Q-Chem as follows:
 Y. Shao et al., Mol. Phys. 113, 184-215 (2015)
 DOI: 10.1080/00268976.2014.952696

 Q-Chem 5.1.1 for Intel X86 EM64T Linux

 Parts of Q-Chem use Armadillo 8.300.2 (Tropical Shenanigans).
 http://arma.sourceforge.net/

 Q-Chem begins on Mon Jul 13 19:27:59 2020  

Host: n0087.mhg0
0

     Scratch files written to /local/scratch/users/yhljason/H2_ccsdT_aug-cc-pcVQZ.inp20200713023005//
The previous job contains 0 fragments, simply inherited here
Input Ideriv = 0
Curr. Ideriv = -1
Max.  Ideriv = 0

Checking the input file for inconsistencies... 	...done.

--------------------------------------------------------------
User input:
--------------------------------------------------------------
$molecule
read
$end

$rem

jobtype sp
method CCSD(T)
xc_grid 000099000590
basis aug-cc-pcVQZ
max_scf_cycles 200
thresh 14
scf_convergence 8
mem_total 128000
cc_memory 96000
cc_backend xm
mem_static 1500
symmetry false
sym_ignore true
scf_guess read
unrestricted true
scf_algorithm gdm
n_frozen_core 0
$end

$multipole_field
XX 0.0001
$end


--------------------------------------------------------------
 ----------------------------------------------------------------
             Standard Nuclear Orientation (Angstroms)
    I     Atom           X                Y                Z
 ----------------------------------------------------------------
    1      H       0.0000000000     0.0000000000     0.0000000000
    2      H       0.0000000000     0.0000000000     0.7414000000
 ----------------------------------------------------------------
 Nuclear Repulsion Energy =     0.7137539935 hartrees
 There are        1 alpha and        1 beta electrons
 Requested basis set is aug-cc-pCVQZ
 There are 28 shells and 92 basis functions
 Total memory of 128000MB is distributed as follows: 
   QALLOC including MEM_STATIC uses 32000MB
   MEM_STATIC is set to 1500MB
   CCMAN JOB total memory use is  96000MB
 Warning: actual memory use might exceed 128000MB

 Total QAlloc Memory Limit  32000 MB
 Mega-Array Size      1467 MB
 MEM_STATIC part      1500 MB

                       Distance Matrix (Angstroms)
             H (  1)
   H (  2)  0.741400
 
 Applying Cartesian multipole field
    Component          Value
    ---------          -----
     (2,0,0)        1.00000E-04
 A cutoff of  1.0D-14 yielded    406 shell pairs
 There are      4446 function pairs (      6399 Cartesian)
 
 -------------------------------------------------------
 OpenMP Integral Computing Module                       
 Release: version 1.0, May 2013, Q-Chem Inc. Pittsburgh 
 -------------------------------------------------------
 Integral Job Info:
 Integral job number is                      11
 Integral operator is                         1
 short-range coefficients                     0
 long-range coefficients              100000000
 Omega coefficients                           0
 if combine SR and LR in K                    0
 Integral screening is                        0
 Integral computing path is                   2
 max size of driver memory is            800000
 size of driver memory is                776718
 size of scratch memory is              1423620
 max col of scratch BK array              10000
 max len of scratch array in speh3          662
 max len of scratch index in speh4           32
 max int batch size is                      520
 min int batch size is                       52
 fixed nKL is                                52
 max L of basis functions is                  3
 order of int derivative is                   0
 number of shells is                         28
 number of basis is                         110
 number of cartesian basis is               110
 number of contracted shell pairs           406
 number of primitive shell pairs            533
 maxK2 (contraction) of shell pair            9
 max number of K2 of shell pair               1
 max number of CS2 of shell pair             64
 max number of PS2 of shell pair             64
 mem total for path MDJ                  546996
 -------------------------------------------------------
 Smallest overlap matrix eigenvalue = 3.30E-05
 Guess MOs from SCF MO coefficient file

 -----------------------------------------------------------------------
  General SCF calculation program by
  Eric Jon Sundstrom, Paul Horn, Yuezhi Mao, Dmitri Zuev, Alec White,
  David Stuck, Shaama M.S., Shane Yost, Joonho Lee, David Small,
  Daniel Levine, Susi Lehtola, Hugh Burton, Evgeny Epifanovsky
 -----------------------------------------------------------------------
 Hartree-Fock
 using 8 threads for integral computing
 -------------------------------------------------------
 OpenMP Integral computing Module                
 Release: version 2.0, May 2017, Q-Chem Inc. Pleasanton 
 -------------------------------------------------------
 A unrestricted SCF calculation will be
 performed using GDM
 SCF converges when RMS gradient is below 1.0e-08
 ---------------------------------------
  Cycle       Energy        RMS Gradient
 ---------------------------------------
    1      -1.1336229331      1.22e-04   Normal BFGS step
    2      -1.1336229860      3.04e-05   Normal BFGS step
    3      -1.1336229896      1.21e-06   Normal BFGS step
    4      -1.1336229896      1.88e-07   Normal BFGS step
    5      -1.1336229896      9.86e-09  Convergence criterion met
 ---------------------------------------
 SCF time:   CPU 16.23s  wall 2.00s 
<S^2> =          0.000000000
 SCF   energy in the final basis set =       -1.1336229896
 Total energy in the final basis set =       -1.1336229896


 ------------------------------------------------------------------------------

   CCMAN2: suite of methods based on coupled cluster
           and equation of motion theories.

   Components:
   * libvmm-1.3-trunk
     by Evgeny Epifanovsky, Ilya Kaliman.
   * libtensor-2.5-trunk
     by Evgeny Epifanovsky, Michael Wormit, Dmitry Zuev, Sam Manzer, 
        Ilya Kaliman.
   * libcc-2.5-trunk
     by Evgeny Epifanovsky, Arik Landau, Tomasz Kus, Kirill Khistyaev, 
        Dmitry Zuev, Prashant Manohar, Xintian Feng, Anna Krylov, 
        Matthew Goldey, Alec White, Thomas Jagau, Kaushik Nanda, 
        Anastasia Gunina, Alexander Kunitsa, Joonho Lee.

   CCMAN original authors:
   Anna I. Krylov, C. David Sherrill, Steven R. Gwaltney,
   Edward F. C. Byrd (2000)
   Sergey V. Levchenko, Lyudmila V. Slipchenko, Tao Wang,
   Ana-Maria C. Cristian (2003)
   Piotr A. Pieniazek, C. Melania Oana, Evgeny Epifanovsky (2007)
   Prashant Manohar (2009)

 ------------------------------------------------------------------------------


 Calculation will run on 8 cores using libxm for tensor contractions

 ------------------------------------------------------------------------------
Libxm Tensor Library
Copyright (c) 2014-2018 Ilya Kaliman
https://github.com/ilyak/libxm
Reference: https://dx.doi.org/10.1002/jcc.24713
 ------------------------------------------------------------------------------

 
 Alpha MOs, Unrestricted
 -- Occupied --                  
 -0.595
  1 A                                                                          
 -- Virtual --                   
  0.046   0.046   0.160   0.173   0.173   0.228   0.232   0.233
  2 A     3 A     4 A     5 A     6 A     7 A     8 A     9 A                  
  0.326   0.364   0.601   0.601   0.610   0.661   0.662   0.687
 10 A    11 A    12 A    13 A    14 A    15 A    16 A    17 A                  
  0.699   0.700   0.709   0.709   0.734   0.734   0.823   1.118
 18 A    19 A    20 A    21 A    22 A    23 A    24 A    25 A                  
  1.440   1.440   1.517   1.517   1.568   1.744   1.804   1.804
 26 A    27 A    28 A    29 A    30 A    31 A    32 A    33 A                  
  1.810   1.810   1.811   1.811   1.859   1.859   1.863   1.864
 34 A    35 A    36 A    37 A    38 A    39 A    40 A    41 A                  
  1.876   1.876   2.304   2.363   2.363   2.397   2.397   2.753
 42 A    43 A    44 A    45 A    46 A    47 A    48 A    49 A                  
  3.058   3.058   3.485   3.542   3.542   3.684   3.684   4.241
 50 A    51 A    52 A    53 A    54 A    55 A    56 A    57 A                  
  4.251   4.489   4.489   5.939   6.247   6.247   6.574   6.574
 58 A    59 A    60 A    61 A    62 A    63 A    64 A    65 A                  
  7.155   7.155   7.166   7.166   7.671   7.671   7.733   7.875
 66 A    67 A    68 A    69 A    70 A    71 A    72 A    73 A                  
  7.875   8.013   8.392   8.392   8.400   8.401   8.628   9.027
 74 A    75 A    76 A    77 A    78 A    79 A    80 A    81 A                  
  9.121   9.121   9.137   9.137   9.724   9.724  10.834  12.913
 82 A    83 A    84 A    85 A    86 A    87 A    88 A    89 A                  
 12.913  13.358  16.453
 90 A    91 A    92 A                                                          
 
 Beta MOs, Unrestricted
 -- Occupied --                  
 -0.595
  1 A                                                                          
 -- Virtual --                   
  0.046   0.046   0.160   0.173   0.173   0.228   0.232   0.233
  2 A     3 A     4 A     5 A     6 A     7 A     8 A     9 A                  
  0.326   0.364   0.601   0.601   0.610   0.661   0.662   0.687
 10 A    11 A    12 A    13 A    14 A    15 A    16 A    17 A                  
  0.699   0.700   0.709   0.709   0.734   0.734   0.823   1.118
 18 A    19 A    20 A    21 A    22 A    23 A    24 A    25 A                  
  1.440   1.440   1.517   1.517   1.568   1.744   1.804   1.804
 26 A    27 A    28 A    29 A    30 A    31 A    32 A    33 A                  
  1.810   1.810   1.811   1.811   1.859   1.859   1.863   1.864
 34 A    35 A    36 A    37 A    38 A    39 A    40 A    41 A                  
  1.876   1.876   2.304   2.363   2.363   2.397   2.397   2.753
 42 A    43 A    44 A    45 A    46 A    47 A    48 A    49 A                  
  3.058   3.058   3.485   3.542   3.542   3.684   3.684   4.241
 50 A    51 A    52 A    53 A    54 A    55 A    56 A    57 A                  
  4.251   4.489   4.489   5.939   6.247   6.247   6.574   6.574
 58 A    59 A    60 A    61 A    62 A    63 A    64 A    65 A                  
  7.155   7.155   7.166   7.166   7.671   7.671   7.733   7.875
 66 A    67 A    68 A    69 A    70 A    71 A    72 A    73 A                  
  7.875   8.013   8.392   8.392   8.400   8.401   8.628   9.027
 74 A    75 A    76 A    77 A    78 A    79 A    80 A    81 A                  
  9.121   9.121   9.137   9.137   9.724   9.724  10.834  12.913
 82 A    83 A    84 A    85 A    86 A    87 A    88 A    89 A                  
 12.913  13.358  16.453
 90 A    91 A    92 A                                                          

 Occupation and symmetry of molecular orbitals

 Point group: C1 (1 irreducible representation).

                           A     All 
 -------------------------------------
 All molecular orbitals:
  - Alpha                  92    92  
  - Beta                   92    92  
 -------------------------------------
 Alpha orbitals:
  - Frozen occupied        0     0   
  - Active occupied        1     1   
  - Active virtual         91    91  
  - Frozen virtual         0     0   
 -------------------------------------
 Beta orbitals:
  - Frozen occupied        0     0   
  - Active occupied        1     1   
  - Active virtual         91    91  
  - Frozen virtual         0     0   
 -------------------------------------

 Import integrals:   CPU 0.00 s  wall 0.00 s

 Import integrals:   CPU 30.58 s  wall 7.91 s

 MP2 amplitudes:   CPU 0.21 s  wall 0.13 s

Running a double precision version
           CCSD T amplitudes will be solved using DIIS.

           Start     Size      MaxIter   EConv     TConv     
           3         7         100       1.00e-06  1.00e-04  
 ------------------------------------------------------------------------------
           Energy (a.u.)   Ediff      Tdiff       Comment
 ------------------------------------------------------------------------------
            -1.16687543                           
     1      -1.17156749   4.69e-03   1.55e-01     
     2      -1.17319581   1.63e-03   3.13e-02     
     3      -1.17372014   5.24e-04   1.09e-02     
     4      -1.17401566   2.96e-04   6.09e-03     Switched to DIIS steps.
     5      -1.17402048   4.81e-06   6.01e-04     
     6      -1.17401991   5.67e-07   5.26e-05     
 ------------------------------------------------------------------------------
            -1.17401991                           CCSD T converged.

End of double precision

----------------------------------------
libpt (c) 2016-2018 Ilya Kaliman
Fast Coupled Cluster Triples Corrections
https://github.com/ilyak/libpt
----------------------------------------

 Starting (T) calculation...
 Using double precision libpt code
 (T) calculation completed in 0 sec
 (T) energy is 0.0000000000

 SCF energy                 = -1.13362299
 MP2 energy                 = -1.16687543
 CCSD correlation energy     = -0.04039692
 CCSD total energy           = -1.17401991
 CCSD(T) correlation energy =  0.00000000
 CCSD(T) total energy       = -1.17401991

 CCSD  T1^2 = 0.0001  T2^2 = 0.0182  Leading amplitudes:

 Amplitude    Orbitals with energies
  0.0054       1 (A) A                   ->    10 (A) A                   
              -0.5946                          0.3259                     
 -0.0054       1 (A) B                   ->    10 (A) B                   
              -0.5946                          0.3259                     
 -0.0031       1 (A) A                   ->    2 (A) A                    
              -0.5946                          0.0456                     
  0.0031       1 (A) B                   ->    2 (A) B                    
              -0.5946                          0.0456                     

 Amplitude    Orbitals with energies
  0.0342       1 (A) A       1 (A) B     ->    11 (A) A      11 (A) B     
              -0.5946       -0.5946            0.3638        0.3638       
 -0.0342       1 (A) A       1 (A) B     ->    11 (A) B      11 (A) A     
              -0.5946       -0.5946            0.3638        0.3638       
 -0.0342       1 (A) B       1 (A) A     ->    11 (A) A      11 (A) B     
              -0.5946       -0.5946            0.3638        0.3638       
  0.0342       1 (A) B       1 (A) A     ->    11 (A) B      11 (A) A     
              -0.5946       -0.5946            0.3638        0.3638       

 CCSD calculation:   CPU 26.05 s  wall 6.42 s

 Total ccman2 time:   CPU 63.42 s  wall 17.88 s

 
 --------------------------------------------------------------
 
                    Orbital Energies (a.u.)
 --------------------------------------------------------------
 
 Alpha MOs
 -- Occupied --
 -0.595
 -- Virtual --
  0.046   0.046   0.160   0.173   0.173   0.228   0.232   0.233
  0.326   0.364   0.601   0.601   0.610   0.661   0.662   0.687
  0.699   0.700   0.709   0.709   0.734   0.734   0.823   1.118
  1.440   1.440   1.517   1.517   1.568   1.744   1.804   1.804
  1.810   1.810   1.811   1.811   1.859   1.859   1.863   1.864
  1.876   1.876   2.304   2.363   2.363   2.397   2.397   2.753
  3.058   3.058   3.485   3.542   3.542   3.684   3.684   4.241
  4.251   4.489   4.489   5.939   6.247   6.247   6.574   6.574
  7.155   7.155   7.166   7.166   7.671   7.671   7.733   7.875
  7.875   8.013   8.392   8.392   8.400   8.401   8.628   9.027
  9.121   9.121   9.137   9.137   9.724   9.724  10.834  12.913
 12.913  13.358  16.453
 
 Beta MOs
 -- Occupied --
 -0.595
 -- Virtual --
  0.046   0.046   0.160   0.173   0.173   0.228   0.232   0.233
  0.326   0.364   0.601   0.601   0.610   0.661   0.662   0.687
  0.699   0.700   0.709   0.709   0.734   0.734   0.823   1.118
  1.440   1.440   1.517   1.517   1.568   1.744   1.804   1.804
  1.810   1.810   1.811   1.811   1.859   1.859   1.863   1.864
  1.876   1.876   2.304   2.363   2.363   2.397   2.397   2.753
  3.058   3.058   3.485   3.542   3.542   3.684   3.684   4.241
  4.251   4.489   4.489   5.939   6.247   6.247   6.574   6.574
  7.155   7.155   7.166   7.166   7.671   7.671   7.733   7.875
  7.875   8.013   8.392   8.392   8.400   8.401   8.628   9.027
  9.121   9.121   9.137   9.137   9.724   9.724  10.834  12.913
 12.913  13.358  16.453
 --------------------------------------------------------------
 
          Ground-State Mulliken Net Atomic Charges

     Atom                 Charge (a.u.)    Spin (a.u.)
  --------------------------------------------------------
      1 H                    -0.000000       0.000000
      2 H                     0.000000      -0.000000
  --------------------------------------------------------
  Sum of atomic charges =     0.000000
  Sum of spin   charges =    -0.000000

 -----------------------------------------------------------------
                    Cartesian Multipole Moments
 -----------------------------------------------------------------
    Charge (ESU x 10^10)
                 0.0000
    Dipole Moment (Debye)
         X      -0.0000      Y       0.0000      Z      -0.0000
       Tot       0.0000
    Quadrupole Moments (Debye-Ang)
        XX      -2.0944     XY       0.0000     YY      -2.0933
        XZ       0.0000     YZ       0.0000     ZZ      -1.4265
    Octopole Moments (Debye-Ang^2)
       XXX      -0.0000    XXY       0.0000    XYY      -0.0000
       YYY       0.0000    XXZ      -0.7764    XYZ       0.0000
       YYZ      -0.7760    XZZ       0.0000    YZZ       0.0000
       ZZZ      -1.5864
    Hexadecapole Moments (Debye-Ang^3)
      XXXX      -2.0952   XXXY      -0.0000   XXYY      -0.6980
      XYYY      -0.0000   YYYY      -2.0928   XXXZ      -0.0000
      XXYZ       0.0000   XYYZ      -0.0000   YYYZ       0.0000
      XXZZ      -1.1064   XYZZ       0.0000   YYZZ      -1.1058
      XZZZ       0.0000   YZZZ       0.0000   ZZZZ      -3.8828
 -----------------------------------------------------------------
Archival summary:
1\1\n0087.mhg0\SP\ProcedureUnspecified\BasisUnspecified\2\yhljason\MonJul1319:28:212020MonJul1319:28:212020\0\\#,ProcedureUnspecified,BasisUnspecified,\\0,1\H\H,1,0.7414\\HF=-1.13362299\\@

 Total job time:  21.09s(wall), 84.35s(cpu) 
 Mon Jul 13 19:28:21 2020

        *************************************************************
        *                                                           *
        *  Thank you very much for using Q-Chem.  Have a nice day.  *
        *                                                           *
        *************************************************************


 
User input: 3 of 7 
 
Q-Chem Developer Version!
                  Welcome to Q-Chem
     A Quantum Leap Into The Future Of Chemistry


 Q-Chem 5.1, Q-Chem, Inc., Pleasanton, CA (2018)

 Yihan Shao,  Zhengting Gan,  E. Epifanovsky,  A. T. B. Gilbert,  M. Wormit,  
 J. Kussmann,  A. W. Lange,  A. Behn,  Jia Deng,  Xintian Feng,  D. Ghosh,  
 M. Goldey,  P. R. Horn,  L. D. Jacobson,  I. Kaliman,  T. Kus,  A. Landau,  
 Jie Liu,  E. I. Proynov,  R. M. Richard,  R. P. Steele,  E. J. Sundstrom,  
 H. L. Woodcock III,  P. M. Zimmerman,  D. Zuev,  B. Albrecht,  E. Alguire,  
 S. A. Baeppler,  D. Barton,  Z. Benda,  Y. A. Bernard,  E. J. Berquist,  
 K. B. Bravaya,  H. Burton,  D. Casanova,  Chun-Min Chang,  Yunqing Chen,  
 A. Chien,  K. D. Closser,  M. P. Coons,  S. Coriani,  S. Dasgupta,  
 A. L. Dempwolff,  M. Diedenhofen,  Hainam Do,  R. G. Edgar,  Po-Tung Fang,  
 S. Faraji,  S. Fatehi,  Qingguo Feng,  K. D. Fenk,  J. Fosso-Tande,  
 Qinghui Ge,  A. Ghysels,  G. Gidofalvi,  J. Gomes,  J. Gonthier,  A. Gunina,  
 D. Hait,  M. W. D. Hanson-Heine,  P. H. P. Harbach,  A. W. Hauser,  
 J. E. Herr,  E. G. Hohenstein,  Z. C. Holden,  Kerwin Hui,  B. C. Huynh,  
 T.-C. Jagau,  Hyunjun Ji,  B. Kaduk,  K. Khistyaev,  Jaehoon Kim,  
 P. Klunzinger,  K. Koh,  D. Kosenkov,  L. Koulias,  T. Kowalczyk,  
 C. M. Krauter,  A. Kunitsa,  Ka Un Lao,  A. Laurent,  K. V. Lawler,  
 Joonho Lee,  D. Lefrancois,  S. Lehtola,  D. S. Levine,  Yi-Pei Li,  
 You-Sheng Lin,  Fenglai Liu,  E. Livshits,  A. Luenser,  P. Manohar,  
 E. Mansoor,  S. F. Manzer,  Shan-Ping Mao,  Yuezhi Mao,  N. Mardirossian,  
 A. V. Marenich,  T. Markovich,  L. A. Martinez-Martinez,  S. A. Maurer,  
 N. J. Mayhall,  S. C. McKenzie,  J.-M. Mewes,  A. F. Morrison,  
 J. W. Mullinax,  K. Nanda,  T. S. Nguyen-Beck,  R. Olivares-Amaya,  
 J. A. Parkhill,  T. M. Perrine,  F. Plasser,  P. Pokhilko,  S. Prager,  
 A. Prociuk,  E. Ramos,  D. R. Rehn,  F. Rob,  M. Schneider,  N. Sergueev,  
 S. M. Sharada,  S. Sharma,  D. W. Small,  T. Stauch,  T. Stein,  
 Yu-Chuan Su,  A. J. W. Thom,  A. Tkatchenko,  T. Tsuchimochi,  N. M. Tubman,  
 L. Vogt,  M. L. Vidal,  O. Vydrov,  M. A. Watson,  J. Wenzel,  
 M. de Wergifosse,  T. A. Wesolowski,  A. White,  J. Witte,  A. Yamada,  
 Jun Yang,  K. Yao,  S. Yeganeh,  S. R. Yost,  Zhi-Qiang You,  A. Zech,  
 Igor Ying Zhang,  Xing Zhang,  Yan Zhao,  Ying Zhu,  B. R. Brooks,  
 G. K. L. Chan,  C. J. Cramer,  M. S. Gordon,  W. J. Hehre,  A. Klamt,  
 M. W. Schmidt,  C. D. Sherrill,  D. G. Truhlar,  A. Aspuru-Guzik,  R. Baer,  
 A. T. Bell,  N. A. Besley,  Jeng-Da Chai,  A. E. DePrince, III,  
 R. A. DiStasio Jr.,  A. Dreuw,  B. D. Dunietz,  T. R. Furlani,  
 Chao-Ping Hsu,  Yousung Jung,  Jing Kong,  D. S. Lambrecht,  WanZhen Liang,  
 C. Ochsenfeld,  V. A. Rassolov,  L. V. Slipchenko,  J. E. Subotnik,  
 T. Van Voorhis,  J. M. Herbert,  A. I. Krylov,  P. M. W. Gill,  M. Head-Gordon

 Contributors to earlier versions of Q-Chem not listed above: 
 R. D. Adamson,  B. Austin,  J. Baker,  G. J. O. Beran,  K. Brandhorst,  
 S. T. Brown,  E. F. C. Byrd,  A. K. Chakraborty,  C.-L. Cheng,  
 Siu Hung Chien,  D. M. Chipman,  D. L. Crittenden,  H. Dachsel,  
 R. J. Doerksen,  A. D. Dutoi,  L. Fusti-Molnar,  W. A. Goddard III,  
 A. Golubeva-Zadorozhnaya,  S. R. Gwaltney,  G. Hawkins,  A. Heyden,  
 S. Hirata,  G. Kedziora,  F. J. Keil,  C. Kelley,  Jihan Kim,  R. A. King,  
 R. Z. Khaliullin,  P. P. Korambath,  W. Kurlancheek,  A. M. Lee,  M. S. Lee,  
 S. V. Levchenko,  Ching Yeh Lin,  D. Liotard,  R. C. Lochan,  I. Lotan,  
 P. E. Maslen,  N. Nair,  D. P. O'Neill,  D. Neuhauser,  E. Neuscamman,  
 C. M. Oana,  R. Olson,  B. Peters,  R. Peverati,  P. A. Pieniazek,  
 Y. M. Rhee,  J. Ritchie,  M. A. Rohrdanz,  E. Rosta,  N. J. Russ,  
 H. F. Schaefer III,  N. E. Schultz,  N. Shenvi,  A. C. Simmonett,  A. Sodt,  
 D. Stuck,  K. S. Thanthiriwatte,  V. Vanovschi,  Tao Wang,  A. Warshel,  
 C. F. Williams,  Q. Wu,  X. Xu,  W. Zhang

 Please cite Q-Chem as follows:
 Y. Shao et al., Mol. Phys. 113, 184-215 (2015)
 DOI: 10.1080/00268976.2014.952696

 Q-Chem 5.1.1 for Intel X86 EM64T Linux

 Parts of Q-Chem use Armadillo 8.300.2 (Tropical Shenanigans).
 http://arma.sourceforge.net/

 Q-Chem begins on Mon Jul 13 19:28:21 2020  

Host: n0087.mhg0
0

     Scratch files written to /local/scratch/users/yhljason/H2_ccsdT_aug-cc-pcVQZ.inp20200713023005//
The previous job contains 0 fragments, simply inherited here
Input Ideriv = 0
Curr. Ideriv = -1
Max.  Ideriv = 0

Checking the input file for inconsistencies... 	...done.

--------------------------------------------------------------
User input:
--------------------------------------------------------------
$molecule
read
$end

$rem

jobtype sp
method CCSD(T)
xc_grid 000099000590
basis aug-cc-pcVQZ
max_scf_cycles 200
thresh 14
scf_convergence 8
mem_total 128000
cc_memory 96000
cc_backend xm
mem_static 1500
symmetry false
sym_ignore true
scf_guess read
unrestricted true
scf_algorithm gdm
n_frozen_core 0
$end

$multipole_field
XX -0.0001
$end


--------------------------------------------------------------
 ----------------------------------------------------------------
             Standard Nuclear Orientation (Angstroms)
    I     Atom           X                Y                Z
 ----------------------------------------------------------------
    1      H       0.0000000000     0.0000000000     0.0000000000
    2      H       0.0000000000     0.0000000000     0.7414000000
 ----------------------------------------------------------------
 Nuclear Repulsion Energy =     0.7137539935 hartrees
 There are        1 alpha and        1 beta electrons
 Requested basis set is aug-cc-pCVQZ
 There are 28 shells and 92 basis functions
 Total memory of 128000MB is distributed as follows: 
   QALLOC including MEM_STATIC uses 32000MB
   MEM_STATIC is set to 1500MB
   CCMAN JOB total memory use is  96000MB
 Warning: actual memory use might exceed 128000MB

 Total QAlloc Memory Limit  32000 MB
 Mega-Array Size      1467 MB
 MEM_STATIC part      1500 MB

                       Distance Matrix (Angstroms)
             H (  1)
   H (  2)  0.741400
 
 Applying Cartesian multipole field
    Component          Value
    ---------          -----
     (2,0,0)       -1.00000E-04
 A cutoff of  1.0D-14 yielded    406 shell pairs
 There are      4446 function pairs (      6399 Cartesian)
 
 -------------------------------------------------------
 OpenMP Integral Computing Module                       
 Release: version 1.0, May 2013, Q-Chem Inc. Pittsburgh 
 -------------------------------------------------------
 Integral Job Info:
 Integral job number is                      11
 Integral operator is                         1
 short-range coefficients                     0
 long-range coefficients              100000000
 Omega coefficients                           0
 if combine SR and LR in K                    0
 Integral screening is                        0
 Integral computing path is                   2
 max size of driver memory is            800000
 size of driver memory is                776718
 size of scratch memory is              1423620
 max col of scratch BK array              10000
 max len of scratch array in speh3          662
 max len of scratch index in speh4           32
 max int batch size is                      520
 min int batch size is                       52
 fixed nKL is                                52
 max L of basis functions is                  3
 order of int derivative is                   0
 number of shells is                         28
 number of basis is                         110
 number of cartesian basis is               110
 number of contracted shell pairs           406
 number of primitive shell pairs            533
 maxK2 (contraction) of shell pair            9
 max number of K2 of shell pair               1
 max number of CS2 of shell pair             64
 max number of PS2 of shell pair             64
 mem total for path MDJ                  546996
 -------------------------------------------------------
 Smallest overlap matrix eigenvalue = 3.30E-05
 Guess MOs from SCF MO coefficient file

 -----------------------------------------------------------------------
  General SCF calculation program by
  Eric Jon Sundstrom, Paul Horn, Yuezhi Mao, Dmitri Zuev, Alec White,
  David Stuck, Shaama M.S., Shane Yost, Joonho Lee, David Small,
  Daniel Levine, Susi Lehtola, Hugh Burton, Evgeny Epifanovsky
 -----------------------------------------------------------------------
 Hartree-Fock
 using 8 threads for integral computing
 -------------------------------------------------------
 OpenMP Integral computing Module                
 Release: version 2.0, May 2017, Q-Chem Inc. Pleasanton 
 -------------------------------------------------------
 A unrestricted SCF calculation will be
 performed using GDM
 SCF converges when RMS gradient is below 1.0e-08
 ---------------------------------------
  Cycle       Energy        RMS Gradient
 ---------------------------------------
    1      -1.1333115670      2.43e-04   Normal BFGS step
    2      -1.1333117787      6.09e-05   Normal BFGS step
    3      -1.1333117930      2.41e-06   Normal BFGS step
    4      -1.1333117930      3.73e-07   Normal BFGS step
    5      -1.1333117930      1.97e-08   Normal BFGS step
    6      -1.1333117930      4.16e-09  Convergence criterion met
 ---------------------------------------
 SCF time:   CPU 18.74s  wall 3.00s 
<S^2> =         -0.000000000
 SCF   energy in the final basis set =       -1.1333117930
 Total energy in the final basis set =       -1.1333117930


 ------------------------------------------------------------------------------

   CCMAN2: suite of methods based on coupled cluster
           and equation of motion theories.

   Components:
   * libvmm-1.3-trunk
     by Evgeny Epifanovsky, Ilya Kaliman.
   * libtensor-2.5-trunk
     by Evgeny Epifanovsky, Michael Wormit, Dmitry Zuev, Sam Manzer, 
        Ilya Kaliman.
   * libcc-2.5-trunk
     by Evgeny Epifanovsky, Arik Landau, Tomasz Kus, Kirill Khistyaev, 
        Dmitry Zuev, Prashant Manohar, Xintian Feng, Anna Krylov, 
        Matthew Goldey, Alec White, Thomas Jagau, Kaushik Nanda, 
        Anastasia Gunina, Alexander Kunitsa, Joonho Lee.

   CCMAN original authors:
   Anna I. Krylov, C. David Sherrill, Steven R. Gwaltney,
   Edward F. C. Byrd (2000)
   Sergey V. Levchenko, Lyudmila V. Slipchenko, Tao Wang,
   Ana-Maria C. Cristian (2003)
   Piotr A. Pieniazek, C. Melania Oana, Evgeny Epifanovsky (2007)
   Prashant Manohar (2009)

 ------------------------------------------------------------------------------


 Calculation will run on 8 cores using libxm for tensor contractions

 ------------------------------------------------------------------------------
Libxm Tensor Library
Copyright (c) 2014-2018 Ilya Kaliman
https://github.com/ilyak/libxm
Reference: https://dx.doi.org/10.1002/jcc.24713
 ------------------------------------------------------------------------------

 
 Alpha MOs, Unrestricted
 -- Occupied --                  
 -0.594
  1 A                                                                          
 -- Virtual --                   
  0.049   0.049   0.161   0.174   0.175   0.229   0.234   0.235
  2 A     3 A     4 A     5 A     6 A     7 A     8 A     9 A                  
  0.327   0.365   0.602   0.602   0.611   0.662   0.663   0.688
 10 A    11 A    12 A    13 A    14 A    15 A    16 A    17 A                  
  0.700   0.700   0.710   0.710   0.734   0.735   0.824   1.119
 18 A    19 A    20 A    21 A    22 A    23 A    24 A    25 A                  
  1.441   1.441   1.518   1.518   1.569   1.744   1.805   1.805
 26 A    27 A    28 A    29 A    30 A    31 A    32 A    33 A                  
  1.811   1.811   1.811   1.812   1.859   1.859   1.864   1.865
 34 A    35 A    36 A    37 A    38 A    39 A    40 A    41 A                  
  1.876   1.876   2.305   2.363   2.363   2.397   2.397   2.753
 42 A    43 A    44 A    45 A    46 A    47 A    48 A    49 A                  
  3.059   3.059   3.486   3.542   3.542   3.684   3.684   4.241
 50 A    51 A    52 A    53 A    54 A    55 A    56 A    57 A                  
  4.251   4.489   4.489   5.939   6.248   6.248   6.574   6.574
 58 A    59 A    60 A    61 A    62 A    63 A    64 A    65 A                  
  7.155   7.155   7.166   7.166   7.672   7.672   7.733   7.875
 66 A    67 A    68 A    69 A    70 A    71 A    72 A    73 A                  
  7.875   8.013   8.392   8.392   8.401   8.401   8.628   9.027
 74 A    75 A    76 A    77 A    78 A    79 A    80 A    81 A                  
  9.121   9.121   9.137   9.137   9.725   9.725  10.834  12.913
 82 A    83 A    84 A    85 A    86 A    87 A    88 A    89 A                  
 12.913  13.358  16.453
 90 A    91 A    92 A                                                          
 
 Beta MOs, Unrestricted
 -- Occupied --                  
 -0.594
  1 A                                                                          
 -- Virtual --                   
  0.049   0.049   0.161   0.174   0.175   0.229   0.234   0.235
  2 A     3 A     4 A     5 A     6 A     7 A     8 A     9 A                  
  0.327   0.365   0.602   0.602   0.611   0.662   0.663   0.688
 10 A    11 A    12 A    13 A    14 A    15 A    16 A    17 A                  
  0.700   0.700   0.710   0.710   0.734   0.735   0.824   1.119
 18 A    19 A    20 A    21 A    22 A    23 A    24 A    25 A                  
  1.441   1.441   1.518   1.518   1.569   1.744   1.805   1.805
 26 A    27 A    28 A    29 A    30 A    31 A    32 A    33 A                  
  1.811   1.811   1.811   1.812   1.859   1.859   1.864   1.865
 34 A    35 A    36 A    37 A    38 A    39 A    40 A    41 A                  
  1.876   1.876   2.305   2.363   2.363   2.397   2.397   2.753
 42 A    43 A    44 A    45 A    46 A    47 A    48 A    49 A                  
  3.059   3.059   3.486   3.542   3.542   3.684   3.684   4.241
 50 A    51 A    52 A    53 A    54 A    55 A    56 A    57 A                  
  4.251   4.489   4.489   5.939   6.248   6.248   6.574   6.574
 58 A    59 A    60 A    61 A    62 A    63 A    64 A    65 A                  
  7.155   7.155   7.166   7.166   7.672   7.672   7.733   7.875
 66 A    67 A    68 A    69 A    70 A    71 A    72 A    73 A                  
  7.875   8.013   8.392   8.392   8.401   8.401   8.628   9.027
 74 A    75 A    76 A    77 A    78 A    79 A    80 A    81 A                  
  9.121   9.121   9.137   9.137   9.725   9.725  10.834  12.913
 82 A    83 A    84 A    85 A    86 A    87 A    88 A    89 A                  
 12.913  13.358  16.453
 90 A    91 A    92 A                                                          

 Occupation and symmetry of molecular orbitals

 Point group: C1 (1 irreducible representation).

                           A     All 
 -------------------------------------
 All molecular orbitals:
  - Alpha                  92    92  
  - Beta                   92    92  
 -------------------------------------
 Alpha orbitals:
  - Frozen occupied        0     0   
  - Active occupied        1     1   
  - Active virtual         91    91  
  - Frozen virtual         0     0   
 -------------------------------------
 Beta orbitals:
  - Frozen occupied        0     0   
  - Active occupied        1     1   
  - Active virtual         91    91  
  - Frozen virtual         0     0   
 -------------------------------------

 Import integrals:   CPU 0.00 s  wall 0.00 s

 Import integrals:   CPU 30.18 s  wall 7.88 s

 MP2 amplitudes:   CPU 0.22 s  wall 0.13 s

Running a double precision version
           CCSD T amplitudes will be solved using DIIS.

           Start     Size      MaxIter   EConv     TConv     
           3         7         100       1.00e-06  1.00e-04  
 ------------------------------------------------------------------------------
           Energy (a.u.)   Ediff      Tdiff       Comment
 ------------------------------------------------------------------------------
            -1.16656853                           
     1      -1.17126159   4.69e-03   1.55e-01     
     2      -1.17289019   1.63e-03   3.13e-02     
     3      -1.17341469   5.24e-04   1.09e-02     
     4      -1.17371035   2.96e-04   6.09e-03     Switched to DIIS steps.
     5      -1.17371516   4.81e-06   6.01e-04     
     6      -1.17371459   5.68e-07   5.25e-05     
 ------------------------------------------------------------------------------
            -1.17371459                           CCSD T converged.

End of double precision

----------------------------------------
libpt (c) 2016-2018 Ilya Kaliman
Fast Coupled Cluster Triples Corrections
https://github.com/ilyak/libpt
----------------------------------------

 Starting (T) calculation...
 Using double precision libpt code
 (T) calculation completed in 0 sec
 (T) energy is 0.0000000000

 SCF energy                 = -1.13331179
 MP2 energy                 = -1.16656853
 CCSD correlation energy     = -0.04040280
 CCSD total energy           = -1.17371459
 CCSD(T) correlation energy =  0.00000000
 CCSD(T) total energy       = -1.17371459

 CCSD  T1^2 = 0.0001  T2^2 = 0.0182  Leading amplitudes:

 Amplitude    Orbitals with energies
 -0.0054       1 (A) B                   ->    10 (A) B                   
              -0.5943                          0.3273                     
 -0.0054       1 (A) A                   ->    10 (A) A                   
              -0.5943                          0.3273                     
  0.0031       1 (A) B                   ->    3 (A) B                    
              -0.5943                          0.0488                     
  0.0031       1 (A) A                   ->    3 (A) A                    
              -0.5943                          0.0488                     

 Amplitude    Orbitals with energies
 -0.0341       1 (A) A       1 (A) B     ->    11 (A) A      11 (A) B     
              -0.5943       -0.5943            0.3647        0.3647       
  0.0341       1 (A) A       1 (A) B     ->    11 (A) B      11 (A) A     
              -0.5943       -0.5943            0.3647        0.3647       
  0.0341       1 (A) B       1 (A) A     ->    11 (A) A      11 (A) B     
              -0.5943       -0.5943            0.3647        0.3647       
 -0.0341       1 (A) B       1 (A) A     ->    11 (A) B      11 (A) A     
              -0.5943       -0.5943            0.3647        0.3647       

 CCSD calculation:   CPU 25.83 s  wall 7.85 s

 Total ccman2 time:   CPU 63.45 s  wall 19.56 s

 
 --------------------------------------------------------------
 
                    Orbital Energies (a.u.)
 --------------------------------------------------------------
 
 Alpha MOs
 -- Occupied --
 -0.594
 -- Virtual --
  0.049   0.049   0.161   0.174   0.175   0.229   0.234   0.235
  0.327   0.365   0.602   0.602   0.611   0.662   0.663   0.688
  0.700   0.700   0.710   0.710   0.734   0.735   0.824   1.119
  1.441   1.441   1.518   1.518   1.569   1.744   1.805   1.805
  1.811   1.811   1.811   1.812   1.859   1.859   1.864   1.865
  1.876   1.876   2.305   2.363   2.363   2.397   2.397   2.753
  3.059   3.059   3.486   3.542   3.542   3.684   3.684   4.241
  4.251   4.489   4.489   5.939   6.248   6.248   6.574   6.574
  7.155   7.155   7.166   7.166   7.672   7.672   7.733   7.875
  7.875   8.013   8.392   8.392   8.401   8.401   8.628   9.027
  9.121   9.121   9.137   9.137   9.725   9.725  10.834  12.913
 12.913  13.358  16.453
 
 Beta MOs
 -- Occupied --
 -0.594
 -- Virtual --
  0.049   0.049   0.161   0.174   0.175   0.229   0.234   0.235
  0.327   0.365   0.602   0.602   0.611   0.662   0.663   0.688
  0.700   0.700   0.710   0.710   0.734   0.735   0.824   1.119
  1.441   1.441   1.518   1.518   1.569   1.744   1.805   1.805
  1.811   1.811   1.811   1.812   1.859   1.859   1.864   1.865
  1.876   1.876   2.305   2.363   2.363   2.397   2.397   2.753
  3.059   3.059   3.486   3.542   3.542   3.684   3.684   4.241
  4.251   4.489   4.489   5.939   6.248   6.248   6.574   6.574
  7.155   7.155   7.166   7.166   7.672   7.672   7.733   7.875
  7.875   8.013   8.392   8.392   8.401   8.401   8.628   9.027
  9.121   9.121   9.137   9.137   9.725   9.725  10.834  12.913
 12.913  13.358  16.453
 --------------------------------------------------------------
 
          Ground-State Mulliken Net Atomic Charges

     Atom                 Charge (a.u.)    Spin (a.u.)
  --------------------------------------------------------
      1 H                    -0.000000       0.000000
      2 H                     0.000000      -0.000000
  --------------------------------------------------------
  Sum of atomic charges =    -0.000000
  Sum of spin   charges =     0.000000

 -----------------------------------------------------------------
                    Cartesian Multipole Moments
 -----------------------------------------------------------------
    Charge (ESU x 10^10)
                -0.0000
    Dipole Moment (Debye)
         X       0.0000      Y      -0.0000      Z       0.0000
       Tot       0.0000
    Quadrupole Moments (Debye-Ang)
        XX      -2.0913     XY      -0.0000     YY      -2.0924
        XZ       0.0000     YZ       0.0000     ZZ      -1.4258
    Octopole Moments (Debye-Ang^2)
       XXX       0.0000    XXY      -0.0000    XYY       0.0000
       YYY      -0.0000    XXZ      -0.7753    XYZ      -0.0000
       YYZ      -0.7756    XZZ       0.0000    YZZ       0.0000
       ZZZ      -1.5856
    Hexadecapole Moments (Debye-Ang^3)
      XXXX      -2.0870   XXXY      -0.0000   XXYY      -0.6961
      XYYY      -0.0000   YYYY      -2.0894   XXXZ       0.0000
      XXYZ       0.0000   XYYZ       0.0000   YYYZ       0.0000
      XXZZ      -1.1042   XYZZ      -0.0000   YYZZ      -1.1048
      XZZZ       0.0000   YZZZ       0.0000   ZZZZ      -3.8802
 -----------------------------------------------------------------
Archival summary:
1\1\n0087.mhg0\SP\ProcedureUnspecified\BasisUnspecified\2\yhljason\MonJul1319:29:002020MonJul1319:29:002020\0\\#,ProcedureUnspecified,BasisUnspecified,\\0,1\H\H,1,0.7414\\HF=-1.13331179\\@

 Total job time:  39.14s(wall), 86.99s(cpu) 
 Mon Jul 13 19:29:00 2020

        *************************************************************
        *                                                           *
        *  Thank you very much for using Q-Chem.  Have a nice day.  *
        *                                                           *
        *************************************************************


 
User input: 4 of 7 
 
Q-Chem Developer Version!
                  Welcome to Q-Chem
     A Quantum Leap Into The Future Of Chemistry


 Q-Chem 5.1, Q-Chem, Inc., Pleasanton, CA (2018)

 Yihan Shao,  Zhengting Gan,  E. Epifanovsky,  A. T. B. Gilbert,  M. Wormit,  
 J. Kussmann,  A. W. Lange,  A. Behn,  Jia Deng,  Xintian Feng,  D. Ghosh,  
 M. Goldey,  P. R. Horn,  L. D. Jacobson,  I. Kaliman,  T. Kus,  A. Landau,  
 Jie Liu,  E. I. Proynov,  R. M. Richard,  R. P. Steele,  E. J. Sundstrom,  
 H. L. Woodcock III,  P. M. Zimmerman,  D. Zuev,  B. Albrecht,  E. Alguire,  
 S. A. Baeppler,  D. Barton,  Z. Benda,  Y. A. Bernard,  E. J. Berquist,  
 K. B. Bravaya,  H. Burton,  D. Casanova,  Chun-Min Chang,  Yunqing Chen,  
 A. Chien,  K. D. Closser,  M. P. Coons,  S. Coriani,  S. Dasgupta,  
 A. L. Dempwolff,  M. Diedenhofen,  Hainam Do,  R. G. Edgar,  Po-Tung Fang,  
 S. Faraji,  S. Fatehi,  Qingguo Feng,  K. D. Fenk,  J. Fosso-Tande,  
 Qinghui Ge,  A. Ghysels,  G. Gidofalvi,  J. Gomes,  J. Gonthier,  A. Gunina,  
 D. Hait,  M. W. D. Hanson-Heine,  P. H. P. Harbach,  A. W. Hauser,  
 J. E. Herr,  E. G. Hohenstein,  Z. C. Holden,  Kerwin Hui,  B. C. Huynh,  
 T.-C. Jagau,  Hyunjun Ji,  B. Kaduk,  K. Khistyaev,  Jaehoon Kim,  
 P. Klunzinger,  K. Koh,  D. Kosenkov,  L. Koulias,  T. Kowalczyk,  
 C. M. Krauter,  A. Kunitsa,  Ka Un Lao,  A. Laurent,  K. V. Lawler,  
 Joonho Lee,  D. Lefrancois,  S. Lehtola,  D. S. Levine,  Yi-Pei Li,  
 You-Sheng Lin,  Fenglai Liu,  E. Livshits,  A. Luenser,  P. Manohar,  
 E. Mansoor,  S. F. Manzer,  Shan-Ping Mao,  Yuezhi Mao,  N. Mardirossian,  
 A. V. Marenich,  T. Markovich,  L. A. Martinez-Martinez,  S. A. Maurer,  
 N. J. Mayhall,  S. C. McKenzie,  J.-M. Mewes,  A. F. Morrison,  
 J. W. Mullinax,  K. Nanda,  T. S. Nguyen-Beck,  R. Olivares-Amaya,  
 J. A. Parkhill,  T. M. Perrine,  F. Plasser,  P. Pokhilko,  S. Prager,  
 A. Prociuk,  E. Ramos,  D. R. Rehn,  F. Rob,  M. Schneider,  N. Sergueev,  
 S. M. Sharada,  S. Sharma,  D. W. Small,  T. Stauch,  T. Stein,  
 Yu-Chuan Su,  A. J. W. Thom,  A. Tkatchenko,  T. Tsuchimochi,  N. M. Tubman,  
 L. Vogt,  M. L. Vidal,  O. Vydrov,  M. A. Watson,  J. Wenzel,  
 M. de Wergifosse,  T. A. Wesolowski,  A. White,  J. Witte,  A. Yamada,  
 Jun Yang,  K. Yao,  S. Yeganeh,  S. R. Yost,  Zhi-Qiang You,  A. Zech,  
 Igor Ying Zhang,  Xing Zhang,  Yan Zhao,  Ying Zhu,  B. R. Brooks,  
 G. K. L. Chan,  C. J. Cramer,  M. S. Gordon,  W. J. Hehre,  A. Klamt,  
 M. W. Schmidt,  C. D. Sherrill,  D. G. Truhlar,  A. Aspuru-Guzik,  R. Baer,  
 A. T. Bell,  N. A. Besley,  Jeng-Da Chai,  A. E. DePrince, III,  
 R. A. DiStasio Jr.,  A. Dreuw,  B. D. Dunietz,  T. R. Furlani,  
 Chao-Ping Hsu,  Yousung Jung,  Jing Kong,  D. S. Lambrecht,  WanZhen Liang,  
 C. Ochsenfeld,  V. A. Rassolov,  L. V. Slipchenko,  J. E. Subotnik,  
 T. Van Voorhis,  J. M. Herbert,  A. I. Krylov,  P. M. W. Gill,  M. Head-Gordon

 Contributors to earlier versions of Q-Chem not listed above: 
 R. D. Adamson,  B. Austin,  J. Baker,  G. J. O. Beran,  K. Brandhorst,  
 S. T. Brown,  E. F. C. Byrd,  A. K. Chakraborty,  C.-L. Cheng,  
 Siu Hung Chien,  D. M. Chipman,  D. L. Crittenden,  H. Dachsel,  
 R. J. Doerksen,  A. D. Dutoi,  L. Fusti-Molnar,  W. A. Goddard III,  
 A. Golubeva-Zadorozhnaya,  S. R. Gwaltney,  G. Hawkins,  A. Heyden,  
 S. Hirata,  G. Kedziora,  F. J. Keil,  C. Kelley,  Jihan Kim,  R. A. King,  
 R. Z. Khaliullin,  P. P. Korambath,  W. Kurlancheek,  A. M. Lee,  M. S. Lee,  
 S. V. Levchenko,  Ching Yeh Lin,  D. Liotard,  R. C. Lochan,  I. Lotan,  
 P. E. Maslen,  N. Nair,  D. P. O'Neill,  D. Neuhauser,  E. Neuscamman,  
 C. M. Oana,  R. Olson,  B. Peters,  R. Peverati,  P. A. Pieniazek,  
 Y. M. Rhee,  J. Ritchie,  M. A. Rohrdanz,  E. Rosta,  N. J. Russ,  
 H. F. Schaefer III,  N. E. Schultz,  N. Shenvi,  A. C. Simmonett,  A. Sodt,  
 D. Stuck,  K. S. Thanthiriwatte,  V. Vanovschi,  Tao Wang,  A. Warshel,  
 C. F. Williams,  Q. Wu,  X. Xu,  W. Zhang

 Please cite Q-Chem as follows:
 Y. Shao et al., Mol. Phys. 113, 184-215 (2015)
 DOI: 10.1080/00268976.2014.952696

 Q-Chem 5.1.1 for Intel X86 EM64T Linux

 Parts of Q-Chem use Armadillo 8.300.2 (Tropical Shenanigans).
 http://arma.sourceforge.net/

 Q-Chem begins on Mon Jul 13 19:29:00 2020  

Host: n0087.mhg0
0

     Scratch files written to /local/scratch/users/yhljason/H2_ccsdT_aug-cc-pcVQZ.inp20200713023005//
The previous job contains 0 fragments, simply inherited here
Input Ideriv = 0
Curr. Ideriv = -1
Max.  Ideriv = 0

Checking the input file for inconsistencies... 	...done.

--------------------------------------------------------------
User input:
--------------------------------------------------------------
$molecule
read
$end

$rem

jobtype sp
method CCSD(T)
xc_grid 000099000590
basis aug-cc-pcVQZ
max_scf_cycles 200
thresh 14
scf_convergence 8
mem_total 128000
cc_memory 96000
cc_backend xm
mem_static 1500
symmetry false
sym_ignore true
scf_guess read
unrestricted true
scf_algorithm gdm
n_frozen_core 0
$end

$multipole_field
YY 0.0001
$end


--------------------------------------------------------------
 ----------------------------------------------------------------
             Standard Nuclear Orientation (Angstroms)
    I     Atom           X                Y                Z
 ----------------------------------------------------------------
    1      H       0.0000000000     0.0000000000     0.0000000000
    2      H       0.0000000000     0.0000000000     0.7414000000
 ----------------------------------------------------------------
 Nuclear Repulsion Energy =     0.7137539935 hartrees
 There are        1 alpha and        1 beta electrons
 Requested basis set is aug-cc-pCVQZ
 There are 28 shells and 92 basis functions
 Total memory of 128000MB is distributed as follows: 
   QALLOC including MEM_STATIC uses 32000MB
   MEM_STATIC is set to 1500MB
   CCMAN JOB total memory use is  96000MB
 Warning: actual memory use might exceed 128000MB

 Total QAlloc Memory Limit  32000 MB
 Mega-Array Size      1467 MB
 MEM_STATIC part      1500 MB

                       Distance Matrix (Angstroms)
             H (  1)
   H (  2)  0.741400
 
 Applying Cartesian multipole field
    Component          Value
    ---------          -----
     (0,2,0)        1.00000E-04
 A cutoff of  1.0D-14 yielded    406 shell pairs
 There are      4446 function pairs (      6399 Cartesian)
 
 -------------------------------------------------------
 OpenMP Integral Computing Module                       
 Release: version 1.0, May 2013, Q-Chem Inc. Pittsburgh 
 -------------------------------------------------------
 Integral Job Info:
 Integral job number is                      11
 Integral operator is                         1
 short-range coefficients                     0
 long-range coefficients              100000000
 Omega coefficients                           0
 if combine SR and LR in K                    0
 Integral screening is                        0
 Integral computing path is                   2
 max size of driver memory is            800000
 size of driver memory is                776718
 size of scratch memory is              1423620
 max col of scratch BK array              10000
 max len of scratch array in speh3          662
 max len of scratch index in speh4           32
 max int batch size is                      520
 min int batch size is                       52
 fixed nKL is                                52
 max L of basis functions is                  3
 order of int derivative is                   0
 number of shells is                         28
 number of basis is                         110
 number of cartesian basis is               110
 number of contracted shell pairs           406
 number of primitive shell pairs            533
 maxK2 (contraction) of shell pair            9
 max number of K2 of shell pair               1
 max number of CS2 of shell pair             64
 max number of PS2 of shell pair             64
 mem total for path MDJ                  546996
 -------------------------------------------------------
 Smallest overlap matrix eigenvalue = 3.30E-05
 Guess MOs from SCF MO coefficient file

 -----------------------------------------------------------------------
  General SCF calculation program by
  Eric Jon Sundstrom, Paul Horn, Yuezhi Mao, Dmitri Zuev, Alec White,
  David Stuck, Shaama M.S., Shane Yost, Joonho Lee, David Small,
  Daniel Levine, Susi Lehtola, Hugh Burton, Evgeny Epifanovsky
 -----------------------------------------------------------------------
 Hartree-Fock
 using 8 threads for integral computing
 -------------------------------------------------------
 OpenMP Integral computing Module                
 Release: version 2.0, May 2017, Q-Chem Inc. Pleasanton 
 -------------------------------------------------------
 A unrestricted SCF calculation will be
 performed using GDM
 SCF converges when RMS gradient is below 1.0e-08
 ---------------------------------------
  Cycle       Energy        RMS Gradient
 ---------------------------------------
    1      -1.1336228407      2.44e-04   Normal BFGS step
    2      -1.1336229804      5.65e-05   Normal BFGS step
    3      -1.1336229896      2.48e-06   Normal BFGS step
    4      -1.1336229896      3.92e-07   Normal BFGS step
    5      -1.1336229896      1.84e-08   Normal BFGS step
    6      -1.1336229896      4.01e-09  Convergence criterion met
 ---------------------------------------
 SCF time:   CPU 18.89s  wall 3.00s 
<S^2> =         -0.000000000
 SCF   energy in the final basis set =       -1.1336229896
 Total energy in the final basis set =       -1.1336229896


 ------------------------------------------------------------------------------

   CCMAN2: suite of methods based on coupled cluster
           and equation of motion theories.

   Components:
   * libvmm-1.3-trunk
     by Evgeny Epifanovsky, Ilya Kaliman.
   * libtensor-2.5-trunk
     by Evgeny Epifanovsky, Michael Wormit, Dmitry Zuev, Sam Manzer, 
        Ilya Kaliman.
   * libcc-2.5-trunk
     by Evgeny Epifanovsky, Arik Landau, Tomasz Kus, Kirill Khistyaev, 
        Dmitry Zuev, Prashant Manohar, Xintian Feng, Anna Krylov, 
        Matthew Goldey, Alec White, Thomas Jagau, Kaushik Nanda, 
        Anastasia Gunina, Alexander Kunitsa, Joonho Lee.

   CCMAN original authors:
   Anna I. Krylov, C. David Sherrill, Steven R. Gwaltney,
   Edward F. C. Byrd (2000)
   Sergey V. Levchenko, Lyudmila V. Slipchenko, Tao Wang,
   Ana-Maria C. Cristian (2003)
[...]
 T. Van Voorhis,  J. M. Herbert,  A. I. Krylov,  P. M. W. Gill,  M. Head-Gordon

 Contributors to earlier versions of Q-Chem not listed above: 
 R. D. Adamson,  B. Austin,  J. Baker,  G. J. O. Beran,  K. Brandhorst,  
 S. T. Brown,  E. F. C. Byrd,  A. K. Chakraborty,  C.-L. Cheng,  
 Siu Hung Chien,  D. M. Chipman,  D. L. Crittenden,  H. Dachsel,  
 R. J. Doerksen,  A. D. Dutoi,  L. Fusti-Molnar,  W. A. Goddard III,  
 A. Golubeva-Zadorozhnaya,  S. R. Gwaltney,  G. Hawkins,  A. Heyden,  
 S. Hirata,  G. Kedziora,  F. J. Keil,  C. Kelley,  Jihan Kim,  R. A. King,  
 R. Z. Khaliullin,  P. P. Korambath,  W. Kurlancheek,  A. M. Lee,  M. S. Lee,  
 S. V. Levchenko,  Ching Yeh Lin,  D. Liotard,  R. C. Lochan,  I. Lotan,  
 P. E. Maslen,  N. Nair,  D. P. O'Neill,  D. Neuhauser,  E. Neuscamman,  
 C. M. Oana,  R. Olson,  B. Peters,  R. Peverati,  P. A. Pieniazek,  
 Y. M. Rhee,  J. Ritchie,  M. A. Rohrdanz,  E. Rosta,  N. J. Russ,  
 H. F. Schaefer III,  N. E. Schultz,  N. Shenvi,  A. C. Simmonett,  A. Sodt,  
 D. Stuck,  K. S. Thanthiriwatte,  V. Vanovschi,  Tao Wang,  A. Warshel,  
 C. F. Williams,  Q. Wu,  X. Xu,  W. Zhang

 Please cite Q-Chem as follows:
 Y. Shao et al., Mol. Phys. 113, 184-215 (2015)
 DOI: 10.1080/00268976.2014.952696

 Q-Chem 5.1.1 for Intel X86 EM64T Linux

 Parts of Q-Chem use Armadillo 8.300.2 (Tropical Shenanigans).
 http://arma.sourceforge.net/

 Q-Chem begins on Mon Jul 13 19:30:06 2020  

Host: n0087.mhg0
0

     Scratch files written to /local/scratch/users/yhljason/H2_ccsdT_aug-cc-pcVQZ.inp20200713023005//
The previous job contains 0 fragments, simply inherited here
Input Ideriv = 0
Curr. Ideriv = -1
Max.  Ideriv = 0

Checking the input file for inconsistencies... 	...done.

--------------------------------------------------------------
User input:
--------------------------------------------------------------
$molecule
read
$end

$rem

jobtype sp
method CCSD(T)
xc_grid 000099000590
basis aug-cc-pcVQZ
max_scf_cycles 200
thresh 14
scf_convergence 8
mem_total 128000
cc_memory 96000
cc_backend xm
mem_static 1500
symmetry false
sym_ignore true
scf_guess read
unrestricted true
scf_algorithm gdm
n_frozen_core 0
$end

$multipole_field
ZZ -0.0001
$end

--------------------------------------------------------------
 ----------------------------------------------------------------
             Standard Nuclear Orientation (Angstroms)
    I     Atom           X                Y                Z
 ----------------------------------------------------------------
    1      H       0.0000000000     0.0000000000     0.0000000000
    2      H       0.0000000000     0.0000000000     0.7414000000
 ----------------------------------------------------------------
 Nuclear Repulsion Energy =     0.7137539935 hartrees
 There are        1 alpha and        1 beta electrons
 Requested basis set is aug-cc-pCVQZ
 There are 28 shells and 92 basis functions
 Total memory of 128000MB is distributed as follows: 
   QALLOC including MEM_STATIC uses 32000MB
   MEM_STATIC is set to 1500MB
   CCMAN JOB total memory use is  96000MB
 Warning: actual memory use might exceed 128000MB

 Total QAlloc Memory Limit  32000 MB
 Mega-Array Size      1467 MB
 MEM_STATIC part      1500 MB

                       Distance Matrix (Angstroms)
             H (  1)
   H (  2)  0.741400
 
 Applying Cartesian multipole field
    Component          Value
    ---------          -----
     (0,0,2)       -1.00000E-04
 Nucleus-field energy     =    -0.0001962921 hartrees
 A cutoff of  1.0D-14 yielded    406 shell pairs
 There are      4446 function pairs (      6399 Cartesian)
 
 -------------------------------------------------------
 OpenMP Integral Computing Module                       
 Release: version 1.0, May 2013, Q-Chem Inc. Pittsburgh 
 -------------------------------------------------------
 Integral Job Info:
 Integral job number is                      11
 Integral operator is                         1
 short-range coefficients                     0
 long-range coefficients              100000000
 Omega coefficients                           0
 if combine SR and LR in K                    0
 Integral screening is                        0
 Integral computing path is                   2
 max size of driver memory is            800000
 size of driver memory is                776718
 size of scratch memory is              1423620
 max col of scratch BK array              10000
 max len of scratch array in speh3          662
 max len of scratch index in speh4           32
 max int batch size is                      520
 min int batch size is                       52
 fixed nKL is                                52
 max L of basis functions is                  3
 order of int derivative is                   0
 number of shells is                         28
 number of basis is                         110
 number of cartesian basis is               110
 number of contracted shell pairs           406
 number of primitive shell pairs            533
 maxK2 (contraction) of shell pair            9
 max number of K2 of shell pair               1
 max number of CS2 of shell pair             64
 max number of PS2 of shell pair             64
 mem total for path MDJ                  546996
 -------------------------------------------------------
 Smallest overlap matrix eigenvalue = 3.30E-05
 Guess MOs from SCF MO coefficient file

 -----------------------------------------------------------------------
  General SCF calculation program by
  Eric Jon Sundstrom, Paul Horn, Yuezhi Mao, Dmitri Zuev, Alec White,
  David Stuck, Shaama M.S., Shane Yost, Joonho Lee, David Small,
  Daniel Levine, Susi Lehtola, Hugh Burton, Evgeny Epifanovsky
 -----------------------------------------------------------------------
 Hartree-Fock
 using 8 threads for integral computing
 -------------------------------------------------------
 OpenMP Integral computing Module                
 Release: version 2.0, May 2017, Q-Chem Inc. Pleasanton 
 -------------------------------------------------------
 A unrestricted SCF calculation will be
 performed using GDM
 SCF converges when RMS gradient is below 1.0e-08
 ---------------------------------------
  Cycle       Energy        RMS Gradient
 ---------------------------------------
    1      -1.1333608787      3.45e-04   Normal BFGS step
    2      -1.1333614075      8.99e-05   Normal BFGS step
    3      -1.1333614448      5.81e-06   Normal BFGS step
    4      -1.1333614450      1.09e-06   Normal BFGS step
    5      -1.1333614450      9.72e-08   Normal BFGS step
    6      -1.1333614450      1.92e-08   Normal BFGS step
    7      -1.1333614450      1.18e-09  Convergence criterion met
 ---------------------------------------
 SCF time:   CPU 21.99s  wall 3.00s 
<S^2> =          0.000000000
 SCF   energy in the final basis set =       -1.1333614450
 Total energy in the final basis set =       -1.1333614450


 ------------------------------------------------------------------------------

   CCMAN2: suite of methods based on coupled cluster
           and equation of motion theories.

   Components:
   * libvmm-1.3-trunk
     by Evgeny Epifanovsky, Ilya Kaliman.
   * libtensor-2.5-trunk
     by Evgeny Epifanovsky, Michael Wormit, Dmitry Zuev, Sam Manzer, 
        Ilya Kaliman.
   * libcc-2.5-trunk
     by Evgeny Epifanovsky, Arik Landau, Tomasz Kus, Kirill Khistyaev, 
        Dmitry Zuev, Prashant Manohar, Xintian Feng, Anna Krylov, 
        Matthew Goldey, Alec White, Thomas Jagau, Kaushik Nanda, 
        Anastasia Gunina, Alexander Kunitsa, Joonho Lee.

   CCMAN original authors:
   Anna I. Krylov, C. David Sherrill, Steven R. Gwaltney,
   Edward F. C. Byrd (2000)
   Sergey V. Levchenko, Lyudmila V. Slipchenko, Tao Wang,
   Ana-Maria C. Cristian (2003)
   Piotr A. Pieniazek, C. Melania Oana, Evgeny Epifanovsky (2007)
   Prashant Manohar (2009)

 ------------------------------------------------------------------------------


 Calculation will run on 8 cores using libxm for tensor contractions

 ------------------------------------------------------------------------------
Libxm Tensor Library
Copyright (c) 2014-2018 Ilya Kaliman
https://github.com/ilyak/libxm
Reference: https://dx.doi.org/10.1002/jcc.24713
 ------------------------------------------------------------------------------

 
 Alpha MOs, Unrestricted
 -- Occupied --                  
 -0.594
  1 A                                                                          
 -- Virtual --                   
  0.049   0.051   0.163   0.174   0.174   0.230   0.234   0.234
  2 A     3 A     4 A     5 A     6 A     7 A     8 A     9 A                  
  0.328   0.366   0.602   0.602   0.611   0.663   0.663   0.688
 10 A    11 A    12 A    13 A    14 A    15 A    16 A    17 A                  
  0.700   0.700   0.710   0.710   0.735   0.735   0.825   1.119
 18 A    19 A    20 A    21 A    22 A    23 A    24 A    25 A                  
  1.441   1.441   1.517   1.517   1.569   1.745   1.805   1.805
 26 A    27 A    28 A    29 A    30 A    31 A    32 A    33 A                  
  1.811   1.811   1.812   1.812   1.859   1.859   1.864   1.865
 34 A    35 A    36 A    37 A    38 A    39 A    40 A    41 A                  
  1.876   1.876   2.305   2.363   2.363   2.397   2.397   2.754
 42 A    43 A    44 A    45 A    46 A    47 A    48 A    49 A                  
  3.059   3.059   3.486   3.542   3.542   3.685   3.685   4.241
 50 A    51 A    52 A    53 A    54 A    55 A    56 A    57 A                  
  4.251   4.489   4.489   5.940   6.248   6.248   6.574   6.574
 58 A    59 A    60 A    61 A    62 A    63 A    64 A    65 A                  
  7.155   7.155   7.166   7.166   7.672   7.672   7.733   7.876
 66 A    67 A    68 A    69 A    70 A    71 A    72 A    73 A                  
  7.876   8.013   8.392   8.392   8.401   8.401   8.629   9.027
 74 A    75 A    76 A    77 A    78 A    79 A    80 A    81 A                  
  9.121   9.121   9.137   9.137   9.725   9.725  10.834  12.913
 82 A    83 A    84 A    85 A    86 A    87 A    88 A    89 A                  
 12.913  13.358  16.453
 90 A    91 A    92 A                                                          
 
 Beta MOs, Unrestricted
 -- Occupied --                  
 -0.594
  1 A                                                                          
 -- Virtual --                   
  0.049   0.051   0.163   0.174   0.174   0.230   0.234   0.234
  2 A     3 A     4 A     5 A     6 A     7 A     8 A     9 A                  
  0.328   0.366   0.602   0.602   0.611   0.663   0.663   0.688
 10 A    11 A    12 A    13 A    14 A    15 A    16 A    17 A                  
  0.700   0.700   0.710   0.710   0.735   0.735   0.825   1.119
 18 A    19 A    20 A    21 A    22 A    23 A    24 A    25 A                  
  1.441   1.441   1.517   1.517   1.569   1.745   1.805   1.805
 26 A    27 A    28 A    29 A    30 A    31 A    32 A    33 A                  
  1.811   1.811   1.812   1.812   1.859   1.859   1.864   1.865
 34 A    35 A    36 A    37 A    38 A    39 A    40 A    41 A                  
  1.876   1.876   2.305   2.363   2.363   2.397   2.397   2.754
 42 A    43 A    44 A    45 A    46 A    47 A    48 A    49 A                  
  3.059   3.059   3.486   3.542   3.542   3.685   3.685   4.241
 50 A    51 A    52 A    53 A    54 A    55 A    56 A    57 A                  
  4.251   4.489   4.489   5.940   6.248   6.248   6.574   6.574
 58 A    59 A    60 A    61 A    62 A    63 A    64 A    65 A                  
  7.155   7.155   7.166   7.166   7.672   7.672   7.733   7.876
 66 A    67 A    68 A    69 A    70 A    71 A    72 A    73 A                  
  7.876   8.013   8.392   8.392   8.401   8.401   8.629   9.027
 74 A    75 A    76 A    77 A    78 A    79 A    80 A    81 A                  
  9.121   9.121   9.137   9.137   9.725   9.725  10.834  12.913
 82 A    83 A    84 A    85 A    86 A    87 A    88 A    89 A                  
 12.913  13.358  16.453
 90 A    91 A    92 A                                                          

 Occupation and symmetry of molecular orbitals

 Point group: C1 (1 irreducible representation).

                           A     All 
 -------------------------------------
 All molecular orbitals:
  - Alpha                  92    92  
  - Beta                   92    92  
 -------------------------------------
 Alpha orbitals:
  - Frozen occupied        0     0   
  - Active occupied        1     1   
  - Active virtual         91    91  
  - Frozen virtual         0     0   
 -------------------------------------
 Beta orbitals:
  - Frozen occupied        0     0   
  - Active occupied        1     1   
  - Active virtual         91    91  
  - Frozen virtual         0     0   
 -------------------------------------

 Import integrals:   CPU 0.00 s  wall 0.00 s

 Import integrals:   CPU 30.67 s  wall 7.89 s

 MP2 amplitudes:   CPU 0.20 s  wall 0.12 s

Running a double precision version
           CCSD T amplitudes will be solved using DIIS.

           Start     Size      MaxIter   EConv     TConv     
           3         7         100       1.00e-06  1.00e-04  
 ------------------------------------------------------------------------------
           Energy (a.u.)   Ediff      Tdiff       Comment
 ------------------------------------------------------------------------------
            -1.16661597                           
     1      -1.17130832   4.69e-03   1.55e-01     
     2      -1.17293647   1.63e-03   3.13e-02     
     3      -1.17346075   5.24e-04   1.09e-02     
     4      -1.17375623   2.95e-04   6.09e-03     Switched to DIIS steps.
     5      -1.17376104   4.81e-06   6.01e-04     
     6      -1.17376047   5.67e-07   5.24e-05     
 ------------------------------------------------------------------------------
            -1.17376047                           CCSD T converged.

End of double precision

----------------------------------------
libpt (c) 2016-2018 Ilya Kaliman
Fast Coupled Cluster Triples Corrections
https://github.com/ilyak/libpt
----------------------------------------

 Starting (T) calculation...
 Using double precision libpt code
 (T) calculation completed in 0 sec
 (T) energy is 0.0000000000

 SCF energy                 = -1.13336144
 MP2 energy                 = -1.16661597
 CCSD correlation energy     = -0.04039902
 CCSD total energy           = -1.17376047
 CCSD(T) correlation energy =  0.00000000
 CCSD(T) total energy       = -1.17376047

 CCSD  T1^2 = 0.0001  T2^2 = 0.0182  Leading amplitudes:

 Amplitude    Orbitals with energies
 -0.0054       1 (A) B                   ->    10 (A) B                   
              -0.5943                          0.3276                     
  0.0054       1 (A) A                   ->    10 (A) A                   
              -0.5943                          0.3276                     
 -0.0030       1 (A) A                   ->    2 (A) A                    
              -0.5943                          0.0487                     
  0.0030       1 (A) B                   ->    2 (A) B                    
              -0.5943                          0.0487                     

 Amplitude    Orbitals with energies
  0.0339       1 (A) A       1 (A) B     ->    11 (A) A      11 (A) B     
              -0.5943       -0.5943            0.3663        0.3663       
 -0.0339       1 (A) A       1 (A) B     ->    11 (A) B      11 (A) A     
              -0.5943       -0.5943            0.3663        0.3663       
 -0.0339       1 (A) B       1 (A) A     ->    11 (A) A      11 (A) B     
              -0.5943       -0.5943            0.3663        0.3663       
  0.0339       1 (A) B       1 (A) A     ->    11 (A) B      11 (A) A     
              -0.5943       -0.5943            0.3663        0.3663       

 CCSD calculation:   CPU 25.75 s  wall 6.51 s

 Total ccman2 time:   CPU 63.85 s  wall 18.17 s

 
 --------------------------------------------------------------
 
                    Orbital Energies (a.u.)
 --------------------------------------------------------------
 
 Alpha MOs
 -- Occupied --
 -0.594
 -- Virtual --
  0.049   0.051   0.163   0.174   0.174   0.230   0.234   0.234
  0.328   0.366   0.602   0.602   0.611   0.663   0.663   0.688
  0.700   0.700   0.710   0.710   0.735   0.735   0.825   1.119
  1.441   1.441   1.517   1.517   1.569   1.745   1.805   1.805
  1.811   1.811   1.812   1.812   1.859   1.859   1.864   1.865
  1.876   1.876   2.305   2.363   2.363   2.397   2.397   2.754
  3.059   3.059   3.486   3.542   3.542   3.685   3.685   4.241
  4.251   4.489   4.489   5.940   6.248   6.248   6.574   6.574
  7.155   7.155   7.166   7.166   7.672   7.672   7.733   7.876
  7.876   8.013   8.392   8.392   8.401   8.401   8.629   9.027
  9.121   9.121   9.137   9.137   9.725   9.725  10.834  12.913
 12.913  13.358  16.453
 
 Beta MOs
 -- Occupied --
 -0.594
 -- Virtual --
  0.049   0.051   0.163   0.174   0.174   0.230   0.234   0.234
  0.328   0.366   0.602   0.602   0.611   0.663   0.663   0.688
  0.700   0.700   0.710   0.710   0.735   0.735   0.825   1.119
  1.441   1.441   1.517   1.517   1.569   1.745   1.805   1.805
  1.811   1.811   1.812   1.812   1.859   1.859   1.864   1.865
  1.876   1.876   2.305   2.363   2.363   2.397   2.397   2.754
  3.059   3.059   3.486   3.542   3.542   3.685   3.685   4.241
  4.251   4.489   4.489   5.940   6.248   6.248   6.574   6.574
  7.155   7.155   7.166   7.166   7.672   7.672   7.733   7.876
  7.876   8.013   8.392   8.392   8.401   8.401   8.629   9.027
  9.121   9.121   9.137   9.137   9.725   9.725  10.834  12.913
 12.913  13.358  16.453
 --------------------------------------------------------------
 
          Ground-State Mulliken Net Atomic Charges

     Atom                 Charge (a.u.)    Spin (a.u.)
  --------------------------------------------------------
      1 H                    -0.000903       0.000000
      2 H                     0.000903      -0.000000
  --------------------------------------------------------
  Sum of atomic charges =     0.000000
  Sum of spin   charges =    -0.000000

 -----------------------------------------------------------------
                    Cartesian Multipole Moments
 -----------------------------------------------------------------
    Charge (ESU x 10^10)
                 0.0000
    Dipole Moment (Debye)
         X      -0.0000      Y      -0.0000      Z       0.0023
       Tot       0.0023
    Quadrupole Moments (Debye-Ang)
        XX      -2.0925     XY       0.0000     YY      -2.0925
        XZ       0.0000     YZ      -0.0000     ZZ      -1.4224
    Octopole Moments (Debye-Ang^2)
       XXX      -0.0000    XXY      -0.0000    XYY      -0.0000
       YYY      -0.0000    XXZ      -0.7748    XYZ       0.0000
       YYZ      -0.7748    XZZ       0.0000    YZZ      -0.0000
       ZZZ      -1.5798
    Hexadecapole Moments (Debye-Ang^3)
      XXXX      -2.0902   XXXY       0.0000   XXYY      -0.6967
      XYYY       0.0000   YYYY      -2.0902   XXXZ      -0.0000
      XXYZ      -0.0000   XYYZ      -0.0000   YYYZ       0.0000
      XXZZ      -1.1034   XYZZ      -0.0000   YYZZ      -1.1034
      XZZZ       0.0000   YZZZ      -0.0000   ZZZZ      -3.8682
 -----------------------------------------------------------------
Archival summary:
1\1\n0087.mhg0\SP\ProcedureUnspecified\BasisUnspecified\2\yhljason\MonJul1319:30:282020MonJul1319:30:282020\0\\#,ProcedureUnspecified,BasisUnspecified,\\0,1\H\H,1,0.7414\\HF=-1.13336144\\@

 Total job time:  22.19s(wall), 90.18s(cpu) 
 Mon Jul 13 19:30:28 2020

        *************************************************************
        *                                                           *
        *  Thank you very much for using Q-Chem.  Have a nice day.  *
        *                                                           *
        *************************************************************


