Q-Chem Developer Version!
                  Welcome to Q-Chem
     A Quantum Leap Into The Future Of Chemistry


 Q-Chem 5.1, Q-Chem, Inc., Pleasanton, CA (2018)

 Yihan Shao,  Zhengting Gan,  E. Epifanovsky,  A. T. B. Gilbert,  M. Wormit,  
 J. Kussmann,  A. W. Lange,  A. Behn,  Jia Deng,  Xintian Feng,  D. Ghosh,  
 M. Goldey,  P. R. Horn,  L. D. Jacobson,  I. Kaliman,  T. Kus,  A. Landau,  
 Jie Liu,  E. I. Proynov,  R. M. Richard,  R. P. Steele,  E. J. Sundstrom,  
 H. L. Woodcock III,  P. M. Zimmerman,  D. Zuev,  B. Albrecht,  E. Alguire,  
 S. A. Baeppler,  D. Barton,  Z. Benda,  Y. A. Bernard,  E. J. Berquist,  
 K. B. Bravaya,  H. Burton,  D. Casanova,  Chun-Min Chang,  Yunqing Chen,  
 A. Chien,  K. D. Closser,  M. P. Coons,  S. Coriani,  S. Dasgupta,  
 A. L. Dempwolff,  M. Diedenhofen,  Hainam Do,  R. G. Edgar,  Po-Tung Fang,  
 S. Faraji,  S. Fatehi,  Qingguo Feng,  K. D. Fenk,  J. Fosso-Tande,  
 Qinghui Ge,  A. Ghysels,  G. Gidofalvi,  J. Gomes,  J. Gonthier,  A. Gunina,  
 D. Hait,  M. W. D. Hanson-Heine,  P. H. P. Harbach,  A. W. Hauser,  
 J. E. Herr,  E. G. Hohenstein,  Z. C. Holden,  Kerwin Hui,  B. C. Huynh,  
 T.-C. Jagau,  Hyunjun Ji,  B. Kaduk,  K. Khistyaev,  Jaehoon Kim,  
 P. Klunzinger,  K. Koh,  D. Kosenkov,  L. Koulias,  T. Kowalczyk,  
 C. M. Krauter,  A. Kunitsa,  Ka Un Lao,  A. Laurent,  K. V. Lawler,  
 Joonho Lee,  D. Lefrancois,  S. Lehtola,  D. S. Levine,  Yi-Pei Li,  
 You-Sheng Lin,  Fenglai Liu,  E. Livshits,  A. Luenser,  P. Manohar,  
 E. Mansoor,  S. F. Manzer,  Shan-Ping Mao,  Yuezhi Mao,  N. Mardirossian,  
 A. V. Marenich,  T. Markovich,  L. A. Martinez-Martinez,  S. A. Maurer,  
 N. J. Mayhall,  S. C. McKenzie,  J.-M. Mewes,  A. F. Morrison,  
 J. W. Mullinax,  K. Nanda,  T. S. Nguyen-Beck,  R. Olivares-Amaya,  
 J. A. Parkhill,  T. M. Perrine,  F. Plasser,  P. Pokhilko,  S. Prager,  
 A. Prociuk,  E. Ramos,  D. R. Rehn,  F. Rob,  M. Schneider,  N. Sergueev,  
 S. M. Sharada,  S. Sharma,  D. W. Small,  T. Stauch,  T. Stein,  
 Yu-Chuan Su,  A. J. W. Thom,  A. Tkatchenko,  T. Tsuchimochi,  N. M. Tubman,  
 L. Vogt,  M. L. Vidal,  O. Vydrov,  M. A. Watson,  J. Wenzel,  
 M. de Wergifosse,  T. A. Wesolowski,  A. White,  J. Witte,  A. Yamada,  
 Jun Yang,  K. Yao,  S. Yeganeh,  S. R. Yost,  Zhi-Qiang You,  A. Zech,  
 Igor Ying Zhang,  Xing Zhang,  Yan Zhao,  Ying Zhu,  B. R. Brooks,  
 G. K. L. Chan,  C. J. Cramer,  M. S. Gordon,  W. J. Hehre,  A. Klamt,  
 M. W. Schmidt,  C. D. Sherrill,  D. G. Truhlar,  A. Aspuru-Guzik,  R. Baer,  
 A. T. Bell,  N. A. Besley,  Jeng-Da Chai,  A. E. DePrince, III,  
 R. A. DiStasio Jr.,  A. Dreuw,  B. D. Dunietz,  T. R. Furlani,  
 Chao-Ping Hsu,  Yousung Jung,  Jing Kong,  D. S. Lambrecht,  WanZhen Liang,  
 C. Ochsenfeld,  V. A. Rassolov,  L. V. Slipchenko,  J. E. Subotnik,  
 T. Van Voorhis,  J. M. Herbert,  A. I. Krylov,  P. M. W. Gill,  M. Head-Gordon

 Contributors to earlier versions of Q-Chem not listed above: 
 R. D. Adamson,  B. Austin,  J. Baker,  G. J. O. Beran,  K. Brandhorst,  
 S. T. Brown,  E. F. C. Byrd,  A. K. Chakraborty,  C.-L. Cheng,  
 Siu Hung Chien,  D. M. Chipman,  D. L. Crittenden,  H. Dachsel,  
 R. J. Doerksen,  A. D. Dutoi,  L. Fusti-Molnar,  W. A. Goddard III,  
 A. Golubeva-Zadorozhnaya,  S. R. Gwaltney,  G. Hawkins,  A. Heyden,  
 S. Hirata,  G. Kedziora,  F. J. Keil,  C. Kelley,  Jihan Kim,  R. A. King,  
 R. Z. Khaliullin,  P. P. Korambath,  W. Kurlancheek,  A. M. Lee,  M. S. Lee,  
 S. V. Levchenko,  Ching Yeh Lin,  D. Liotard,  R. C. Lochan,  I. Lotan,  
 P. E. Maslen,  N. Nair,  D. P. O'Neill,  D. Neuhauser,  E. Neuscamman,  
 C. M. Oana,  R. Olson,  B. Peters,  R. Peverati,  P. A. Pieniazek,  
 Y. M. Rhee,  J. Ritchie,  M. A. Rohrdanz,  E. Rosta,  N. J. Russ,  
 H. F. Schaefer III,  N. E. Schultz,  N. Shenvi,  A. C. Simmonett,  A. Sodt,  
 D. Stuck,  K. S. Thanthiriwatte,  V. Vanovschi,  Tao Wang,  A. Warshel,  
 C. F. Williams,  Q. Wu,  X. Xu,  W. Zhang

 Please cite Q-Chem as follows:
 Y. Shao et al., Mol. Phys. 113, 184-215 (2015)
 DOI: 10.1080/00268976.2014.952696

 Q-Chem 5.1.1 for Intel X86 EM64T Linux

 Parts of Q-Chem use Armadillo 8.300.2 (Tropical Shenanigans).
 http://arma.sourceforge.net/

 Q-Chem begins on Mon Jul 13 03:01:47 2020  

Host: n0043.mhg0
0

     Scratch files written to /local/scratch/users/yhljason/He_ccsdT_aug-cc-pcVTZ.inp20200713023356//
Input Ideriv = 0
Curr. Ideriv = -1
Max.  Ideriv = 0

Checking the input file for inconsistencies... 	...done.

--------------------------------------------------------------
User input:
--------------------------------------------------------------
$molecule
0 1
He
$end

$rem
jobtype sp
method CCSD(T)
xc_grid 000099000590
basis aug-cc-pcVTZ
max_scf_cycles 200
thresh 14
scf_convergence 8
scf_algorithm gdm
symmetry false
sym_ignore true
unrestricted true
gen_scfman true
internal_stability_iter 15
internal_stability_davidson_iter 200
mem_total 128000
cc_memory 96000
cc_backend xm
mem_static 1500
n_frozen_core 0
$end


--------------------------------------------------------------
 ----------------------------------------------------------------
             Standard Nuclear Orientation (Angstroms)
    I     Atom           X                Y                Z
 ----------------------------------------------------------------
    1      He      0.0000000000     0.0000000000     0.0000000000
 ----------------------------------------------------------------
 Nuclear Repulsion Energy =     0.0000000000 hartrees
 There are        1 alpha and        1 beta electrons
 Requested basis set is aug-cc-pCVTZ
 There are 9 shells and 23 basis functions
 Total memory of 128000MB is distributed as follows: 
   QALLOC including MEM_STATIC uses 32000MB
   MEM_STATIC is set to 1500MB
   CCMAN JOB total memory use is  96000MB
 Warning: actual memory use might exceed 128000MB

 Total QAlloc Memory Limit  32000 MB
 Mega-Array Size      1467 MB
 MEM_STATIC part      1500 MB
 A cutoff of  1.0D-14 yielded     45 shell pairs
 There are       305 function pairs (       364 Cartesian)
 
 -------------------------------------------------------
 OpenMP Integral Computing Module                       
 Release: version 1.0, May 2013, Q-Chem Inc. Pittsburgh 
 -------------------------------------------------------
 Integral Job Info:
 Integral job number is                      11
 Integral operator is                         1
 short-range coefficients                     0
 long-range coefficients              100000000
 Omega coefficients                           0
 if combine SR and LR in K                    0
 Integral screening is                        0
 Integral computing path is                   2
 max size of driver memory is            800000
 size of driver memory is                593474
 size of scratch memory is               820264
 max col of scratch BK array               1296
 max len of scratch array in speh3          155
 max len of scratch index in speh4           18
 max int batch size is                      520
 min int batch size is                       52
 fixed nKL is                                52
 max L of basis functions is                  2
 order of int derivative is                   0
 number of shells is                          9
 number of basis is                          25
 number of cartesian basis is                25
 number of contracted shell pairs            45
 number of primitive shell pairs             84
 maxK2 (contraction) of shell pair           16
 max number of K2 of shell pair               1
 max number of CS2 of shell pair              9
 max number of PS2 of shell pair             16
 mem total for path MDJ                  508692
 -------------------------------------------------------
 Smallest overlap matrix eigenvalue = 7.01E-02

 Scale SEOQF with 1.000000e+00/1.000000e+00/1.000000e+00

 Standard Electronic Orientation quadrupole field applied
 Guess from superposition of atomic densities
 Warning:  Energy on first SCF cycle will be non-variational
 SAD guess density has 2.000000 electrons

 -----------------------------------------------------------------------
  General SCF calculation program by
  Eric Jon Sundstrom, Paul Horn, Yuezhi Mao, Dmitri Zuev, Alec White,
  David Stuck, Shaama M.S., Shane Yost, Joonho Lee, David Small,
  Daniel Levine, Susi Lehtola, Hugh Burton, Evgeny Epifanovsky
 -----------------------------------------------------------------------
Running Object-Oriented UHF
performing a single roothaan step with Fock from read density so that orbitals are available to all algorithms
energy of the guess density (C=0) -2.861183453141
We will preform up to 15 macro iterations over saddle points until a stable solution is found
Energy prior to optimization (guess energy) = -2.861183426116
Begin Timing: Total SCF Calculation
Begin Timing: SCF Single Stationary Point Calculation
begin iterations for algorithm: GDM          
the SCF tolerance is set to 1.00e-08
    1      -2.8611834261      2.04e-09     00000 Convergence criterion met
Timing for Single Stationary Point: 1.00s (wall), 1.03s (cpu)
Begin Timing: Stability
===================================================
Beginning Test for Internal Stability
===================================================
generating davidson guess vectors based on koopmans excitations
    1      1.63e-01     00000 Davidson Iteration
    2      6.47e-03     00000 Davidson Iteration
    3      1.08e-03     00000 Davidson Iteration
    4      6.63e-04     00000 Davidson Iteration
    5      3.45e-04     00000 Davidson Iteration
    6      1.62e-04     00000 Davidson Iteration
    7      6.30e-06     00000 Davidson Iteration
    8      8.87e-06     00000 Davidson Converged
converged_eigenvalues
   1.3443
   1.6185
Threshold for negative eigenvalues: -1.0e-05
solution was a local minimum (stable)
===================================================
End Test for Internal Stability
===================================================
Our SCF solution is stable!
Timing for Total SCF: 2.00s (wall), 11.02s (cpu)
 Total energy in the final basis set =       -2.8611834261
<S^2> =          0.000000000
    ==================================================
              The end of Object-Oriented SCFman       
    ==================================================


 ------------------------------------------------------------------------------

   CCMAN2: suite of methods based on coupled cluster
           and equation of motion theories.

   Components:
   * libvmm-1.3-trunk
     by Evgeny Epifanovsky, Ilya Kaliman.
   * libtensor-2.5-trunk
     by Evgeny Epifanovsky, Michael Wormit, Dmitry Zuev, Sam Manzer, 
        Ilya Kaliman.
   * libcc-2.5-trunk
     by Evgeny Epifanovsky, Arik Landau, Tomasz Kus, Kirill Khistyaev, 
        Dmitry Zuev, Prashant Manohar, Xintian Feng, Anna Krylov, 
        Matthew Goldey, Alec White, Thomas Jagau, Kaushik Nanda, 
        Anastasia Gunina, Alexander Kunitsa, Joonho Lee.

   CCMAN original authors:
   Anna I. Krylov, C. David Sherrill, Steven R. Gwaltney,
   Edward F. C. Byrd (2000)
   Sergey V. Levchenko, Lyudmila V. Slipchenko, Tao Wang,
   Ana-Maria C. Cristian (2003)
   Piotr A. Pieniazek, C. Melania Oana, Evgeny Epifanovsky (2007)
   Prashant Manohar (2009)

 ------------------------------------------------------------------------------


 Calculation will run on 8 cores using libxm for tensor contractions

 ------------------------------------------------------------------------------
Libxm Tensor Library
Copyright (c) 2014-2018 Ilya Kaliman
https://github.com/ilyak/libxm
Reference: https://dx.doi.org/10.1002/jcc.24713
 ------------------------------------------------------------------------------

 
 Alpha MOs, Unrestricted
 -- Occupied --                  
 -0.918
  1 A                                                                          
 -- Virtual --                   
  0.111   0.427   0.427   0.427   0.839   1.520   1.520   1.520
  2 A     3 A     4 A     5 A     6 A     7 A     8 A     9 A                  
  1.520   1.520   1.962   1.962   1.962   4.816   7.108   7.108
 10 A    11 A    12 A    13 A    14 A    15 A    16 A    17 A                  
  7.108   7.108   7.108   8.221   8.221   8.221
 18 A    19 A    20 A    21 A    22 A    23 A                                  
 
 Beta MOs, Unrestricted
 -- Occupied --                  
 -0.918
  1 A                                                                          
 -- Virtual --                   
  0.111   0.427   0.427   0.427   0.839   1.520   1.520   1.520
  2 A     3 A     4 A     5 A     6 A     7 A     8 A     9 A                  
  1.520   1.520   1.962   1.962   1.962   4.816   7.108   7.108
 10 A    11 A    12 A    13 A    14 A    15 A    16 A    17 A                  
  7.108   7.108   7.108   8.221   8.221   8.221
 18 A    19 A    20 A    21 A    22 A    23 A                                  

 Occupation and symmetry of molecular orbitals

 Point group: C1 (1 irreducible representation).

                           A     All 
 -------------------------------------
 All molecular orbitals:
  - Alpha                  23    23  
  - Beta                   23    23  
 -------------------------------------
 Alpha orbitals:
  - Frozen occupied        0     0   
  - Active occupied        1     1   
  - Active virtual         22    22  
  - Frozen virtual         0     0   
 -------------------------------------
 Beta orbitals:
  - Frozen occupied        0     0   
  - Active occupied        1     1   
  - Active virtual         22    22  
  - Frozen virtual         0     0   
 -------------------------------------

 Import integrals:   CPU 0.00 s  wall 0.00 s

 Import integrals:   CPU 0.32 s  wall 0.16 s

 MP2 amplitudes:   CPU 0.04 s  wall 0.03 s

Running a double precision version
           CCSD T amplitudes will be solved using DIIS.

           Start     Size      MaxIter   EConv     TConv     
           3         7         100       1.00e-06  1.00e-04  
 ------------------------------------------------------------------------------
           Energy (a.u.)   Ediff      Tdiff       Comment
 ------------------------------------------------------------------------------
            -2.89480424                           
     1      -2.89944289   4.64e-03   1.22e-01     
     2      -2.90033295   8.90e-04   2.01e-02     
     3      -2.90053160   1.99e-04   4.58e-03     
     4      -2.90059766   6.61e-05   1.58e-03     Switched to DIIS steps.
     5      -2.90059804   3.76e-07   1.84e-04     
     6      -2.90059793   1.12e-07   1.18e-05     
 ------------------------------------------------------------------------------
            -2.90059793                           CCSD T converged.

End of double precision

----------------------------------------
libpt (c) 2016-2018 Ilya Kaliman
Fast Coupled Cluster Triples Corrections
https://github.com/ilyak/libpt
----------------------------------------

 Starting (T) calculation...
 Using double precision libpt code
 (T) calculation completed in 0 sec
 (T) energy is 0.0000000000

 SCF energy                 = -2.86118343
 MP2 energy                 = -2.89480424
 CCSD correlation energy     = -0.03941450
 CCSD total energy           = -2.90059793
 CCSD(T) correlation energy =  0.00000000
 CCSD(T) total energy       = -2.90059793

 CCSD  T1^2 = 0.0000  T2^2 = 0.0081  Leading amplitudes:

 Amplitude    Orbitals with energies
  0.0017       1 (A) A                   ->    2 (A) A                    
              -0.9179                          0.1105                     
  0.0017       1 (A) B                   ->    2 (A) B                    
              -0.9179                          0.1105                     
  0.0014       1 (A) B                   ->    15 (A) B                   
              -0.9179                          4.8165                     
  0.0014       1 (A) A                   ->    15 (A) A                   
              -0.9179                          4.8165                     

 Amplitude    Orbitals with energies
 -0.0408       1 (A) A       1 (A) B     ->    6 (A) A       6 (A) B      
              -0.9179       -0.9179            0.8391        0.8391       
  0.0408       1 (A) A       1 (A) B     ->    6 (A) B       6 (A) A      
              -0.9179       -0.9179            0.8391        0.8391       
  0.0408       1 (A) B       1 (A) A     ->    6 (A) A       6 (A) B      
              -0.9179       -0.9179            0.8391        0.8391       
 -0.0408       1 (A) B       1 (A) A     ->    6 (A) B       6 (A) A      
              -0.9179       -0.9179            0.8391        0.8391       

 CCSD calculation:   CPU 1.22 s  wall 0.87 s

 Total ccman2 time:   CPU 3.80 s  wall 1.92 s

 
 --------------------------------------------------------------
 
                    Orbital Energies (a.u.)
 --------------------------------------------------------------
 
 Alpha MOs
 -- Occupied --
 -0.918
 -- Virtual --
  0.111   0.427   0.427   0.427   0.839   1.520   1.520   1.520
  1.520   1.520   1.962   1.962   1.962   4.816   7.108   7.108
  7.108   7.108   7.108   8.221   8.221   8.221
 
 Beta MOs
 -- Occupied --
 -0.918
 -- Virtual --
  0.111   0.427   0.427   0.427   0.839   1.520   1.520   1.520
  1.520   1.520   1.962   1.962   1.962   4.816   7.108   7.108
  7.108   7.108   7.108   8.221   8.221   8.221
 --------------------------------------------------------------
 
          Ground-State Mulliken Net Atomic Charges

     Atom                 Charge (a.u.)    Spin (a.u.)
  --------------------------------------------------------
      1 He                    0.000000       0.000000
  --------------------------------------------------------
  Sum of atomic charges =     0.000000
  Sum of spin   charges =     0.000000

 -----------------------------------------------------------------
                    Cartesian Multipole Moments
 -----------------------------------------------------------------
    Charge (ESU x 10^10)
                 0.0000
    Dipole Moment (Debye)
         X       0.0000      Y      -0.0000      Z       0.0000
       Tot       0.0000
    Quadrupole Moments (Debye-Ang)
        XX      -1.0644     XY      -0.0000     YY      -1.0644
        XZ      -0.0000     YZ       0.0000     ZZ      -1.0644
    Octopole Moments (Debye-Ang^2)
       XXX       0.0000    XXY      -0.0000    XYY       0.0000
       YYY      -0.0000    XXZ       0.0000    XYZ      -0.0000
       YYZ       0.0000    XZZ       0.0000    YZZ      -0.0000
       ZZZ       0.0000
    Hexadecapole Moments (Debye-Ang^3)
      XXXX      -0.5876   XXXY      -0.0000   XXYY      -0.1959
      XYYY      -0.0000   YYYY      -0.5876   XXXZ      -0.0000
      XXYZ       0.0000   XYYZ      -0.0000   YYYZ       0.0000
      XXZZ      -0.1959   XYZZ      -0.0000   YYZZ      -0.1959
      XZZZ      -0.0000   YZZZ       0.0000   ZZZZ      -0.5876
 -----------------------------------------------------------------

 STANDARD THERMODYNAMIC QUANTITIES AT   298.15 K  AND     1.00 ATM

   Translational Enthalpy:        0.889 kcal/mol
   Rotational Enthalpy:           0.000 kcal/mol
   Vibrational Enthalpy:          0.000 kcal/mol
   gas constant (RT):             0.592 kcal/mol
   Translational Entropy:        30.125  cal/mol.K
   Rotational Entropy:            0.000  cal/mol.K
   Vibrational Entropy:           0.000  cal/mol.K

   Total Enthalpy:                1.481 kcal/mol
   Total Entropy:                30.125  cal/mol.K

 -----------------------------------------------------------------

Archival summary:
1\1\n0043.mhg0\SP\ProcedureUnspecified\BasisUnspecified\e1\yhljason\MonJul1303:01:512020MonJul1303:01:512020\0\\#,ProcedureUnspecified,BasisUnspecified,\\0,1\He\\HF=-2.86118343\\@

 Total job time:  4.24s(wall), 21.18s(cpu) 
 Mon Jul 13 03:01:51 2020

        *************************************************************
        *                                                           *
        *  Thank you very much for using Q-Chem.  Have a nice day.  *
        *                                                           *
        *************************************************************


 
User input: 2 of 7 
 
Q-Chem Developer Version!
                  Welcome to Q-Chem
     A Quantum Leap Into The Future Of Chemistry


 Q-Chem 5.1, Q-Chem, Inc., Pleasanton, CA (2018)

 Yihan Shao,  Zhengting Gan,  E. Epifanovsky,  A. T. B. Gilbert,  M. Wormit,  
 J. Kussmann,  A. W. Lange,  A. Behn,  Jia Deng,  Xintian Feng,  D. Ghosh,  
 M. Goldey,  P. R. Horn,  L. D. Jacobson,  I. Kaliman,  T. Kus,  A. Landau,  
 Jie Liu,  E. I. Proynov,  R. M. Richard,  R. P. Steele,  E. J. Sundstrom,  
 H. L. Woodcock III,  P. M. Zimmerman,  D. Zuev,  B. Albrecht,  E. Alguire,  
 S. A. Baeppler,  D. Barton,  Z. Benda,  Y. A. Bernard,  E. J. Berquist,  
 K. B. Bravaya,  H. Burton,  D. Casanova,  Chun-Min Chang,  Yunqing Chen,  
 A. Chien,  K. D. Closser,  M. P. Coons,  S. Coriani,  S. Dasgupta,  
 A. L. Dempwolff,  M. Diedenhofen,  Hainam Do,  R. G. Edgar,  Po-Tung Fang,  
 S. Faraji,  S. Fatehi,  Qingguo Feng,  K. D. Fenk,  J. Fosso-Tande,  
 Qinghui Ge,  A. Ghysels,  G. Gidofalvi,  J. Gomes,  J. Gonthier,  A. Gunina,  
 D. Hait,  M. W. D. Hanson-Heine,  P. H. P. Harbach,  A. W. Hauser,  
 J. E. Herr,  E. G. Hohenstein,  Z. C. Holden,  Kerwin Hui,  B. C. Huynh,  
 T.-C. Jagau,  Hyunjun Ji,  B. Kaduk,  K. Khistyaev,  Jaehoon Kim,  
 P. Klunzinger,  K. Koh,  D. Kosenkov,  L. Koulias,  T. Kowalczyk,  
 C. M. Krauter,  A. Kunitsa,  Ka Un Lao,  A. Laurent,  K. V. Lawler,  
 Joonho Lee,  D. Lefrancois,  S. Lehtola,  D. S. Levine,  Yi-Pei Li,  
 You-Sheng Lin,  Fenglai Liu,  E. Livshits,  A. Luenser,  P. Manohar,  
 E. Mansoor,  S. F. Manzer,  Shan-Ping Mao,  Yuezhi Mao,  N. Mardirossian,  
 A. V. Marenich,  T. Markovich,  L. A. Martinez-Martinez,  S. A. Maurer,  
 N. J. Mayhall,  S. C. McKenzie,  J.-M. Mewes,  A. F. Morrison,  
 J. W. Mullinax,  K. Nanda,  T. S. Nguyen-Beck,  R. Olivares-Amaya,  
 J. A. Parkhill,  T. M. Perrine,  F. Plasser,  P. Pokhilko,  S. Prager,  
 A. Prociuk,  E. Ramos,  D. R. Rehn,  F. Rob,  M. Schneider,  N. Sergueev,  
 S. M. Sharada,  S. Sharma,  D. W. Small,  T. Stauch,  T. Stein,  
 Yu-Chuan Su,  A. J. W. Thom,  A. Tkatchenko,  T. Tsuchimochi,  N. M. Tubman,  
 L. Vogt,  M. L. Vidal,  O. Vydrov,  M. A. Watson,  J. Wenzel,  
 M. de Wergifosse,  T. A. Wesolowski,  A. White,  J. Witte,  A. Yamada,  
 Jun Yang,  K. Yao,  S. Yeganeh,  S. R. Yost,  Zhi-Qiang You,  A. Zech,  
 Igor Ying Zhang,  Xing Zhang,  Yan Zhao,  Ying Zhu,  B. R. Brooks,  
 G. K. L. Chan,  C. J. Cramer,  M. S. Gordon,  W. J. Hehre,  A. Klamt,  
 M. W. Schmidt,  C. D. Sherrill,  D. G. Truhlar,  A. Aspuru-Guzik,  R. Baer,  
 A. T. Bell,  N. A. Besley,  Jeng-Da Chai,  A. E. DePrince, III,  
 R. A. DiStasio Jr.,  A. Dreuw,  B. D. Dunietz,  T. R. Furlani,  
 Chao-Ping Hsu,  Yousung Jung,  Jing Kong,  D. S. Lambrecht,  WanZhen Liang,  
 C. Ochsenfeld,  V. A. Rassolov,  L. V. Slipchenko,  J. E. Subotnik,  
 T. Van Voorhis,  J. M. Herbert,  A. I. Krylov,  P. M. W. Gill,  M. Head-Gordon

 Contributors to earlier versions of Q-Chem not listed above: 
 R. D. Adamson,  B. Austin,  J. Baker,  G. J. O. Beran,  K. Brandhorst,  
 S. T. Brown,  E. F. C. Byrd,  A. K. Chakraborty,  C.-L. Cheng,  
 Siu Hung Chien,  D. M. Chipman,  D. L. Crittenden,  H. Dachsel,  
 R. J. Doerksen,  A. D. Dutoi,  L. Fusti-Molnar,  W. A. Goddard III,  
 A. Golubeva-Zadorozhnaya,  S. R. Gwaltney,  G. Hawkins,  A. Heyden,  
 S. Hirata,  G. Kedziora,  F. J. Keil,  C. Kelley,  Jihan Kim,  R. A. King,  
 R. Z. Khaliullin,  P. P. Korambath,  W. Kurlancheek,  A. M. Lee,  M. S. Lee,  
 S. V. Levchenko,  Ching Yeh Lin,  D. Liotard,  R. C. Lochan,  I. Lotan,  
 P. E. Maslen,  N. Nair,  D. P. O'Neill,  D. Neuhauser,  E. Neuscamman,  
 C. M. Oana,  R. Olson,  B. Peters,  R. Peverati,  P. A. Pieniazek,  
 Y. M. Rhee,  J. Ritchie,  M. A. Rohrdanz,  E. Rosta,  N. J. Russ,  
 H. F. Schaefer III,  N. E. Schultz,  N. Shenvi,  A. C. Simmonett,  A. Sodt,  
 D. Stuck,  K. S. Thanthiriwatte,  V. Vanovschi,  Tao Wang,  A. Warshel,  
 C. F. Williams,  Q. Wu,  X. Xu,  W. Zhang

 Please cite Q-Chem as follows:
 Y. Shao et al., Mol. Phys. 113, 184-215 (2015)
 DOI: 10.1080/00268976.2014.952696

 Q-Chem 5.1.1 for Intel X86 EM64T Linux

 Parts of Q-Chem use Armadillo 8.300.2 (Tropical Shenanigans).
 http://arma.sourceforge.net/

 Q-Chem begins on Mon Jul 13 03:01:51 2020  

Host: n0043.mhg0
0

     Scratch files written to /local/scratch/users/yhljason/He_ccsdT_aug-cc-pcVTZ.inp20200713023356//
The previous job contains 0 fragments, simply inherited here
Input Ideriv = 0
Curr. Ideriv = -1
Max.  Ideriv = 0

Checking the input file for inconsistencies... 	...done.

--------------------------------------------------------------
User input:
--------------------------------------------------------------
$molecule
read
$end

$rem

jobtype sp
method CCSD(T)
xc_grid 000099000590
basis aug-cc-pcVTZ
max_scf_cycles 200
thresh 14
scf_convergence 8
mem_total 128000
cc_memory 96000
cc_backend xm
mem_static 1500
symmetry false
sym_ignore true
scf_guess read
unrestricted true
scf_algorithm gdm
n_frozen_core 0
$end

$multipole_field
XX 0.0001
$end


--------------------------------------------------------------
 ----------------------------------------------------------------
             Standard Nuclear Orientation (Angstroms)
    I     Atom           X                Y                Z
 ----------------------------------------------------------------
    1      He      0.0000000000     0.0000000000     0.0000000000
 ----------------------------------------------------------------
 Nuclear Repulsion Energy =     0.0000000000 hartrees
 There are        1 alpha and        1 beta electrons
 Requested basis set is aug-cc-pCVTZ
 There are 9 shells and 23 basis functions
 Total memory of 128000MB is distributed as follows: 
   QALLOC including MEM_STATIC uses 32000MB
   MEM_STATIC is set to 1500MB
   CCMAN JOB total memory use is  96000MB
 Warning: actual memory use might exceed 128000MB

 Total QAlloc Memory Limit  32000 MB
 Mega-Array Size      1467 MB
 MEM_STATIC part      1500 MB
 Applying Cartesian multipole field
    Component          Value
    ---------          -----
     (2,0,0)        1.00000E-04
 A cutoff of  1.0D-14 yielded     45 shell pairs
 There are       305 function pairs (       364 Cartesian)
 
 -------------------------------------------------------
 OpenMP Integral Computing Module                       
 Release: version 1.0, May 2013, Q-Chem Inc. Pittsburgh 
 -------------------------------------------------------
 Integral Job Info:
 Integral job number is                      11
 Integral operator is                         1
 short-range coefficients                     0
 long-range coefficients              100000000
 Omega coefficients                           0
 if combine SR and LR in K                    0
 Integral screening is                        0
 Integral computing path is                   2
 max size of driver memory is            800000
 size of driver memory is                593474
 size of scratch memory is               820264
 max col of scratch BK array               1296
 max len of scratch array in speh3          155
 max len of scratch index in speh4           18
 max int batch size is                      520
 min int batch size is                       52
 fixed nKL is                                52
 max L of basis functions is                  2
 order of int derivative is                   0
 number of shells is                          9
 number of basis is                          25
 number of cartesian basis is                25
 number of contracted shell pairs            45
 number of primitive shell pairs             84
 maxK2 (contraction) of shell pair           16
 max number of K2 of shell pair               1
 max number of CS2 of shell pair              9
 max number of PS2 of shell pair             16
 mem total for path MDJ                  508692
 -------------------------------------------------------
 Smallest overlap matrix eigenvalue = 7.01E-02
 Guess MOs from SCF MO coefficient file

 -----------------------------------------------------------------------
  General SCF calculation program by
  Eric Jon Sundstrom, Paul Horn, Yuezhi Mao, Dmitri Zuev, Alec White,
  David Stuck, Shaama M.S., Shane Yost, Joonho Lee, David Small,
  Daniel Levine, Susi Lehtola, Hugh Burton, Evgeny Epifanovsky
 -----------------------------------------------------------------------
 Hartree-Fock
 using 8 threads for integral computing
 -------------------------------------------------------
 OpenMP Integral computing Module                
 Release: version 2.0, May 2017, Q-Chem Inc. Pleasanton 
 -------------------------------------------------------
 A unrestricted SCF calculation will be
 performed using GDM
 SCF converges when RMS gradient is below 1.0e-08
 ---------------------------------------
  Cycle       Energy        RMS Gradient
 ---------------------------------------
    1      -2.8612625649      5.15e-05   Normal BFGS step
    2      -2.8612625727      1.06e-05   Normal BFGS step
    3      -2.8612625730      3.66e-07   Normal BFGS step
    4      -2.8612625730      5.60e-08   Normal BFGS step
    5      -2.8612625730      3.44e-09  Convergence criterion met
 ---------------------------------------
 SCF time:   CPU 6.83s  wall 1.00s 
<S^2> =         -0.000000000
 SCF   energy in the final basis set =       -2.8612625730
 Total energy in the final basis set =       -2.8612625730


 ------------------------------------------------------------------------------

   CCMAN2: suite of methods based on coupled cluster
           and equation of motion theories.

   Components:
   * libvmm-1.3-trunk
     by Evgeny Epifanovsky, Ilya Kaliman.
   * libtensor-2.5-trunk
     by Evgeny Epifanovsky, Michael Wormit, Dmitry Zuev, Sam Manzer, 
        Ilya Kaliman.
   * libcc-2.5-trunk
     by Evgeny Epifanovsky, Arik Landau, Tomasz Kus, Kirill Khistyaev, 
        Dmitry Zuev, Prashant Manohar, Xintian Feng, Anna Krylov, 
        Matthew Goldey, Alec White, Thomas Jagau, Kaushik Nanda, 
        Anastasia Gunina, Alexander Kunitsa, Joonho Lee.

   CCMAN original authors:
   Anna I. Krylov, C. David Sherrill, Steven R. Gwaltney,
   Edward F. C. Byrd (2000)
   Sergey V. Levchenko, Lyudmila V. Slipchenko, Tao Wang,
   Ana-Maria C. Cristian (2003)
   Piotr A. Pieniazek, C. Melania Oana, Evgeny Epifanovsky (2007)
   Prashant Manohar (2009)

 ------------------------------------------------------------------------------


 Calculation will run on 8 cores using libxm for tensor contractions

 ------------------------------------------------------------------------------
Libxm Tensor Library
Copyright (c) 2014-2018 Ilya Kaliman
https://github.com/ilyak/libxm
Reference: https://dx.doi.org/10.1002/jcc.24713
 ------------------------------------------------------------------------------

 
 Alpha MOs, Unrestricted
 -- Occupied --                  
 -0.918
  1 A                                                                          
 -- Virtual --                   
  0.110   0.426   0.427   0.427   0.839   1.520   1.520   1.520
  2 A     3 A     4 A     5 A     6 A     7 A     8 A     9 A                  
  1.520   1.520   1.962   1.962   1.962   4.816   7.108   7.108
 10 A    11 A    12 A    13 A    14 A    15 A    16 A    17 A                  
  7.108   7.108   7.108   8.221   8.221   8.221
 18 A    19 A    20 A    21 A    22 A    23 A                                  
 
 Beta MOs, Unrestricted
 -- Occupied --                  
 -0.918
  1 A                                                                          
 -- Virtual --                   
  0.110   0.426   0.427   0.427   0.839   1.520   1.520   1.520
  2 A     3 A     4 A     5 A     6 A     7 A     8 A     9 A                  
  1.520   1.520   1.962   1.962   1.962   4.816   7.108   7.108
 10 A    11 A    12 A    13 A    14 A    15 A    16 A    17 A                  
  7.108   7.108   7.108   8.221   8.221   8.221
 18 A    19 A    20 A    21 A    22 A    23 A                                  

 Occupation and symmetry of molecular orbitals

 Point group: C1 (1 irreducible representation).

                           A     All 
 -------------------------------------
 All molecular orbitals:
  - Alpha                  23    23  
  - Beta                   23    23  
 -------------------------------------
 Alpha orbitals:
  - Frozen occupied        0     0   
  - Active occupied        1     1   
  - Active virtual         22    22  
  - Frozen virtual         0     0   
 -------------------------------------
 Beta orbitals:
  - Frozen occupied        0     0   
  - Active occupied        1     1   
  - Active virtual         22    22  
  - Frozen virtual         0     0   
 -------------------------------------

 Import integrals:   CPU 0.00 s  wall 0.00 s

 Import integrals:   CPU 0.34 s  wall 0.17 s

 MP2 amplitudes:   CPU 0.06 s  wall 0.04 s

Running a double precision version
           CCSD T amplitudes will be solved using DIIS.

           Start     Size      MaxIter   EConv     TConv     
           3         7         100       1.00e-06  1.00e-04  
 ------------------------------------------------------------------------------
           Energy (a.u.)   Ediff      Tdiff       Comment
 ------------------------------------------------------------------------------
            -2.89488388                           
     1      -2.89952270   4.64e-03   1.22e-01     
     2      -2.90041285   8.90e-04   2.01e-02     
     3      -2.90061154   1.99e-04   4.58e-03     
     4      -2.90067762   6.61e-05   1.58e-03     Switched to DIIS steps.
     5      -2.90067799   3.76e-07   1.84e-04     
     6      -2.90067788   1.12e-07   1.19e-05     
 ------------------------------------------------------------------------------
            -2.90067788                           CCSD T converged.

End of double precision

----------------------------------------
libpt (c) 2016-2018 Ilya Kaliman
Fast Coupled Cluster Triples Corrections
https://github.com/ilyak/libpt
----------------------------------------

 Starting (T) calculation...
 Using double precision libpt code
 (T) calculation completed in 0 sec
 (T) energy is 0.0000000000

 SCF energy                 = -2.86126257
 MP2 energy                 = -2.89488388
 CCSD correlation energy     = -0.03941531
 CCSD total energy           = -2.90067788
 CCSD(T) correlation energy =  0.00000000
 CCSD(T) total energy       = -2.90067788

 CCSD  T1^2 = 0.0000  T2^2 = 0.0081  Leading amplitudes:

 Amplitude    Orbitals with energies
  0.0017       1 (A) B                   ->    2 (A) B                    
              -0.9179                          0.1099                     
  0.0017       1 (A) A                   ->    2 (A) A                    
              -0.9179                          0.1099                     
 -0.0014       1 (A) A                   ->    15 (A) A                   
              -0.9179                          4.8164                     
 -0.0014       1 (A) B                   ->    15 (A) B                   
              -0.9179                          4.8164                     

 Amplitude    Orbitals with energies
  0.0408       1 (A) A       1 (A) B     ->    6 (A) A       6 (A) B      
              -0.9179       -0.9179            0.8388        0.8388       
 -0.0408       1 (A) A       1 (A) B     ->    6 (A) B       6 (A) A      
              -0.9179       -0.9179            0.8388        0.8388       
 -0.0408       1 (A) B       1 (A) A     ->    6 (A) A       6 (A) B      
              -0.9179       -0.9179            0.8388        0.8388       
  0.0408       1 (A) B       1 (A) A     ->    6 (A) B       6 (A) A      
              -0.9179       -0.9179            0.8388        0.8388       

 CCSD calculation:   CPU 1.19 s  wall 0.81 s

 Total ccman2 time:   CPU 3.39 s  wall 1.79 s

 
 --------------------------------------------------------------
 
                    Orbital Energies (a.u.)
 --------------------------------------------------------------
 
 Alpha MOs
 -- Occupied --
 -0.918
 -- Virtual --
  0.110   0.426   0.427   0.427   0.839   1.520   1.520   1.520
  1.520   1.520   1.962   1.962   1.962   4.816   7.108   7.108
  7.108   7.108   7.108   8.221   8.221   8.221
 
 Beta MOs
 -- Occupied --
 -0.918
 -- Virtual --
  0.110   0.426   0.427   0.427   0.839   1.520   1.520   1.520
  1.520   1.520   1.962   1.962   1.962   4.816   7.108   7.108
  7.108   7.108   7.108   8.221   8.221   8.221
 --------------------------------------------------------------
 
          Ground-State Mulliken Net Atomic Charges

     Atom                 Charge (a.u.)    Spin (a.u.)
  --------------------------------------------------------
      1 He                   -0.000000       0.000000
  --------------------------------------------------------
  Sum of atomic charges =    -0.000000
  Sum of spin   charges =     0.000000

 -----------------------------------------------------------------
                    Cartesian Multipole Moments
 -----------------------------------------------------------------
    Charge (ESU x 10^10)
                -0.0000
    Dipole Moment (Debye)
         X       0.0000      Y      -0.0000      Z      -0.0000
       Tot       0.0000
    Quadrupole Moments (Debye-Ang)
        XX      -1.0647     XY       0.0000     YY      -1.0645
        XZ       0.0000     YZ       0.0000     ZZ      -1.0645
    Octopole Moments (Debye-Ang^2)
       XXX       0.0000    XXY      -0.0000    XYY       0.0000
       YYY      -0.0000    XXZ      -0.0000    XYZ      -0.0000
       YYZ      -0.0000    XZZ       0.0000    YZZ      -0.0000
       ZZZ      -0.0000
    Hexadecapole Moments (Debye-Ang^3)
      XXXX      -0.5879   XXXY       0.0000   XXYY      -0.1959
      XYYY       0.0000   YYYY      -0.5878   XXXZ       0.0000
      XXYZ       0.0000   XYYZ       0.0000   YYYZ       0.0000
      XXZZ      -0.1959   XYZZ       0.0000   YYZZ      -0.1959
      XZZZ       0.0000   YZZZ       0.0000   ZZZZ      -0.5878
 -----------------------------------------------------------------

 STANDARD THERMODYNAMIC QUANTITIES AT   298.15 K  AND     1.00 ATM

   Translational Enthalpy:        0.889 kcal/mol
   Rotational Enthalpy:           0.000 kcal/mol
   Vibrational Enthalpy:          0.000 kcal/mol
   gas constant (RT):             0.592 kcal/mol
   Translational Entropy:        30.125  cal/mol.K
   Rotational Entropy:            0.000  cal/mol.K
   Vibrational Entropy:           0.000  cal/mol.K

   Total Enthalpy:                1.481 kcal/mol
   Total Entropy:                30.125  cal/mol.K

 -----------------------------------------------------------------

Archival summary:
1\1\n0043.mhg0\SP\ProcedureUnspecified\BasisUnspecified\e1\yhljason\MonJul1303:01:542020MonJul1303:01:542020\0\\#,ProcedureUnspecified,BasisUnspecified,\\0,1\He\\HF=-2.86126257\\@

 Total job time:  3.29s(wall), 14.19s(cpu) 
 Mon Jul 13 03:01:54 2020

        *************************************************************
        *                                                           *
        *  Thank you very much for using Q-Chem.  Have a nice day.  *
        *                                                           *
        *************************************************************


 
User input: 3 of 7 
 
Q-Chem Developer Version!
                  Welcome to Q-Chem
     A Quantum Leap Into The Future Of Chemistry


 Q-Chem 5.1, Q-Chem, Inc., Pleasanton, CA (2018)

 Yihan Shao,  Zhengting Gan,  E. Epifanovsky,  A. T. B. Gilbert,  M. Wormit,  
 J. Kussmann,  A. W. Lange,  A. Behn,  Jia Deng,  Xintian Feng,  D. Ghosh,  
 M. Goldey,  P. R. Horn,  L. D. Jacobson,  I. Kaliman,  T. Kus,  A. Landau,  
 Jie Liu,  E. I. Proynov,  R. M. Richard,  R. P. Steele,  E. J. Sundstrom,  
 H. L. Woodcock III,  P. M. Zimmerman,  D. Zuev,  B. Albrecht,  E. Alguire,  
 S. A. Baeppler,  D. Barton,  Z. Benda,  Y. A. Bernard,  E. J. Berquist,  
 K. B. Bravaya,  H. Burton,  D. Casanova,  Chun-Min Chang,  Yunqing Chen,  
 A. Chien,  K. D. Closser,  M. P. Coons,  S. Coriani,  S. Dasgupta,  
 A. L. Dempwolff,  M. Diedenhofen,  Hainam Do,  R. G. Edgar,  Po-Tung Fang,  
 S. Faraji,  S. Fatehi,  Qingguo Feng,  K. D. Fenk,  J. Fosso-Tande,  
 Qinghui Ge,  A. Ghysels,  G. Gidofalvi,  J. Gomes,  J. Gonthier,  A. Gunina,  
 D. Hait,  M. W. D. Hanson-Heine,  P. H. P. Harbach,  A. W. Hauser,  
 J. E. Herr,  E. G. Hohenstein,  Z. C. Holden,  Kerwin Hui,  B. C. Huynh,  
 T.-C. Jagau,  Hyunjun Ji,  B. Kaduk,  K. Khistyaev,  Jaehoon Kim,  
 P. Klunzinger,  K. Koh,  D. Kosenkov,  L. Koulias,  T. Kowalczyk,  
 C. M. Krauter,  A. Kunitsa,  Ka Un Lao,  A. Laurent,  K. V. Lawler,  
 Joonho Lee,  D. Lefrancois,  S. Lehtola,  D. S. Levine,  Yi-Pei Li,  
 You-Sheng Lin,  Fenglai Liu,  E. Livshits,  A. Luenser,  P. Manohar,  
 E. Mansoor,  S. F. Manzer,  Shan-Ping Mao,  Yuezhi Mao,  N. Mardirossian,  
 A. V. Marenich,  T. Markovich,  L. A. Martinez-Martinez,  S. A. Maurer,  
 N. J. Mayhall,  S. C. McKenzie,  J.-M. Mewes,  A. F. Morrison,  
 J. W. Mullinax,  K. Nanda,  T. S. Nguyen-Beck,  R. Olivares-Amaya,  
 J. A. Parkhill,  T. M. Perrine,  F. Plasser,  P. Pokhilko,  S. Prager,  
 A. Prociuk,  E. Ramos,  D. R. Rehn,  F. Rob,  M. Schneider,  N. Sergueev,  
 S. M. Sharada,  S. Sharma,  D. W. Small,  T. Stauch,  T. Stein,  
 Yu-Chuan Su,  A. J. W. Thom,  A. Tkatchenko,  T. Tsuchimochi,  N. M. Tubman,  
 L. Vogt,  M. L. Vidal,  O. Vydrov,  M. A. Watson,  J. Wenzel,  
 M. de Wergifosse,  T. A. Wesolowski,  A. White,  J. Witte,  A. Yamada,  
 Jun Yang,  K. Yao,  S. Yeganeh,  S. R. Yost,  Zhi-Qiang You,  A. Zech,  
 Igor Ying Zhang,  Xing Zhang,  Yan Zhao,  Ying Zhu,  B. R. Brooks,  
 G. K. L. Chan,  C. J. Cramer,  M. S. Gordon,  W. J. Hehre,  A. Klamt,  
 M. W. Schmidt,  C. D. Sherrill,  D. G. Truhlar,  A. Aspuru-Guzik,  R. Baer,  
 A. T. Bell,  N. A. Besley,  Jeng-Da Chai,  A. E. DePrince, III,  
 R. A. DiStasio Jr.,  A. Dreuw,  B. D. Dunietz,  T. R. Furlani,  
 Chao-Ping Hsu,  Yousung Jung,  Jing Kong,  D. S. Lambrecht,  WanZhen Liang,  
 C. Ochsenfeld,  V. A. Rassolov,  L. V. Slipchenko,  J. E. Subotnik,  
 T. Van Voorhis,  J. M. Herbert,  A. I. Krylov,  P. M. W. Gill,  M. Head-Gordon

 Contributors to earlier versions of Q-Chem not listed above: 
 R. D. Adamson,  B. Austin,  J. Baker,  G. J. O. Beran,  K. Brandhorst,  
 S. T. Brown,  E. F. C. Byrd,  A. K. Chakraborty,  C.-L. Cheng,  
 Siu Hung Chien,  D. M. Chipman,  D. L. Crittenden,  H. Dachsel,  
 R. J. Doerksen,  A. D. Dutoi,  L. Fusti-Molnar,  W. A. Goddard III,  
 A. Golubeva-Zadorozhnaya,  S. R. Gwaltney,  G. Hawkins,  A. Heyden,  
 S. Hirata,  G. Kedziora,  F. J. Keil,  C. Kelley,  Jihan Kim,  R. A. King,  
 R. Z. Khaliullin,  P. P. Korambath,  W. Kurlancheek,  A. M. Lee,  M. S. Lee,  
 S. V. Levchenko,  Ching Yeh Lin,  D. Liotard,  R. C. Lochan,  I. Lotan,  
 P. E. Maslen,  N. Nair,  D. P. O'Neill,  D. Neuhauser,  E. Neuscamman,  
 C. M. Oana,  R. Olson,  B. Peters,  R. Peverati,  P. A. Pieniazek,  
 Y. M. Rhee,  J. Ritchie,  M. A. Rohrdanz,  E. Rosta,  N. J. Russ,  
 H. F. Schaefer III,  N. E. Schultz,  N. Shenvi,  A. C. Simmonett,  A. Sodt,  
 D. Stuck,  K. S. Thanthiriwatte,  V. Vanovschi,  Tao Wang,  A. Warshel,  
 C. F. Williams,  Q. Wu,  X. Xu,  W. Zhang

 Please cite Q-Chem as follows:
 Y. Shao et al., Mol. Phys. 113, 184-215 (2015)
 DOI: 10.1080/00268976.2014.952696

 Q-Chem 5.1.1 for Intel X86 EM64T Linux

 Parts of Q-Chem use Armadillo 8.300.2 (Tropical Shenanigans).
 http://arma.sourceforge.net/

 Q-Chem begins on Mon Jul 13 03:01:54 2020  

Host: n0043.mhg0
0

     Scratch files written to /local/scratch/users/yhljason/He_ccsdT_aug-cc-pcVTZ.inp20200713023356//
The previous job contains 0 fragments, simply inherited here
Input Ideriv = 0
Curr. Ideriv = -1
Max.  Ideriv = 0

Checking the input file for inconsistencies... 	...done.

--------------------------------------------------------------
User input:
--------------------------------------------------------------
$molecule
read
$end

$rem

jobtype sp
method CCSD(T)
xc_grid 000099000590
basis aug-cc-pcVTZ
max_scf_cycles 200
thresh 14
scf_convergence 8
mem_total 128000
cc_memory 96000
cc_backend xm
mem_static 1500
symmetry false
sym_ignore true
scf_guess read
unrestricted true
scf_algorithm gdm
n_frozen_core 0
$end

$multipole_field
XX -0.0001
$end


--------------------------------------------------------------
 ----------------------------------------------------------------
             Standard Nuclear Orientation (Angstroms)
    I     Atom           X                Y                Z
 ----------------------------------------------------------------
    1      He      0.0000000000     0.0000000000     0.0000000000
 ----------------------------------------------------------------
 Nuclear Repulsion Energy =     0.0000000000 hartrees
 There are        1 alpha and        1 beta electrons
 Requested basis set is aug-cc-pCVTZ
 There are 9 shells and 23 basis functions
 Total memory of 128000MB is distributed as follows: 
   QALLOC including MEM_STATIC uses 32000MB
   MEM_STATIC is set to 1500MB
   CCMAN JOB total memory use is  96000MB
 Warning: actual memory use might exceed 128000MB

 Total QAlloc Memory Limit  32000 MB
 Mega-Array Size      1467 MB
 MEM_STATIC part      1500 MB
 Applying Cartesian multipole field
    Component          Value
    ---------          -----
     (2,0,0)       -1.00000E-04
 A cutoff of  1.0D-14 yielded     45 shell pairs
 There are       305 function pairs (       364 Cartesian)
 
 -------------------------------------------------------
 OpenMP Integral Computing Module                       
 Release: version 1.0, May 2013, Q-Chem Inc. Pittsburgh 
 -------------------------------------------------------
 Integral Job Info:
 Integral job number is                      11
 Integral operator is                         1
 short-range coefficients                     0
 long-range coefficients              100000000
 Omega coefficients                           0
 if combine SR and LR in K                    0
 Integral screening is                        0
 Integral computing path is                   2
 max size of driver memory is            800000
 size of driver memory is                593474
 size of scratch memory is               820264
 max col of scratch BK array               1296
 max len of scratch array in speh3          155
 max len of scratch index in speh4           18
 max int batch size is                      520
 min int batch size is                       52
 fixed nKL is                                52
 max L of basis functions is                  2
 order of int derivative is                   0
 number of shells is                          9
 number of basis is                          25
 number of cartesian basis is                25
 number of contracted shell pairs            45
 number of primitive shell pairs             84
 maxK2 (contraction) of shell pair           16
 max number of K2 of shell pair               1
 max number of CS2 of shell pair              9
 max number of PS2 of shell pair             16
 mem total for path MDJ                  508692
 -------------------------------------------------------
 Smallest overlap matrix eigenvalue = 7.01E-02
 Guess MOs from SCF MO coefficient file

 -----------------------------------------------------------------------
  General SCF calculation program by
  Eric Jon Sundstrom, Paul Horn, Yuezhi Mao, Dmitri Zuev, Alec White,
  David Stuck, Shaama M.S., Shane Yost, Joonho Lee, David Small,
  Daniel Levine, Susi Lehtola, Hugh Burton, Evgeny Epifanovsky
 -----------------------------------------------------------------------
 Hartree-Fock
 using 8 threads for integral computing
 -------------------------------------------------------
 OpenMP Integral computing Module                
 Release: version 2.0, May 2017, Q-Chem Inc. Pleasanton 
 -------------------------------------------------------
 A unrestricted SCF calculation will be
 performed using GDM
 SCF converges when RMS gradient is below 1.0e-08
 ---------------------------------------
  Cycle       Energy        RMS Gradient
 ---------------------------------------
    1      -2.8611042632      1.03e-04   Normal BFGS step
    2      -2.8611042942      2.12e-05   Normal BFGS step
    3      -2.8611042954      7.28e-07   Normal BFGS step
    4      -2.8611042954      1.11e-07   Normal BFGS step
    5      -2.8611042954      6.85e-09  Convergence criterion met
 ---------------------------------------
 SCF time:   CPU 5.48s  wall 1.00s 
<S^2> =         -0.000000000
 SCF   energy in the final basis set =       -2.8611042954
 Total energy in the final basis set =       -2.8611042954


 ------------------------------------------------------------------------------

   CCMAN2: suite of methods based on coupled cluster
           and equation of motion theories.

   Components:
   * libvmm-1.3-trunk
     by Evgeny Epifanovsky, Ilya Kaliman.
   * libtensor-2.5-trunk
     by Evgeny Epifanovsky, Michael Wormit, Dmitry Zuev, Sam Manzer, 
        Ilya Kaliman.
   * libcc-2.5-trunk
     by Evgeny Epifanovsky, Arik Landau, Tomasz Kus, Kirill Khistyaev, 
        Dmitry Zuev, Prashant Manohar, Xintian Feng, Anna Krylov, 
        Matthew Goldey, Alec White, Thomas Jagau, Kaushik Nanda, 
        Anastasia Gunina, Alexander Kunitsa, Joonho Lee.

   CCMAN original authors:
   Anna I. Krylov, C. David Sherrill, Steven R. Gwaltney,
   Edward F. C. Byrd (2000)
   Sergey V. Levchenko, Lyudmila V. Slipchenko, Tao Wang,
   Ana-Maria C. Cristian (2003)
   Piotr A. Pieniazek, C. Melania Oana, Evgeny Epifanovsky (2007)
   Prashant Manohar (2009)

 ------------------------------------------------------------------------------


 Calculation will run on 8 cores using libxm for tensor contractions

 ------------------------------------------------------------------------------
Libxm Tensor Library
Copyright (c) 2014-2018 Ilya Kaliman
https://github.com/ilyak/libxm
Reference: https://dx.doi.org/10.1002/jcc.24713
 ------------------------------------------------------------------------------

 
 Alpha MOs, Unrestricted
 -- Occupied --                  
 -0.918
  1 A                                                                          
 -- Virtual --                   
  0.111   0.427   0.427   0.427   0.839   1.520   1.520   1.520
  2 A     3 A     4 A     5 A     6 A     7 A     8 A     9 A                  
  1.520   1.520   1.962   1.962   1.962   4.817   7.108   7.108
 10 A    11 A    12 A    13 A    14 A    15 A    16 A    17 A                  
  7.108   7.108   7.108   8.221   8.221   8.221
 18 A    19 A    20 A    21 A    22 A    23 A                                  
 
 Beta MOs, Unrestricted
 -- Occupied --                  
 -0.918
  1 A                                                                          
 -- Virtual --                   
  0.111   0.427   0.427   0.427   0.839   1.520   1.520   1.520
  2 A     3 A     4 A     5 A     6 A     7 A     8 A     9 A                  
  1.520   1.520   1.962   1.962   1.962   4.817   7.108   7.108
 10 A    11 A    12 A    13 A    14 A    15 A    16 A    17 A                  
  7.108   7.108   7.108   8.221   8.221   8.221
 18 A    19 A    20 A    21 A    22 A    23 A                                  

 Occupation and symmetry of molecular orbitals

 Point group: C1 (1 irreducible representation).

                           A     All 
 -------------------------------------
 All molecular orbitals:
  - Alpha                  23    23  
  - Beta                   23    23  
 -------------------------------------
 Alpha orbitals:
  - Frozen occupied        0     0   
  - Active occupied        1     1   
  - Active virtual         22    22  
  - Frozen virtual         0     0   
 -------------------------------------
 Beta orbitals:
  - Frozen occupied        0     0   
  - Active occupied        1     1   
  - Active virtual         22    22  
  - Frozen virtual         0     0   
 -------------------------------------

 Import integrals:   CPU 0.00 s  wall 0.00 s

 Import integrals:   CPU 0.33 s  wall 0.16 s

 MP2 amplitudes:   CPU 0.04 s  wall 0.04 s

Running a double precision version
           CCSD T amplitudes will be solved using DIIS.

           Start     Size      MaxIter   EConv     TConv     
           3         7         100       1.00e-06  1.00e-04  
 ------------------------------------------------------------------------------
           Energy (a.u.)   Ediff      Tdiff       Comment
 ------------------------------------------------------------------------------
            -2.89472462                           
     1      -2.89936309   4.64e-03   1.22e-01     
     2      -2.90025307   8.90e-04   2.01e-02     
     3      -2.90045168   1.99e-04   4.58e-03     
     4      -2.90051772   6.60e-05   1.58e-03     Switched to DIIS steps.
     5      -2.90051810   3.75e-07   1.84e-04     
     6      -2.90051799   1.12e-07   1.18e-05     
 ------------------------------------------------------------------------------
            -2.90051799                           CCSD T converged.

End of double precision

----------------------------------------
libpt (c) 2016-2018 Ilya Kaliman
Fast Coupled Cluster Triples Corrections
https://github.com/ilyak/libpt
----------------------------------------

 Starting (T) calculation...
 Using double precision libpt code
 (T) calculation completed in 0 sec
 (T) energy is 0.0000000000

 SCF energy                 = -2.86110430
 MP2 energy                 = -2.89472462
 CCSD correlation energy     = -0.03941369
 CCSD total energy           = -2.90051799
 CCSD(T) correlation energy =  0.00000000
 CCSD(T) total energy       = -2.90051799

 CCSD  T1^2 = 0.0000  T2^2 = 0.0081  Leading amplitudes:

 Amplitude    Orbitals with energies
 -0.0017       1 (A) A                   ->    2 (A) A                    
              -0.9178                          0.1112                     
 -0.0017       1 (A) B                   ->    2 (A) B                    
              -0.9178                          0.1112                     
 -0.0014       1 (A) B                   ->    15 (A) B                   
              -0.9178                          4.8166                     
 -0.0014       1 (A) A                   ->    15 (A) A                   
              -0.9178                          4.8166                     

 Amplitude    Orbitals with energies
  0.0407       1 (A) A       1 (A) B     ->    6 (A) A       6 (A) B      
              -0.9178       -0.9178            0.8394        0.8394       
 -0.0407       1 (A) A       1 (A) B     ->    6 (A) B       6 (A) A      
              -0.9178       -0.9178            0.8394        0.8394       
 -0.0407       1 (A) B       1 (A) A     ->    6 (A) A       6 (A) B      
              -0.9178       -0.9178            0.8394        0.8394       
  0.0407       1 (A) B       1 (A) A     ->    6 (A) B       6 (A) A      
              -0.9178       -0.9178            0.8394        0.8394       

 CCSD calculation:   CPU 1.39 s  wall 0.89 s

 Total ccman2 time:   CPU 3.06 s  wall 1.81 s

 
 --------------------------------------------------------------
 
                    Orbital Energies (a.u.)
 --------------------------------------------------------------
 
 Alpha MOs
 -- Occupied --
 -0.918
 -- Virtual --
  0.111   0.427   0.427   0.427   0.839   1.520   1.520   1.520
  1.520   1.520   1.962   1.962   1.962   4.817   7.108   7.108
  7.108   7.108   7.108   8.221   8.221   8.221
 
 Beta MOs
 -- Occupied --
 -0.918
 -- Virtual --
  0.111   0.427   0.427   0.427   0.839   1.520   1.520   1.520
  1.520   1.520   1.962   1.962   1.962   4.817   7.108   7.108
  7.108   7.108   7.108   8.221   8.221   8.221
 --------------------------------------------------------------
 
          Ground-State Mulliken Net Atomic Charges

     Atom                 Charge (a.u.)    Spin (a.u.)
  --------------------------------------------------------
      1 He                   -0.000000      -0.000000
  --------------------------------------------------------
  Sum of atomic charges =    -0.000000
  Sum of spin   charges =    -0.000000

 -----------------------------------------------------------------
                    Cartesian Multipole Moments
 -----------------------------------------------------------------
    Charge (ESU x 10^10)
                -0.0000
    Dipole Moment (Debye)
         X       0.0000      Y      -0.0000      Z      -0.0000
       Tot       0.0000
    Quadrupole Moments (Debye-Ang)
        XX      -1.0642     XY      -0.0000     YY      -1.0643
        XZ       0.0000     YZ       0.0000     ZZ      -1.0643
    Octopole Moments (Debye-Ang^2)
       XXX       0.0000    XXY      -0.0000    XYY       0.0000
       YYY      -0.0000    XXZ       0.0000    XYZ       0.0000
       YYZ       0.0000    XZZ       0.0000    YZZ      -0.0000
       ZZZ       0.0000
    Hexadecapole Moments (Debye-Ang^3)
      XXXX      -0.5873   XXXY      -0.0000   XXYY      -0.1958
      XYYY      -0.0000   YYYY      -0.5874   XXXZ       0.0000
      XXYZ       0.0000   XYYZ       0.0000   YYYZ       0.0000
      XXZZ      -0.1958   XYZZ      -0.0000   YYZZ      -0.1958
      XZZZ       0.0000   YZZZ       0.0000   ZZZZ      -0.5874
 -----------------------------------------------------------------

 STANDARD THERMODYNAMIC QUANTITIES AT   298.15 K  AND     1.00 ATM

   Translational Enthalpy:        0.889 kcal/mol
   Rotational Enthalpy:           0.000 kcal/mol
   Vibrational Enthalpy:          0.000 kcal/mol
   gas constant (RT):             0.592 kcal/mol
   Translational Entropy:        30.125  cal/mol.K
   Rotational Entropy:            0.000  cal/mol.K
   Vibrational Entropy:           0.000  cal/mol.K

   Total Enthalpy:                1.481 kcal/mol
   Total Entropy:                30.125  cal/mol.K

 -----------------------------------------------------------------

Archival summary:
1\1\n0043.mhg0\SP\ProcedureUnspecified\BasisUnspecified\e1\yhljason\MonJul1303:01:582020MonJul1303:01:582020\0\\#,ProcedureUnspecified,BasisUnspecified,\\0,1\He\\HF=-2.8611043\\@

 Total job time:  3.23s(wall), 11.75s(cpu) 
 Mon Jul 13 03:01:58 2020

        *************************************************************
        *                                                           *
        *  Thank you very much for using Q-Chem.  Have a nice day.  *
        *                                                           *
        *************************************************************


 
User input: 4 of 7 
 
Q-Chem Developer Version!
                  Welcome to Q-Chem
     A Quantum Leap Into The Future Of Chemistry


 Q-Chem 5.1, Q-Chem, Inc., Pleasanton, CA (2018)

 Yihan Shao,  Zhengting Gan,  E. Epifanovsky,  A. T. B. Gilbert,  M. Wormit,  
 J. Kussmann,  A. W. Lange,  A. Behn,  Jia Deng,  Xintian Feng,  D. Ghosh,  
 M. Goldey,  P. R. Horn,  L. D. Jacobson,  I. Kaliman,  T. Kus,  A. Landau,  
 Jie Liu,  E. I. Proynov,  R. M. Richard,  R. P. Steele,  E. J. Sundstrom,  
 H. L. Woodcock III,  P. M. Zimmerman,  D. Zuev,  B. Albrecht,  E. Alguire,  
 S. A. Baeppler,  D. Barton,  Z. Benda,  Y. A. Bernard,  E. J. Berquist,  
 K. B. Bravaya,  H. Burton,  D. Casanova,  Chun-Min Chang,  Yunqing Chen,  
 A. Chien,  K. D. Closser,  M. P. Coons,  S. Coriani,  S. Dasgupta,  
 A. L. Dempwolff,  M. Diedenhofen,  Hainam Do,  R. G. Edgar,  Po-Tung Fang,  
 S. Faraji,  S. Fatehi,  Qingguo Feng,  K. D. Fenk,  J. Fosso-Tande,  
 Qinghui Ge,  A. Ghysels,  G. Gidofalvi,  J. Gomes,  J. Gonthier,  A. Gunina,  
 D. Hait,  M. W. D. Hanson-Heine,  P. H. P. Harbach,  A. W. Hauser,  
 J. E. Herr,  E. G. Hohenstein,  Z. C. Holden,  Kerwin Hui,  B. C. Huynh,  
 T.-C. Jagau,  Hyunjun Ji,  B. Kaduk,  K. Khistyaev,  Jaehoon Kim,  
 P. Klunzinger,  K. Koh,  D. Kosenkov,  L. Koulias,  T. Kowalczyk,  
 C. M. Krauter,  A. Kunitsa,  Ka Un Lao,  A. Laurent,  K. V. Lawler,  
 Joonho Lee,  D. Lefrancois,  S. Lehtola,  D. S. Levine,  Yi-Pei Li,  
 You-Sheng Lin,  Fenglai Liu,  E. Livshits,  A. Luenser,  P. Manohar,  
 E. Mansoor,  S. F. Manzer,  Shan-Ping Mao,  Yuezhi Mao,  N. Mardirossian,  
 A. V. Marenich,  T. Markovich,  L. A. Martinez-Martinez,  S. A. Maurer,  
 N. J. Mayhall,  S. C. McKenzie,  J.-M. Mewes,  A. F. Morrison,  
 J. W. Mullinax,  K. Nanda,  T. S. Nguyen-Beck,  R. Olivares-Amaya,  
 J. A. Parkhill,  T. M. Perrine,  F. Plasser,  P. Pokhilko,  S. Prager,  
 A. Prociuk,  E. Ramos,  D. R. Rehn,  F. Rob,  M. Schneider,  N. Sergueev,  
 S. M. Sharada,  S. Sharma,  D. W. Small,  T. Stauch,  T. Stein,  
 Yu-Chuan Su,  A. J. W. Thom,  A. Tkatchenko,  T. Tsuchimochi,  N. M. Tubman,  
 L. Vogt,  M. L. Vidal,  O. Vydrov,  M. A. Watson,  J. Wenzel,  
 M. de Wergifosse,  T. A. Wesolowski,  A. White,  J. Witte,  A. Yamada,  
 Jun Yang,  K. Yao,  S. Yeganeh,  S. R. Yost,  Zhi-Qiang You,  A. Zech,  
 Igor Ying Zhang,  Xing Zhang,  Yan Zhao,  Ying Zhu,  B. R. Brooks,  
 G. K. L. Chan,  C. J. Cramer,  M. S. Gordon,  W. J. Hehre,  A. Klamt,  
 M. W. Schmidt,  C. D. Sherrill,  D. G. Truhlar,  A. Aspuru-Guzik,  R. Baer,  
 A. T. Bell,  N. A. Besley,  Jeng-Da Chai,  A. E. DePrince, III,  
 R. A. DiStasio Jr.,  A. Dreuw,  B. D. Dunietz,  T. R. Furlani,  
 Chao-Ping Hsu,  Yousung Jung,  Jing Kong,  D. S. Lambrecht,  WanZhen Liang,  
 C. Ochsenfeld,  V. A. Rassolov,  L. V. Slipchenko,  J. E. Subotnik,  
 T. Van Voorhis,  J. M. Herbert,  A. I. Krylov,  P. M. W. Gill,  M. Head-Gordon

 Contributors to earlier versions of Q-Chem not listed above: 
 R. D. Adamson,  B. Austin,  J. Baker,  G. J. O. Beran,  K. Brandhorst,  
 S. T. Brown,  E. F. C. Byrd,  A. K. Chakraborty,  C.-L. Cheng,  
 Siu Hung Chien,  D. M. Chipman,  D. L. Crittenden,  H. Dachsel,  
 R. J. Doerksen,  A. D. Dutoi,  L. Fusti-Molnar,  W. A. Goddard III,  
 A. Golubeva-Zadorozhnaya,  S. R. Gwaltney,  G. Hawkins,  A. Heyden,  
 S. Hirata,  G. Kedziora,  F. J. Keil,  C. Kelley,  Jihan Kim,  R. A. King,  
 R. Z. Khaliullin,  P. P. Korambath,  W. Kurlancheek,  A. M. Lee,  M. S. Lee,  
 S. V. Levchenko,  Ching Yeh Lin,  D. Liotard,  R. C. Lochan,  I. Lotan,  
 P. E. Maslen,  N. Nair,  D. P. O'Neill,  D. Neuhauser,  E. Neuscamman,  
 C. M. Oana,  R. Olson,  B. Peters,  R. Peverati,  P. A. Pieniazek,  
 Y. M. Rhee,  J. Ritchie,  M. A. Rohrdanz,  E. Rosta,  N. J. Russ,  
 H. F. Schaefer III,  N. E. Schultz,  N. Shenvi,  A. C. Simmonett,  A. Sodt,  
 D. Stuck,  K. S. Thanthiriwatte,  V. Vanovschi,  Tao Wang,  A. Warshel,  
 C. F. Williams,  Q. Wu,  X. Xu,  W. Zhang

 Please cite Q-Chem as follows:
 Y. Shao et al., Mol. Phys. 113, 184-215 (2015)
 DOI: 10.1080/00268976.2014.952696

 Q-Chem 5.1.1 for Intel X86 EM64T Linux

 Parts of Q-Chem use Armadillo 8.300.2 (Tropical Shenanigans).
 http://arma.sourceforge.net/

 Q-Chem begins on Mon Jul 13 03:01:58 2020  

Host: n0043.mhg0
0

     Scratch files written to /local/scratch/users/yhljason/He_ccsdT_aug-cc-pcVTZ.inp20200713023356//
The previous job contains 0 fragments, simply inherited here
Input Ideriv = 0
Curr. Ideriv = -1
Max.  Ideriv = 0

Checking the input file for inconsistencies... 	...done.

--------------------------------------------------------------
User input:
--------------------------------------------------------------
$molecule
read
$end

$rem

jobtype sp
method CCSD(T)
xc_grid 000099000590
basis aug-cc-pcVTZ
max_scf_cycles 200
thresh 14
scf_convergence 8
mem_total 128000
cc_memory 96000
cc_backend xm
mem_static 1500
symmetry false
sym_ignore true
scf_guess read
unrestricted true
scf_algorithm gdm
n_frozen_core 0
$end

$multipole_field
YY 0.0001
$end


--------------------------------------------------------------
 ----------------------------------------------------------------
             Standard Nuclear Orientation (Angstroms)
    I     Atom           X                Y                Z
 ----------------------------------------------------------------
    1      He      0.0000000000     0.0000000000     0.0000000000
 ----------------------------------------------------------------
 Nuclear Repulsion Energy =     0.0000000000 hartrees
 There are        1 alpha and        1 beta electrons
 Requested basis set is aug-cc-pCVTZ
 There are 9 shells and 23 basis functions
 Total memory of 128000MB is distributed as follows: 
   QALLOC including MEM_STATIC uses 32000MB
   MEM_STATIC is set to 1500MB
   CCMAN JOB total memory use is  96000MB
 Warning: actual memory use might exceed 128000MB

 Total QAlloc Memory Limit  32000 MB
 Mega-Array Size      1467 MB
 MEM_STATIC part      1500 MB
 Applying Cartesian multipole field
    Component          Value
    ---------          -----
     (0,2,0)        1.00000E-04
 A cutoff of  1.0D-14 yielded     45 shell pairs
 There are       305 function pairs (       364 Cartesian)
 
 -------------------------------------------------------
 OpenMP Integral Computing Module                       
 Release: version 1.0, May 2013, Q-Chem Inc. Pittsburgh 
 -------------------------------------------------------
 Integral Job Info:
 Integral job number is                      11
 Integral operator is                         1
 short-range coefficients                     0
 long-range coefficients              100000000
 Omega coefficients                           0
 if combine SR and LR in K                    0
 Integral screening is                        0
 Integral computing path is                   2
 max size of driver memory is            800000
 size of driver memory is                593474
 size of scratch memory is               820264
 max col of scratch BK array               1296
 max len of scratch array in speh3          155
 max len of scratch index in speh4           18
 max int batch size is                      520
 min int batch size is                       52
 fixed nKL is                                52
 max L of basis functions is                  2
 order of int derivative is                   0
 number of shells is                          9
 number of basis is                          25
 number of cartesian basis is                25
 number of contracted shell pairs            45
 number of primitive shell pairs             84
 maxK2 (contraction) of shell pair           16
 max number of K2 of shell pair               1
 max number of CS2 of shell pair              9
 max number of PS2 of shell pair             16
 mem total for path MDJ                  508692
 -------------------------------------------------------
 Smallest overlap matrix eigenvalue = 7.01E-02
 Guess MOs from SCF MO coefficient file

 -----------------------------------------------------------------------
  General SCF calculation program by
  Eric Jon Sundstrom, Paul Horn, Yuezhi Mao, Dmitri Zuev, Alec White,
  David Stuck, Shaama M.S., Shane Yost, Joonho Lee, David Small,
  Daniel Levine, Susi Lehtola, Hugh Burton, Evgeny Epifanovsky
 -----------------------------------------------------------------------
 Hartree-Fock
 using 8 threads for integral computing
 -------------------------------------------------------
 OpenMP Integral computing Module                
 Release: version 2.0, May 2017, Q-Chem Inc. Pleasanton 
 -------------------------------------------------------
 A unrestricted SCF calculation will be
 performed using GDM
 SCF converges when RMS gradient is below 1.0e-08
 ---------------------------------------
  Cycle       Energy        RMS Gradient
 ---------------------------------------
    1      -2.8612625496      1.03e-04   Normal BFGS step
    2      -2.8612625721      2.12e-05   Normal BFGS step
    3      -2.8612625730      7.57e-07   Normal BFGS step
    4      -2.8612625730      1.28e-07   Normal BFGS step
    5      -2.8612625730      6.02e-09  Convergence criterion met
 ---------------------------------------
 SCF time:   CPU 5.53s  wall 1.00s 
<S^2> =         -0.000000000
 SCF   energy in the final basis set =       -2.8612625730
 Total energy in the final basis set =       -2.8612625730


 ------------------------------------------------------------------------------

   CCMAN2: suite of methods based on coupled cluster
           and equation of motion theories.

   Components:
   * libvmm-1.3-trunk
     by Evgeny Epifanovsky, Ilya Kaliman.
   * libtensor-2.5-trunk
     by Evgeny Epifanovsky, Michael Wormit, Dmitry Zuev, Sam Manzer, 
        Ilya Kaliman.
   * libcc-2.5-trunk
     by Evgeny Epifanovsky, Arik Landau, Tomasz Kus, Kirill Khistyaev, 
        Dmitry Zuev, Prashant Manohar, Xintian Feng, Anna Krylov, 
        Matthew Goldey, Alec White, Thomas Jagau, Kaushik Nanda, 
        Anastasia Gunina, Alexander Kunitsa, Joonho Lee.

   CCMAN original authors:
   Anna I. Krylov, C. David Sherrill, Steven R. Gwaltney,
   Edward F. C. Byrd (2000)
   Sergey V. Levchenko, Lyudmila V. Slipchenko, Tao Wang,
   Ana-Maria C. Cristian (2003)
   Piotr A. Pieniazek, C. Melania Oana, Evgeny Epifanovsky (2007)
   Prashant Manohar (2009)

 ------------------------------------------------------------------------------


 Calculation will run on 8 cores using libxm for tensor contractions

 ------------------------------------------------------------------------------
Libxm Tensor Library
Copyright (c) 2014-2018 Ilya Kaliman
https://github.com/ilyak/libxm
Reference: https://dx.doi.org/10.1002/jcc.24713
 ------------------------------------------------------------------------------

 
 Alpha MOs, Unrestricted
 -- Occupied --                  
 -0.918
  1 A                                                                          
 -- Virtual --                   
  0.110   0.426   0.427   0.427   0.839   1.520   1.520   1.520
  2 A     3 A     4 A     5 A     6 A     7 A     8 A     9 A                  
  1.520   1.520   1.962   1.962   1.962   4.816   7.108   7.108
 10 A    11 A    12 A    13 A    14 A    15 A    16 A    17 A                  
  7.108   7.108   7.108   8.221   8.221   8.221
 18 A    19 A    20 A    21 A    22 A    23 A                                  
 
 Beta MOs, Unrestricted
 -- Occupied --                  
 -0.918
  1 A                                                                          
 -- Virtual --                   
  0.110   0.426   0.427   0.427   0.839   1.520   1.520   1.520
  2 A     3 A     4 A     5 A     6 A     7 A     8 A     9 A                  
  1.520   1.520   1.962   1.962   1.962   4.816   7.108   7.108
 10 A    11 A    12 A    13 A    14 A    15 A    16 A    17 A                  
  7.108   7.108   7.108   8.221   8.221   8.221
 18 A    19 A    20 A    21 A    22 A    23 A                                  

 Occupation and symmetry of molecular orbitals

 Point group: C1 (1 irreducible representation).

                           A     All 
 -------------------------------------
 All molecular orbitals:
  - Alpha                  23    23  
  - Beta                   23    23  
 -------------------------------------
 Alpha orbitals:
  - Frozen occupied        0     0   
  - Active occupied        1     1   
  - Active virtual         22    22  
  - Frozen virtual         0     0   
 -------------------------------------
 Beta orbitals:
  - Frozen occupied        0     0   
  - Active occupied        1     1   
  - Active virtual         22    22  
  - Frozen virtual         0     0   
 -------------------------------------

 Import integrals:   CPU 0.00 s  wall 0.00 s

 Import integrals:   CPU 0.32 s  wall 0.16 s

 MP2 amplitudes:   CPU 0.05 s  wall 0.04 s

Running a double precision version
           CCSD T amplitudes will be solved using DIIS.

           Start     Size      MaxIter   EConv     TConv     
           3         7         100       1.00e-06  1.00e-04  
 ------------------------------------------------------------------------------
           Energy (a.u.)   Ediff      Tdiff       Comment
 ------------------------------------------------------------------------------
            -2.89488388                           
     1      -2.89952270   4.64e-03   1.22e-01     
     2      -2.90041285   8.90e-04   2.01e-02     
     3      -2.90061154   1.99e-04   4.58e-03     
     4      -2.90067762   6.61e-05   1.58e-03     Switched to DIIS steps.
     5      -2.90067799   3.76e-07   1.84e-04     
     6      -2.90067788   1.12e-07   1.19e-05     
 ------------------------------------------------------------------------------
            -2.90067788                           CCSD T converged.

End of double precision

----------------------------------------
libpt (c) 2016-2018 Ilya Kaliman
Fast Coupled Cluster Triples Corrections
https://github.com/ilyak/libpt
----------------------------------------

 Starting (T) calculation...
 Using double precision libpt code
 (T) calculation completed in 0 sec
 (T) energy is 0.0000000000

 SCF energy                 = -2.86126257
 MP2 energy                 = -2.89488388
 CCSD correlation energy     = -0.03941531
 CCSD total energy           = -2.90067788
 CCSD(T) correlation energy =  0.00000000
 CCSD(T) total energy       = -2.90067788

 CCSD  T1^2 = 0.0000  T2^2 = 0.0081  Leading amplitudes:

 Amplitude    Orbitals with energies
  0.0017       1 (A) B                   ->    2 (A) B                    
              -0.9179                          0.1099                     
  0.0017       1 (A) A                   ->    2 (A) A                    
              -0.9179                          0.1099                     
 -0.0014       1 (A) B                   ->    15 (A) B                   
              -0.9179                          4.8164                     
  0.0014       1 (A) A                   ->    15 (A) A                   
              -0.9179                          4.8164                     

 Amplitude    Orbitals with energies
  0.0408       1 (A) A       1 (A) B     ->    6 (A) A       6 (A) B      
              -0.9179       -0.9179            0.8388        0.8388       
 -0.0408       1 (A) A       1 (A) B     ->    6 (A) B       6 (A) A      
              -0.9179       -0.9179            0.8388        0.8388       
 -0.0408       1 (A) B       1 (A) A     ->    6 (A) A       6 (A) B      
              -0.9179       -0.9179            0.8388        0.8388       
  0.0408       1 (A) B       1 (A) A     ->    6 (A) B       6 (A) A      
              -0.9179       -0.9179            0.8388        0.8388       

 CCSD calculation:   CPU 1.13 s  wall 0.80 s

 Total ccman2 time:   CPU 2.80 s  wall 1.73 s

 
 --------------------------------------------------------------
 
                    Orbital Energies (a.u.)
 --------------------------------------------------------------
 
 Alpha MOs
 -- Occupied --
 -0.918
 -- Virtual --
  0.110   0.426   0.427   0.427   0.839   1.520   1.520   1.520
  1.520   1.520   1.962   1.962   1.962   4.816   7.108   7.108
  7.108   7.108   7.108   8.221   8.221   8.221
 
 Beta MOs
 -- Occupied --
 -0.918
 -- Virtual --
  0.110   0.426   0.427   0.427   0.839   1.520   1.520   1.520
  1.520   1.520   1.962   1.962   1.962   4.816   7.108   7.108
  7.108   7.108   7.108   8.221   8.221   8.221
 --------------------------------------------------------------
 
          Ground-State Mulliken Net Atomic Charges

     Atom                 Charge (a.u.)    Spin (a.u.)
  --------------------------------------------------------
      1 He                   -0.000000      -0.000000
  --------------------------------------------------------
  Sum of atomic charges =    -0.000000
  Sum of spin   charges =    -0.000000

 -----------------------------------------------------------------
                    Cartesian Multipole Moments
 -----------------------------------------------------------------
    Charge (ESU x 10^10)
                -0.0000
    Dipole Moment (Debye)
         X       0.0000      Y      -0.0000      Z      -0.0000
       Tot       0.0000
    Quadrupole Moments (Debye-Ang)
        XX      -1.0645     XY      -0.0000     YY      -1.0647
        XZ       0.0000     YZ       0.0000     ZZ      -1.0645
    Octopole Moments (Debye-Ang^2)
       XXX       0.0000    XXY      -0.0000    XYY       0.0000
       YYY      -0.0000    XXZ      -0.0000    XYZ      -0.0000
       YYZ      -0.0000    XZZ       0.0000    YZZ      -0.0000
       ZZZ      -0.0000
    Hexadecapole Moments (Debye-Ang^3)
      XXXX      -0.5878   XXXY      -0.0000   XXYY      -0.1959
      XYYY      -0.0000   YYYY      -0.5879   XXXZ       0.0000
      XXYZ       0.0000   XYYZ       0.0000   YYYZ       0.0000
      XXZZ      -0.1959   XYZZ      -0.0000   YYZZ      -0.1959
      XZZZ       0.0000   YZZZ       0.0000   ZZZZ      -0.5878
 -----------------------------------------------------------------

 STANDARD THERMODYNAMIC QUANTITIES AT   298.15 K  AND     1.00 ATM

   Translational Enthalpy:        0.889 kcal/mol
   Rotational Enthalpy:           0.000 kcal/mol
   Vibrational Enthalpy:          0.000 kcal/mol
   gas constant (RT):             0.592 kcal/mol
   Translational Entropy:        30.125  cal/mol.K
   Rotational Entropy:            0.000  cal/mol.K
   Vibrational Entropy:           0.000  cal/mol.K

   Total Enthalpy:                1.481 kcal/mol
   Total Entropy:                30.125  cal/mol.K

 -----------------------------------------------------------------

Archival summary:
1\1\n0043.mhg0\SP\ProcedureUnspecified\BasisUnspecified\e1\yhljason\MonJul1303:02:012020MonJul1303:02:012020\0\\#,ProcedureUnspecified,BasisUnspecified,\\0,1\He\\HF=-2.86126257\\@

 Total job time:  3.07s(wall), 11.52s(cpu) 
 Mon Jul 13 03:02:01 2020

        *************************************************************
        *                                                           *
        *  Thank you very much for using Q-Chem.  Have a nice day.  *
        *                                                           *
        *************************************************************


 
User input: 5 of 7 
 
Q-Chem Developer Version!
                  Welcome to Q-Chem
     A Quantum Leap Into The Future Of Chemistry


 Q-Chem 5.1, Q-Chem, Inc., Pleasanton, CA (2018)

 Yihan Shao,  Zhengting Gan,  E. Epifanovsky,  A. T. B. Gilbert,  M. Wormit,  
 J. Kussmann,  A. W. Lange,  A. Behn,  Jia Deng,  Xintian Feng,  D. Ghosh,  
 M. Goldey,  P. R. Horn,  L. D. Jacobson,  I. Kaliman,  T. Kus,  A. Landau,  
 Jie Liu,  E. I. Proynov,  R. M. Richard,  R. P. Steele,  E. J. Sundstrom,  
 H. L. Woodcock III,  P. M. Zimmerman,  D. Zuev,  B. Albrecht,  E. Alguire,  
 S. A. Baeppler,  D. Barton,  Z. Benda,  Y. A. Bernard,  E. J. Berquist,  
 K. B. Bravaya,  H. Burton,  D. Casanova,  Chun-Min Chang,  Yunqing Chen,  
 A. Chien,  K. D. Closser,  M. P. Coons,  S. Coriani,  S. Dasgupta,  
 A. L. Dempwolff,  M. Diedenhofen,  Hainam Do,  R. G. Edgar,  Po-Tung Fang,  
 S. Faraji,  S. Fatehi,  Qingguo Feng,  K. D. Fenk,  J. Fosso-Tande,  
 Qinghui Ge,  A. Ghysels,  G. Gidofalvi,  J. Gomes,  J. Gonthier,  A. Gunina,  
 D. Hait,  M. W. D. Hanson-Heine,  P. H. P. Harbach,  A. W. Hauser,  
 J. E. Herr,  E. G. Hohenstein,  Z. C. Holden,  Kerwin Hui,  B. C. Huynh,  
 T.-C. Jagau,  Hyunjun Ji,  B. Kaduk,  K. Khistyaev,  Jaehoon Kim,  
 P. Klunzinger,  K. Koh,  D. Kosenkov,  L. Koulias,  T. Kowalczyk,  
 C. M. Krauter,  A. Kunitsa,  Ka Un Lao,  A. Laurent,  K. V. Lawler,  
 Joonho Lee,  D. Lefrancois,  S. Lehtola,  D. S. Levine,  Yi-Pei Li,  
 You-Sheng Lin,  Fenglai Liu,  E. Livshits,  A. Luenser,  P. Manohar,  
 E. Mansoor,  S. F. Manzer,  Shan-Ping Mao,  Yuezhi Mao,  N. Mardirossian,  
 A. V. Marenich,  T. Markovich,  L. A. Martinez-Martinez,  S. A. Maurer,  
 N. J. Mayhall,  S. C. McKenzie,  J.-M. Mewes,  A. F. Morrison,  
[...]

Archival summary:
1\1\n0043.mhg0\SP\ProcedureUnspecified\BasisUnspecified\e1\yhljason\MonJul1303:02:082020MonJul1303:02:082020\0\\#,ProcedureUnspecified,BasisUnspecified,\\0,1\He\\HF=-2.86126257\\@

 Total job time:  3.62s(wall), 15.24s(cpu) 
 Mon Jul 13 03:02:08 2020

        *************************************************************
        *                                                           *
        *  Thank you very much for using Q-Chem.  Have a nice day.  *
        *                                                           *
        *************************************************************


 
User input: 7 of 7 
 
Q-Chem Developer Version!
                  Welcome to Q-Chem
     A Quantum Leap Into The Future Of Chemistry


 Q-Chem 5.1, Q-Chem, Inc., Pleasanton, CA (2018)

 Yihan Shao,  Zhengting Gan,  E. Epifanovsky,  A. T. B. Gilbert,  M. Wormit,  
 J. Kussmann,  A. W. Lange,  A. Behn,  Jia Deng,  Xintian Feng,  D. Ghosh,  
 M. Goldey,  P. R. Horn,  L. D. Jacobson,  I. Kaliman,  T. Kus,  A. Landau,  
 Jie Liu,  E. I. Proynov,  R. M. Richard,  R. P. Steele,  E. J. Sundstrom,  
 H. L. Woodcock III,  P. M. Zimmerman,  D. Zuev,  B. Albrecht,  E. Alguire,  
 S. A. Baeppler,  D. Barton,  Z. Benda,  Y. A. Bernard,  E. J. Berquist,  
 K. B. Bravaya,  H. Burton,  D. Casanova,  Chun-Min Chang,  Yunqing Chen,  
 A. Chien,  K. D. Closser,  M. P. Coons,  S. Coriani,  S. Dasgupta,  
 A. L. Dempwolff,  M. Diedenhofen,  Hainam Do,  R. G. Edgar,  Po-Tung Fang,  
 S. Faraji,  S. Fatehi,  Qingguo Feng,  K. D. Fenk,  J. Fosso-Tande,  
 Qinghui Ge,  A. Ghysels,  G. Gidofalvi,  J. Gomes,  J. Gonthier,  A. Gunina,  
 D. Hait,  M. W. D. Hanson-Heine,  P. H. P. Harbach,  A. W. Hauser,  
 J. E. Herr,  E. G. Hohenstein,  Z. C. Holden,  Kerwin Hui,  B. C. Huynh,  
 T.-C. Jagau,  Hyunjun Ji,  B. Kaduk,  K. Khistyaev,  Jaehoon Kim,  
 P. Klunzinger,  K. Koh,  D. Kosenkov,  L. Koulias,  T. Kowalczyk,  
 C. M. Krauter,  A. Kunitsa,  Ka Un Lao,  A. Laurent,  K. V. Lawler,  
 Joonho Lee,  D. Lefrancois,  S. Lehtola,  D. S. Levine,  Yi-Pei Li,  
 You-Sheng Lin,  Fenglai Liu,  E. Livshits,  A. Luenser,  P. Manohar,  
 E. Mansoor,  S. F. Manzer,  Shan-Ping Mao,  Yuezhi Mao,  N. Mardirossian,  
 A. V. Marenich,  T. Markovich,  L. A. Martinez-Martinez,  S. A. Maurer,  
 N. J. Mayhall,  S. C. McKenzie,  J.-M. Mewes,  A. F. Morrison,  
 J. W. Mullinax,  K. Nanda,  T. S. Nguyen-Beck,  R. Olivares-Amaya,  
 J. A. Parkhill,  T. M. Perrine,  F. Plasser,  P. Pokhilko,  S. Prager,  
 A. Prociuk,  E. Ramos,  D. R. Rehn,  F. Rob,  M. Schneider,  N. Sergueev,  
 S. M. Sharada,  S. Sharma,  D. W. Small,  T. Stauch,  T. Stein,  
 Yu-Chuan Su,  A. J. W. Thom,  A. Tkatchenko,  T. Tsuchimochi,  N. M. Tubman,  
 L. Vogt,  M. L. Vidal,  O. Vydrov,  M. A. Watson,  J. Wenzel,  
 M. de Wergifosse,  T. A. Wesolowski,  A. White,  J. Witte,  A. Yamada,  
 Jun Yang,  K. Yao,  S. Yeganeh,  S. R. Yost,  Zhi-Qiang You,  A. Zech,  
 Igor Ying Zhang,  Xing Zhang,  Yan Zhao,  Ying Zhu,  B. R. Brooks,  
 G. K. L. Chan,  C. J. Cramer,  M. S. Gordon,  W. J. Hehre,  A. Klamt,  
 M. W. Schmidt,  C. D. Sherrill,  D. G. Truhlar,  A. Aspuru-Guzik,  R. Baer,  
 A. T. Bell,  N. A. Besley,  Jeng-Da Chai,  A. E. DePrince, III,  
 R. A. DiStasio Jr.,  A. Dreuw,  B. D. Dunietz,  T. R. Furlani,  
 Chao-Ping Hsu,  Yousung Jung,  Jing Kong,  D. S. Lambrecht,  WanZhen Liang,  
 C. Ochsenfeld,  V. A. Rassolov,  L. V. Slipchenko,  J. E. Subotnik,  
 T. Van Voorhis,  J. M. Herbert,  A. I. Krylov,  P. M. W. Gill,  M. Head-Gordon

 Contributors to earlier versions of Q-Chem not listed above: 
 R. D. Adamson,  B. Austin,  J. Baker,  G. J. O. Beran,  K. Brandhorst,  
 S. T. Brown,  E. F. C. Byrd,  A. K. Chakraborty,  C.-L. Cheng,  
 Siu Hung Chien,  D. M. Chipman,  D. L. Crittenden,  H. Dachsel,  
 R. J. Doerksen,  A. D. Dutoi,  L. Fusti-Molnar,  W. A. Goddard III,  
 A. Golubeva-Zadorozhnaya,  S. R. Gwaltney,  G. Hawkins,  A. Heyden,  
 S. Hirata,  G. Kedziora,  F. J. Keil,  C. Kelley,  Jihan Kim,  R. A. King,  
 R. Z. Khaliullin,  P. P. Korambath,  W. Kurlancheek,  A. M. Lee,  M. S. Lee,  
 S. V. Levchenko,  Ching Yeh Lin,  D. Liotard,  R. C. Lochan,  I. Lotan,  
 P. E. Maslen,  N. Nair,  D. P. O'Neill,  D. Neuhauser,  E. Neuscamman,  
 C. M. Oana,  R. Olson,  B. Peters,  R. Peverati,  P. A. Pieniazek,  
 Y. M. Rhee,  J. Ritchie,  M. A. Rohrdanz,  E. Rosta,  N. J. Russ,  
 H. F. Schaefer III,  N. E. Schultz,  N. Shenvi,  A. C. Simmonett,  A. Sodt,  
 D. Stuck,  K. S. Thanthiriwatte,  V. Vanovschi,  Tao Wang,  A. Warshel,  
 C. F. Williams,  Q. Wu,  X. Xu,  W. Zhang

 Please cite Q-Chem as follows:
 Y. Shao et al., Mol. Phys. 113, 184-215 (2015)
 DOI: 10.1080/00268976.2014.952696

 Q-Chem 5.1.1 for Intel X86 EM64T Linux

 Parts of Q-Chem use Armadillo 8.300.2 (Tropical Shenanigans).
 http://arma.sourceforge.net/

 Q-Chem begins on Mon Jul 13 03:02:08 2020  

Host: n0043.mhg0
0

     Scratch files written to /local/scratch/users/yhljason/He_ccsdT_aug-cc-pcVTZ.inp20200713023356//
The previous job contains 0 fragments, simply inherited here
Input Ideriv = 0
Curr. Ideriv = -1
Max.  Ideriv = 0

Checking the input file for inconsistencies... 	...done.

--------------------------------------------------------------
User input:
--------------------------------------------------------------
$molecule
read
$end

$rem

jobtype sp
method CCSD(T)
xc_grid 000099000590
basis aug-cc-pcVTZ
max_scf_cycles 200
thresh 14
scf_convergence 8
mem_total 128000
cc_memory 96000
cc_backend xm
mem_static 1500
symmetry false
sym_ignore true
scf_guess read
unrestricted true
scf_algorithm gdm
n_frozen_core 0
$end

$multipole_field
ZZ -0.0001
$end

--------------------------------------------------------------
 ----------------------------------------------------------------
             Standard Nuclear Orientation (Angstroms)
    I     Atom           X                Y                Z
 ----------------------------------------------------------------
    1      He      0.0000000000     0.0000000000     0.0000000000
 ----------------------------------------------------------------
 Nuclear Repulsion Energy =     0.0000000000 hartrees
 There are        1 alpha and        1 beta electrons
 Requested basis set is aug-cc-pCVTZ
 There are 9 shells and 23 basis functions
 Total memory of 128000MB is distributed as follows: 
   QALLOC including MEM_STATIC uses 32000MB
   MEM_STATIC is set to 1500MB
   CCMAN JOB total memory use is  96000MB
 Warning: actual memory use might exceed 128000MB

 Total QAlloc Memory Limit  32000 MB
 Mega-Array Size      1467 MB
 MEM_STATIC part      1500 MB
 Applying Cartesian multipole field
    Component          Value
    ---------          -----
     (0,0,2)       -1.00000E-04
 A cutoff of  1.0D-14 yielded     45 shell pairs
 There are       305 function pairs (       364 Cartesian)
 
 -------------------------------------------------------
 OpenMP Integral Computing Module                       
 Release: version 1.0, May 2013, Q-Chem Inc. Pittsburgh 
 -------------------------------------------------------
 Integral Job Info:
 Integral job number is                      11
 Integral operator is                         1
 short-range coefficients                     0
 long-range coefficients              100000000
 Omega coefficients                           0
 if combine SR and LR in K                    0
 Integral screening is                        0
 Integral computing path is                   2
 max size of driver memory is            800000
 size of driver memory is                593474
 size of scratch memory is               820264
 max col of scratch BK array               1296
 max len of scratch array in speh3          155
 max len of scratch index in speh4           18
 max int batch size is                      520
 min int batch size is                       52
 fixed nKL is                                52
 max L of basis functions is                  2
 order of int derivative is                   0
 number of shells is                          9
 number of basis is                          25
 number of cartesian basis is                25
 number of contracted shell pairs            45
 number of primitive shell pairs             84
 maxK2 (contraction) of shell pair           16
 max number of K2 of shell pair               1
 max number of CS2 of shell pair              9
 max number of PS2 of shell pair             16
 mem total for path MDJ                  508692
 -------------------------------------------------------
 Smallest overlap matrix eigenvalue = 7.01E-02
 Guess MOs from SCF MO coefficient file

 -----------------------------------------------------------------------
  General SCF calculation program by
  Eric Jon Sundstrom, Paul Horn, Yuezhi Mao, Dmitri Zuev, Alec White,
  David Stuck, Shaama M.S., Shane Yost, Joonho Lee, David Small,
  Daniel Levine, Susi Lehtola, Hugh Burton, Evgeny Epifanovsky
 -----------------------------------------------------------------------
 Hartree-Fock
 using 8 threads for integral computing
 -------------------------------------------------------
 OpenMP Integral computing Module                
 Release: version 2.0, May 2017, Q-Chem Inc. Pleasanton 
 -------------------------------------------------------
 A unrestricted SCF calculation will be
 performed using GDM
 SCF converges when RMS gradient is below 1.0e-08
 ---------------------------------------
  Cycle       Energy        RMS Gradient
 ---------------------------------------
    1      -2.8611042632      1.03e-04   Normal BFGS step
    2      -2.8611042942      2.12e-05   Normal BFGS step
    3      -2.8611042954      7.28e-07   Normal BFGS step
    4      -2.8611042954      1.11e-07   Normal BFGS step
    5      -2.8611042954      6.85e-09  Convergence criterion met
 ---------------------------------------
 SCF time:   CPU 5.50s  wall 0.00s 
<S^2> =         -0.000000000
 SCF   energy in the final basis set =       -2.8611042954
 Total energy in the final basis set =       -2.8611042954


 ------------------------------------------------------------------------------

   CCMAN2: suite of methods based on coupled cluster
           and equation of motion theories.

   Components:
   * libvmm-1.3-trunk
     by Evgeny Epifanovsky, Ilya Kaliman.
   * libtensor-2.5-trunk
     by Evgeny Epifanovsky, Michael Wormit, Dmitry Zuev, Sam Manzer, 
        Ilya Kaliman.
   * libcc-2.5-trunk
     by Evgeny Epifanovsky, Arik Landau, Tomasz Kus, Kirill Khistyaev, 
        Dmitry Zuev, Prashant Manohar, Xintian Feng, Anna Krylov, 
        Matthew Goldey, Alec White, Thomas Jagau, Kaushik Nanda, 
        Anastasia Gunina, Alexander Kunitsa, Joonho Lee.

   CCMAN original authors:
   Anna I. Krylov, C. David Sherrill, Steven R. Gwaltney,
   Edward F. C. Byrd (2000)
   Sergey V. Levchenko, Lyudmila V. Slipchenko, Tao Wang,
   Ana-Maria C. Cristian (2003)
   Piotr A. Pieniazek, C. Melania Oana, Evgeny Epifanovsky (2007)
   Prashant Manohar (2009)

 ------------------------------------------------------------------------------


 Calculation will run on 8 cores using libxm for tensor contractions

 ------------------------------------------------------------------------------
Libxm Tensor Library
Copyright (c) 2014-2018 Ilya Kaliman
https://github.com/ilyak/libxm
Reference: https://dx.doi.org/10.1002/jcc.24713
 ------------------------------------------------------------------------------

 
 Alpha MOs, Unrestricted
 -- Occupied --                  
 -0.918
  1 A                                                                          
 -- Virtual --                   
  0.111   0.427   0.427   0.427   0.839   1.520   1.520   1.520
  2 A     3 A     4 A     5 A     6 A     7 A     8 A     9 A                  
  1.520   1.520   1.962   1.962   1.962   4.817   7.108   7.108
 10 A    11 A    12 A    13 A    14 A    15 A    16 A    17 A                  
  7.108   7.108   7.108   8.221   8.221   8.221
 18 A    19 A    20 A    21 A    22 A    23 A                                  
 
 Beta MOs, Unrestricted
 -- Occupied --                  
 -0.918
  1 A                                                                          
 -- Virtual --                   
  0.111   0.427   0.427   0.427   0.839   1.520   1.520   1.520
  2 A     3 A     4 A     5 A     6 A     7 A     8 A     9 A                  
  1.520   1.520   1.962   1.962   1.962   4.817   7.108   7.108
 10 A    11 A    12 A    13 A    14 A    15 A    16 A    17 A                  
  7.108   7.108   7.108   8.221   8.221   8.221
 18 A    19 A    20 A    21 A    22 A    23 A                                  

 Occupation and symmetry of molecular orbitals

 Point group: C1 (1 irreducible representation).

                           A     All 
 -------------------------------------
 All molecular orbitals:
  - Alpha                  23    23  
  - Beta                   23    23  
 -------------------------------------
 Alpha orbitals:
  - Frozen occupied        0     0   
  - Active occupied        1     1   
  - Active virtual         22    22  
  - Frozen virtual         0     0   
 -------------------------------------
 Beta orbitals:
  - Frozen occupied        0     0   
  - Active occupied        1     1   
  - Active virtual         22    22  
  - Frozen virtual         0     0   
 -------------------------------------

 Import integrals:   CPU 0.00 s  wall 0.00 s

 Import integrals:   CPU 0.32 s  wall 0.16 s

 MP2 amplitudes:   CPU 0.05 s  wall 0.04 s

Running a double precision version
           CCSD T amplitudes will be solved using DIIS.

           Start     Size      MaxIter   EConv     TConv     
           3         7         100       1.00e-06  1.00e-04  
 ------------------------------------------------------------------------------
           Energy (a.u.)   Ediff      Tdiff       Comment
 ------------------------------------------------------------------------------
            -2.89472462                           
     1      -2.89936309   4.64e-03   1.22e-01     
     2      -2.90025307   8.90e-04   2.01e-02     
     3      -2.90045168   1.99e-04   4.58e-03     
     4      -2.90051772   6.60e-05   1.58e-03     Switched to DIIS steps.
     5      -2.90051810   3.75e-07   1.84e-04     
     6      -2.90051799   1.12e-07   1.18e-05     
 ------------------------------------------------------------------------------
            -2.90051799                           CCSD T converged.

End of double precision

----------------------------------------
libpt (c) 2016-2018 Ilya Kaliman
Fast Coupled Cluster Triples Corrections
https://github.com/ilyak/libpt
----------------------------------------

 Starting (T) calculation...
 Using double precision libpt code
 (T) calculation completed in 0 sec
 (T) energy is 0.0000000000

 SCF energy                 = -2.86110430
 MP2 energy                 = -2.89472462
 CCSD correlation energy     = -0.03941369
 CCSD total energy           = -2.90051799
 CCSD(T) correlation energy =  0.00000000
 CCSD(T) total energy       = -2.90051799

 CCSD  T1^2 = 0.0000  T2^2 = 0.0081  Leading amplitudes:

 Amplitude    Orbitals with energies
  0.0017       1 (A) A                   ->    2 (A) A                    
              -0.9178                          0.1112                     
 -0.0017       1 (A) B                   ->    2 (A) B                    
              -0.9178                          0.1112                     
  0.0014       1 (A) B                   ->    15 (A) B                   
              -0.9178                          4.8166                     
  0.0014       1 (A) A                   ->    15 (A) A                   
              -0.9178                          4.8166                     

 Amplitude    Orbitals with energies
 -0.0407       1 (A) A       1 (A) B     ->    6 (A) A       6 (A) B      
              -0.9178       -0.9178            0.8394        0.8394       
  0.0407       1 (A) A       1 (A) B     ->    6 (A) B       6 (A) A      
              -0.9178       -0.9178            0.8394        0.8394       
  0.0407       1 (A) B       1 (A) A     ->    6 (A) A       6 (A) B      
              -0.9178       -0.9178            0.8394        0.8394       
 -0.0407       1 (A) B       1 (A) A     ->    6 (A) B       6 (A) A      
              -0.9178       -0.9178            0.8394        0.8394       

 CCSD calculation:   CPU 1.13 s  wall 0.83 s

 Total ccman2 time:   CPU 2.78 s  wall 1.75 s

 
 --------------------------------------------------------------
 
                    Orbital Energies (a.u.)
 --------------------------------------------------------------
 
 Alpha MOs
 -- Occupied --
 -0.918
 -- Virtual --
  0.111   0.427   0.427   0.427   0.839   1.520   1.520   1.520
  1.520   1.520   1.962   1.962   1.962   4.817   7.108   7.108
  7.108   7.108   7.108   8.221   8.221   8.221
 
 Beta MOs
 -- Occupied --
 -0.918
 -- Virtual --
  0.111   0.427   0.427   0.427   0.839   1.520   1.520   1.520
  1.520   1.520   1.962   1.962   1.962   4.817   7.108   7.108
  7.108   7.108   7.108   8.221   8.221   8.221
 --------------------------------------------------------------
 
          Ground-State Mulliken Net Atomic Charges

     Atom                 Charge (a.u.)    Spin (a.u.)
  --------------------------------------------------------
      1 He                   -0.000000      -0.000000
  --------------------------------------------------------
  Sum of atomic charges =    -0.000000
  Sum of spin   charges =    -0.000000

 -----------------------------------------------------------------
                    Cartesian Multipole Moments
 -----------------------------------------------------------------
    Charge (ESU x 10^10)
                -0.0000
    Dipole Moment (Debye)
         X       0.0000      Y      -0.0000      Z      -0.0000
       Tot       0.0000
    Quadrupole Moments (Debye-Ang)
        XX      -1.0643     XY      -0.0000     YY      -1.0643
        XZ      -0.0000     YZ       0.0000     ZZ      -1.0642
    Octopole Moments (Debye-Ang^2)
       XXX       0.0000    XXY      -0.0000    XYY       0.0000
       YYY      -0.0000    XXZ      -0.0000    XYZ      -0.0000
       YYZ      -0.0000    XZZ       0.0000    YZZ      -0.0000
       ZZZ      -0.0000
    Hexadecapole Moments (Debye-Ang^3)
      XXXX      -0.5874   XXXY      -0.0000   XXYY      -0.1958
      XYYY      -0.0000   YYYY      -0.5874   XXXZ      -0.0000
      XXYZ       0.0000   XYYZ      -0.0000   YYYZ       0.0000
      XXZZ      -0.1958   XYZZ      -0.0000   YYZZ      -0.1958
      XZZZ      -0.0000   YZZZ       0.0000   ZZZZ      -0.5873
 -----------------------------------------------------------------

 STANDARD THERMODYNAMIC QUANTITIES AT   298.15 K  AND     1.00 ATM

   Translational Enthalpy:        0.889 kcal/mol
   Rotational Enthalpy:           0.000 kcal/mol
   Vibrational Enthalpy:          0.000 kcal/mol
   gas constant (RT):             0.592 kcal/mol
   Translational Entropy:        30.125  cal/mol.K
   Rotational Entropy:            0.000  cal/mol.K
   Vibrational Entropy:           0.000  cal/mol.K

   Total Enthalpy:                1.481 kcal/mol
   Total Entropy:                30.125  cal/mol.K

 -----------------------------------------------------------------

Archival summary:
1\1\n0043.mhg0\SP\ProcedureUnspecified\BasisUnspecified\e1\yhljason\MonJul1303:02:112020MonJul1303:02:112020\0\\#,ProcedureUnspecified,BasisUnspecified,\\0,1\He\\HF=-2.8611043\\@

 Total job time:  3.18s(wall), 12.17s(cpu) 
 Mon Jul 13 03:02:11 2020

        *************************************************************
        *                                                           *
        *  Thank you very much for using Q-Chem.  Have a nice day.  *
        *                                                           *
        *************************************************************


