Q-Chem Developer Version!
                  Welcome to Q-Chem
     A Quantum Leap Into The Future Of Chemistry


 Q-Chem 5.1, Q-Chem, Inc., Pleasanton, CA (2018)

 Yihan Shao,  Zhengting Gan,  E. Epifanovsky,  A. T. B. Gilbert,  M. Wormit,  
 J. Kussmann,  A. W. Lange,  A. Behn,  Jia Deng,  Xintian Feng,  D. Ghosh,  
 M. Goldey,  P. R. Horn,  L. D. Jacobson,  I. Kaliman,  T. Kus,  A. Landau,  
 Jie Liu,  E. I. Proynov,  R. M. Richard,  R. P. Steele,  E. J. Sundstrom,  
 H. L. Woodcock III,  P. M. Zimmerman,  D. Zuev,  B. Albrecht,  E. Alguire,  
 S. A. Baeppler,  D. Barton,  Z. Benda,  Y. A. Bernard,  E. J. Berquist,  
 K. B. Bravaya,  H. Burton,  D. Casanova,  Chun-Min Chang,  Yunqing Chen,  
 A. Chien,  K. D. Closser,  M. P. Coons,  S. Coriani,  S. Dasgupta,  
 A. L. Dempwolff,  M. Diedenhofen,  Hainam Do,  R. G. Edgar,  Po-Tung Fang,  
 S. Faraji,  S. Fatehi,  Qingguo Feng,  K. D. Fenk,  J. Fosso-Tande,  
 Qinghui Ge,  A. Ghysels,  G. Gidofalvi,  J. Gomes,  J. Gonthier,  A. Gunina,  
 D. Hait,  M. W. D. Hanson-Heine,  P. H. P. Harbach,  A. W. Hauser,  
 J. E. Herr,  E. G. Hohenstein,  Z. C. Holden,  Kerwin Hui,  B. C. Huynh,  
 T.-C. Jagau,  Hyunjun Ji,  B. Kaduk,  K. Khistyaev,  Jaehoon Kim,  
 P. Klunzinger,  K. Koh,  D. Kosenkov,  L. Koulias,  T. Kowalczyk,  
 C. M. Krauter,  A. Kunitsa,  Ka Un Lao,  A. Laurent,  K. V. Lawler,  
 Joonho Lee,  D. Lefrancois,  S. Lehtola,  D. S. Levine,  Yi-Pei Li,  
 You-Sheng Lin,  Fenglai Liu,  E. Livshits,  A. Luenser,  P. Manohar,  
 E. Mansoor,  S. F. Manzer,  Shan-Ping Mao,  Yuezhi Mao,  N. Mardirossian,  
 A. V. Marenich,  T. Markovich,  L. A. Martinez-Martinez,  S. A. Maurer,  
 N. J. Mayhall,  S. C. McKenzie,  J.-M. Mewes,  A. F. Morrison,  
 J. W. Mullinax,  K. Nanda,  T. S. Nguyen-Beck,  R. Olivares-Amaya,  
 J. A. Parkhill,  T. M. Perrine,  F. Plasser,  P. Pokhilko,  S. Prager,  
 A. Prociuk,  E. Ramos,  D. R. Rehn,  F. Rob,  M. Schneider,  N. Sergueev,  
 S. M. Sharada,  S. Sharma,  D. W. Small,  T. Stauch,  T. Stein,  
 Yu-Chuan Su,  A. J. W. Thom,  A. Tkatchenko,  T. Tsuchimochi,  N. M. Tubman,  
 L. Vogt,  M. L. Vidal,  O. Vydrov,  M. A. Watson,  J. Wenzel,  
 M. de Wergifosse,  T. A. Wesolowski,  A. White,  J. Witte,  A. Yamada,  
 Jun Yang,  K. Yao,  S. Yeganeh,  S. R. Yost,  Zhi-Qiang You,  A. Zech,  
 Igor Ying Zhang,  Xing Zhang,  Yan Zhao,  Ying Zhu,  B. R. Brooks,  
 G. K. L. Chan,  C. J. Cramer,  M. S. Gordon,  W. J. Hehre,  A. Klamt,  
 M. W. Schmidt,  C. D. Sherrill,  D. G. Truhlar,  A. Aspuru-Guzik,  R. Baer,  
 A. T. Bell,  N. A. Besley,  Jeng-Da Chai,  A. E. DePrince, III,  
 R. A. DiStasio Jr.,  A. Dreuw,  B. D. Dunietz,  T. R. Furlani,  
 Chao-Ping Hsu,  Yousung Jung,  Jing Kong,  D. S. Lambrecht,  WanZhen Liang,  
 C. Ochsenfeld,  V. A. Rassolov,  L. V. Slipchenko,  J. E. Subotnik,  
 T. Van Voorhis,  J. M. Herbert,  A. I. Krylov,  P. M. W. Gill,  M. Head-Gordon

 Contributors to earlier versions of Q-Chem not listed above: 
 R. D. Adamson,  B. Austin,  J. Baker,  G. J. O. Beran,  K. Brandhorst,  
 S. T. Brown,  E. F. C. Byrd,  A. K. Chakraborty,  C.-L. Cheng,  
 Siu Hung Chien,  D. M. Chipman,  D. L. Crittenden,  H. Dachsel,  
 R. J. Doerksen,  A. D. Dutoi,  L. Fusti-Molnar,  W. A. Goddard III,  
 A. Golubeva-Zadorozhnaya,  S. R. Gwaltney,  G. Hawkins,  A. Heyden,  
 S. Hirata,  G. Kedziora,  F. J. Keil,  C. Kelley,  Jihan Kim,  R. A. King,  
 R. Z. Khaliullin,  P. P. Korambath,  W. Kurlancheek,  A. M. Lee,  M. S. Lee,  
 S. V. Levchenko,  Ching Yeh Lin,  D. Liotard,  R. C. Lochan,  I. Lotan,  
 P. E. Maslen,  N. Nair,  D. P. O'Neill,  D. Neuhauser,  E. Neuscamman,  
 C. M. Oana,  R. Olson,  B. Peters,  R. Peverati,  P. A. Pieniazek,  
 Y. M. Rhee,  J. Ritchie,  M. A. Rohrdanz,  E. Rosta,  N. J. Russ,  
 H. F. Schaefer III,  N. E. Schultz,  N. Shenvi,  A. C. Simmonett,  A. Sodt,  
 D. Stuck,  K. S. Thanthiriwatte,  V. Vanovschi,  Tao Wang,  A. Warshel,  
 C. F. Williams,  Q. Wu,  X. Xu,  W. Zhang

 Please cite Q-Chem as follows:
 Y. Shao et al., Mol. Phys. 113, 184-215 (2015)
 DOI: 10.1080/00268976.2014.952696

 Q-Chem 5.1.1 for Intel X86 EM64T Linux

 Parts of Q-Chem use Armadillo 8.300.2 (Tropical Shenanigans).
 http://arma.sourceforge.net/

 Q-Chem begins on Mon Jul 13 02:58:02 2020  

Host: n0035.mhg0
0

     Scratch files written to /local/scratch/users/yhljason/HNC_ccsdT_aug-cc-pcVTZ.inp20200713023356//
Input Ideriv = 0
Curr. Ideriv = -1
Max.  Ideriv = 0

Checking the input file for inconsistencies... 	...done.

--------------------------------------------------------------
User input:
--------------------------------------------------------------
$molecule
0 1
C1      0.0000  0.0000  -0.7405
N2      0.0000  0.0000  0.4321
H3      0.0000  0.0000  1.4183
$end

$rem
jobtype sp
method CCSD(T)
xc_grid 000099000590
basis aug-cc-pcVTZ
max_scf_cycles 200
thresh 14
scf_convergence 8
scf_algorithm gdm
symmetry false
sym_ignore true
unrestricted true
gen_scfman true
internal_stability_iter 15
internal_stability_davidson_iter 200
mem_total 128000
cc_memory 96000
cc_backend xm
mem_static 1500
n_frozen_core 0
$end


--------------------------------------------------------------
 ----------------------------------------------------------------
             Standard Nuclear Orientation (Angstroms)
    I     Atom           X                Y                Z
 ----------------------------------------------------------------
    1      C       0.0000000000     0.0000000000    -0.7405000000
    2      N       0.0000000000     0.0000000000     0.4321000000
    3      H       0.0000000000     0.0000000000     1.4183000000
 ----------------------------------------------------------------
 Nuclear Repulsion Energy =    24.1808131194 hartrees
 There are        7 alpha and        7 beta electrons
 Requested basis set is aug-cc-pCVTZ
 There are 47 shells and 141 basis functions
 Total memory of 128000MB is distributed as follows: 
   QALLOC including MEM_STATIC uses 32000MB
   MEM_STATIC is set to 1500MB
   CCMAN JOB total memory use is  96000MB
 Warning: actual memory use might exceed 128000MB

 Total QAlloc Memory Limit  32000 MB
 Mega-Array Size      1467 MB
 MEM_STATIC part      1500 MB

                       Distance Matrix (Angstroms)
             C (  1)   N (  2)
   N (  2)  1.172600
   H (  3)  2.158800  0.986200
 
 A cutoff of  1.0D-14 yielded   1122 shell pairs
 There are     10186 function pairs (     13681 Cartesian)
 
 -------------------------------------------------------
 OpenMP Integral Computing Module                       
 Release: version 1.0, May 2013, Q-Chem Inc. Pittsburgh 
 -------------------------------------------------------
 Integral Job Info:
 Integral job number is                      11
 Integral operator is                         1
 short-range coefficients                     0
 long-range coefficients              100000000
 Omega coefficients                           0
 if combine SR and LR in K                    0
 Integral screening is                        0
 Integral computing path is                   2
 max size of driver memory is            800000
 size of driver memory is                776718
 size of scratch memory is              6691272
 max col of scratch BK array              10000
 max len of scratch array in speh3          662
 max len of scratch index in speh4           32
 max int batch size is                      520
 min int batch size is                       52
 fixed nKL is                                52
 max L of basis functions is                  3
 order of int derivative is                   0
 number of shells is                         47
 number of basis is                         163
 number of cartesian basis is               163
 number of contracted shell pairs          1122
 number of primitive shell pairs           3130
 maxK2 (contraction) of shell pair           64
 max number of K2 of shell pair               1
 max number of CS2 of shell pair            169
 max number of PS2 of shell pair            384
 mem total for path MDJ                  555284
 -------------------------------------------------------
 Smallest overlap matrix eigenvalue = 7.73E-05

 Scale SEOQF with 1.000000e-01/1.000000e-01/1.000000e-01

 Standard Electronic Orientation quadrupole field applied
 Nucleus-field energy     =    -0.0000000007 hartrees
 Guess from superposition of atomic densities
 Warning:  Energy on first SCF cycle will be non-variational
 SAD guess density has 14.000000 electrons

 -----------------------------------------------------------------------
  General SCF calculation program by
  Eric Jon Sundstrom, Paul Horn, Yuezhi Mao, Dmitri Zuev, Alec White,
  David Stuck, Shaama M.S., Shane Yost, Joonho Lee, David Small,
  Daniel Levine, Susi Lehtola, Hugh Burton, Evgeny Epifanovsky
 -----------------------------------------------------------------------
Running Object-Oriented UHF
performing a single roothaan step with Fock from read density so that orbitals are available to all algorithms
energy of the guess density (C=0) -93.099271178528
We will preform up to 15 macro iterations over saddle points until a stable solution is found
Energy prior to optimization (guess energy) = -92.877811706389
Begin Timing: Total SCF Calculation
Begin Timing: SCF Single Stationary Point Calculation
begin iterations for algorithm: GDM          
the SCF tolerance is set to 1.00e-08
    1     -92.8778117064      3.31e-02     00000  Normal BFGS step
    2     -92.8924611846      9.50e-03     00000  Normal BFGS step
    3     -92.8936123266      7.00e-03     00000  Normal BFGS step
    4     -92.8938302494      1.30e-03     00000  Normal BFGS step
    5     -92.8938424067      2.36e-04     00000  Normal BFGS step
    6     -92.8938432463      5.43e-05     00000  Normal BFGS step
    7     -92.8938433117      1.32e-05     00000  Normal BFGS step
    8     -92.8938433142      2.90e-06     00000  Normal BFGS step
    9     -92.8938433143      4.35e-07     00000  Normal BFGS step
   10     -92.8938433143      9.59e-08     00000  Normal BFGS step
   11     -92.8938433143      1.83e-08     00000  Normal BFGS step
   12     -92.8938433143      2.53e-09     00000 Convergence criterion met
Timing for Single Stationary Point: 14.00s (wall), 109.27s (cpu)
Begin Timing: Stability
===================================================
Beginning Test for Internal Stability
===================================================
generating davidson guess vectors based on koopmans excitations
    1      6.11e-01     00000 Davidson Iteration
    2      2.31e-01     00000 Davidson Iteration
    3      4.53e-01     00000 Davidson Iteration
    4      5.27e-02     00000 Davidson Iteration
    5      1.77e-01     00000 Davidson Iteration
    6      1.72e-01     00000 Davidson Iteration
    7      6.14e-02     00000 Davidson Iteration
    8      3.62e-02     00000 Davidson Iteration
    9      5.21e-02     00000 Davidson Iteration
   10      5.08e-02     00000 Davidson Iteration
   11      1.27e-02     00000 Davidson Iteration
   12      4.68e-03     00000 Davidson Iteration
   13      2.21e-03     00000 Davidson Iteration
   14      2.25e-03     00000 Davidson Iteration
   15      1.40e-03     00000 Davidson Iteration
   16      5.13e-04     00000 Davidson Iteration
   17      1.32e-04     00000 Davidson Iteration
   18      7.77e-05     00000 Davidson Iteration
   19      5.00e-03     00000 Davidson Iteration
   20      3.23e-03     00000 Davidson Iteration
   21      7.50e-04     00000 Davidson Iteration
   22      2.64e-04     00000 Davidson Iteration
   23      9.08e-05     00000 Davidson Converged
converged_eigenvalues
   0.1721
   0.2570
Threshold for negative eigenvalues: -1.0e-05
solution was a local minimum (stable)
===================================================
End Test for Internal Stability
===================================================
Our SCF solution is stable!
Timing for Total SCF: 57.00s (wall), 453.33s (cpu)
 Total energy in the final basis set =      -92.8938433143
<S^2> =         -0.000000000
    ==================================================
              The end of Object-Oriented SCFman       
    ==================================================


 ------------------------------------------------------------------------------

   CCMAN2: suite of methods based on coupled cluster
           and equation of motion theories.

   Components:
   * libvmm-1.3-trunk
     by Evgeny Epifanovsky, Ilya Kaliman.
   * libtensor-2.5-trunk
     by Evgeny Epifanovsky, Michael Wormit, Dmitry Zuev, Sam Manzer, 
        Ilya Kaliman.
   * libcc-2.5-trunk
     by Evgeny Epifanovsky, Arik Landau, Tomasz Kus, Kirill Khistyaev, 
        Dmitry Zuev, Prashant Manohar, Xintian Feng, Anna Krylov, 
        Matthew Goldey, Alec White, Thomas Jagau, Kaushik Nanda, 
        Anastasia Gunina, Alexander Kunitsa, Joonho Lee.

   CCMAN original authors:
   Anna I. Krylov, C. David Sherrill, Steven R. Gwaltney,
   Edward F. C. Byrd (2000)
   Sergey V. Levchenko, Lyudmila V. Slipchenko, Tao Wang,
   Ana-Maria C. Cristian (2003)
   Piotr A. Pieniazek, C. Melania Oana, Evgeny Epifanovsky (2007)
   Prashant Manohar (2009)

 ------------------------------------------------------------------------------


 Calculation will run on 8 cores using libxm for tensor contractions

 ------------------------------------------------------------------------------
Libxm Tensor Library
Copyright (c) 2014-2018 Ilya Kaliman
https://github.com/ilyak/libxm
Reference: https://dx.doi.org/10.1002/jcc.24713
 ------------------------------------------------------------------------------

 
 Alpha MOs, Unrestricted
 -- Occupied --                  
-15.605 -11.300  -1.266  -0.880  -0.521  -0.521  -0.493
  1 A     2 A     3 A     4 A     5 A     6 A     7 A                          
 -- Virtual --                   
  0.023   0.088   0.088   0.091   0.120   0.129   0.129   0.130
  8 A     9 A    10 A    11 A    12 A    13 A    14 A    15 A                  
  0.193   0.193   0.247   0.301   0.313   0.313   0.314   0.314
 16 A    17 A    18 A    19 A    20 A    21 A    22 A    23 A                  
  0.376   0.426   0.435   0.435   0.491   0.491   0.499   0.531
 24 A    25 A    26 A    27 A    28 A    29 A    30 A    31 A                  
  0.531   0.568   0.718   0.760   0.760   0.933   0.933   0.935
 32 A    33 A    34 A    35 A    36 A    37 A    38 A    39 A                  
  0.941   0.941   0.968   1.029   1.029   1.091   1.091   1.104
 40 A    41 A    42 A    43 A    44 A    45 A    46 A    47 A                  
  1.104   1.123   1.232   1.267   1.267   1.277   1.300   1.300
 48 A    49 A    50 A    51 A    52 A    53 A    54 A    55 A                  
  1.330   1.330   1.454   1.616   1.616   1.749   1.749   1.751
 56 A    57 A    58 A    59 A    60 A    61 A    62 A    63 A                  
  1.751   1.946   2.047   2.166   2.166   2.174   2.174   2.252
 64 A    65 A    66 A    67 A    68 A    69 A    70 A    71 A                  
  2.323   2.323   2.591   2.791   2.791   3.046   3.412   3.440
 72 A    73 A    74 A    75 A    76 A    77 A    78 A    79 A                  
  3.440   3.469   3.469   3.632   3.632   3.745   3.745   3.755
 80 A    81 A    82 A    83 A    84 A    85 A    86 A    87 A                  
  3.796   3.796   3.877   4.132   4.132   4.265   4.265   4.576
 88 A    89 A    90 A    91 A    92 A    93 A    94 A    95 A                  
  4.654   4.654   4.712   4.930   4.930   4.995   4.995   5.129
 96 A    97 A    98 A    99 A   100 A   101 A   102 A   103 A                  
  5.179   5.179   5.419   5.419   5.693   5.804   5.804   6.189
104 A   105 A   106 A   107 A   108 A   109 A   110 A   111 A                  
  6.827   6.827   7.447   8.272  15.652  15.652  16.112  17.612
112 A   113 A   114 A   115 A   116 A   117 A   118 A   119 A                  
 21.533  21.533  22.655  23.696  39.176  39.176  39.317  39.317
120 A   121 A   122 A   123 A   124 A   125 A   126 A   127 A                  
 39.746  41.436  41.436  41.613  41.613  41.964  81.237  81.237
128 A   129 A   130 A   131 A   132 A   133 A   134 A   135 A                  
 82.239  85.818 109.489 109.489 110.365 117.956
136 A   137 A   138 A   139 A   140 A   141 A                                  
 
 Beta MOs, Unrestricted
 -- Occupied --                  
-15.605 -11.300  -1.266  -0.880  -0.521  -0.521  -0.493
  1 A     2 A     3 A     4 A     5 A     6 A     7 A                          
 -- Virtual --                   
  0.023   0.088   0.088   0.091   0.120   0.129   0.129   0.130
  8 A     9 A    10 A    11 A    12 A    13 A    14 A    15 A                  
  0.193   0.193   0.247   0.301   0.313   0.313   0.314   0.314
 16 A    17 A    18 A    19 A    20 A    21 A    22 A    23 A                  
  0.376   0.426   0.435   0.435   0.491   0.491   0.499   0.531
 24 A    25 A    26 A    27 A    28 A    29 A    30 A    31 A                  
  0.531   0.568   0.718   0.760   0.760   0.933   0.933   0.935
 32 A    33 A    34 A    35 A    36 A    37 A    38 A    39 A                  
  0.941   0.941   0.968   1.029   1.029   1.091   1.091   1.104
 40 A    41 A    42 A    43 A    44 A    45 A    46 A    47 A                  
  1.104   1.123   1.232   1.267   1.267   1.277   1.300   1.300
 48 A    49 A    50 A    51 A    52 A    53 A    54 A    55 A                  
  1.330   1.330   1.454   1.616   1.616   1.749   1.749   1.751
 56 A    57 A    58 A    59 A    60 A    61 A    62 A    63 A                  
  1.751   1.946   2.047   2.166   2.166   2.174   2.174   2.252
 64 A    65 A    66 A    67 A    68 A    69 A    70 A    71 A                  
  2.323   2.323   2.591   2.791   2.791   3.046   3.412   3.440
 72 A    73 A    74 A    75 A    76 A    77 A    78 A    79 A                  
  3.440   3.469   3.469   3.632   3.632   3.745   3.745   3.755
 80 A    81 A    82 A    83 A    84 A    85 A    86 A    87 A                  
  3.796   3.796   3.877   4.132   4.132   4.265   4.265   4.576
 88 A    89 A    90 A    91 A    92 A    93 A    94 A    95 A                  
  4.654   4.654   4.712   4.930   4.930   4.995   4.995   5.129
 96 A    97 A    98 A    99 A   100 A   101 A   102 A   103 A                  
  5.179   5.179   5.419   5.419   5.693   5.804   5.804   6.189
104 A   105 A   106 A   107 A   108 A   109 A   110 A   111 A                  
  6.827   6.827   7.447   8.272  15.652  15.652  16.112  17.612
112 A   113 A   114 A   115 A   116 A   117 A   118 A   119 A                  
 21.533  21.533  22.655  23.696  39.176  39.176  39.317  39.317
120 A   121 A   122 A   123 A   124 A   125 A   126 A   127 A                  
 39.746  41.436  41.436  41.613  41.613  41.964  81.237  81.237
128 A   129 A   130 A   131 A   132 A   133 A   134 A   135 A                  
 82.239  85.818 109.489 109.489 110.365 117.956
136 A   137 A   138 A   139 A   140 A   141 A                                  

 Occupation and symmetry of molecular orbitals

 Point group: C1 (1 irreducible representation).

                           A     All 
 -------------------------------------
 All molecular orbitals:
  - Alpha                  141   141 
  - Beta                   141   141 
 -------------------------------------
 Alpha orbitals:
  - Frozen occupied        0     0   
  - Active occupied        7     7   
  - Active virtual         134   134 
  - Frozen virtual         0     0   
 -------------------------------------
 Beta orbitals:
  - Frozen occupied        0     0   
  - Active occupied        7     7   
  - Active virtual         134   134 
  - Frozen virtual         0     0   
 -------------------------------------

 Import integrals:   CPU 0.00 s  wall 0.00 s

 Import integrals:   CPU 170.86 s  wall 38.38 s

 MP2 amplitudes:   CPU 1.57 s  wall 0.58 s

Running a double precision version
           CCSD T amplitudes will be solved using DIIS.

           Start     Size      MaxIter   EConv     TConv     
           3         7         100       1.00e-06  1.00e-04  
 ------------------------------------------------------------------------------
           Energy (a.u.)   Ediff      Tdiff       Comment
 ------------------------------------------------------------------------------
           -93.33204701                           
     1     -93.32926259   2.78e-03   5.50e-01     
     2     -93.34180523   1.25e-02   7.59e-02     
     3     -93.34123524   5.70e-04   3.00e-02     
     4     -93.34252166   1.29e-03   9.75e-03     Switched to DIIS steps.
     5     -93.34293745   4.16e-04   7.76e-03     
     6     -93.34295217   1.47e-05   1.23e-03     
     7     -93.34295493   2.76e-06   5.30e-04     
     8     -93.34295669   1.76e-06   1.38e-04     
     9     -93.34295687   1.80e-07   3.73e-05     
 ------------------------------------------------------------------------------
           -93.34295687                           CCSD T converged.

End of double precision

----------------------------------------
libpt (c) 2016-2018 Ilya Kaliman
Fast Coupled Cluster Triples Corrections
https://github.com/ilyak/libpt
----------------------------------------

 Starting (T) calculation...
 Using double precision libpt code
 (T) calculation completed in 29 sec
 (T) energy is -0.0190035104

 SCF energy                 = -92.89384331
 MP2 energy                 = -93.33204701
 CCSD correlation energy     =  -0.44911356
 CCSD total energy           = -93.34295687
 CCSD(T) correlation energy =  -0.01900351
 CCSD(T) total energy       = -93.36196038

 CCSD  T1^2 = 0.0055  T2^2 = 0.1260  Leading amplitudes:

 Amplitude    Orbitals with energies
 -0.0175       5 (A) B                   ->    16 (A) B                   
              -0.5207                          0.1925                     
 -0.0175       6 (A) B                   ->    17 (A) B                   
              -0.5207                          0.1925                     
  0.0175       5 (A) A                   ->    16 (A) A                   
              -0.5207                          0.1925                     
 -0.0175       6 (A) A                   ->    17 (A) A                   
              -0.5207                          0.1925                     

 Amplitude    Orbitals with energies
  0.0516       5 (A) A       5 (A) B     ->    16 (A) A      16 (A) B     
              -0.5207       -0.5207            0.1925        0.1925       
 -0.0516       5 (A) A       5 (A) B     ->    16 (A) B      16 (A) A     
              -0.5207       -0.5207            0.1925        0.1925       
 -0.0516       5 (A) B       5 (A) A     ->    16 (A) A      16 (A) B     
              -0.5207       -0.5207            0.1925        0.1925       
  0.0516       5 (A) B       5 (A) A     ->    16 (A) B      16 (A) A     
              -0.5207       -0.5207            0.1925        0.1925       
 -0.0516       6 (A) A       6 (A) B     ->    17 (A) A      17 (A) B     
              -0.5207       -0.5207            0.1925        0.1925       
  0.0516       6 (A) A       6 (A) B     ->    17 (A) B      17 (A) A     
              -0.5207       -0.5207            0.1925        0.1925       
  0.0516       6 (A) B       6 (A) A     ->    17 (A) A      17 (A) B     
              -0.5207       -0.5207            0.1925        0.1925       
 -0.0516       6 (A) B       6 (A) A     ->    17 (A) B      17 (A) A     
              -0.5207       -0.5207            0.1925        0.1925       

 CCSD calculation:   CPU 605.37 s  wall 104.74 s

 Total ccman2 time:   CPU 792.72 s  wall 152.77 s

 
 --------------------------------------------------------------
 
                    Orbital Energies (a.u.)
 --------------------------------------------------------------
 
 Alpha MOs
 -- Occupied --
-15.605 -11.300  -1.266  -0.880  -0.521  -0.521  -0.493
 -- Virtual --
  0.023   0.088   0.088   0.091   0.120   0.129   0.129   0.130
  0.193   0.193   0.247   0.301   0.313   0.313   0.314   0.314
  0.376   0.426   0.435   0.435   0.491   0.491   0.499   0.531
  0.531   0.568   0.718   0.760   0.760   0.933   0.933   0.935
  0.941   0.941   0.968   1.029   1.029   1.091   1.091   1.104
  1.104   1.123   1.232   1.267   1.267   1.277   1.300   1.300
  1.330   1.330   1.454   1.616   1.616   1.749   1.749   1.751
  1.751   1.946   2.047   2.166   2.166   2.174   2.174   2.252
  2.323   2.323   2.591   2.791   2.791   3.046   3.412   3.440
  3.440   3.469   3.469   3.632   3.632   3.745   3.745   3.755
  3.796   3.796   3.877   4.132   4.132   4.265   4.265   4.576
  4.654   4.654   4.712   4.930   4.930   4.995   4.995   5.129
  5.179   5.179   5.419   5.419   5.693   5.804   5.804   6.189
  6.827   6.827   7.447   8.272  15.652  15.652  16.112  17.612
 21.533  21.533  22.655  23.696  39.176  39.176  39.317  39.317
 39.746  41.436  41.436  41.613  41.613  41.964  81.237  81.237
 82.239  85.818 109.489 109.489 110.365 117.956
 
 Beta MOs
 -- Occupied --
-15.605 -11.300  -1.266  -0.880  -0.521  -0.521  -0.493
 -- Virtual --
  0.023   0.088   0.088   0.091   0.120   0.129   0.129   0.130
  0.193   0.193   0.247   0.301   0.313   0.313   0.314   0.314
  0.376   0.426   0.435   0.435   0.491   0.491   0.499   0.531
  0.531   0.568   0.718   0.760   0.760   0.933   0.933   0.935
  0.941   0.941   0.968   1.029   1.029   1.091   1.091   1.104
  1.104   1.123   1.232   1.267   1.267   1.277   1.300   1.300
  1.330   1.330   1.454   1.616   1.616   1.749   1.749   1.751
  1.751   1.946   2.047   2.166   2.166   2.174   2.174   2.252
  2.323   2.323   2.591   2.791   2.791   3.046   3.412   3.440
  3.440   3.469   3.469   3.632   3.632   3.745   3.745   3.755
  3.796   3.796   3.877   4.132   4.132   4.265   4.265   4.576
  4.654   4.654   4.712   4.930   4.930   4.995   4.995   5.129
  5.179   5.179   5.419   5.419   5.693   5.804   5.804   6.189
  6.827   6.827   7.447   8.272  15.652  15.652  16.112  17.612
 21.533  21.533  22.655  23.696  39.176  39.176  39.317  39.317
 39.746  41.436  41.436  41.613  41.613  41.964  81.237  81.237
 82.239  85.818 109.489 109.489 110.365 117.956
 --------------------------------------------------------------
 
          Ground-State Mulliken Net Atomic Charges

     Atom                 Charge (a.u.)    Spin (a.u.)
  --------------------------------------------------------
      1 C                     0.029845       0.000000
      2 N                    -0.285561      -0.000000
      3 H                     0.255716       0.000000
  --------------------------------------------------------
  Sum of atomic charges =    -0.000000
  Sum of spin   charges =    -0.000000

 -----------------------------------------------------------------
                    Cartesian Multipole Moments
 -----------------------------------------------------------------
    Charge (ESU x 10^10)
                -0.0000
    Dipole Moment (Debye)
         X      -0.0000      Y       0.0000      Z       2.8308
       Tot       2.8308
    Quadrupole Moments (Debye-Ang)
        XX     -12.1811     XY       0.0000     YY     -12.1811
        XZ       0.0000     YZ      -0.0000     ZZ     -10.2828
    Octopole Moments (Debye-Ang^2)
       XXX      -0.0000    XXY      -0.0000    XYY      -0.0000
       YYY      -0.0000    XXZ       1.3181    XYZ       0.0000
       YYZ       1.3181    XZZ      -0.0000    YZZ      -0.0000
       ZZZ      14.6731
    Hexadecapole Moments (Debye-Ang^3)
      XXXX     -12.9190   XXXY      -0.0000   XXYY      -4.3063
      XYYY      -0.0000   YYYY     -12.9190   XXXZ       0.0000
      XXYZ      -0.0000   XYYZ       0.0000   YYYZ      -0.0000
      XXZZ      -9.8939   XYZZ       0.0000   YYZZ      -9.8939
      XZZZ       0.0000   YZZZ      -0.0000   ZZZZ     -42.1452
 -----------------------------------------------------------------
Archival summary:
1\1\n0035.mhg0\SP\ProcedureUnspecified\BasisUnspecified\111\yhljason\MonJul1303:01:362020MonJul1303:01:362020\0\\#,ProcedureUnspecified,BasisUnspecified,\\0,1\N\H,1,0.9862\C,1,1.1726,2,180\\HF=-92.8938433\\@

 Total job time:  214.19s(wall), 1266.70s(cpu) 
 Mon Jul 13 03:01:36 2020

        *************************************************************
        *                                                           *
        *  Thank you very much for using Q-Chem.  Have a nice day.  *
        *                                                           *
        *************************************************************


 
User input: 2 of 7 
 
Q-Chem Developer Version!
                  Welcome to Q-Chem
     A Quantum Leap Into The Future Of Chemistry


 Q-Chem 5.1, Q-Chem, Inc., Pleasanton, CA (2018)

 Yihan Shao,  Zhengting Gan,  E. Epifanovsky,  A. T. B. Gilbert,  M. Wormit,  
 J. Kussmann,  A. W. Lange,  A. Behn,  Jia Deng,  Xintian Feng,  D. Ghosh,  
 M. Goldey,  P. R. Horn,  L. D. Jacobson,  I. Kaliman,  T. Kus,  A. Landau,  
 Jie Liu,  E. I. Proynov,  R. M. Richard,  R. P. Steele,  E. J. Sundstrom,  
 H. L. Woodcock III,  P. M. Zimmerman,  D. Zuev,  B. Albrecht,  E. Alguire,  
 S. A. Baeppler,  D. Barton,  Z. Benda,  Y. A. Bernard,  E. J. Berquist,  
 K. B. Bravaya,  H. Burton,  D. Casanova,  Chun-Min Chang,  Yunqing Chen,  
 A. Chien,  K. D. Closser,  M. P. Coons,  S. Coriani,  S. Dasgupta,  
 A. L. Dempwolff,  M. Diedenhofen,  Hainam Do,  R. G. Edgar,  Po-Tung Fang,  
 S. Faraji,  S. Fatehi,  Qingguo Feng,  K. D. Fenk,  J. Fosso-Tande,  
 Qinghui Ge,  A. Ghysels,  G. Gidofalvi,  J. Gomes,  J. Gonthier,  A. Gunina,  
 D. Hait,  M. W. D. Hanson-Heine,  P. H. P. Harbach,  A. W. Hauser,  
 J. E. Herr,  E. G. Hohenstein,  Z. C. Holden,  Kerwin Hui,  B. C. Huynh,  
 T.-C. Jagau,  Hyunjun Ji,  B. Kaduk,  K. Khistyaev,  Jaehoon Kim,  
 P. Klunzinger,  K. Koh,  D. Kosenkov,  L. Koulias,  T. Kowalczyk,  
 C. M. Krauter,  A. Kunitsa,  Ka Un Lao,  A. Laurent,  K. V. Lawler,  
 Joonho Lee,  D. Lefrancois,  S. Lehtola,  D. S. Levine,  Yi-Pei Li,  
 You-Sheng Lin,  Fenglai Liu,  E. Livshits,  A. Luenser,  P. Manohar,  
 E. Mansoor,  S. F. Manzer,  Shan-Ping Mao,  Yuezhi Mao,  N. Mardirossian,  
 A. V. Marenich,  T. Markovich,  L. A. Martinez-Martinez,  S. A. Maurer,  
 N. J. Mayhall,  S. C. McKenzie,  J.-M. Mewes,  A. F. Morrison,  
 J. W. Mullinax,  K. Nanda,  T. S. Nguyen-Beck,  R. Olivares-Amaya,  
 J. A. Parkhill,  T. M. Perrine,  F. Plasser,  P. Pokhilko,  S. Prager,  
 A. Prociuk,  E. Ramos,  D. R. Rehn,  F. Rob,  M. Schneider,  N. Sergueev,  
 S. M. Sharada,  S. Sharma,  D. W. Small,  T. Stauch,  T. Stein,  
 Yu-Chuan Su,  A. J. W. Thom,  A. Tkatchenko,  T. Tsuchimochi,  N. M. Tubman,  
 L. Vogt,  M. L. Vidal,  O. Vydrov,  M. A. Watson,  J. Wenzel,  
 M. de Wergifosse,  T. A. Wesolowski,  A. White,  J. Witte,  A. Yamada,  
 Jun Yang,  K. Yao,  S. Yeganeh,  S. R. Yost,  Zhi-Qiang You,  A. Zech,  
 Igor Ying Zhang,  Xing Zhang,  Yan Zhao,  Ying Zhu,  B. R. Brooks,  
 G. K. L. Chan,  C. J. Cramer,  M. S. Gordon,  W. J. Hehre,  A. Klamt,  
 M. W. Schmidt,  C. D. Sherrill,  D. G. Truhlar,  A. Aspuru-Guzik,  R. Baer,  
 A. T. Bell,  N. A. Besley,  Jeng-Da Chai,  A. E. DePrince, III,  
 R. A. DiStasio Jr.,  A. Dreuw,  B. D. Dunietz,  T. R. Furlani,  
 Chao-Ping Hsu,  Yousung Jung,  Jing Kong,  D. S. Lambrecht,  WanZhen Liang,  
 C. Ochsenfeld,  V. A. Rassolov,  L. V. Slipchenko,  J. E. Subotnik,  
 T. Van Voorhis,  J. M. Herbert,  A. I. Krylov,  P. M. W. Gill,  M. Head-Gordon

 Contributors to earlier versions of Q-Chem not listed above: 
 R. D. Adamson,  B. Austin,  J. Baker,  G. J. O. Beran,  K. Brandhorst,  
 S. T. Brown,  E. F. C. Byrd,  A. K. Chakraborty,  C.-L. Cheng,  
 Siu Hung Chien,  D. M. Chipman,  D. L. Crittenden,  H. Dachsel,  
 R. J. Doerksen,  A. D. Dutoi,  L. Fusti-Molnar,  W. A. Goddard III,  
 A. Golubeva-Zadorozhnaya,  S. R. Gwaltney,  G. Hawkins,  A. Heyden,  
 S. Hirata,  G. Kedziora,  F. J. Keil,  C. Kelley,  Jihan Kim,  R. A. King,  
 R. Z. Khaliullin,  P. P. Korambath,  W. Kurlancheek,  A. M. Lee,  M. S. Lee,  
 S. V. Levchenko,  Ching Yeh Lin,  D. Liotard,  R. C. Lochan,  I. Lotan,  
 P. E. Maslen,  N. Nair,  D. P. O'Neill,  D. Neuhauser,  E. Neuscamman,  
 C. M. Oana,  R. Olson,  B. Peters,  R. Peverati,  P. A. Pieniazek,  
 Y. M. Rhee,  J. Ritchie,  M. A. Rohrdanz,  E. Rosta,  N. J. Russ,  
 H. F. Schaefer III,  N. E. Schultz,  N. Shenvi,  A. C. Simmonett,  A. Sodt,  
 D. Stuck,  K. S. Thanthiriwatte,  V. Vanovschi,  Tao Wang,  A. Warshel,  
 C. F. Williams,  Q. Wu,  X. Xu,  W. Zhang

 Please cite Q-Chem as follows:
 Y. Shao et al., Mol. Phys. 113, 184-215 (2015)
 DOI: 10.1080/00268976.2014.952696

 Q-Chem 5.1.1 for Intel X86 EM64T Linux

 Parts of Q-Chem use Armadillo 8.300.2 (Tropical Shenanigans).
 http://arma.sourceforge.net/

 Q-Chem begins on Mon Jul 13 03:01:36 2020  

Host: n0035.mhg0
0

     Scratch files written to /local/scratch/users/yhljason/HNC_ccsdT_aug-cc-pcVTZ.inp20200713023356//
The previous job contains 0 fragments, simply inherited here
Input Ideriv = 0
Curr. Ideriv = -1
Max.  Ideriv = 0

Checking the input file for inconsistencies... 	...done.

--------------------------------------------------------------
User input:
--------------------------------------------------------------
$molecule
read
$end

$rem

jobtype sp
method CCSD(T)
xc_grid 000099000590
basis aug-cc-pcVTZ
max_scf_cycles 200
thresh 14
scf_convergence 8
mem_total 128000
cc_memory 96000
cc_backend xm
mem_static 1500
symmetry false
sym_ignore true
scf_guess read
unrestricted true
scf_algorithm gdm
n_frozen_core 0
$end

$multipole_field
XX 0.0001
$end


--------------------------------------------------------------
 ----------------------------------------------------------------
             Standard Nuclear Orientation (Angstroms)
    I     Atom           X                Y                Z
 ----------------------------------------------------------------
    1      C       0.0000000000     0.0000000000    -0.7405000000
    2      N       0.0000000000     0.0000000000     0.4321000000
    3      H       0.0000000000     0.0000000000     1.4183000000
 ----------------------------------------------------------------
 Nuclear Repulsion Energy =    24.1808131194 hartrees
 There are        7 alpha and        7 beta electrons
 Requested basis set is aug-cc-pCVTZ
 There are 47 shells and 141 basis functions
 Total memory of 128000MB is distributed as follows: 
   QALLOC including MEM_STATIC uses 32000MB
   MEM_STATIC is set to 1500MB
   CCMAN JOB total memory use is  96000MB
 Warning: actual memory use might exceed 128000MB

 Total QAlloc Memory Limit  32000 MB
 Mega-Array Size      1467 MB
 MEM_STATIC part      1500 MB

                       Distance Matrix (Angstroms)
             C (  1)   N (  2)
   N (  2)  1.172600
   H (  3)  2.158800  0.986200
 
 Applying Cartesian multipole field
    Component          Value
    ---------          -----
     (2,0,0)        1.00000E-04
 A cutoff of  1.0D-14 yielded   1122 shell pairs
 There are     10186 function pairs (     13681 Cartesian)
 
 -------------------------------------------------------
 OpenMP Integral Computing Module                       
 Release: version 1.0, May 2013, Q-Chem Inc. Pittsburgh 
 -------------------------------------------------------
 Integral Job Info:
 Integral job number is                      11
 Integral operator is                         1
 short-range coefficients                     0
 long-range coefficients              100000000
 Omega coefficients                           0
 if combine SR and LR in K                    0
 Integral screening is                        0
 Integral computing path is                   2
 max size of driver memory is            800000
 size of driver memory is                776718
 size of scratch memory is              6691272
 max col of scratch BK array              10000
 max len of scratch array in speh3          662
 max len of scratch index in speh4           32
 max int batch size is                      520
 min int batch size is                       52
 fixed nKL is                                52
 max L of basis functions is                  3
 order of int derivative is                   0
 number of shells is                         47
 number of basis is                         163
 number of cartesian basis is               163
 number of contracted shell pairs          1122
 number of primitive shell pairs           3130
 maxK2 (contraction) of shell pair           64
 max number of K2 of shell pair               1
 max number of CS2 of shell pair            169
 max number of PS2 of shell pair            384
 mem total for path MDJ                  555284
 -------------------------------------------------------
 Smallest overlap matrix eigenvalue = 7.73E-05
 Guess MOs from SCF MO coefficient file

 -----------------------------------------------------------------------
  General SCF calculation program by
  Eric Jon Sundstrom, Paul Horn, Yuezhi Mao, Dmitri Zuev, Alec White,
  David Stuck, Shaama M.S., Shane Yost, Joonho Lee, David Small,
  Daniel Levine, Susi Lehtola, Hugh Burton, Evgeny Epifanovsky
 -----------------------------------------------------------------------
 Hartree-Fock
 using 8 threads for integral computing
 -------------------------------------------------------
 OpenMP Integral computing Module                
 Release: version 2.0, May 2017, Q-Chem Inc. Pleasanton 
 -------------------------------------------------------
 A unrestricted SCF calculation will be
 performed using GDM
 SCF converges when RMS gradient is below 1.0e-08
 ---------------------------------------
  Cycle       Energy        RMS Gradient
 ---------------------------------------
    1     -92.8947489463      1.84e-04   Normal BFGS step
    2     -92.8947492158      4.66e-05   Normal BFGS step
    3     -92.8947492418      2.56e-05   Normal BFGS step
    4     -92.8947492439      1.33e-05   Normal BFGS step
    5     -92.8947492444      3.30e-06   Normal BFGS step
    6     -92.8947492445      2.00e-06   Normal BFGS step
    7     -92.8947492445      4.04e-07   Normal BFGS step
    8     -92.8947492445      1.07e-07   Normal BFGS step
    9     -92.8947492445      1.50e-08   Normal BFGS step
   10     -92.8947492445      3.30e-09  Convergence criterion met
 ---------------------------------------
 SCF time:   CPU 101.31s  wall 12.00s 
<S^2> =          0.000000000
 SCF   energy in the final basis set =      -92.8947492445
 Total energy in the final basis set =      -92.8947492445


 ------------------------------------------------------------------------------

   CCMAN2: suite of methods based on coupled cluster
           and equation of motion theories.

   Components:
   * libvmm-1.3-trunk
     by Evgeny Epifanovsky, Ilya Kaliman.
   * libtensor-2.5-trunk
     by Evgeny Epifanovsky, Michael Wormit, Dmitry Zuev, Sam Manzer, 
        Ilya Kaliman.
   * libcc-2.5-trunk
     by Evgeny Epifanovsky, Arik Landau, Tomasz Kus, Kirill Khistyaev, 
        Dmitry Zuev, Prashant Manohar, Xintian Feng, Anna Krylov, 
        Matthew Goldey, Alec White, Thomas Jagau, Kaushik Nanda, 
        Anastasia Gunina, Alexander Kunitsa, Joonho Lee.

   CCMAN original authors:
   Anna I. Krylov, C. David Sherrill, Steven R. Gwaltney,
   Edward F. C. Byrd (2000)
   Sergey V. Levchenko, Lyudmila V. Slipchenko, Tao Wang,
   Ana-Maria C. Cristian (2003)
   Piotr A. Pieniazek, C. Melania Oana, Evgeny Epifanovsky (2007)
   Prashant Manohar (2009)

 ------------------------------------------------------------------------------


 Calculation will run on 8 cores using libxm for tensor contractions

 ------------------------------------------------------------------------------
Libxm Tensor Library
Copyright (c) 2014-2018 Ilya Kaliman
https://github.com/ilyak/libxm
Reference: https://dx.doi.org/10.1002/jcc.24713
 ------------------------------------------------------------------------------

 
 Alpha MOs, Unrestricted
 -- Occupied --                  
-15.606 -11.300  -1.266  -0.880  -0.521  -0.521  -0.494
  1 A     2 A     3 A     4 A     5 A     6 A     7 A                          
 -- Virtual --                   
  0.021   0.085   0.087   0.090   0.119   0.127   0.128   0.128
  8 A     9 A    10 A    11 A    12 A    13 A    14 A    15 A                  
  0.191   0.192   0.246   0.300   0.312   0.313   0.313   0.313
 16 A    17 A    18 A    19 A    20 A    21 A    22 A    23 A                  
  0.375   0.425   0.434   0.435   0.490   0.490   0.498   0.530
 24 A    25 A    26 A    27 A    28 A    29 A    30 A    31 A                  
  0.530   0.567   0.717   0.759   0.760   0.932   0.932   0.935
 32 A    33 A    34 A    35 A    36 A    37 A    38 A    39 A                  
  0.940   0.941   0.967   1.029   1.029   1.090   1.090   1.104
 40 A    41 A    42 A    43 A    44 A    45 A    46 A    47 A                  
  1.104   1.123   1.231   1.267   1.267   1.277   1.300   1.300
 48 A    49 A    50 A    51 A    52 A    53 A    54 A    55 A                  
  1.329   1.329   1.454   1.616   1.616   1.748   1.749   1.751
 56 A    57 A    58 A    59 A    60 A    61 A    62 A    63 A                  
  1.751   1.946   2.047   2.166   2.166   2.174   2.174   2.252
 64 A    65 A    66 A    67 A    68 A    69 A    70 A    71 A                  
  2.322   2.322   2.590   2.791   2.791   3.045   3.412   3.439
 72 A    73 A    74 A    75 A    76 A    77 A    78 A    79 A                  
  3.439   3.468   3.468   3.632   3.632   3.744   3.744   3.755
 80 A    81 A    82 A    83 A    84 A    85 A    86 A    87 A                  
  3.796   3.796   3.877   4.132   4.132   4.265   4.265   4.576
 88 A    89 A    90 A    91 A    92 A    93 A    94 A    95 A                  
  4.653   4.653   4.711   4.930   4.930   4.995   4.995   5.129
 96 A    97 A    98 A    99 A   100 A   101 A   102 A   103 A                  
  5.179   5.179   5.419   5.419   5.693   5.804   5.804   6.189
104 A   105 A   106 A   107 A   108 A   109 A   110 A   111 A                  
  6.826   6.826   7.447   8.272  15.652  15.652  16.112  17.612
112 A   113 A   114 A   115 A   116 A   117 A   118 A   119 A                  
 21.533  21.533  22.655  23.696  39.176  39.176  39.317  39.317
120 A   121 A   122 A   123 A   124 A   125 A   126 A   127 A                  
 39.746  41.436  41.436  41.613  41.613  41.964  81.237  81.237
128 A   129 A   130 A   131 A   132 A   133 A   134 A   135 A                  
 82.239  85.817 109.489 109.489 110.365 117.956
136 A   137 A   138 A   139 A   140 A   141 A                                  
 
 Beta MOs, Unrestricted
 -- Occupied --                  
-15.606 -11.300  -1.266  -0.880  -0.521  -0.521  -0.494
  1 A     2 A     3 A     4 A     5 A     6 A     7 A                          
 -- Virtual --                   
  0.021   0.085   0.087   0.090   0.119   0.127   0.128   0.128
  8 A     9 A    10 A    11 A    12 A    13 A    14 A    15 A                  
  0.191   0.192   0.246   0.300   0.312   0.313   0.313   0.313
 16 A    17 A    18 A    19 A    20 A    21 A    22 A    23 A                  
  0.375   0.425   0.434   0.435   0.490   0.490   0.498   0.530
 24 A    25 A    26 A    27 A    28 A    29 A    30 A    31 A                  
  0.530   0.567   0.717   0.759   0.760   0.932   0.932   0.935
 32 A    33 A    34 A    35 A    36 A    37 A    38 A    39 A                  
  0.940   0.941   0.967   1.029   1.029   1.090   1.090   1.104
 40 A    41 A    42 A    43 A    44 A    45 A    46 A    47 A                  
  1.104   1.123   1.231   1.267   1.267   1.277   1.300   1.300
 48 A    49 A    50 A    51 A    52 A    53 A    54 A    55 A                  
  1.329   1.329   1.454   1.616   1.616   1.748   1.749   1.751
 56 A    57 A    58 A    59 A    60 A    61 A    62 A    63 A                  
  1.751   1.946   2.047   2.166   2.166   2.174   2.174   2.252
 64 A    65 A    66 A    67 A    68 A    69 A    70 A    71 A                  
  2.322   2.322   2.590   2.791   2.791   3.045   3.412   3.439
 72 A    73 A    74 A    75 A    76 A    77 A    78 A    79 A                  
  3.439   3.468   3.468   3.632   3.632   3.744   3.744   3.755
 80 A    81 A    82 A    83 A    84 A    85 A    86 A    87 A                  
  3.796   3.796   3.877   4.132   4.132   4.265   4.265   4.576
 88 A    89 A    90 A    91 A    92 A    93 A    94 A    95 A                  
  4.653   4.653   4.711   4.930   4.930   4.995   4.995   5.129
 96 A    97 A    98 A    99 A   100 A   101 A   102 A   103 A                  
  5.179   5.179   5.419   5.419   5.693   5.804   5.804   6.189
104 A   105 A   106 A   107 A   108 A   109 A   110 A   111 A                  
  6.826   6.826   7.447   8.272  15.652  15.652  16.112  17.612
112 A   113 A   114 A   115 A   116 A   117 A   118 A   119 A                  
 21.533  21.533  22.655  23.696  39.176  39.176  39.317  39.317
120 A   121 A   122 A   123 A   124 A   125 A   126 A   127 A                  
 39.746  41.436  41.436  41.613  41.613  41.964  81.237  81.237
128 A   129 A   130 A   131 A   132 A   133 A   134 A   135 A                  
 82.239  85.817 109.489 109.489 110.365 117.956
136 A   137 A   138 A   139 A   140 A   141 A                                  

 Occupation and symmetry of molecular orbitals

 Point group: C1 (1 irreducible representation).

                           A     All 
 -------------------------------------
 All molecular orbitals:
  - Alpha                  141   141 
  - Beta                   141   141 
 -------------------------------------
 Alpha orbitals:
  - Frozen occupied        0     0   
  - Active occupied        7     7   
  - Active virtual         134   134 
  - Frozen virtual         0     0   
 -------------------------------------
 Beta orbitals:
  - Frozen occupied        0     0   
  - Active occupied        7     7   
  - Active virtual         134   134 
  - Frozen virtual         0     0   
 -------------------------------------

 Import integrals:   CPU 0.00 s  wall 0.00 s

 Import integrals:   CPU 172.88 s  wall 37.03 s

 MP2 amplitudes:   CPU 1.47 s  wall 0.52 s

Running a double precision version
           CCSD T amplitudes will be solved using DIIS.

           Start     Size      MaxIter   EConv     TConv     
           3         7         100       1.00e-06  1.00e-04  
 ------------------------------------------------------------------------------
           Energy (a.u.)   Ediff      Tdiff       Comment
 ------------------------------------------------------------------------------
           -93.33295246                           
     1     -93.33016372   2.79e-03   5.50e-01     
     2     -93.34270579   1.25e-02   7.59e-02     
     3     -93.34213595   5.70e-04   3.00e-02     
     4     -93.34342220   1.29e-03   9.75e-03     Switched to DIIS steps.
     5     -93.34383790   4.16e-04   7.75e-03     
     6     -93.34385263   1.47e-05   1.23e-03     
     7     -93.34385539   2.77e-06   5.30e-04     
     8     -93.34385715   1.76e-06   1.39e-04     
     9     -93.34385733   1.80e-07   3.73e-05     
 ------------------------------------------------------------------------------
           -93.34385733                           CCSD T converged.

End of double precision

----------------------------------------
libpt (c) 2016-2018 Ilya Kaliman
Fast Coupled Cluster Triples Corrections
https://github.com/ilyak/libpt
----------------------------------------

 Starting (T) calculation...
 Using double precision libpt code
 (T) calculation completed in 29 sec
 (T) energy is -0.0190047792

 SCF energy                 = -92.89474924
 MP2 energy                 = -93.33295246
 CCSD correlation energy     =  -0.44910808
 CCSD total energy           = -93.34385733
 CCSD(T) correlation energy =  -0.01900478
 CCSD(T) total energy       = -93.36286211

 CCSD  T1^2 = 0.0055  T2^2 = 0.1260  Leading amplitudes:

 Amplitude    Orbitals with energies
 -0.0177       5 (A) A                   ->    16 (A) A                   
              -0.5209                          0.1911                     
  0.0177       5 (A) B                   ->    16 (A) B                   
              -0.5209                          0.1911                     
 -0.0176       6 (A) A                   ->    17 (A) A                   
              -0.5209                          0.1920                     
 -0.0176       6 (A) B                   ->    17 (A) B                   
              -0.5209                          0.1920                     

 Amplitude    Orbitals with energies
  0.0522       5 (A) A       5 (A) B     ->    16 (A) A      16 (A) B     
              -0.5209       -0.5209            0.1911        0.1911       
 -0.0522       5 (A) A       5 (A) B     ->    16 (A) B      16 (A) A     
              -0.5209       -0.5209            0.1911        0.1911       
 -0.0522       5 (A) B       5 (A) A     ->    16 (A) A      16 (A) B     
              -0.5209       -0.5209            0.1911        0.1911       
  0.0522       5 (A) B       5 (A) A     ->    16 (A) B      16 (A) A     
              -0.5209       -0.5209            0.1911        0.1911       

 CCSD calculation:   CPU 606.05 s  wall 105.68 s

 Total ccman2 time:   CPU 794.34 s  wall 151.60 s

 
 --------------------------------------------------------------
 
                    Orbital Energies (a.u.)
 --------------------------------------------------------------
 
 Alpha MOs
 -- Occupied --
-15.606 -11.300  -1.266  -0.880  -0.521  -0.521  -0.494
 -- Virtual --
  0.021   0.085   0.087   0.090   0.119   0.127   0.128   0.128
  0.191   0.192   0.246   0.300   0.312   0.313   0.313   0.313
  0.375   0.425   0.434   0.435   0.490   0.490   0.498   0.530
  0.530   0.567   0.717   0.759   0.760   0.932   0.932   0.935
  0.940   0.941   0.967   1.029   1.029   1.090   1.090   1.104
  1.104   1.123   1.231   1.267   1.267   1.277   1.300   1.300
  1.329   1.329   1.454   1.616   1.616   1.748   1.749   1.751
  1.751   1.946   2.047   2.166   2.166   2.174   2.174   2.252
  2.322   2.322   2.590   2.791   2.791   3.045   3.412   3.439
  3.439   3.468   3.468   3.632   3.632   3.744   3.744   3.755
  3.796   3.796   3.877   4.132   4.132   4.265   4.265   4.576
  4.653   4.653   4.711   4.930   4.930   4.995   4.995   5.129
  5.179   5.179   5.419   5.419   5.693   5.804   5.804   6.189
  6.826   6.826   7.447   8.272  15.652  15.652  16.112  17.612
 21.533  21.533  22.655  23.696  39.176  39.176  39.317  39.317
 39.746  41.436  41.436  41.613  41.613  41.964  81.237  81.237
 82.239  85.817 109.489 109.489 110.365 117.956
 
 Beta MOs
 -- Occupied --
-15.606 -11.300  -1.266  -0.880  -0.521  -0.521  -0.494
 -- Virtual --
  0.021   0.085   0.087   0.090   0.119   0.127   0.128   0.128
  0.191   0.192   0.246   0.300   0.312   0.313   0.313   0.313
  0.375   0.425   0.434   0.435   0.490   0.490   0.498   0.530
  0.530   0.567   0.717   0.759   0.760   0.932   0.932   0.935
  0.940   0.941   0.967   1.029   1.029   1.090   1.090   1.104
  1.104   1.123   1.231   1.267   1.267   1.277   1.300   1.300
  1.329   1.329   1.454   1.616   1.616   1.748   1.749   1.751
  1.751   1.946   2.047   2.166   2.166   2.174   2.174   2.252
  2.322   2.322   2.590   2.791   2.791   3.045   3.412   3.439
  3.439   3.468   3.468   3.632   3.632   3.744   3.744   3.755
  3.796   3.796   3.877   4.132   4.132   4.265   4.265   4.576
  4.653   4.653   4.711   4.930   4.930   4.995   4.995   5.129
  5.179   5.179   5.419   5.419   5.693   5.804   5.804   6.189
  6.826   6.826   7.447   8.272  15.652  15.652  16.112  17.612
 21.533  21.533  22.655  23.696  39.176  39.176  39.317  39.317
 39.746  41.436  41.436  41.613  41.613  41.964  81.237  81.237
 82.239  85.817 109.489 109.489 110.365 117.956
 --------------------------------------------------------------
 
          Ground-State Mulliken Net Atomic Charges

     Atom                 Charge (a.u.)    Spin (a.u.)
  --------------------------------------------------------
      1 C                     0.028920      -0.000000
      2 N                    -0.284861       0.000000
      3 H                     0.255941      -0.000000
  --------------------------------------------------------
  Sum of atomic charges =     0.000000
  Sum of spin   charges =     0.000000

 -----------------------------------------------------------------
                    Cartesian Multipole Moments
 -----------------------------------------------------------------
    Charge (ESU x 10^10)
                 0.0000
    Dipole Moment (Debye)
         X       0.0000      Y      -0.0000      Z       2.8313
       Tot       2.8313
    Quadrupole Moments (Debye-Ang)
        XX     -12.1891     XY       0.0000     YY     -12.1830
        XZ       0.0000     YZ       0.0000     ZZ     -10.2832
    Octopole Moments (Debye-Ang^2)
       XXX       0.0000    XXY      -0.0000    XYY       0.0000
       YYY      -0.0000    XXZ       1.3208    XYZ       0.0000
       YYZ       1.3184    XZZ      -0.0000    YZZ       0.0000
       ZZZ      14.6750
    Hexadecapole Moments (Debye-Ang^3)
      XXXX     -12.9492   XXXY       0.0000   XXYY      -4.3127
      XYYY       0.0000   YYYY     -12.9269   XXXZ      -0.0000
      XXYZ      -0.0000   XYYZ      -0.0000   YYYZ       0.0000
      XXZZ      -9.9037   XYZZ       0.0000   YYZZ      -9.8966
      XZZZ      -0.0000   YZZZ      -0.0000   ZZZZ     -42.1501
 -----------------------------------------------------------------
Archival summary:
1\1\n0035.mhg0\SP\ProcedureUnspecified\BasisUnspecified\111\yhljason\MonJul1303:04:232020MonJul1303:04:232020\0\\#,ProcedureUnspecified,BasisUnspecified,\\0,1\N\H,1,0.9862\C,1,1.1726,2,180\\HF=-92.8947492\\@

 Total job time:  167.07s(wall), 901.94s(cpu) 
 Mon Jul 13 03:04:23 2020

        *************************************************************
        *                                                           *
        *  Thank you very much for using Q-Chem.  Have a nice day.  *
        *                                                           *
        *************************************************************


 
User input: 3 of 7 
 
Q-Chem Developer Version!
                  Welcome to Q-Chem
     A Quantum Leap Into The Future Of Chemistry


 Q-Chem 5.1, Q-Chem, Inc., Pleasanton, CA (2018)

 Yihan Shao,  Zhengting Gan,  E. Epifanovsky,  A. T. B. Gilbert,  M. Wormit,  
 J. Kussmann,  A. W. Lange,  A. Behn,  Jia Deng,  Xintian Feng,  D. Ghosh,  
 M. Goldey,  P. R. Horn,  L. D. Jacobson,  I. Kaliman,  T. Kus,  A. Landau,  
 Jie Liu,  E. I. Proynov,  R. M. Richard,  R. P. Steele,  E. J. Sundstrom,  
 H. L. Woodcock III,  P. M. Zimmerman,  D. Zuev,  B. Albrecht,  E. Alguire,  
 S. A. Baeppler,  D. Barton,  Z. Benda,  Y. A. Bernard,  E. J. Berquist,  
 K. B. Bravaya,  H. Burton,  D. Casanova,  Chun-Min Chang,  Yunqing Chen,  
 A. Chien,  K. D. Closser,  M. P. Coons,  S. Coriani,  S. Dasgupta,  
 A. L. Dempwolff,  M. Diedenhofen,  Hainam Do,  R. G. Edgar,  Po-Tung Fang,  
 S. Faraji,  S. Fatehi,  Qingguo Feng,  K. D. Fenk,  J. Fosso-Tande,  
 Qinghui Ge,  A. Ghysels,  G. Gidofalvi,  J. Gomes,  J. Gonthier,  A. Gunina,  
 D. Hait,  M. W. D. Hanson-Heine,  P. H. P. Harbach,  A. W. Hauser,  
 J. E. Herr,  E. G. Hohenstein,  Z. C. Holden,  Kerwin Hui,  B. C. Huynh,  
 T.-C. Jagau,  Hyunjun Ji,  B. Kaduk,  K. Khistyaev,  Jaehoon Kim,  
 P. Klunzinger,  K. Koh,  D. Kosenkov,  L. Koulias,  T. Kowalczyk,  
 C. M. Krauter,  A. Kunitsa,  Ka Un Lao,  A. Laurent,  K. V. Lawler,  
 Joonho Lee,  D. Lefrancois,  S. Lehtola,  D. S. Levine,  Yi-Pei Li,  
 You-Sheng Lin,  Fenglai Liu,  E. Livshits,  A. Luenser,  P. Manohar,  
 E. Mansoor,  S. F. Manzer,  Shan-Ping Mao,  Yuezhi Mao,  N. Mardirossian,  
 A. V. Marenich,  T. Markovich,  L. A. Martinez-Martinez,  S. A. Maurer,  
 N. J. Mayhall,  S. C. McKenzie,  J.-M. Mewes,  A. F. Morrison,  
 J. W. Mullinax,  K. Nanda,  T. S. Nguyen-Beck,  R. Olivares-Amaya,  
 J. A. Parkhill,  T. M. Perrine,  F. Plasser,  P. Pokhilko,  S. Prager,  
 A. Prociuk,  E. Ramos,  D. R. Rehn,  F. Rob,  M. Schneider,  N. Sergueev,  
 S. M. Sharada,  S. Sharma,  D. W. Small,  T. Stauch,  T. Stein,  
 Yu-Chuan Su,  A. J. W. Thom,  A. Tkatchenko,  T. Tsuchimochi,  N. M. Tubman,  
 L. Vogt,  M. L. Vidal,  O. Vydrov,  M. A. Watson,  J. Wenzel,  
 M. de Wergifosse,  T. A. Wesolowski,  A. White,  J. Witte,  A. Yamada,  
 Jun Yang,  K. Yao,  S. Yeganeh,  S. R. Yost,  Zhi-Qiang You,  A. Zech,  
 Igor Ying Zhang,  Xing Zhang,  Yan Zhao,  Ying Zhu,  B. R. Brooks,  
 G. K. L. Chan,  C. J. Cramer,  M. S. Gordon,  W. J. Hehre,  A. Klamt,  
 M. W. Schmidt,  C. D. Sherrill,  D. G. Truhlar,  A. Aspuru-Guzik,  R. Baer,  
 A. T. Bell,  N. A. Besley,  Jeng-Da Chai,  A. E. DePrince, III,  
 R. A. DiStasio Jr.,  A. Dreuw,  B. D. Dunietz,  T. R. Furlani,  
 Chao-Ping Hsu,  Yousung Jung,  Jing Kong,  D. S. Lambrecht,  WanZhen Liang,  
 C. Ochsenfeld,  V. A. Rassolov,  L. V. Slipchenko,  J. E. Subotnik,  
 T. Van Voorhis,  J. M. Herbert,  A. I. Krylov,  P. M. W. Gill,  M. Head-Gordon

 Contributors to earlier versions of Q-Chem not listed above: 
 R. D. Adamson,  B. Austin,  J. Baker,  G. J. O. Beran,  K. Brandhorst,  
 S. T. Brown,  E. F. C. Byrd,  A. K. Chakraborty,  C.-L. Cheng,  
 Siu Hung Chien,  D. M. Chipman,  D. L. Crittenden,  H. Dachsel,  
 R. J. Doerksen,  A. D. Dutoi,  L. Fusti-Molnar,  W. A. Goddard III,  
 A. Golubeva-Zadorozhnaya,  S. R. Gwaltney,  G. Hawkins,  A. Heyden,  
 S. Hirata,  G. Kedziora,  F. J. Keil,  C. Kelley,  Jihan Kim,  R. A. King,  
 R. Z. Khaliullin,  P. P. Korambath,  W. Kurlancheek,  A. M. Lee,  M. S. Lee,  
 S. V. Levchenko,  Ching Yeh Lin,  D. Liotard,  R. C. Lochan,  I. Lotan,  
 P. E. Maslen,  N. Nair,  D. P. O'Neill,  D. Neuhauser,  E. Neuscamman,  
 C. M. Oana,  R. Olson,  B. Peters,  R. Peverati,  P. A. Pieniazek,  
 Y. M. Rhee,  J. Ritchie,  M. A. Rohrdanz,  E. Rosta,  N. J. Russ,  
 H. F. Schaefer III,  N. E. Schultz,  N. Shenvi,  A. C. Simmonett,  A. Sodt,  
 D. Stuck,  K. S. Thanthiriwatte,  V. Vanovschi,  Tao Wang,  A. Warshel,  
 C. F. Williams,  Q. Wu,  X. Xu,  W. Zhang

 Please cite Q-Chem as follows:
 Y. Shao et al., Mol. Phys. 113, 184-215 (2015)
 DOI: 10.1080/00268976.2014.952696

 Q-Chem 5.1.1 for Intel X86 EM64T Linux

 Parts of Q-Chem use Armadillo 8.300.2 (Tropical Shenanigans).
 http://arma.sourceforge.net/

 Q-Chem begins on Mon Jul 13 03:04:23 2020  

Host: n0035.mhg0
0

     Scratch files written to /local/scratch/users/yhljason/HNC_ccsdT_aug-cc-pcVTZ.inp20200713023356//
The previous job contains 0 fragments, simply inherited here
Input Ideriv = 0
Curr. Ideriv = -1
Max.  Ideriv = 0

Checking the input file for inconsistencies... 	...done.

--------------------------------------------------------------
User input:
--------------------------------------------------------------
$molecule
read
$end

$rem

jobtype sp
method CCSD(T)
xc_grid 000099000590
basis aug-cc-pcVTZ
max_scf_cycles 200
thresh 14
scf_convergence 8
mem_total 128000
cc_memory 96000
cc_backend xm
mem_static 1500
symmetry false
sym_ignore true
scf_guess read
unrestricted true
scf_algorithm gdm
n_frozen_core 0
$end

$multipole_field
XX -0.0001
$end


--------------------------------------------------------------
 ----------------------------------------------------------------
             Standard Nuclear Orientation (Angstroms)
    I     Atom           X                Y                Z
 ----------------------------------------------------------------
    1      C       0.0000000000     0.0000000000    -0.7405000000
    2      N       0.0000000000     0.0000000000     0.4321000000
    3      H       0.0000000000     0.0000000000     1.4183000000
 ----------------------------------------------------------------
 Nuclear Repulsion Energy =    24.1808131194 hartrees
 There are        7 alpha and        7 beta electrons
 Requested basis set is aug-cc-pCVTZ
 There are 47 shells and 141 basis functions
 Total memory of 128000MB is distributed as follows: 
   QALLOC including MEM_STATIC uses 32000MB
   MEM_STATIC is set to 1500MB
   CCMAN JOB total memory use is  96000MB
 Warning: actual memory use might exceed 128000MB

 Total QAlloc Memory Limit  32000 MB
 Mega-Array Size      1467 MB
 MEM_STATIC part      1500 MB

                       Distance Matrix (Angstroms)
             C (  1)   N (  2)
   N (  2)  1.172600
   H (  3)  2.158800  0.986200
 
 Applying Cartesian multipole field
    Component          Value
    ---------          -----
     (2,0,0)       -1.00000E-04
 A cutoff of  1.0D-14 yielded   1122 shell pairs
 There are     10186 function pairs (     13681 Cartesian)
 
 -------------------------------------------------------
 OpenMP Integral Computing Module                       
 Release: version 1.0, May 2013, Q-Chem Inc. Pittsburgh 
 -------------------------------------------------------
 Integral Job Info:
 Integral job number is                      11
 Integral operator is                         1
 short-range coefficients                     0
 long-range coefficients              100000000
 Omega coefficients                           0
 if combine SR and LR in K                    0
 Integral screening is                        0
 Integral computing path is                   2
 max size of driver memory is            800000
 size of driver memory is                776718
 size of scratch memory is              6691272
 max col of scratch BK array              10000
 max len of scratch array in speh3          662
 max len of scratch index in speh4           32
 max int batch size is                      520
 min int batch size is                       52
 fixed nKL is                                52
 max L of basis functions is                  3
 order of int derivative is                   0
 number of shells is                         47
 number of basis is                         163
 number of cartesian basis is               163
 number of contracted shell pairs          1122
 number of primitive shell pairs           3130
 maxK2 (contraction) of shell pair           64
 max number of K2 of shell pair               1
 max number of CS2 of shell pair            169
 max number of PS2 of shell pair            384
 mem total for path MDJ                  555284
 -------------------------------------------------------
 Smallest overlap matrix eigenvalue = 7.73E-05
 Guess MOs from SCF MO coefficient file

 -----------------------------------------------------------------------
  General SCF calculation program by
  Eric Jon Sundstrom, Paul Horn, Yuezhi Mao, Dmitri Zuev, Alec White,
  David Stuck, Shaama M.S., Shane Yost, Joonho Lee, David Small,
  Daniel Levine, Susi Lehtola, Hugh Burton, Evgeny Epifanovsky
 -----------------------------------------------------------------------
 Hartree-Fock
 using 8 threads for integral computing
 -------------------------------------------------------
 OpenMP Integral computing Module                
 Release: version 2.0, May 2017, Q-Chem Inc. Pleasanton 
 -------------------------------------------------------
 A unrestricted SCF calculation will be
 performed using GDM
 SCF converges when RMS gradient is below 1.0e-08
 ---------------------------------------
  Cycle       Energy        RMS Gradient
 ---------------------------------------
    1     -92.8929367865      3.70e-04   Normal BFGS step
    2     -92.8929378651      9.45e-05   Normal BFGS step
    3     -92.8929379685      5.08e-05   Normal BFGS step
    4     -92.8929379770      2.63e-05   Normal BFGS step
    5     -92.8929379790      6.57e-06   Normal BFGS step
    6     -92.8929379793      3.93e-06   Normal BFGS step
    7     -92.8929379794      7.87e-07   Normal BFGS step
    8     -92.8929379794      2.14e-07   Normal BFGS step
    9     -92.8929379794      3.00e-08   Normal BFGS step
   10     -92.8929379794      6.63e-09  Convergence criterion met
 ---------------------------------------
 SCF time:   CPU 101.21s  wall 13.00s 
<S^2> =          0.000000000
 SCF   energy in the final basis set =      -92.8929379794
 Total energy in the final basis set =      -92.8929379794


 ------------------------------------------------------------------------------

   CCMAN2: suite of methods based on coupled cluster
           and equation of motion theories.

   Components:
   * libvmm-1.3-trunk
     by Evgeny Epifanovsky, Ilya Kaliman.
   * libtensor-2.5-trunk
     by Evgeny Epifanovsky, Michael Wormit, Dmitry Zuev, Sam Manzer, 
        Ilya Kaliman.
   * libcc-2.5-trunk
     by Evgeny Epifanovsky, Arik Landau, Tomasz Kus, Kirill Khistyaev, 
        Dmitry Zuev, Prashant Manohar, Xintian Feng, Anna Krylov, 
        Matthew Goldey, Alec White, Thomas Jagau, Kaushik Nanda, 
        Anastasia Gunina, Alexander Kunitsa, Joonho Lee.

   CCMAN original authors:
   Anna I. Krylov, C. David Sherrill, Steven R. Gwaltney,
   Edward F. C. Byrd (2000)
   Sergey V. Levchenko, Lyudmila V. Slipchenko, Tao Wang,
   Ana-Maria C. Cristian (2003)
   Piotr A. Pieniazek, C. Melania Oana, Evgeny Epifanovsky (2007)
   Prashant Manohar (2009)

 ------------------------------------------------------------------------------


 Calculation will run on 8 cores using libxm for tensor contractions

 ------------------------------------------------------------------------------
Libxm Tensor Library
Copyright (c) 2014-2018 Ilya Kaliman
https://github.com/ilyak/libxm
Reference: https://dx.doi.org/10.1002/jcc.24713
 ------------------------------------------------------------------------------

 
 Alpha MOs, Unrestricted
 -- Occupied --                  
-15.605 -11.299  -1.266  -0.880  -0.520  -0.520  -0.493
  1 A     2 A     3 A     4 A     5 A     6 A     7 A                          
 -- Virtual --                   
  0.025   0.089   0.090   0.093   0.121   0.130   0.131   0.131
  8 A     9 A    10 A    11 A    12 A    13 A    14 A    15 A                  
  0.193   0.194   0.249   0.302   0.313   0.314   0.314   0.314
 16 A    17 A    18 A    19 A    20 A    21 A    22 A    23 A                  
  0.376   0.426   0.436   0.437   0.491   0.492   0.500   0.531
 24 A    25 A    26 A    27 A    28 A    29 A    30 A    31 A                  
  0.531   0.568   0.718   0.760   0.761   0.933   0.933   0.936
 32 A    33 A    34 A    35 A    36 A    37 A    38 A    39 A                  
  0.941   0.942   0.968   1.030   1.030   1.091   1.091   1.105
 40 A    41 A    42 A    43 A    44 A    45 A    46 A    47 A                  
  1.105   1.124   1.232   1.268   1.268   1.278   1.301   1.301
 48 A    49 A    50 A    51 A    52 A    53 A    54 A    55 A                  
  1.330   1.330   1.454   1.616   1.616   1.749   1.749   1.751
 56 A    57 A    58 A    59 A    60 A    61 A    62 A    63 A                  
  1.751   1.947   2.047   2.167   2.167   2.175   2.175   2.253
 64 A    65 A    66 A    67 A    68 A    69 A    70 A    71 A                  
  2.323   2.323   2.591   2.791   2.791   3.046   3.413   3.440
 72 A    73 A    74 A    75 A    76 A    77 A    78 A    79 A                  
  3.440   3.469   3.469   3.632   3.632   3.745   3.745   3.755
 80 A    81 A    82 A    83 A    84 A    85 A    86 A    87 A                  
  3.797   3.797   3.877   4.132   4.132   4.265   4.265   4.577
 88 A    89 A    90 A    91 A    92 A    93 A    94 A    95 A                  
  4.654   4.654   4.712   4.930   4.930   4.995   4.996   5.130
 96 A    97 A    98 A    99 A   100 A   101 A   102 A   103 A                  
  5.179   5.179   5.419   5.419   5.693   5.805   5.805   6.189
104 A   105 A   106 A   107 A   108 A   109 A   110 A   111 A                  
  6.827   6.827   7.447   8.272  15.652  15.652  16.112  17.612
112 A   113 A   114 A   115 A   116 A   117 A   118 A   119 A                  
 21.533  21.533  22.655  23.696  39.176  39.176  39.318  39.318
120 A   121 A   122 A   123 A   124 A   125 A   126 A   127 A                  
 39.746  41.437  41.437  41.614  41.614  41.964  81.237  81.237
128 A   129 A   130 A   131 A   132 A   133 A   134 A   135 A                  
 82.240  85.818 109.490 109.490 110.365 117.957
136 A   137 A   138 A   139 A   140 A   141 A                                  
 
 Beta MOs, Unrestricted
 -- Occupied --                  
-15.605 -11.299  -1.266  -0.880  -0.520  -0.520  -0.493
  1 A     2 A     3 A     4 A     5 A     6 A     7 A                          
 -- Virtual --                   
  0.025   0.089   0.090   0.093   0.121   0.130   0.131   0.131
  8 A     9 A    10 A    11 A    12 A    13 A    14 A    15 A                  
  0.193   0.194   0.249   0.302   0.313   0.314   0.314   0.314
 16 A    17 A    18 A    19 A    20 A    21 A    22 A    23 A                  
  0.376   0.426   0.436   0.437   0.491   0.492   0.500   0.531
 24 A    25 A    26 A    27 A    28 A    29 A    30 A    31 A                  
  0.531   0.568   0.718   0.760   0.761   0.933   0.933   0.936
 32 A    33 A    34 A    35 A    36 A    37 A    38 A    39 A                  
  0.941   0.942   0.968   1.030   1.030   1.091   1.091   1.105
 40 A    41 A    42 A    43 A    44 A    45 A    46 A    47 A                  
  1.105   1.124   1.232   1.268   1.268   1.278   1.301   1.301
 48 A    49 A    50 A    51 A    52 A    53 A    54 A    55 A                  
  1.330   1.330   1.454   1.616   1.616   1.749   1.749   1.751
 56 A    57 A    58 A    59 A    60 A    61 A    62 A    63 A                  
  1.751   1.947   2.047   2.167   2.167   2.175   2.175   2.253
 64 A    65 A    66 A    67 A    68 A    69 A    70 A    71 A                  
  2.323   2.323   2.591   2.791   2.791   3.046   3.413   3.440
 72 A    73 A    74 A    75 A    76 A    77 A    78 A    79 A                  
  3.440   3.469   3.469   3.632   3.632   3.745   3.745   3.755
 80 A    81 A    82 A    83 A    84 A    85 A    86 A    87 A                  
  3.797   3.797   3.877   4.132   4.132   4.265   4.265   4.577
 88 A    89 A    90 A    91 A    92 A    93 A    94 A    95 A                  
  4.654   4.654   4.712   4.930   4.930   4.995   4.996   5.130
 96 A    97 A    98 A    99 A   100 A   101 A   102 A   103 A                  
  5.179   5.179   5.419   5.419   5.693   5.805   5.805   6.189
104 A   105 A   106 A   107 A   108 A   109 A   110 A   111 A                  
  6.827   6.827   7.447   8.272  15.652  15.652  16.112  17.612
112 A   113 A   114 A   115 A   116 A   117 A   118 A   119 A                  
 21.533  21.533  22.655  23.696  39.176  39.176  39.318  39.318
120 A   121 A   122 A   123 A   124 A   125 A   126 A   127 A                  
 39.746  41.437  41.437  41.614  41.614  41.964  81.237  81.237
128 A   129 A   130 A   131 A   132 A   133 A   134 A   135 A                  
 82.240  85.818 109.490 109.490 110.365 117.957
136 A   137 A   138 A   139 A   140 A   141 A                                  

 Occupation and symmetry of molecular orbitals

 Point group: C1 (1 irreducible representation).

                           A     All 
 -------------------------------------
 All molecular orbitals:
  - Alpha                  141   141 
  - Beta                   141   141 
 -------------------------------------
 Alpha orbitals:
  - Frozen occupied        0     0   
  - Active occupied        7     7   
  - Active virtual         134   134 
  - Frozen virtual         0     0   
 -------------------------------------
 Beta orbitals:
  - Frozen occupied        0     0   
  - Active occupied        7     7   
  - Active virtual         134   134 
  - Frozen virtual         0     0   
 -------------------------------------

 Import integrals:   CPU 0.00 s  wall 0.00 s

 Import integrals:   CPU 171.71 s  wall 37.86 s

 MP2 amplitudes:   CPU 1.62 s  wall 0.59 s

Running a double precision version
           CCSD T amplitudes will be solved using DIIS.

           Start     Size      MaxIter   EConv     TConv     
           3         7         100       1.00e-06  1.00e-04  
 ------------------------------------------------------------------------------
           Energy (a.u.)   Ediff      Tdiff       Comment
 ------------------------------------------------------------------------------
           -93.33114219                           
     1     -93.32836207   2.78e-03   5.50e-01     
     2     -93.34090528   1.25e-02   7.59e-02     
     3     -93.34033514   5.70e-04   3.00e-02     
     4     -93.34162172   1.29e-03   9.75e-03     Switched to DIIS steps.
     5     -93.34203760   4.16e-04   7.76e-03     
     6     -93.34205233   1.47e-05   1.23e-03     
     7     -93.34205509   2.76e-06   5.29e-04     
     8     -93.34205685   1.76e-06   1.38e-04     
     9     -93.34205703   1.80e-07   3.72e-05     
 ------------------------------------------------------------------------------
           -93.34205703                           CCSD T converged.

End of double precision

----------------------------------------
libpt (c) 2016-2018 Ilya Kaliman
Fast Coupled Cluster Triples Corrections
https://github.com/ilyak/libpt
----------------------------------------

 Starting (T) calculation...
 Using double precision libpt code
 (T) calculation completed in 31 sec
 (T) energy is -0.0190022556

 SCF energy                 = -92.89293798
 MP2 energy                 = -93.33114219
 CCSD correlation energy     =  -0.44911905
 CCSD total energy           = -93.34205703
 CCSD(T) correlation energy =  -0.01900226
 CCSD(T) total energy       = -93.36105928

 CCSD  T1^2 = 0.0055  T2^2 = 0.1260  Leading amplitudes:

 Amplitude    Orbitals with energies
  0.0174       5 (A) B                   ->    16 (A) B                   
              -0.5205                          0.1930                     
 -0.0174       5 (A) A                   ->    16 (A) A                   
              -0.5205                          0.1930                     
 -0.0173       6 (A) B                   ->    17 (A) B                   
              -0.5204                          0.1940                     
 -0.0173       6 (A) A                   ->    17 (A) A                   
              -0.5204                          0.1940                     

 Amplitude    Orbitals with energies
  0.0514       5 (A) A       5 (A) B     ->    16 (A) A      16 (A) B     
              -0.5205       -0.5205            0.1930        0.1930       
 -0.0514       5 (A) A       5 (A) B     ->    16 (A) B      16 (A) A     
              -0.5205       -0.5205            0.1930        0.1930       
 -0.0514       5 (A) B       5 (A) A     ->    16 (A) A      16 (A) B     
              -0.5205       -0.5205            0.1930        0.1930       
  0.0514       5 (A) B       5 (A) A     ->    16 (A) B      16 (A) A     
              -0.5205       -0.5205            0.1930        0.1930       

 CCSD calculation:   CPU 608.73 s  wall 111.26 s

 Total ccman2 time:   CPU 796.99 s  wall 158.52 s

 
 --------------------------------------------------------------
 
                    Orbital Energies (a.u.)
 --------------------------------------------------------------
 
 Alpha MOs
 -- Occupied --
-15.605 -11.299  -1.266  -0.880  -0.520  -0.520  -0.493
 -- Virtual --
  0.025   0.089   0.090   0.093   0.121   0.130   0.131   0.131
  0.193   0.194   0.249   0.302   0.313   0.314   0.314   0.314
  0.376   0.426   0.436   0.437   0.491   0.492   0.500   0.531
  0.531   0.568   0.718   0.760   0.761   0.933   0.933   0.936
  0.941   0.942   0.968   1.030   1.030   1.091   1.091   1.105
  1.105   1.124   1.232   1.268   1.268   1.278   1.301   1.301
  1.330   1.330   1.454   1.616   1.616   1.749   1.749   1.751
  1.751   1.947   2.047   2.167   2.167   2.175   2.175   2.253
  2.323   2.323   2.591   2.791   2.791   3.046   3.413   3.440
  3.440   3.469   3.469   3.632   3.632   3.745   3.745   3.755
  3.797   3.797   3.877   4.132   4.132   4.265   4.265   4.577
  4.654   4.654   4.712   4.930   4.930   4.995   4.996   5.130
  5.179   5.179   5.419   5.419   5.693   5.805   5.805   6.189
  6.827   6.827   7.447   8.272  15.652  15.652  16.112  17.612
 21.533  21.533  22.655  23.696  39.176  39.176  39.318  39.318
 39.746  41.437  41.437  41.614  41.614  41.964  81.237  81.237
 82.240  85.818 109.490 109.490 110.365 117.957
 
 Beta MOs
 -- Occupied --
-15.605 -11.299  -1.266  -0.880  -0.520  -0.520  -0.493
 -- Virtual --
  0.025   0.089   0.090   0.093   0.121   0.130   0.131   0.131
  0.193   0.194   0.249   0.302   0.313   0.314   0.314   0.314
  0.376   0.426   0.436   0.437   0.491   0.492   0.500   0.531
  0.531   0.568   0.718   0.760   0.761   0.933   0.933   0.936
  0.941   0.942   0.968   1.030   1.030   1.091   1.091   1.105
  1.105   1.124   1.232   1.268   1.268   1.278   1.301   1.301
  1.330   1.330   1.454   1.616   1.616   1.749   1.749   1.751
  1.751   1.947   2.047   2.167   2.167   2.175   2.175   2.253
  2.323   2.323   2.591   2.791   2.791   3.046   3.413   3.440
  3.440   3.469   3.469   3.632   3.632   3.745   3.745   3.755
  3.797   3.797   3.877   4.132   4.132   4.265   4.265   4.577
  4.654   4.654   4.712   4.930   4.930   4.995   4.996   5.130
  5.179   5.179   5.419   5.419   5.693   5.805   5.805   6.189
  6.827   6.827   7.447   8.272  15.652  15.652  16.112  17.612
 21.533  21.533  22.655  23.696  39.176  39.176  39.318  39.318
 39.746  41.437  41.437  41.614  41.614  41.964  81.237  81.237
 82.240  85.818 109.490 109.490 110.365 117.957
 --------------------------------------------------------------
 
          Ground-State Mulliken Net Atomic Charges

     Atom                 Charge (a.u.)    Spin (a.u.)
  --------------------------------------------------------
      1 C                     0.030766       0.000000
      2 N                    -0.286259      -0.000000
      3 H                     0.255492      -0.000000
  --------------------------------------------------------
  Sum of atomic charges =     0.000000
  Sum of spin   charges =     0.000000

 -----------------------------------------------------------------
                    Cartesian Multipole Moments
 -----------------------------------------------------------------
    Charge (ESU x 10^10)
                 0.0000
    Dipole Moment (Debye)
         X       0.0000      Y      -0.0000      Z       2.8303
       Tot       2.8303
    Quadrupole Moments (Debye-Ang)
        XX     -12.1731     XY       0.0000     YY     -12.1792
        XZ       0.0000     YZ       0.0000     ZZ     -10.2824
    Octopole Moments (Debye-Ang^2)
       XXX       0.0000    XXY       0.0000    XYY       0.0000
       YYY       0.0000    XXZ       1.3154    XYZ       0.0000
       YYZ       1.3178    XZZ      -0.0000    YZZ       0.0000
       ZZZ      14.6713
    Hexadecapole Moments (Debye-Ang^3)
      XXXX     -12.8890   XXXY       0.0000   XXYY      -4.3000
      XYYY       0.0000   YYYY     -12.9111   XXXZ       0.0000
      XXYZ       0.0000   XYYZ       0.0000   YYYZ       0.0000
      XXZZ      -9.8841   XYZZ       0.0000   YYZZ      -9.8912
      XZZZ      -0.0000   YZZZ      -0.0000   ZZZZ     -42.1403
 -----------------------------------------------------------------
Archival summary:
1\1\n0035.mhg0\SP\ProcedureUnspecified\BasisUnspecified\111\yhljason\MonJul1303:07:172020MonJul1303:07:172020\0\\#,ProcedureUnspecified,BasisUnspecified,\\0,1\N\H,1,0.9862\C,1,1.1726,2,180\\HF=-92.892938\\@

 Total job time:  174.05s(wall), 905.02s(cpu) 
 Mon Jul 13 03:07:17 2020

        *************************************************************
        *                                                           *
        *  Thank you very much for using Q-Chem.  Have a nice day.  *
        *                                                           *
        *************************************************************


 
User input: 4 of 7 
 
Q-Chem Developer Version!
                  Welcome to Q-Chem
     A Quantum Leap Into The Future Of Chemistry


 Q-Chem 5.1, Q-Chem, Inc., Pleasanton, CA (2018)

 Yihan Shao,  Zhengting Gan,  E. Epifanovsky,  A. T. B. Gilbert,  M. Wormit,  
[...]
 
 Applying Cartesian multipole field
    Component          Value
    ---------          -----
     (0,0,2)       -1.00000E-04
 Nucleus-field energy     =    -0.0023599701 hartrees
 A cutoff of  1.0D-14 yielded   1122 shell pairs
 There are     10186 function pairs (     13681 Cartesian)
 
 -------------------------------------------------------
 OpenMP Integral Computing Module                       
 Release: version 1.0, May 2013, Q-Chem Inc. Pittsburgh 
 -------------------------------------------------------
 Integral Job Info:
 Integral job number is                      11
 Integral operator is                         1
 short-range coefficients                     0
 long-range coefficients              100000000
 Omega coefficients                           0
 if combine SR and LR in K                    0
 Integral screening is                        0
 Integral computing path is                   2
 max size of driver memory is            800000
 size of driver memory is                776718
 size of scratch memory is              6691272
 max col of scratch BK array              10000
 max len of scratch array in speh3          662
 max len of scratch index in speh4           32
 max int batch size is                      520
 min int batch size is                       52
 fixed nKL is                                52
 max L of basis functions is                  3
 order of int derivative is                   0
 number of shells is                         47
 number of basis is                         163
 number of cartesian basis is               163
 number of contracted shell pairs          1122
 number of primitive shell pairs           3130
 maxK2 (contraction) of shell pair           64
 max number of K2 of shell pair               1
 max number of CS2 of shell pair            169
 max number of PS2 of shell pair            384
 mem total for path MDJ                  555284
 -------------------------------------------------------
 Smallest overlap matrix eigenvalue = 7.73E-05
 Guess MOs from SCF MO coefficient file

 -----------------------------------------------------------------------
  General SCF calculation program by
  Eric Jon Sundstrom, Paul Horn, Yuezhi Mao, Dmitri Zuev, Alec White,
  David Stuck, Shaama M.S., Shane Yost, Joonho Lee, David Small,
  Daniel Levine, Susi Lehtola, Hugh Burton, Evgeny Epifanovsky
 -----------------------------------------------------------------------
 Hartree-Fock
 using 8 threads for integral computing
 -------------------------------------------------------
 OpenMP Integral computing Module                
 Release: version 2.0, May 2017, Q-Chem Inc. Pleasanton 
 -------------------------------------------------------
 A unrestricted SCF calculation will be
 performed using GDM
 SCF converges when RMS gradient is below 1.0e-08
 ---------------------------------------
  Cycle       Energy        RMS Gradient
 ---------------------------------------
    1     -92.8930761519      6.68e-04   Normal BFGS step
    2     -92.8930793523      1.69e-04   Normal BFGS step
    3     -92.8930796707      5.97e-05   Normal BFGS step
    4     -92.8930796937      3.17e-05   Normal BFGS step
    5     -92.8930796984      2.47e-06   Normal BFGS step
    6     -92.8930796985      6.41e-07   Normal BFGS step
    7     -92.8930796985      8.83e-08   Normal BFGS step
    8     -92.8930796985      2.26e-08   Normal BFGS step
    9     -92.8930796985      2.69e-09  Convergence criterion met
 ---------------------------------------
 SCF time:   CPU 89.00s  wall 11.00s 
<S^2> =          0.000000000
 SCF   energy in the final basis set =      -92.8930796985
 Total energy in the final basis set =      -92.8930796985


 ------------------------------------------------------------------------------

   CCMAN2: suite of methods based on coupled cluster
           and equation of motion theories.

   Components:
   * libvmm-1.3-trunk
     by Evgeny Epifanovsky, Ilya Kaliman.
   * libtensor-2.5-trunk
     by Evgeny Epifanovsky, Michael Wormit, Dmitry Zuev, Sam Manzer, 
        Ilya Kaliman.
   * libcc-2.5-trunk
     by Evgeny Epifanovsky, Arik Landau, Tomasz Kus, Kirill Khistyaev, 
        Dmitry Zuev, Prashant Manohar, Xintian Feng, Anna Krylov, 
        Matthew Goldey, Alec White, Thomas Jagau, Kaushik Nanda, 
        Anastasia Gunina, Alexander Kunitsa, Joonho Lee.

   CCMAN original authors:
   Anna I. Krylov, C. David Sherrill, Steven R. Gwaltney,
   Edward F. C. Byrd (2000)
   Sergey V. Levchenko, Lyudmila V. Slipchenko, Tao Wang,
   Ana-Maria C. Cristian (2003)
   Piotr A. Pieniazek, C. Melania Oana, Evgeny Epifanovsky (2007)
   Prashant Manohar (2009)

 ------------------------------------------------------------------------------


 Calculation will run on 8 cores using libxm for tensor contractions

 ------------------------------------------------------------------------------
Libxm Tensor Library
Copyright (c) 2014-2018 Ilya Kaliman
https://github.com/ilyak/libxm
Reference: https://dx.doi.org/10.1002/jcc.24713
 ------------------------------------------------------------------------------

 
 Alpha MOs, Unrestricted
 -- Occupied --                  
-15.605 -11.299  -1.265  -0.880  -0.520  -0.520  -0.493
  1 A     2 A     3 A     4 A     5 A     6 A     7 A                          
 -- Virtual --                   
  0.027   0.089   0.089   0.096   0.122   0.130   0.130   0.133
  8 A     9 A    10 A    11 A    12 A    13 A    14 A    15 A                  
  0.194   0.194   0.249   0.303   0.314   0.314   0.315   0.315
 16 A    17 A    18 A    19 A    20 A    21 A    22 A    23 A                  
  0.378   0.428   0.437   0.437   0.492   0.492   0.500   0.531
 24 A    25 A    26 A    27 A    28 A    29 A    30 A    31 A                  
  0.531   0.569   0.719   0.761   0.761   0.934   0.934   0.937
 32 A    33 A    34 A    35 A    36 A    37 A    38 A    39 A                  
  0.942   0.942   0.969   1.031   1.031   1.091   1.091   1.105
 40 A    41 A    42 A    43 A    44 A    45 A    46 A    47 A                  
  1.105   1.124   1.233   1.268   1.268   1.278   1.301   1.301
 48 A    49 A    50 A    51 A    52 A    53 A    54 A    55 A                  
  1.331   1.331   1.455   1.616   1.616   1.750   1.750   1.752
 56 A    57 A    58 A    59 A    60 A    61 A    62 A    63 A                  
  1.752   1.947   2.048   2.167   2.167   2.175   2.175   2.253
 64 A    65 A    66 A    67 A    68 A    69 A    70 A    71 A                  
  2.323   2.323   2.591   2.792   2.792   3.046   3.413   3.440
 72 A    73 A    74 A    75 A    76 A    77 A    78 A    79 A                  
  3.440   3.469   3.469   3.632   3.632   3.745   3.745   3.756
 80 A    81 A    82 A    83 A    84 A    85 A    86 A    87 A                  
  3.797   3.797   3.878   4.133   4.133   4.266   4.266   4.577
 88 A    89 A    90 A    91 A    92 A    93 A    94 A    95 A                  
  4.654   4.654   4.712   4.930   4.930   4.996   4.996   5.130
 96 A    97 A    98 A    99 A   100 A   101 A   102 A   103 A                  
  5.180   5.180   5.420   5.420   5.694   5.805   5.805   6.189
104 A   105 A   106 A   107 A   108 A   109 A   110 A   111 A                  
  6.827   6.827   7.447   8.273  15.652  15.652  16.113  17.612
112 A   113 A   114 A   115 A   116 A   117 A   118 A   119 A                  
 21.533  21.533  22.655  23.696  39.176  39.176  39.318  39.318
120 A   121 A   122 A   123 A   124 A   125 A   126 A   127 A                  
 39.747  41.437  41.437  41.614  41.614  41.965  81.237  81.237
128 A   129 A   130 A   131 A   132 A   133 A   134 A   135 A                  
 82.240  85.818 109.490 109.490 110.366 117.957
136 A   137 A   138 A   139 A   140 A   141 A                                  
 
 Beta MOs, Unrestricted
 -- Occupied --                  
-15.605 -11.299  -1.265  -0.880  -0.520  -0.520  -0.493
  1 A     2 A     3 A     4 A     5 A     6 A     7 A                          
 -- Virtual --                   
  0.027   0.089   0.089   0.096   0.122   0.130   0.130   0.133
  8 A     9 A    10 A    11 A    12 A    13 A    14 A    15 A                  
  0.194   0.194   0.249   0.303   0.314   0.314   0.315   0.315
 16 A    17 A    18 A    19 A    20 A    21 A    22 A    23 A                  
  0.378   0.428   0.437   0.437   0.492   0.492   0.500   0.531
 24 A    25 A    26 A    27 A    28 A    29 A    30 A    31 A                  
  0.531   0.569   0.719   0.761   0.761   0.934   0.934   0.937
 32 A    33 A    34 A    35 A    36 A    37 A    38 A    39 A                  
  0.942   0.942   0.969   1.031   1.031   1.091   1.091   1.105
 40 A    41 A    42 A    43 A    44 A    45 A    46 A    47 A                  
  1.105   1.124   1.233   1.268   1.268   1.278   1.301   1.301
 48 A    49 A    50 A    51 A    52 A    53 A    54 A    55 A                  
  1.331   1.331   1.455   1.616   1.616   1.750   1.750   1.752
 56 A    57 A    58 A    59 A    60 A    61 A    62 A    63 A                  
  1.752   1.947   2.048   2.167   2.167   2.175   2.175   2.253
 64 A    65 A    66 A    67 A    68 A    69 A    70 A    71 A                  
  2.323   2.323   2.591   2.792   2.792   3.046   3.413   3.440
 72 A    73 A    74 A    75 A    76 A    77 A    78 A    79 A                  
  3.440   3.469   3.469   3.632   3.632   3.745   3.745   3.756
 80 A    81 A    82 A    83 A    84 A    85 A    86 A    87 A                  
  3.797   3.797   3.878   4.133   4.133   4.266   4.266   4.577
 88 A    89 A    90 A    91 A    92 A    93 A    94 A    95 A                  
  4.654   4.654   4.712   4.930   4.930   4.996   4.996   5.130
 96 A    97 A    98 A    99 A   100 A   101 A   102 A   103 A                  
  5.180   5.180   5.420   5.420   5.694   5.805   5.805   6.189
104 A   105 A   106 A   107 A   108 A   109 A   110 A   111 A                  
  6.827   6.827   7.447   8.273  15.652  15.652  16.113  17.612
112 A   113 A   114 A   115 A   116 A   117 A   118 A   119 A                  
 21.533  21.533  22.655  23.696  39.176  39.176  39.318  39.318
120 A   121 A   122 A   123 A   124 A   125 A   126 A   127 A                  
 39.747  41.437  41.437  41.614  41.614  41.965  81.237  81.237
128 A   129 A   130 A   131 A   132 A   133 A   134 A   135 A                  
 82.240  85.818 109.490 109.490 110.366 117.957
136 A   137 A   138 A   139 A   140 A   141 A                                  

 Occupation and symmetry of molecular orbitals

 Point group: C1 (1 irreducible representation).

                           A     All 
 -------------------------------------
 All molecular orbitals:
  - Alpha                  141   141 
  - Beta                   141   141 
 -------------------------------------
 Alpha orbitals:
  - Frozen occupied        0     0   
  - Active occupied        7     7   
  - Active virtual         134   134 
  - Frozen virtual         0     0   
 -------------------------------------
 Beta orbitals:
  - Frozen occupied        0     0   
  - Active occupied        7     7   
  - Active virtual         134   134 
  - Frozen virtual         0     0   
 -------------------------------------

 Import integrals:   CPU 0.00 s  wall 0.00 s

 Import integrals:   CPU 169.31 s  wall 36.72 s

 MP2 amplitudes:   CPU 1.69 s  wall 0.63 s

Running a double precision version
           CCSD T amplitudes will be solved using DIIS.

           Start     Size      MaxIter   EConv     TConv     
           3         7         100       1.00e-06  1.00e-04  
 ------------------------------------------------------------------------------
           Energy (a.u.)   Ediff      Tdiff       Comment
 ------------------------------------------------------------------------------
           -93.33126161                           
     1     -93.32849267   2.77e-03   5.50e-01     
     2     -93.34102986   1.25e-02   7.59e-02     
     3     -93.34046205   5.68e-04   3.00e-02     
     4     -93.34174790   1.29e-03   9.74e-03     Switched to DIIS steps.
     5     -93.34216334   4.15e-04   7.75e-03     
     6     -93.34217801   1.47e-05   1.23e-03     
     7     -93.34218076   2.75e-06   5.29e-04     
     8     -93.34218252   1.75e-06   1.38e-04     
     9     -93.34218270   1.79e-07   3.71e-05     
 ------------------------------------------------------------------------------
           -93.34218270                           CCSD T converged.

End of double precision

----------------------------------------
libpt (c) 2016-2018 Ilya Kaliman
Fast Coupled Cluster Triples Corrections
https://github.com/ilyak/libpt
----------------------------------------

 Starting (T) calculation...
 Using double precision libpt code
 (T) calculation completed in 29 sec
 (T) energy is -0.0189986434

 SCF energy                 = -92.89307970
 MP2 energy                 = -93.33126161
 CCSD correlation energy     =  -0.44910300
 CCSD total energy           = -93.34218270
 CCSD(T) correlation energy =  -0.01899864
 CCSD(T) total energy       = -93.36118134

 CCSD  T1^2 = 0.0055  T2^2 = 0.1260  Leading amplitudes:

 Amplitude    Orbitals with energies
 -0.0174       6 (A) A                   ->    17 (A) A                   
              -0.5203                          0.1937                     
  0.0174       6 (A) B                   ->    17 (A) B                   
              -0.5203                          0.1937                     
  0.0174       5 (A) A                   ->    16 (A) A                   
              -0.5203                          0.1937                     
 -0.0174       5 (A) B                   ->    16 (A) B                   
              -0.5203                          0.1937                     

 Amplitude    Orbitals with energies
  0.0513       5 (A) A       5 (A) B     ->    16 (A) A      16 (A) B     
              -0.5203       -0.5203            0.1937        0.1937       
 -0.0513       5 (A) A       5 (A) B     ->    16 (A) B      16 (A) A     
              -0.5203       -0.5203            0.1937        0.1937       
 -0.0513       5 (A) B       5 (A) A     ->    16 (A) A      16 (A) B     
              -0.5203       -0.5203            0.1937        0.1937       
  0.0513       5 (A) B       5 (A) A     ->    16 (A) B      16 (A) A     
              -0.5203       -0.5203            0.1937        0.1937       
  0.0513       6 (A) A       6 (A) B     ->    17 (A) A      17 (A) B     
              -0.5203       -0.5203            0.1937        0.1937       
 -0.0513       6 (A) A       6 (A) B     ->    17 (A) B      17 (A) A     
              -0.5203       -0.5203            0.1937        0.1937       
 -0.0513       6 (A) B       6 (A) A     ->    17 (A) A      17 (A) B     
              -0.5203       -0.5203            0.1937        0.1937       
  0.0513       6 (A) B       6 (A) A     ->    17 (A) B      17 (A) A     
              -0.5203       -0.5203            0.1937        0.1937       

 CCSD calculation:   CPU 614.24 s  wall 105.08 s

 Total ccman2 time:   CPU 799.30 s  wall 150.83 s

 
 --------------------------------------------------------------
 
                    Orbital Energies (a.u.)
 --------------------------------------------------------------
 
 Alpha MOs
 -- Occupied --
-15.605 -11.299  -1.265  -0.880  -0.520  -0.520  -0.493
 -- Virtual --
  0.027   0.089   0.089   0.096   0.122   0.130   0.130   0.133
  0.194   0.194   0.249   0.303   0.314   0.314   0.315   0.315
  0.378   0.428   0.437   0.437   0.492   0.492   0.500   0.531
  0.531   0.569   0.719   0.761   0.761   0.934   0.934   0.937
  0.942   0.942   0.969   1.031   1.031   1.091   1.091   1.105
  1.105   1.124   1.233   1.268   1.268   1.278   1.301   1.301
  1.331   1.331   1.455   1.616   1.616   1.750   1.750   1.752
  1.752   1.947   2.048   2.167   2.167   2.175   2.175   2.253
  2.323   2.323   2.591   2.792   2.792   3.046   3.413   3.440
  3.440   3.469   3.469   3.632   3.632   3.745   3.745   3.756
  3.797   3.797   3.878   4.133   4.133   4.266   4.266   4.577
  4.654   4.654   4.712   4.930   4.930   4.996   4.996   5.130
  5.180   5.180   5.420   5.420   5.694   5.805   5.805   6.189
  6.827   6.827   7.447   8.273  15.652  15.652  16.113  17.612
 21.533  21.533  22.655  23.696  39.176  39.176  39.318  39.318
 39.747  41.437  41.437  41.614  41.614  41.965  81.237  81.237
 82.240  85.818 109.490 109.490 110.366 117.957
 
 Beta MOs
 -- Occupied --
-15.605 -11.299  -1.265  -0.880  -0.520  -0.520  -0.493
 -- Virtual --
  0.027   0.089   0.089   0.096   0.122   0.130   0.130   0.133
  0.194   0.194   0.249   0.303   0.314   0.314   0.315   0.315
  0.378   0.428   0.437   0.437   0.492   0.492   0.500   0.531
  0.531   0.569   0.719   0.761   0.761   0.934   0.934   0.937
  0.942   0.942   0.969   1.031   1.031   1.091   1.091   1.105
  1.105   1.124   1.233   1.268   1.268   1.278   1.301   1.301
  1.331   1.331   1.455   1.616   1.616   1.750   1.750   1.752
  1.752   1.947   2.048   2.167   2.167   2.175   2.175   2.253
  2.323   2.323   2.591   2.792   2.792   3.046   3.413   3.440
  3.440   3.469   3.469   3.632   3.632   3.745   3.745   3.756
  3.797   3.797   3.878   4.133   4.133   4.266   4.266   4.577
  4.654   4.654   4.712   4.930   4.930   4.996   4.996   5.130
  5.180   5.180   5.420   5.420   5.694   5.805   5.805   6.189
  6.827   6.827   7.447   8.273  15.652  15.652  16.113  17.612
 21.533  21.533  22.655  23.696  39.176  39.176  39.318  39.318
 39.747  41.437  41.437  41.614  41.614  41.965  81.237  81.237
 82.240  85.818 109.490 109.490 110.366 117.957
 --------------------------------------------------------------
 
          Ground-State Mulliken Net Atomic Charges

     Atom                 Charge (a.u.)    Spin (a.u.)
  --------------------------------------------------------
      1 C                     0.028818      -0.000000
      2 N                    -0.285086       0.000000
      3 H                     0.256267       0.000000
  --------------------------------------------------------
  Sum of atomic charges =     0.000000
  Sum of spin   charges =    -0.000000

 -----------------------------------------------------------------
                    Cartesian Multipole Moments
 -----------------------------------------------------------------
    Charge (ESU x 10^10)
                 0.0000
    Dipole Moment (Debye)
         X       0.0000      Y      -0.0000      Z       2.8281
       Tot       2.8281
    Quadrupole Moments (Debye-Ang)
        XX     -12.1807     XY      -0.0000     YY     -12.1807
        XZ       0.0000     YZ       0.0000     ZZ     -10.2590
    Octopole Moments (Debye-Ang^2)
       XXX       0.0000    XXY      -0.0000    XYY       0.0000
       YYY      -0.0000    XXZ       1.3152    XYZ      -0.0000
       YYZ       1.3152    XZZ      -0.0000    YZZ       0.0000
       ZZZ      14.6470
    Hexadecapole Moments (Debye-Ang^3)
      XXXX     -12.9171   XXXY      -0.0000   XXYY      -4.3057
      XYYY      -0.0000   YYYY     -12.9171   XXXZ       0.0000
      XXYZ      -0.0000   XYYZ       0.0000   YYYZ       0.0000
      XXZZ      -9.8794   XYZZ      -0.0000   YYZZ      -9.8794
      XZZZ       0.0000   YZZZ      -0.0000   ZZZZ     -42.0039
 -----------------------------------------------------------------
Archival summary:
1\1\n0035.mhg0\SP\ProcedureUnspecified\BasisUnspecified\111\yhljason\MonJul1303:18:312020MonJul1303:18:312020\0\\#,ProcedureUnspecified,BasisUnspecified,\\0,1\N\H,1,0.9862\C,1,1.1726,2,180\\HF=-92.8930797\\@

 Total job time:  164.57s(wall), 894.56s(cpu) 
 Mon Jul 13 03:18:31 2020

        *************************************************************
        *                                                           *
        *  Thank you very much for using Q-Chem.  Have a nice day.  *
        *                                                           *
        *************************************************************


