Q-Chem Developer Version!
                  Welcome to Q-Chem
     A Quantum Leap Into The Future Of Chemistry


 Q-Chem 5.1, Q-Chem, Inc., Pleasanton, CA (2018)

 Yihan Shao,  Zhengting Gan,  E. Epifanovsky,  A. T. B. Gilbert,  M. Wormit,  
 J. Kussmann,  A. W. Lange,  A. Behn,  Jia Deng,  Xintian Feng,  D. Ghosh,  
 M. Goldey,  P. R. Horn,  L. D. Jacobson,  I. Kaliman,  T. Kus,  A. Landau,  
 Jie Liu,  E. I. Proynov,  R. M. Richard,  R. P. Steele,  E. J. Sundstrom,  
 H. L. Woodcock III,  P. M. Zimmerman,  D. Zuev,  B. Albrecht,  E. Alguire,  
 S. A. Baeppler,  D. Barton,  Z. Benda,  Y. A. Bernard,  E. J. Berquist,  
 K. B. Bravaya,  H. Burton,  D. Casanova,  Chun-Min Chang,  Yunqing Chen,  
 A. Chien,  K. D. Closser,  M. P. Coons,  S. Coriani,  S. Dasgupta,  
 A. L. Dempwolff,  M. Diedenhofen,  Hainam Do,  R. G. Edgar,  Po-Tung Fang,  
 S. Faraji,  S. Fatehi,  Qingguo Feng,  K. D. Fenk,  J. Fosso-Tande,  
 Qinghui Ge,  A. Ghysels,  G. Gidofalvi,  J. Gomes,  J. Gonthier,  A. Gunina,  
 D. Hait,  M. W. D. Hanson-Heine,  P. H. P. Harbach,  A. W. Hauser,  
 J. E. Herr,  E. G. Hohenstein,  Z. C. Holden,  Kerwin Hui,  B. C. Huynh,  
 T.-C. Jagau,  Hyunjun Ji,  B. Kaduk,  K. Khistyaev,  Jaehoon Kim,  
 P. Klunzinger,  K. Koh,  D. Kosenkov,  L. Koulias,  T. Kowalczyk,  
 C. M. Krauter,  A. Kunitsa,  Ka Un Lao,  A. Laurent,  K. V. Lawler,  
 Joonho Lee,  D. Lefrancois,  S. Lehtola,  D. S. Levine,  Yi-Pei Li,  
 You-Sheng Lin,  Fenglai Liu,  E. Livshits,  A. Luenser,  P. Manohar,  
 E. Mansoor,  S. F. Manzer,  Shan-Ping Mao,  Yuezhi Mao,  N. Mardirossian,  
 A. V. Marenich,  T. Markovich,  L. A. Martinez-Martinez,  S. A. Maurer,  
 N. J. Mayhall,  S. C. McKenzie,  J.-M. Mewes,  A. F. Morrison,  
 J. W. Mullinax,  K. Nanda,  T. S. Nguyen-Beck,  R. Olivares-Amaya,  
 J. A. Parkhill,  T. M. Perrine,  F. Plasser,  P. Pokhilko,  S. Prager,  
 A. Prociuk,  E. Ramos,  D. R. Rehn,  F. Rob,  M. Schneider,  N. Sergueev,  
 S. M. Sharada,  S. Sharma,  D. W. Small,  T. Stauch,  T. Stein,  
 Yu-Chuan Su,  A. J. W. Thom,  A. Tkatchenko,  T. Tsuchimochi,  N. M. Tubman,  
 L. Vogt,  M. L. Vidal,  O. Vydrov,  M. A. Watson,  J. Wenzel,  
 M. de Wergifosse,  T. A. Wesolowski,  A. White,  J. Witte,  A. Yamada,  
 Jun Yang,  K. Yao,  S. Yeganeh,  S. R. Yost,  Zhi-Qiang You,  A. Zech,  
 Igor Ying Zhang,  Xing Zhang,  Yan Zhao,  Ying Zhu,  B. R. Brooks,  
 G. K. L. Chan,  C. J. Cramer,  M. S. Gordon,  W. J. Hehre,  A. Klamt,  
 M. W. Schmidt,  C. D. Sherrill,  D. G. Truhlar,  A. Aspuru-Guzik,  R. Baer,  
 A. T. Bell,  N. A. Besley,  Jeng-Da Chai,  A. E. DePrince, III,  
 R. A. DiStasio Jr.,  A. Dreuw,  B. D. Dunietz,  T. R. Furlani,  
 Chao-Ping Hsu,  Yousung Jung,  Jing Kong,  D. S. Lambrecht,  WanZhen Liang,  
 C. Ochsenfeld,  V. A. Rassolov,  L. V. Slipchenko,  J. E. Subotnik,  
 T. Van Voorhis,  J. M. Herbert,  A. I. Krylov,  P. M. W. Gill,  M. Head-Gordon

 Contributors to earlier versions of Q-Chem not listed above: 
 R. D. Adamson,  B. Austin,  J. Baker,  G. J. O. Beran,  K. Brandhorst,  
 S. T. Brown,  E. F. C. Byrd,  A. K. Chakraborty,  C.-L. Cheng,  
 Siu Hung Chien,  D. M. Chipman,  D. L. Crittenden,  H. Dachsel,  
 R. J. Doerksen,  A. D. Dutoi,  L. Fusti-Molnar,  W. A. Goddard III,  
 A. Golubeva-Zadorozhnaya,  S. R. Gwaltney,  G. Hawkins,  A. Heyden,  
 S. Hirata,  G. Kedziora,  F. J. Keil,  C. Kelley,  Jihan Kim,  R. A. King,  
 R. Z. Khaliullin,  P. P. Korambath,  W. Kurlancheek,  A. M. Lee,  M. S. Lee,  
 S. V. Levchenko,  Ching Yeh Lin,  D. Liotard,  R. C. Lochan,  I. Lotan,  
 P. E. Maslen,  N. Nair,  D. P. O'Neill,  D. Neuhauser,  E. Neuscamman,  
 C. M. Oana,  R. Olson,  B. Peters,  R. Peverati,  P. A. Pieniazek,  
 Y. M. Rhee,  J. Ritchie,  M. A. Rohrdanz,  E. Rosta,  N. J. Russ,  
 H. F. Schaefer III,  N. E. Schultz,  N. Shenvi,  A. C. Simmonett,  A. Sodt,  
 D. Stuck,  K. S. Thanthiriwatte,  V. Vanovschi,  Tao Wang,  A. Warshel,  
 C. F. Williams,  Q. Wu,  X. Xu,  W. Zhang

 Please cite Q-Chem as follows:
 Y. Shao et al., Mol. Phys. 113, 184-215 (2015)
 DOI: 10.1080/00268976.2014.952696

 Q-Chem 5.1.1 for Intel X86 EM64T Linux

 Parts of Q-Chem use Armadillo 8.300.2 (Tropical Shenanigans).
 http://arma.sourceforge.net/

 Q-Chem begins on Mon Jul 13 22:42:23 2020  

Host: n0053.mhg0
0

     Scratch files written to /local/scratch/users/yhljason/NH3_ccsdT_aug-cc-pcVQZ.inp20200713023006//
Input Ideriv = 0
Curr. Ideriv = -1
Max.  Ideriv = 0

Checking the input file for inconsistencies... 	...done.

--------------------------------------------------------------
User input:
--------------------------------------------------------------
$molecule
0 1
N1      0.0000  0.0000  0.0000
H2      0.0000  -0.9377 -0.3816
H3      0.8121  0.4689  -0.3816
H4      -0.8121 0.4689  -0.3816
$end

$rem
jobtype sp
method CCSD(T)
xc_grid 000099000590
basis aug-cc-pcVQZ
max_scf_cycles 200
thresh 14
scf_convergence 8
scf_algorithm gdm
symmetry false
sym_ignore true
unrestricted true
gen_scfman true
internal_stability_iter 15
internal_stability_davidson_iter 200
mem_total 128000
cc_memory 96000
cc_backend xm
mem_static 1500
n_frozen_core 0
$end


--------------------------------------------------------------
 ----------------------------------------------------------------
             Standard Nuclear Orientation (Angstroms)
    I     Atom           X                Y                Z
 ----------------------------------------------------------------
    1      N       0.0000000000     0.0000000000     0.0000000000
    2      H       0.0000000000    -0.9377000000    -0.3816000000
    3      H       0.8121000000     0.4689000000    -0.3816000000
    4      H      -0.8121000000     0.4689000000    -0.3816000000
 ----------------------------------------------------------------
 Nuclear Repulsion Energy =    11.9539937263 hartrees
 There are        5 alpha and        5 beta electrons
 Requested basis set is aug-cc-pCVQZ
 There are 71 shells and 247 basis functions
 Total memory of 128000MB is distributed as follows: 
   QALLOC including MEM_STATIC uses 32000MB
   MEM_STATIC is set to 1500MB
   CCMAN JOB total memory use is  96000MB
 Warning: actual memory use might exceed 128000MB

 Total QAlloc Memory Limit  32000 MB
 Mega-Array Size      1467 MB
 MEM_STATIC part      1500 MB

                       Distance Matrix (Angstroms)
             N (  1)   H (  2)   H (  3)
   H (  2)  1.012373
   H (  3)  1.012419  1.624201
   H (  4)  1.012419  1.624201  1.624200
 
 A cutoff of  1.0D-14 yielded   2556 shell pairs
 There are     31120 function pairs (     47305 Cartesian)
 
 -------------------------------------------------------
 OpenMP Integral Computing Module                       
 Release: version 1.0, May 2013, Q-Chem Inc. Pittsburgh 
 -------------------------------------------------------
 Integral Job Info:
 Integral job number is                      11
 Integral operator is                         1
 short-range coefficients                     0
 long-range coefficients              100000000
 Omega coefficients                           0
 if combine SR and LR in K                    0
 Integral screening is                        0
 Integral computing path is                   2
 max size of driver memory is           3200000
 size of driver memory is               1704330
 size of scratch memory is             18511652
 max col of scratch BK array              50625
 max len of scratch array in speh3         2114
 max len of scratch index in speh4           50
 max int batch size is                      520
 min int batch size is                       52
 fixed nKL is                                52
 max L of basis functions is                  4
 order of int derivative is                   0
 number of shells is                         71
 number of basis is                         304
 number of cartesian basis is               304
 number of contracted shell pairs          2556
 number of primitive shell pairs           4515
 maxK2 (contraction) of shell pair           81
 max number of K2 of shell pair               1
 max number of CS2 of shell pair            364
 max number of PS2 of shell pair            369
 mem total for path MDJ                  671149
 -------------------------------------------------------
 Smallest overlap matrix eigenvalue = 5.04E-05

 Scale SEOQF with 1.000000e-01/1.000000e-01/1.000000e-01

 Standard Electronic Orientation quadrupole field applied
 Guess from superposition of atomic densities
 Warning:  Energy on first SCF cycle will be non-variational
 SAD guess density has 10.000000 electrons

 -----------------------------------------------------------------------
  General SCF calculation program by
  Eric Jon Sundstrom, Paul Horn, Yuezhi Mao, Dmitri Zuev, Alec White,
  David Stuck, Shaama M.S., Shane Yost, Joonho Lee, David Small,
  Daniel Levine, Susi Lehtola, Hugh Burton, Evgeny Epifanovsky
 -----------------------------------------------------------------------
Running Object-Oriented UHF
performing a single roothaan step with Fock from read density so that orbitals are available to all algorithms
energy of the guess density (C=0) -56.204736207917
We will preform up to 15 macro iterations over saddle points until a stable solution is found
Energy prior to optimization (guess energy) = -56.201896182770
Begin Timing: Total SCF Calculation
Begin Timing: SCF Single Stationary Point Calculation
begin iterations for algorithm: GDM          
the SCF tolerance is set to 1.00e-08
    1     -56.2018961828      4.44e-02     00000  Normal BFGS step
    2     -56.2197318476      1.94e-02     00000  Normal BFGS step
    3     -56.2239000914      3.20e-03     00000  Normal BFGS step
    4     -56.2240114707      9.00e-04     00000  Normal BFGS step
    5     -56.2240203286      2.43e-04     00000  Normal BFGS step
    6     -56.2240207336      7.65e-05     00000  Normal BFGS step
    7     -56.2240207908      1.39e-05     00000  Normal BFGS step
    8     -56.2240207938      4.04e-06     00000  Normal BFGS step
    9     -56.2240207940      8.06e-07     00000  Normal BFGS step
   10     -56.2240207940      1.54e-07     00000  Normal BFGS step
   11     -56.2240207940      2.01e-08     00000  Normal BFGS step
   12     -56.2240207940      5.66e-09     00000 Convergence criterion met
Timing for Single Stationary Point: 104.00s (wall), 829.61s (cpu)
Begin Timing: Stability
===================================================
Beginning Test for Internal Stability
===================================================
generating davidson guess vectors based on koopmans excitations
    1      1.32e+00     00000 Davidson Iteration
    2      1.35e+00     00000 Davidson Iteration
    3      1.69e-01     00000 Davidson Iteration
    4      9.56e-02     00000 Davidson Iteration
    5      2.69e-02     00000 Davidson Iteration
    6      1.72e-02     00000 Davidson Iteration
    7      5.95e-03     00000 Davidson Iteration
    8      1.80e-03     00000 Davidson Iteration
    9      4.58e-04     00000 Davidson Iteration
   10      3.20e-04     00000 Davidson Iteration
   11      1.98e-04     00000 Davidson Iteration
   12      4.78e-05     00000 Davidson Iteration
   13      6.34e-05     00000 Davidson Converged
converged_eigenvalues
   0.5572
   0.4569
Threshold for negative eigenvalues: -1.0e-05
solution was a local minimum (stable)
===================================================
End Test for Internal Stability
===================================================
Our SCF solution is stable!
Timing for Total SCF: 315.00s (wall), 2516.18s (cpu)
 Total energy in the final basis set =      -56.2240207940
<S^2> =         -0.000000000
    ==================================================
              The end of Object-Oriented SCFman       
    ==================================================


 ------------------------------------------------------------------------------

   CCMAN2: suite of methods based on coupled cluster
           and equation of motion theories.

   Components:
   * libvmm-1.3-trunk
     by Evgeny Epifanovsky, Ilya Kaliman.
   * libtensor-2.5-trunk
     by Evgeny Epifanovsky, Michael Wormit, Dmitry Zuev, Sam Manzer, 
        Ilya Kaliman.
   * libcc-2.5-trunk
     by Evgeny Epifanovsky, Arik Landau, Tomasz Kus, Kirill Khistyaev, 
        Dmitry Zuev, Prashant Manohar, Xintian Feng, Anna Krylov, 
        Matthew Goldey, Alec White, Thomas Jagau, Kaushik Nanda, 
        Anastasia Gunina, Alexander Kunitsa, Joonho Lee.

   CCMAN original authors:
   Anna I. Krylov, C. David Sherrill, Steven R. Gwaltney,
   Edward F. C. Byrd (2000)
   Sergey V. Levchenko, Lyudmila V. Slipchenko, Tao Wang,
   Ana-Maria C. Cristian (2003)
   Piotr A. Pieniazek, C. Melania Oana, Evgeny Epifanovsky (2007)
   Prashant Manohar (2009)

 ------------------------------------------------------------------------------


 Calculation will run on 8 cores using libxm for tensor contractions

 ------------------------------------------------------------------------------
Libxm Tensor Library
Copyright (c) 2014-2018 Ilya Kaliman
https://github.com/ilyak/libxm
Reference: https://dx.doi.org/10.1002/jcc.24713
 ------------------------------------------------------------------------------

 
 Alpha MOs, Unrestricted
 -- Occupied --                  
-15.540  -1.142  -0.629  -0.629  -0.430
  1 A     2 A     3 A     4 A     5 A                                          
 -- Virtual --                   
  0.027   0.044   0.044   0.098   0.132   0.139   0.139   0.184
  6 A     7 A     8 A     9 A    10 A    11 A    12 A    13 A                  
  0.184   0.189   0.189   0.210   0.284   0.293   0.298   0.298
 14 A    15 A    16 A    17 A    18 A    19 A    20 A    21 A                  
  0.355   0.382   0.382   0.390   0.390   0.422   0.474   0.474
 22 A    23 A    24 A    25 A    26 A    27 A    28 A    29 A                  
  0.559   0.559   0.559   0.595   0.683   0.683   0.698   0.701
 30 A    31 A    32 A    33 A    34 A    35 A    36 A    37 A                  
  0.718   0.718   0.751   0.780   0.780   0.782   0.831   0.831
 38 A    39 A    40 A    41 A    42 A    43 A    44 A    45 A                  
  0.850   0.857   0.857   0.872   0.872   0.979   1.015   1.015
 46 A    47 A    48 A    49 A    50 A    51 A    52 A    53 A                  
  1.134   1.222   1.222   1.354   1.355   1.355   1.369   1.376
 54 A    55 A    56 A    57 A    58 A    59 A    60 A    61 A                  
  1.450   1.450   1.518   1.536   1.537   1.576   1.602   1.660
 62 A    63 A    64 A    65 A    66 A    67 A    68 A    69 A                  
  1.660   1.698   1.698   1.728   1.749   1.749   1.814   1.828
 70 A    71 A    72 A    73 A    74 A    75 A    76 A    77 A                  
  1.828   1.851   1.897   1.897   1.986   1.986   2.019   2.019
 78 A    79 A    80 A    81 A    82 A    83 A    84 A    85 A                  
  2.036   2.061   2.100   2.113   2.113   2.195   2.268   2.268
 86 A    87 A    88 A    89 A    90 A    91 A    92 A    93 A                  
  2.284   2.408   2.408   2.774   2.898   2.898   2.921   2.928
 94 A    95 A    96 A    97 A    98 A    99 A   100 A   101 A                  
  2.928   2.941   3.002   3.002   3.035   3.035   3.059   3.110
102 A   103 A   104 A   105 A   106 A   107 A   108 A   109 A                  
  3.129   3.196   3.196   3.267   3.267   3.402   3.402   3.466
110 A   111 A   112 A   113 A   114 A   115 A   116 A   117 A                  
  3.542   3.542   3.570   3.711   3.896   3.911   3.911   4.140
118 A   119 A   120 A   121 A   122 A   123 A   124 A   125 A                  
  4.140   4.142   4.180   4.180   4.220   4.229   4.295   4.374
126 A   127 A   128 A   129 A   130 A   131 A   132 A   133 A                  
  4.374   4.693   4.693   4.952   4.952   5.054   5.180   5.180
134 A   135 A   136 A   137 A   138 A   139 A   140 A   141 A                  
  5.335   5.335   5.460   5.570   6.829   6.829   6.897   6.933
142 A   143 A   144 A   145 A   146 A   147 A   148 A   149 A                  
  6.933   7.009   7.380   7.393   7.394   7.424   7.424   7.485
150 A   151 A   152 A   153 A   154 A   155 A   156 A   157 A                  
  7.681   7.706   7.706   7.856   7.856   7.928   7.928   7.970
158 A   159 A   160 A   161 A   162 A   163 A   164 A   165 A                  
  8.141   8.239   8.307   8.307   8.483   8.546   8.546   8.604
166 A   167 A   168 A   169 A   170 A   171 A   172 A   173 A                  
  8.604   8.774   8.887   8.887   8.914   8.935   8.974   8.974
174 A   175 A   176 A   177 A   178 A   179 A   180 A   181 A                  
  8.994   9.001   9.159   9.159   9.355   9.355   9.486   9.496
182 A   183 A   184 A   185 A   186 A   187 A   188 A   189 A                  
  9.496   9.775   9.775   9.775   9.801   9.968   9.968  10.107
190 A   191 A   192 A   193 A   194 A   195 A   196 A   197 A                  
 10.282  10.282  10.487  10.487  10.683  10.859  10.976  10.976
198 A   199 A   200 A   201 A   202 A   203 A   204 A   205 A                  
 11.684  12.097  12.184  12.184  12.343  12.344  12.928  12.928
206 A   207 A   208 A   209 A   210 A   211 A   212 A   213 A                  
 13.047  14.215  14.840  14.840  16.817  27.559  29.088  29.088
214 A   215 A   216 A   217 A   218 A   219 A   220 A   221 A                  
 37.944  37.944  38.170  38.662  38.662  50.958  92.662  93.834
222 A   223 A   224 A   225 A   226 A   227 A   228 A   229 A                  
 93.834 112.289 112.314 112.314 112.335 112.357 112.357 112.390
230 A   231 A   232 A   233 A   234 A   235 A   236 A   237 A                  
157.444 157.444 157.553 157.827 157.827 167.526 310.134 311.093
238 A   239 A   240 A   241 A   242 A   243 A   244 A   245 A                  
311.093 688.514
246 A   247 A                                                                  
 
 Beta MOs, Unrestricted
 -- Occupied --                  
-15.540  -1.142  -0.629  -0.629  -0.430
  1 A     2 A     3 A     4 A     5 A                                          
 -- Virtual --                   
  0.027   0.044   0.044   0.098   0.132   0.139   0.139   0.184
  6 A     7 A     8 A     9 A    10 A    11 A    12 A    13 A                  
  0.184   0.189   0.189   0.210   0.284   0.293   0.298   0.298
 14 A    15 A    16 A    17 A    18 A    19 A    20 A    21 A                  
  0.355   0.382   0.382   0.390   0.390   0.422   0.474   0.474
 22 A    23 A    24 A    25 A    26 A    27 A    28 A    29 A                  
  0.559   0.559   0.559   0.595   0.683   0.683   0.698   0.701
 30 A    31 A    32 A    33 A    34 A    35 A    36 A    37 A                  
  0.718   0.718   0.751   0.780   0.780   0.782   0.831   0.831
 38 A    39 A    40 A    41 A    42 A    43 A    44 A    45 A                  
  0.850   0.857   0.857   0.872   0.872   0.979   1.015   1.015
 46 A    47 A    48 A    49 A    50 A    51 A    52 A    53 A                  
  1.134   1.222   1.222   1.354   1.355   1.355   1.369   1.376
 54 A    55 A    56 A    57 A    58 A    59 A    60 A    61 A                  
  1.450   1.450   1.518   1.536   1.537   1.576   1.602   1.660
 62 A    63 A    64 A    65 A    66 A    67 A    68 A    69 A                  
  1.660   1.698   1.698   1.728   1.749   1.749   1.814   1.828
 70 A    71 A    72 A    73 A    74 A    75 A    76 A    77 A                  
  1.828   1.851   1.897   1.897   1.986   1.986   2.019   2.019
 78 A    79 A    80 A    81 A    82 A    83 A    84 A    85 A                  
  2.036   2.061   2.100   2.113   2.113   2.195   2.268   2.268
 86 A    87 A    88 A    89 A    90 A    91 A    92 A    93 A                  
  2.284   2.408   2.408   2.774   2.898   2.898   2.921   2.928
 94 A    95 A    96 A    97 A    98 A    99 A   100 A   101 A                  
  2.928   2.941   3.002   3.002   3.035   3.035   3.059   3.110
102 A   103 A   104 A   105 A   106 A   107 A   108 A   109 A                  
  3.129   3.196   3.196   3.267   3.267   3.402   3.402   3.466
110 A   111 A   112 A   113 A   114 A   115 A   116 A   117 A                  
  3.542   3.542   3.570   3.711   3.896   3.911   3.911   4.140
118 A   119 A   120 A   121 A   122 A   123 A   124 A   125 A                  
  4.140   4.142   4.180   4.180   4.220   4.229   4.295   4.374
126 A   127 A   128 A   129 A   130 A   131 A   132 A   133 A                  
  4.374   4.693   4.693   4.952   4.952   5.054   5.180   5.180
134 A   135 A   136 A   137 A   138 A   139 A   140 A   141 A                  
  5.335   5.335   5.460   5.570   6.829   6.829   6.897   6.933
142 A   143 A   144 A   145 A   146 A   147 A   148 A   149 A                  
  6.933   7.009   7.380   7.393   7.394   7.424   7.424   7.485
150 A   151 A   152 A   153 A   154 A   155 A   156 A   157 A                  
  7.681   7.706   7.706   7.856   7.856   7.928   7.928   7.970
158 A   159 A   160 A   161 A   162 A   163 A   164 A   165 A                  
  8.141   8.239   8.307   8.307   8.483   8.546   8.546   8.604
166 A   167 A   168 A   169 A   170 A   171 A   172 A   173 A                  
  8.604   8.774   8.887   8.887   8.914   8.935   8.974   8.974
174 A   175 A   176 A   177 A   178 A   179 A   180 A   181 A                  
  8.994   9.001   9.159   9.159   9.355   9.355   9.486   9.496
182 A   183 A   184 A   185 A   186 A   187 A   188 A   189 A                  
  9.496   9.775   9.775   9.775   9.801   9.968   9.968  10.107
190 A   191 A   192 A   193 A   194 A   195 A   196 A   197 A                  
 10.282  10.282  10.487  10.487  10.683  10.859  10.976  10.976
198 A   199 A   200 A   201 A   202 A   203 A   204 A   205 A                  
 11.684  12.097  12.184  12.184  12.343  12.344  12.928  12.928
206 A   207 A   208 A   209 A   210 A   211 A   212 A   213 A                  
 13.047  14.215  14.840  14.840  16.817  27.559  29.088  29.088
214 A   215 A   216 A   217 A   218 A   219 A   220 A   221 A                  
 37.944  37.944  38.170  38.662  38.662  50.958  92.662  93.834
222 A   223 A   224 A   225 A   226 A   227 A   228 A   229 A                  
 93.834 112.289 112.314 112.314 112.335 112.357 112.357 112.390
230 A   231 A   232 A   233 A   234 A   235 A   236 A   237 A                  
157.444 157.444 157.553 157.827 157.827 167.526 310.134 311.093
238 A   239 A   240 A   241 A   242 A   243 A   244 A   245 A                  
311.093 688.514
246 A   247 A                                                                  

 Occupation and symmetry of molecular orbitals

 Point group: C1 (1 irreducible representation).

                           A     All 
 -------------------------------------
 All molecular orbitals:
  - Alpha                  247   247 
  - Beta                   247   247 
 -------------------------------------
 Alpha orbitals:
  - Frozen occupied        0     0   
  - Active occupied        5     5   
  - Active virtual         242   242 
  - Frozen virtual         0     0   
 -------------------------------------
 Beta orbitals:
  - Frozen occupied        0     0   
  - Active occupied        5     5   
  - Active virtual         242   242 
  - Frozen virtual         0     0   
 -------------------------------------

 Import integrals:   CPU 0.00 s  wall 0.00 s

 Import integrals:   CPU 2108.58 s  wall 403.77 s

 MP2 amplitudes:   CPU 2.87 s  wall 1.38 s

Running a double precision version
           CCSD T amplitudes will be solved using DIIS.

           Start     Size      MaxIter   EConv     TConv     
           3         7         100       1.00e-06  1.00e-04  
 ------------------------------------------------------------------------------
           Energy (a.u.)   Ediff      Tdiff       Comment
 ------------------------------------------------------------------------------
           -56.53392602                           
     1     -56.53767764   3.75e-03   4.53e-01     
     2     -56.54318631   5.51e-03   4.80e-02     
     3     -56.54356007   3.74e-04   1.51e-02     
     4     -56.54403125   4.71e-04   5.09e-03     Switched to DIIS steps.
     5     -56.54412141   9.02e-05   2.65e-03     
     6     -56.54412003   1.38e-06   4.49e-04     
     7     -56.54412079   7.59e-07   1.95e-04     
     8     -56.54412090   1.04e-07   4.45e-05     
 ------------------------------------------------------------------------------
           -56.54412090                           CCSD T converged.

End of double precision

----------------------------------------
libpt (c) 2016-2018 Ilya Kaliman
Fast Coupled Cluster Triples Corrections
https://github.com/ilyak/libpt
----------------------------------------

 Starting (T) calculation...
 Using double precision libpt code
 (T) calculation completed in 81 sec
 (T) energy is -0.0094407289

 SCF energy                 = -56.22402079
 MP2 energy                 = -56.53392602
 CCSD correlation energy     =  -0.32010010
 CCSD total energy           = -56.54412090
 CCSD(T) correlation energy =  -0.00944073
 CCSD(T) total energy       = -56.55356163

 CCSD  T1^2 = 0.0011  T2^2 = 0.0767  Leading amplitudes:

 Amplitude    Orbitals with energies
  0.0083       5 (A) A                   ->    9 (A) A                    
              -0.4298                          0.0977                     
 -0.0083       5 (A) B                   ->    9 (A) B                    
              -0.4298                          0.0977                     
  0.0068       5 (A) B                   ->    17 (A) B                   
              -0.4298                          0.2097                     
 -0.0068       5 (A) A                   ->    17 (A) A                   
              -0.4298                          0.2097                     

 Amplitude    Orbitals with energies
  0.0166       3 (A) A       3 (A) B     ->    26 (A) A      26 (A) B     
              -0.6287       -0.6287            0.3897        0.3897       
 -0.0166       3 (A) A       3 (A) B     ->    26 (A) B      26 (A) A     
              -0.6287       -0.6287            0.3897        0.3897       
 -0.0166       3 (A) B       3 (A) A     ->    26 (A) A      26 (A) B     
              -0.6287       -0.6287            0.3897        0.3897       
  0.0166       3 (A) B       3 (A) A     ->    26 (A) B      26 (A) A     
              -0.6287       -0.6287            0.3897        0.3897       

 CCSD calculation:   CPU 2606.51 s  wall 395.68 s

 Total ccman2 time:   CPU 4758.82 s  wall 833.85 s

 
 --------------------------------------------------------------
 
                    Orbital Energies (a.u.)
 --------------------------------------------------------------
 
 Alpha MOs
 -- Occupied --
-15.540  -1.142  -0.629  -0.629  -0.430
 -- Virtual --
  0.027   0.044   0.044   0.098   0.132   0.139   0.139   0.184
  0.184   0.189   0.189   0.210   0.284   0.293   0.298   0.298
  0.355   0.382   0.382   0.390   0.390   0.422   0.474   0.474
  0.559   0.559   0.559   0.595   0.683   0.683   0.698   0.701
  0.718   0.718   0.751   0.780   0.780   0.782   0.831   0.831
  0.850   0.857   0.857   0.872   0.872   0.979   1.015   1.015
  1.134   1.222   1.222   1.354   1.355   1.355   1.369   1.376
  1.450   1.450   1.518   1.536   1.537   1.576   1.602   1.660
  1.660   1.698   1.698   1.728   1.749   1.749   1.814   1.828
  1.828   1.851   1.897   1.897   1.986   1.986   2.019   2.019
  2.036   2.061   2.100   2.113   2.113   2.195   2.268   2.268
  2.284   2.408   2.408   2.774   2.898   2.898   2.921   2.928
  2.928   2.941   3.002   3.002   3.035   3.035   3.059   3.110
  3.129   3.196   3.196   3.267   3.267   3.402   3.402   3.466
  3.542   3.542   3.570   3.711   3.896   3.911   3.911   4.140
  4.140   4.142   4.180   4.180   4.220   4.229   4.295   4.374
  4.374   4.693   4.693   4.952   4.952   5.054   5.180   5.180
  5.335   5.335   5.460   5.570   6.829   6.829   6.897   6.933
  6.933   7.009   7.380   7.393   7.394   7.424   7.424   7.485
  7.681   7.706   7.706   7.856   7.856   7.928   7.928   7.970
  8.141   8.239   8.307   8.307   8.483   8.546   8.546   8.604
  8.604   8.774   8.887   8.887   8.914   8.935   8.974   8.974
  8.994   9.001   9.159   9.159   9.355   9.355   9.486   9.496
  9.496   9.775   9.775   9.775   9.801   9.968   9.968  10.107
 10.282  10.282  10.487  10.487  10.683  10.859  10.976  10.976
 11.684  12.097  12.184  12.184  12.343  12.344  12.928  12.928
 13.047  14.215  14.840  14.840  16.817  27.559  29.088  29.088
 37.944  37.944  38.170  38.662  38.662  50.958  92.662  93.834
 93.834 112.289 112.314 112.314 112.335 112.357 112.357 112.390
157.444 157.444 157.553 157.827 157.827 167.526 310.134 311.093
311.093 688.514
 
 Beta MOs
 -- Occupied --
-15.540  -1.142  -0.629  -0.629  -0.430
 -- Virtual --
  0.027   0.044   0.044   0.098   0.132   0.139   0.139   0.184
  0.184   0.189   0.189   0.210   0.284   0.293   0.298   0.298
  0.355   0.382   0.382   0.390   0.390   0.422   0.474   0.474
  0.559   0.559   0.559   0.595   0.683   0.683   0.698   0.701
  0.718   0.718   0.751   0.780   0.780   0.782   0.831   0.831
  0.850   0.857   0.857   0.872   0.872   0.979   1.015   1.015
  1.134   1.222   1.222   1.354   1.355   1.355   1.369   1.376
  1.450   1.450   1.518   1.536   1.537   1.576   1.602   1.660
  1.660   1.698   1.698   1.728   1.749   1.749   1.814   1.828
  1.828   1.851   1.897   1.897   1.986   1.986   2.019   2.019
  2.036   2.061   2.100   2.113   2.113   2.195   2.268   2.268
  2.284   2.408   2.408   2.774   2.898   2.898   2.921   2.928
  2.928   2.941   3.002   3.002   3.035   3.035   3.059   3.110
  3.129   3.196   3.196   3.267   3.267   3.402   3.402   3.466
  3.542   3.542   3.570   3.711   3.896   3.911   3.911   4.140
  4.140   4.142   4.180   4.180   4.220   4.229   4.295   4.374
  4.374   4.693   4.693   4.952   4.952   5.054   5.180   5.180
  5.335   5.335   5.460   5.570   6.829   6.829   6.897   6.933
  6.933   7.009   7.380   7.393   7.394   7.424   7.424   7.485
  7.681   7.706   7.706   7.856   7.856   7.928   7.928   7.970
  8.141   8.239   8.307   8.307   8.483   8.546   8.546   8.604
  8.604   8.774   8.887   8.887   8.914   8.935   8.974   8.974
  8.994   9.001   9.159   9.159   9.355   9.355   9.486   9.496
  9.496   9.775   9.775   9.775   9.801   9.968   9.968  10.107
 10.282  10.282  10.487  10.487  10.683  10.859  10.976  10.976
 11.684  12.097  12.184  12.184  12.343  12.344  12.928  12.928
 13.047  14.215  14.840  14.840  16.817  27.559  29.088  29.088
 37.944  37.944  38.170  38.662  38.662  50.958  92.662  93.834
 93.834 112.289 112.314 112.314 112.335 112.357 112.357 112.390
157.444 157.444 157.553 157.827 157.827 167.526 310.134 311.093
311.093 688.514
 --------------------------------------------------------------
 
          Ground-State Mulliken Net Atomic Charges

     Atom                 Charge (a.u.)    Spin (a.u.)
  --------------------------------------------------------
      1 N                    -0.720202       0.000000
      2 H                     0.240063      -0.000000
      3 H                     0.240069      -0.000000
      4 H                     0.240069      -0.000000
  --------------------------------------------------------
  Sum of atomic charges =    -0.000000
  Sum of spin   charges =     0.000000

 -----------------------------------------------------------------
                    Cartesian Multipole Moments
 -----------------------------------------------------------------
    Charge (ESU x 10^10)
                 0.0000
    Dipole Moment (Debye)
         X       0.0000      Y       0.0001      Z      -1.6172
       Tot       1.6172
    Quadrupole Moments (Debye-Ang)
        XX      -6.2197     XY      -0.0000     YY      -6.2195
        XZ      -0.0000     YZ      -0.0000     ZZ      -8.8812
    Octopole Moments (Debye-Ang^2)
       XXX       0.0000    XXY       0.9704    XYY       0.0000
       YYY      -0.9706    XXZ      -0.1933    XYZ       0.0000
       YYZ      -0.1933    XZZ       0.0000    YZZ      -0.0001
       ZZZ       1.7284
    Hexadecapole Moments (Debye-Ang^3)
      XXXX      -9.9577   XXXY       0.0000   XXYY      -3.3191
      XYYY      -0.0000   YYYY      -9.9575   XXXZ      -0.0000
      XXYZ      -0.4766   XYYZ      -0.0000   YYYZ       0.4767
      XXZZ      -3.7133   XYZZ      -0.0000   YYZZ      -3.7132
      XZZZ      -0.0000   YZZZ       0.0001   ZZZZ     -12.2821
 -----------------------------------------------------------------
Archival summary:
1\1\n0053.mhg0\SP\ProcedureUnspecified\BasisUnspecified\13\yhljason\MonJul1323:04:002020MonJul1323:04:002020\0\\#,ProcedureUnspecified,BasisUnspecified,\\0,1\N\H,1,1.01237\H,1,1.01242,2,106.673\H,1,1.01242,2,106.673,3,-113.721,0\\HF=-56.2240208\\@

 Total job time:  1296.82s(wall), 7373.78s(cpu) 
 Mon Jul 13 23:04:00 2020

        *************************************************************
        *                                                           *
        *  Thank you very much for using Q-Chem.  Have a nice day.  *
        *                                                           *
        *************************************************************


 
User input: 2 of 7 
 
Q-Chem Developer Version!
                  Welcome to Q-Chem
     A Quantum Leap Into The Future Of Chemistry


 Q-Chem 5.1, Q-Chem, Inc., Pleasanton, CA (2018)

 Yihan Shao,  Zhengting Gan,  E. Epifanovsky,  A. T. B. Gilbert,  M. Wormit,  
 J. Kussmann,  A. W. Lange,  A. Behn,  Jia Deng,  Xintian Feng,  D. Ghosh,  
 M. Goldey,  P. R. Horn,  L. D. Jacobson,  I. Kaliman,  T. Kus,  A. Landau,  
 Jie Liu,  E. I. Proynov,  R. M. Richard,  R. P. Steele,  E. J. Sundstrom,  
 H. L. Woodcock III,  P. M. Zimmerman,  D. Zuev,  B. Albrecht,  E. Alguire,  
 S. A. Baeppler,  D. Barton,  Z. Benda,  Y. A. Bernard,  E. J. Berquist,  
 K. B. Bravaya,  H. Burton,  D. Casanova,  Chun-Min Chang,  Yunqing Chen,  
 A. Chien,  K. D. Closser,  M. P. Coons,  S. Coriani,  S. Dasgupta,  
 A. L. Dempwolff,  M. Diedenhofen,  Hainam Do,  R. G. Edgar,  Po-Tung Fang,  
 S. Faraji,  S. Fatehi,  Qingguo Feng,  K. D. Fenk,  J. Fosso-Tande,  
 Qinghui Ge,  A. Ghysels,  G. Gidofalvi,  J. Gomes,  J. Gonthier,  A. Gunina,  
 D. Hait,  M. W. D. Hanson-Heine,  P. H. P. Harbach,  A. W. Hauser,  
 J. E. Herr,  E. G. Hohenstein,  Z. C. Holden,  Kerwin Hui,  B. C. Huynh,  
 T.-C. Jagau,  Hyunjun Ji,  B. Kaduk,  K. Khistyaev,  Jaehoon Kim,  
 P. Klunzinger,  K. Koh,  D. Kosenkov,  L. Koulias,  T. Kowalczyk,  
 C. M. Krauter,  A. Kunitsa,  Ka Un Lao,  A. Laurent,  K. V. Lawler,  
 Joonho Lee,  D. Lefrancois,  S. Lehtola,  D. S. Levine,  Yi-Pei Li,  
 You-Sheng Lin,  Fenglai Liu,  E. Livshits,  A. Luenser,  P. Manohar,  
 E. Mansoor,  S. F. Manzer,  Shan-Ping Mao,  Yuezhi Mao,  N. Mardirossian,  
 A. V. Marenich,  T. Markovich,  L. A. Martinez-Martinez,  S. A. Maurer,  
 N. J. Mayhall,  S. C. McKenzie,  J.-M. Mewes,  A. F. Morrison,  
 J. W. Mullinax,  K. Nanda,  T. S. Nguyen-Beck,  R. Olivares-Amaya,  
 J. A. Parkhill,  T. M. Perrine,  F. Plasser,  P. Pokhilko,  S. Prager,  
 A. Prociuk,  E. Ramos,  D. R. Rehn,  F. Rob,  M. Schneider,  N. Sergueev,  
 S. M. Sharada,  S. Sharma,  D. W. Small,  T. Stauch,  T. Stein,  
 Yu-Chuan Su,  A. J. W. Thom,  A. Tkatchenko,  T. Tsuchimochi,  N. M. Tubman,  
 L. Vogt,  M. L. Vidal,  O. Vydrov,  M. A. Watson,  J. Wenzel,  
 M. de Wergifosse,  T. A. Wesolowski,  A. White,  J. Witte,  A. Yamada,  
 Jun Yang,  K. Yao,  S. Yeganeh,  S. R. Yost,  Zhi-Qiang You,  A. Zech,  
 Igor Ying Zhang,  Xing Zhang,  Yan Zhao,  Ying Zhu,  B. R. Brooks,  
 G. K. L. Chan,  C. J. Cramer,  M. S. Gordon,  W. J. Hehre,  A. Klamt,  
 M. W. Schmidt,  C. D. Sherrill,  D. G. Truhlar,  A. Aspuru-Guzik,  R. Baer,  
 A. T. Bell,  N. A. Besley,  Jeng-Da Chai,  A. E. DePrince, III,  
 R. A. DiStasio Jr.,  A. Dreuw,  B. D. Dunietz,  T. R. Furlani,  
 Chao-Ping Hsu,  Yousung Jung,  Jing Kong,  D. S. Lambrecht,  WanZhen Liang,  
 C. Ochsenfeld,  V. A. Rassolov,  L. V. Slipchenko,  J. E. Subotnik,  
 T. Van Voorhis,  J. M. Herbert,  A. I. Krylov,  P. M. W. Gill,  M. Head-Gordon

 Contributors to earlier versions of Q-Chem not listed above: 
 R. D. Adamson,  B. Austin,  J. Baker,  G. J. O. Beran,  K. Brandhorst,  
 S. T. Brown,  E. F. C. Byrd,  A. K. Chakraborty,  C.-L. Cheng,  
 Siu Hung Chien,  D. M. Chipman,  D. L. Crittenden,  H. Dachsel,  
 R. J. Doerksen,  A. D. Dutoi,  L. Fusti-Molnar,  W. A. Goddard III,  
 A. Golubeva-Zadorozhnaya,  S. R. Gwaltney,  G. Hawkins,  A. Heyden,  
 S. Hirata,  G. Kedziora,  F. J. Keil,  C. Kelley,  Jihan Kim,  R. A. King,  
 R. Z. Khaliullin,  P. P. Korambath,  W. Kurlancheek,  A. M. Lee,  M. S. Lee,  
 S. V. Levchenko,  Ching Yeh Lin,  D. Liotard,  R. C. Lochan,  I. Lotan,  
 P. E. Maslen,  N. Nair,  D. P. O'Neill,  D. Neuhauser,  E. Neuscamman,  
 C. M. Oana,  R. Olson,  B. Peters,  R. Peverati,  P. A. Pieniazek,  
 Y. M. Rhee,  J. Ritchie,  M. A. Rohrdanz,  E. Rosta,  N. J. Russ,  
 H. F. Schaefer III,  N. E. Schultz,  N. Shenvi,  A. C. Simmonett,  A. Sodt,  
 D. Stuck,  K. S. Thanthiriwatte,  V. Vanovschi,  Tao Wang,  A. Warshel,  
 C. F. Williams,  Q. Wu,  X. Xu,  W. Zhang

 Please cite Q-Chem as follows:
 Y. Shao et al., Mol. Phys. 113, 184-215 (2015)
 DOI: 10.1080/00268976.2014.952696

 Q-Chem 5.1.1 for Intel X86 EM64T Linux

 Parts of Q-Chem use Armadillo 8.300.2 (Tropical Shenanigans).
 http://arma.sourceforge.net/

 Q-Chem begins on Mon Jul 13 23:04:00 2020  

Host: n0053.mhg0
0

     Scratch files written to /local/scratch/users/yhljason/NH3_ccsdT_aug-cc-pcVQZ.inp20200713023006//
The previous job contains 0 fragments, simply inherited here
Input Ideriv = 0
Curr. Ideriv = -1
Max.  Ideriv = 0

Checking the input file for inconsistencies... 	...done.

--------------------------------------------------------------
User input:
--------------------------------------------------------------
$molecule
read
$end

$rem

jobtype sp
method CCSD(T)
xc_grid 000099000590
basis aug-cc-pcVQZ
max_scf_cycles 200
thresh 14
scf_convergence 8
mem_total 128000
cc_memory 96000
cc_backend xm
mem_static 1500
symmetry false
sym_ignore true
scf_guess read
unrestricted true
scf_algorithm gdm
n_frozen_core 0
$end

$multipole_field
XX 0.0001
$end


--------------------------------------------------------------
 ----------------------------------------------------------------
             Standard Nuclear Orientation (Angstroms)
    I     Atom           X                Y                Z
 ----------------------------------------------------------------
    1      N       0.0000000000     0.0000000000     0.0000000000
    2      H       0.0000000000    -0.9377000000    -0.3816000000
    3      H       0.8121000000     0.4689000000    -0.3816000000
    4      H      -0.8121000000     0.4689000000    -0.3816000000
 ----------------------------------------------------------------
 Nuclear Repulsion Energy =    11.9539937263 hartrees
 There are        5 alpha and        5 beta electrons
 Requested basis set is aug-cc-pCVQZ
 There are 71 shells and 247 basis functions
 Total memory of 128000MB is distributed as follows: 
   QALLOC including MEM_STATIC uses 32000MB
   MEM_STATIC is set to 1500MB
   CCMAN JOB total memory use is  96000MB
 Warning: actual memory use might exceed 128000MB

 Total QAlloc Memory Limit  32000 MB
 Mega-Array Size      1467 MB
 MEM_STATIC part      1500 MB

                       Distance Matrix (Angstroms)
             N (  1)   H (  2)   H (  3)
   H (  2)  1.012373
   H (  3)  1.012419  1.624201
   H (  4)  1.012419  1.624201  1.624200
 
 Applying Cartesian multipole field
    Component          Value
    ---------          -----
     (2,0,0)        1.00000E-04
 Nucleus-field energy     =     0.0004710280 hartrees
 A cutoff of  1.0D-14 yielded   2556 shell pairs
 There are     31120 function pairs (     47305 Cartesian)
 
 -------------------------------------------------------
 OpenMP Integral Computing Module                       
 Release: version 1.0, May 2013, Q-Chem Inc. Pittsburgh 
 -------------------------------------------------------
 Integral Job Info:
 Integral job number is                      11
 Integral operator is                         1
 short-range coefficients                     0
 long-range coefficients              100000000
 Omega coefficients                           0
 if combine SR and LR in K                    0
 Integral screening is                        0
 Integral computing path is                   2
 max size of driver memory is           3200000
 size of driver memory is               1704330
 size of scratch memory is             18511652
 max col of scratch BK array              50625
 max len of scratch array in speh3         2114
 max len of scratch index in speh4           50
 max int batch size is                      520
 min int batch size is                       52
 fixed nKL is                                52
 max L of basis functions is                  4
 order of int derivative is                   0
 number of shells is                         71
 number of basis is                         304
 number of cartesian basis is               304
 number of contracted shell pairs          2556
 number of primitive shell pairs           4515
 maxK2 (contraction) of shell pair           81
 max number of K2 of shell pair               1
 max number of CS2 of shell pair            364
 max number of PS2 of shell pair            369
 mem total for path MDJ                  671149
 -------------------------------------------------------
 Smallest overlap matrix eigenvalue = 5.04E-05
 Guess MOs from SCF MO coefficient file

 -----------------------------------------------------------------------
  General SCF calculation program by
  Eric Jon Sundstrom, Paul Horn, Yuezhi Mao, Dmitri Zuev, Alec White,
  David Stuck, Shaama M.S., Shane Yost, Joonho Lee, David Small,
  Daniel Levine, Susi Lehtola, Hugh Burton, Evgeny Epifanovsky
 -----------------------------------------------------------------------
 Hartree-Fock
 using 8 threads for integral computing
 -------------------------------------------------------
 OpenMP Integral computing Module                
 Release: version 2.0, May 2017, Q-Chem Inc. Pleasanton 
 -------------------------------------------------------
 A unrestricted SCF calculation will be
 performed using GDM
 SCF converges when RMS gradient is below 1.0e-08
 ---------------------------------------
  Cycle       Energy        RMS Gradient
 ---------------------------------------
    1     -56.2244832101      1.46e-04   Normal BFGS step
    2     -56.2244834310      4.94e-05   Normal BFGS step
    3     -56.2244834584      1.09e-05   Normal BFGS step
    4     -56.2244834599      3.07e-06   Normal BFGS step
    5     -56.2244834600      5.99e-07   Normal BFGS step
    6     -56.2244834600      1.26e-07   Normal BFGS step
    7     -56.2244834600      3.26e-08   Normal BFGS step
    8     -56.2244834600      1.11e-08   Normal BFGS step
    9     -56.2244834600      2.31e-09  Convergence criterion met
 ---------------------------------------
 SCF time:   CPU 687.66s  wall 86.00s 
<S^2> =          0.000000000
 SCF   energy in the final basis set =      -56.2244834600
 Total energy in the final basis set =      -56.2244834600


 ------------------------------------------------------------------------------

   CCMAN2: suite of methods based on coupled cluster
           and equation of motion theories.

   Components:
   * libvmm-1.3-trunk
     by Evgeny Epifanovsky, Ilya Kaliman.
   * libtensor-2.5-trunk
     by Evgeny Epifanovsky, Michael Wormit, Dmitry Zuev, Sam Manzer, 
        Ilya Kaliman.
   * libcc-2.5-trunk
     by Evgeny Epifanovsky, Arik Landau, Tomasz Kus, Kirill Khistyaev, 
        Dmitry Zuev, Prashant Manohar, Xintian Feng, Anna Krylov, 
        Matthew Goldey, Alec White, Thomas Jagau, Kaushik Nanda, 
        Anastasia Gunina, Alexander Kunitsa, Joonho Lee.

   CCMAN original authors:
   Anna I. Krylov, C. David Sherrill, Steven R. Gwaltney,
   Edward F. C. Byrd (2000)
   Sergey V. Levchenko, Lyudmila V. Slipchenko, Tao Wang,
   Ana-Maria C. Cristian (2003)
   Piotr A. Pieniazek, C. Melania Oana, Evgeny Epifanovsky (2007)
   Prashant Manohar (2009)

 ------------------------------------------------------------------------------


 Calculation will run on 8 cores using libxm for tensor contractions

 ------------------------------------------------------------------------------
Libxm Tensor Library
Copyright (c) 2014-2018 Ilya Kaliman
https://github.com/ilyak/libxm
Reference: https://dx.doi.org/10.1002/jcc.24713
 ------------------------------------------------------------------------------

 
 Alpha MOs, Unrestricted
 -- Occupied --                  
-15.541  -1.142  -0.629  -0.629  -0.430
  1 A     2 A     3 A     4 A     5 A                                          
 -- Virtual --                   
  0.024   0.039   0.042   0.097   0.130   0.136   0.138   0.182
  6 A     7 A     8 A     9 A    10 A    11 A    12 A    13 A                  
  0.183   0.187   0.188   0.209   0.282   0.292   0.296   0.297
 14 A    15 A    16 A    17 A    18 A    19 A    20 A    21 A                  
  0.353   0.381   0.381   0.388   0.389   0.422   0.473   0.473
 22 A    23 A    24 A    25 A    26 A    27 A    28 A    29 A                  
  0.558   0.558   0.559   0.594   0.682   0.682   0.697   0.700
 30 A    31 A    32 A    33 A    34 A    35 A    36 A    37 A                  
  0.716   0.717   0.750   0.779   0.779   0.781   0.830   0.830
 38 A    39 A    40 A    41 A    42 A    43 A    44 A    45 A                  
  0.850   0.857   0.857   0.871   0.872   0.978   1.014   1.015
 46 A    47 A    48 A    49 A    50 A    51 A    52 A    53 A                  
  1.133   1.222   1.222   1.354   1.355   1.355   1.369   1.375
 54 A    55 A    56 A    57 A    58 A    59 A    60 A    61 A                  
  1.450   1.450   1.517   1.536   1.536   1.575   1.602   1.659
 62 A    63 A    64 A    65 A    66 A    67 A    68 A    69 A                  
  1.659   1.698   1.698   1.728   1.749   1.749   1.814   1.828
 70 A    71 A    72 A    73 A    74 A    75 A    76 A    77 A                  
  1.828   1.851   1.896   1.897   1.985   1.985   2.018   2.018
 78 A    79 A    80 A    81 A    82 A    83 A    84 A    85 A                  
  2.036   2.060   2.099   2.113   2.113   2.195   2.267   2.268
 86 A    87 A    88 A    89 A    90 A    91 A    92 A    93 A                  
  2.284   2.408   2.408   2.774   2.897   2.897   2.921   2.928
 94 A    95 A    96 A    97 A    98 A    99 A   100 A   101 A                  
  2.928   2.941   3.001   3.001   3.035   3.035   3.059   3.110
102 A   103 A   104 A   105 A   106 A   107 A   108 A   109 A                  
  3.128   3.196   3.196   3.266   3.266   3.401   3.401   3.465
110 A   111 A   112 A   113 A   114 A   115 A   116 A   117 A                  
  3.542   3.542   3.570   3.710   3.896   3.911   3.911   4.139
118 A   119 A   120 A   121 A   122 A   123 A   124 A   125 A                  
  4.139   4.142   4.180   4.180   4.219   4.229   4.294   4.373
126 A   127 A   128 A   129 A   130 A   131 A   132 A   133 A                  
  4.373   4.692   4.692   4.951   4.951   5.054   5.180   5.180
134 A   135 A   136 A   137 A   138 A   139 A   140 A   141 A                  
  5.335   5.335   5.459   5.569   6.828   6.828   6.897   6.932
142 A   143 A   144 A   145 A   146 A   147 A   148 A   149 A                  
  6.932   7.009   7.380   7.393   7.393   7.424   7.424   7.485
150 A   151 A   152 A   153 A   154 A   155 A   156 A   157 A                  
  7.681   7.706   7.706   7.856   7.856   7.927   7.927   7.970
158 A   159 A   160 A   161 A   162 A   163 A   164 A   165 A                  
  8.141   8.239   8.306   8.307   8.483   8.546   8.546   8.604
166 A   167 A   168 A   169 A   170 A   171 A   172 A   173 A                  
  8.604   8.774   8.887   8.887   8.914   8.935   8.973   8.973
174 A   175 A   176 A   177 A   178 A   179 A   180 A   181 A                  
  8.994   9.001   9.159   9.159   9.355   9.355   9.486   9.496
182 A   183 A   184 A   185 A   186 A   187 A   188 A   189 A                  
  9.496   9.774   9.774   9.774   9.801   9.967   9.967  10.107
190 A   191 A   192 A   193 A   194 A   195 A   196 A   197 A                  
 10.282  10.282  10.487  10.487  10.683  10.858  10.976  10.976
198 A   199 A   200 A   201 A   202 A   203 A   204 A   205 A                  
 11.684  12.096  12.184  12.184  12.343  12.343  12.928  12.928
206 A   207 A   208 A   209 A   210 A   211 A   212 A   213 A                  
 13.046  14.215  14.839  14.840  16.817  27.559  29.088  29.088
214 A   215 A   216 A   217 A   218 A   219 A   220 A   221 A                  
 37.944  37.944  38.170  38.661  38.661  50.958  92.662  93.833
222 A   223 A   224 A   225 A   226 A   227 A   228 A   229 A                  
 93.834 112.288 112.313 112.313 112.334 112.356 112.356 112.390
230 A   231 A   232 A   233 A   234 A   235 A   236 A   237 A                  
157.444 157.444 157.553 157.827 157.827 167.525 310.133 311.093
238 A   239 A   240 A   241 A   242 A   243 A   244 A   245 A                  
311.093 688.514
246 A   247 A                                                                  
 
 Beta MOs, Unrestricted
 -- Occupied --                  
-15.541  -1.142  -0.629  -0.629  -0.430
  1 A     2 A     3 A     4 A     5 A                                          
 -- Virtual --                   
  0.024   0.039   0.042   0.097   0.130   0.136   0.138   0.182
  6 A     7 A     8 A     9 A    10 A    11 A    12 A    13 A                  
  0.183   0.187   0.188   0.209   0.282   0.292   0.296   0.297
 14 A    15 A    16 A    17 A    18 A    19 A    20 A    21 A                  
  0.353   0.381   0.381   0.388   0.389   0.422   0.473   0.473
 22 A    23 A    24 A    25 A    26 A    27 A    28 A    29 A                  
  0.558   0.558   0.559   0.594   0.682   0.682   0.697   0.700
 30 A    31 A    32 A    33 A    34 A    35 A    36 A    37 A                  
  0.716   0.717   0.750   0.779   0.779   0.781   0.830   0.830
 38 A    39 A    40 A    41 A    42 A    43 A    44 A    45 A                  
  0.850   0.857   0.857   0.871   0.872   0.978   1.014   1.015
 46 A    47 A    48 A    49 A    50 A    51 A    52 A    53 A                  
  1.133   1.222   1.222   1.354   1.355   1.355   1.369   1.375
 54 A    55 A    56 A    57 A    58 A    59 A    60 A    61 A                  
  1.450   1.450   1.517   1.536   1.536   1.575   1.602   1.659
 62 A    63 A    64 A    65 A    66 A    67 A    68 A    69 A                  
  1.659   1.698   1.698   1.728   1.749   1.749   1.814   1.828
 70 A    71 A    72 A    73 A    74 A    75 A    76 A    77 A                  
  1.828   1.851   1.896   1.897   1.985   1.985   2.018   2.018
 78 A    79 A    80 A    81 A    82 A    83 A    84 A    85 A                  
  2.036   2.060   2.099   2.113   2.113   2.195   2.267   2.268
 86 A    87 A    88 A    89 A    90 A    91 A    92 A    93 A                  
  2.284   2.408   2.408   2.774   2.897   2.897   2.921   2.928
 94 A    95 A    96 A    97 A    98 A    99 A   100 A   101 A                  
  2.928   2.941   3.001   3.001   3.035   3.035   3.059   3.110
102 A   103 A   104 A   105 A   106 A   107 A   108 A   109 A                  
  3.128   3.196   3.196   3.266   3.266   3.401   3.401   3.465
110 A   111 A   112 A   113 A   114 A   115 A   116 A   117 A                  
  3.542   3.542   3.570   3.710   3.896   3.911   3.911   4.139
118 A   119 A   120 A   121 A   122 A   123 A   124 A   125 A                  
  4.139   4.142   4.180   4.180   4.219   4.229   4.294   4.373
126 A   127 A   128 A   129 A   130 A   131 A   132 A   133 A                  
  4.373   4.692   4.692   4.951   4.951   5.054   5.180   5.180
134 A   135 A   136 A   137 A   138 A   139 A   140 A   141 A                  
  5.335   5.335   5.459   5.569   6.828   6.828   6.897   6.932
142 A   143 A   144 A   145 A   146 A   147 A   148 A   149 A                  
  6.932   7.009   7.380   7.393   7.393   7.424   7.424   7.485
150 A   151 A   152 A   153 A   154 A   155 A   156 A   157 A                  
  7.681   7.706   7.706   7.856   7.856   7.927   7.927   7.970
158 A   159 A   160 A   161 A   162 A   163 A   164 A   165 A                  
  8.141   8.239   8.306   8.307   8.483   8.546   8.546   8.604
166 A   167 A   168 A   169 A   170 A   171 A   172 A   173 A                  
  8.604   8.774   8.887   8.887   8.914   8.935   8.973   8.973
174 A   175 A   176 A   177 A   178 A   179 A   180 A   181 A                  
  8.994   9.001   9.159   9.159   9.355   9.355   9.486   9.496
182 A   183 A   184 A   185 A   186 A   187 A   188 A   189 A                  
  9.496   9.774   9.774   9.774   9.801   9.967   9.967  10.107
190 A   191 A   192 A   193 A   194 A   195 A   196 A   197 A                  
 10.282  10.282  10.487  10.487  10.683  10.858  10.976  10.976
198 A   199 A   200 A   201 A   202 A   203 A   204 A   205 A                  
 11.684  12.096  12.184  12.184  12.343  12.343  12.928  12.928
206 A   207 A   208 A   209 A   210 A   211 A   212 A   213 A                  
 13.046  14.215  14.839  14.840  16.817  27.559  29.088  29.088
214 A   215 A   216 A   217 A   218 A   219 A   220 A   221 A                  
 37.944  37.944  38.170  38.661  38.661  50.958  92.662  93.833
222 A   223 A   224 A   225 A   226 A   227 A   228 A   229 A                  
 93.834 112.288 112.313 112.313 112.334 112.356 112.356 112.390
230 A   231 A   232 A   233 A   234 A   235 A   236 A   237 A                  
157.444 157.444 157.553 157.827 157.827 167.525 310.133 311.093
238 A   239 A   240 A   241 A   242 A   243 A   244 A   245 A                  
311.093 688.514
246 A   247 A                                                                  

 Occupation and symmetry of molecular orbitals

 Point group: C1 (1 irreducible representation).

                           A     All 
 -------------------------------------
 All molecular orbitals:
  - Alpha                  247   247 
  - Beta                   247   247 
 -------------------------------------
 Alpha orbitals:
  - Frozen occupied        0     0   
  - Active occupied        5     5   
  - Active virtual         242   242 
  - Frozen virtual         0     0   
 -------------------------------------
 Beta orbitals:
  - Frozen occupied        0     0   
  - Active occupied        5     5   
  - Active virtual         242   242 
  - Frozen virtual         0     0   
 -------------------------------------

 Import integrals:   CPU 0.00 s  wall 0.00 s

 Import integrals:   CPU 2087.59 s  wall 390.89 s

 MP2 amplitudes:   CPU 2.91 s  wall 1.10 s

Running a double precision version
           CCSD T amplitudes will be solved using DIIS.

           Start     Size      MaxIter   EConv     TConv     
           3         7         100       1.00e-06  1.00e-04  
 ------------------------------------------------------------------------------
           Energy (a.u.)   Ediff      Tdiff       Comment
 ------------------------------------------------------------------------------
           -56.53439774                           
     1     -56.53814342   3.75e-03   4.53e-01     
     2     -56.54365393   5.51e-03   4.80e-02     
     3     -56.54402738   3.73e-04   1.51e-02     
     4     -56.54449860   4.71e-04   5.09e-03     Switched to DIIS steps.
     5     -56.54458898   9.04e-05   2.65e-03     
     6     -56.54458760   1.38e-06   4.49e-04     
     7     -56.54458836   7.57e-07   1.96e-04     
     8     -56.54458847   1.06e-07   4.45e-05     
 ------------------------------------------------------------------------------
           -56.54458847                           CCSD T converged.

End of double precision

----------------------------------------
libpt (c) 2016-2018 Ilya Kaliman
Fast Coupled Cluster Triples Corrections
https://github.com/ilyak/libpt
----------------------------------------

 Starting (T) calculation...
 Using double precision libpt code
 (T) calculation completed in 82 sec
 (T) energy is -0.0094430723

 SCF energy                 = -56.22448346
 MP2 energy                 = -56.53439774
 CCSD correlation energy     =  -0.32010501
 CCSD total energy           = -56.54458847
 CCSD(T) correlation energy =  -0.00944307
 CCSD(T) total energy       = -56.55403154

 CCSD  T1^2 = 0.0011  T2^2 = 0.0767  Leading amplitudes:

 Amplitude    Orbitals with energies
 -0.0083       5 (A) A                   ->    9 (A) A                    
              -0.4301                          0.0968                     
 -0.0083       5 (A) B                   ->    9 (A) B                    
              -0.4301                          0.0968                     
  0.0068       5 (A) A                   ->    17 (A) A                   
              -0.4301                          0.2088                     
  0.0068       5 (A) B                   ->    17 (A) B                   
              -0.4301                          0.2088                     

 Amplitude    Orbitals with energies
 -0.0174       3 (A) A       3 (A) B     ->    25 (A) A      25 (A) B     
              -0.6290       -0.6290            0.3876        0.3876       
  0.0174       3 (A) A       3 (A) B     ->    25 (A) B      25 (A) A     
              -0.6290       -0.6290            0.3876        0.3876       
  0.0174       3 (A) B       3 (A) A     ->    25 (A) A      25 (A) B     
              -0.6290       -0.6290            0.3876        0.3876       
 -0.0174       3 (A) B       3 (A) A     ->    25 (A) B      25 (A) A     
              -0.6290       -0.6290            0.3876        0.3876       

 CCSD calculation:   CPU 2596.35 s  wall 391.75 s

 Total ccman2 time:   CPU 4728.01 s  wall 814.58 s

 
 --------------------------------------------------------------
 
                    Orbital Energies (a.u.)
 --------------------------------------------------------------
 
 Alpha MOs
 -- Occupied --
-15.541  -1.142  -0.629  -0.629  -0.430
 -- Virtual --
  0.024   0.039   0.042   0.097   0.130   0.136   0.138   0.182
  0.183   0.187   0.188   0.209   0.282   0.292   0.296   0.297
  0.353   0.381   0.381   0.388   0.389   0.422   0.473   0.473
  0.558   0.558   0.559   0.594   0.682   0.682   0.697   0.700
  0.716   0.717   0.750   0.779   0.779   0.781   0.830   0.830
  0.850   0.857   0.857   0.871   0.872   0.978   1.014   1.015
  1.133   1.222   1.222   1.354   1.355   1.355   1.369   1.375
  1.450   1.450   1.517   1.536   1.536   1.575   1.602   1.659
  1.659   1.698   1.698   1.728   1.749   1.749   1.814   1.828
  1.828   1.851   1.896   1.897   1.985   1.985   2.018   2.018
  2.036   2.060   2.099   2.113   2.113   2.195   2.267   2.268
  2.284   2.408   2.408   2.774   2.897   2.897   2.921   2.928
  2.928   2.941   3.001   3.001   3.035   3.035   3.059   3.110
  3.128   3.196   3.196   3.266   3.266   3.401   3.401   3.465
  3.542   3.542   3.570   3.710   3.896   3.911   3.911   4.139
  4.139   4.142   4.180   4.180   4.219   4.229   4.294   4.373
  4.373   4.692   4.692   4.951   4.951   5.054   5.180   5.180
  5.335   5.335   5.459   5.569   6.828   6.828   6.897   6.932
  6.932   7.009   7.380   7.393   7.393   7.424   7.424   7.485
  7.681   7.706   7.706   7.856   7.856   7.927   7.927   7.970
  8.141   8.239   8.306   8.307   8.483   8.546   8.546   8.604
  8.604   8.774   8.887   8.887   8.914   8.935   8.973   8.973
  8.994   9.001   9.159   9.159   9.355   9.355   9.486   9.496
  9.496   9.774   9.774   9.774   9.801   9.967   9.967  10.107
 10.282  10.282  10.487  10.487  10.683  10.858  10.976  10.976
 11.684  12.096  12.184  12.184  12.343  12.343  12.928  12.928
 13.046  14.215  14.839  14.840  16.817  27.559  29.088  29.088
 37.944  37.944  38.170  38.661  38.661  50.958  92.662  93.833
 93.834 112.288 112.313 112.313 112.334 112.356 112.356 112.390
157.444 157.444 157.553 157.827 157.827 167.525 310.133 311.093
311.093 688.514
 
 Beta MOs
 -- Occupied --
-15.541  -1.142  -0.629  -0.629  -0.430
 -- Virtual --
  0.024   0.039   0.042   0.097   0.130   0.136   0.138   0.182
  0.183   0.187   0.188   0.209   0.282   0.292   0.296   0.297
  0.353   0.381   0.381   0.388   0.389   0.422   0.473   0.473
  0.558   0.558   0.559   0.594   0.682   0.682   0.697   0.700
  0.716   0.717   0.750   0.779   0.779   0.781   0.830   0.830
  0.850   0.857   0.857   0.871   0.872   0.978   1.014   1.015
  1.133   1.222   1.222   1.354   1.355   1.355   1.369   1.375
  1.450   1.450   1.517   1.536   1.536   1.575   1.602   1.659
  1.659   1.698   1.698   1.728   1.749   1.749   1.814   1.828
  1.828   1.851   1.896   1.897   1.985   1.985   2.018   2.018
  2.036   2.060   2.099   2.113   2.113   2.195   2.267   2.268
  2.284   2.408   2.408   2.774   2.897   2.897   2.921   2.928
  2.928   2.941   3.001   3.001   3.035   3.035   3.059   3.110
  3.128   3.196   3.196   3.266   3.266   3.401   3.401   3.465
  3.542   3.542   3.570   3.710   3.896   3.911   3.911   4.139
  4.139   4.142   4.180   4.180   4.219   4.229   4.294   4.373
  4.373   4.692   4.692   4.951   4.951   5.054   5.180   5.180
  5.335   5.335   5.459   5.569   6.828   6.828   6.897   6.932
  6.932   7.009   7.380   7.393   7.393   7.424   7.424   7.485
  7.681   7.706   7.706   7.856   7.856   7.927   7.927   7.970
  8.141   8.239   8.306   8.307   8.483   8.546   8.546   8.604
  8.604   8.774   8.887   8.887   8.914   8.935   8.973   8.973
  8.994   9.001   9.159   9.159   9.355   9.355   9.486   9.496
  9.496   9.774   9.774   9.774   9.801   9.967   9.967  10.107
 10.282  10.282  10.487  10.487  10.683  10.858  10.976  10.976
 11.684  12.096  12.184  12.184  12.343  12.343  12.928  12.928
 13.046  14.215  14.839  14.840  16.817  27.559  29.088  29.088
 37.944  37.944  38.170  38.661  38.661  50.958  92.662  93.833
 93.834 112.288 112.313 112.313 112.334 112.356 112.356 112.390
157.444 157.444 157.553 157.827 157.827 167.525 310.133 311.093
311.093 688.514
 --------------------------------------------------------------
 
          Ground-State Mulliken Net Atomic Charges

     Atom                 Charge (a.u.)    Spin (a.u.)
  --------------------------------------------------------
      1 N                    -0.719826       0.000000
      2 H                     0.240614       0.000000
      3 H                     0.239606      -0.000000
      4 H                     0.239606      -0.000000
  --------------------------------------------------------
  Sum of atomic charges =     0.000000
  Sum of spin   charges =     0.000000

 -----------------------------------------------------------------
                    Cartesian Multipole Moments
 -----------------------------------------------------------------
    Charge (ESU x 10^10)
                 0.0000
    Dipole Moment (Debye)
         X       0.0000      Y      -0.0009      Z      -1.6168
       Tot       1.6168
    Quadrupole Moments (Debye-Ang)
        XX      -6.2264     XY       0.0000     YY      -6.2200
        XZ      -0.0000     YZ       0.0004     ZZ      -8.8824
    Octopole Moments (Debye-Ang^2)
       XXX       0.0000    XXY       0.9684    XYY       0.0000
       YYY      -0.9721    XXZ      -0.1915    XYZ      -0.0000
       YYZ      -0.1932    XZZ       0.0000    YZZ      -0.0006
       ZZZ       1.7292
    Hexadecapole Moments (Debye-Ang^3)
      XXXX      -9.9815   XXXY       0.0000   XXYY      -3.3234
      XYYY       0.0000   YYYY      -9.9590   XXXZ      -0.0000
      XXYZ      -0.4758   XYYZ      -0.0000   YYYZ       0.4773
      XXZZ      -3.7186   XYZZ       0.0000   YYZZ      -3.7143
      XZZZ      -0.0000   YZZZ       0.0009   ZZZZ     -12.2873
 -----------------------------------------------------------------
Archival summary:
1\1\n0053.mhg0\SP\ProcedureUnspecified\BasisUnspecified\13\yhljason\MonJul1323:21:222020MonJul1323:21:222020\0\\#,ProcedureUnspecified,BasisUnspecified,\\0,1\N\H,1,1.01237\H,1,1.01242,2,106.673\H,1,1.01242,2,106.673,3,-113.721,0\\HF=-56.2244835\\@

 Total job time:  1041.80s(wall), 5438.15s(cpu) 
 Mon Jul 13 23:21:22 2020

        *************************************************************
        *                                                           *
        *  Thank you very much for using Q-Chem.  Have a nice day.  *
        *                                                           *
        *************************************************************


 
User input: 3 of 7 
 
Q-Chem Developer Version!
                  Welcome to Q-Chem
     A Quantum Leap Into The Future Of Chemistry


 Q-Chem 5.1, Q-Chem, Inc., Pleasanton, CA (2018)

 Yihan Shao,  Zhengting Gan,  E. Epifanovsky,  A. T. B. Gilbert,  M. Wormit,  
 J. Kussmann,  A. W. Lange,  A. Behn,  Jia Deng,  Xintian Feng,  D. Ghosh,  
 M. Goldey,  P. R. Horn,  L. D. Jacobson,  I. Kaliman,  T. Kus,  A. Landau,  
 Jie Liu,  E. I. Proynov,  R. M. Richard,  R. P. Steele,  E. J. Sundstrom,  
 H. L. Woodcock III,  P. M. Zimmerman,  D. Zuev,  B. Albrecht,  E. Alguire,  
 S. A. Baeppler,  D. Barton,  Z. Benda,  Y. A. Bernard,  E. J. Berquist,  
 K. B. Bravaya,  H. Burton,  D. Casanova,  Chun-Min Chang,  Yunqing Chen,  
 A. Chien,  K. D. Closser,  M. P. Coons,  S. Coriani,  S. Dasgupta,  
 A. L. Dempwolff,  M. Diedenhofen,  Hainam Do,  R. G. Edgar,  Po-Tung Fang,  
 S. Faraji,  S. Fatehi,  Qingguo Feng,  K. D. Fenk,  J. Fosso-Tande,  
 Qinghui Ge,  A. Ghysels,  G. Gidofalvi,  J. Gomes,  J. Gonthier,  A. Gunina,  
 D. Hait,  M. W. D. Hanson-Heine,  P. H. P. Harbach,  A. W. Hauser,  
 J. E. Herr,  E. G. Hohenstein,  Z. C. Holden,  Kerwin Hui,  B. C. Huynh,  
 T.-C. Jagau,  Hyunjun Ji,  B. Kaduk,  K. Khistyaev,  Jaehoon Kim,  
 P. Klunzinger,  K. Koh,  D. Kosenkov,  L. Koulias,  T. Kowalczyk,  
 C. M. Krauter,  A. Kunitsa,  Ka Un Lao,  A. Laurent,  K. V. Lawler,  
 Joonho Lee,  D. Lefrancois,  S. Lehtola,  D. S. Levine,  Yi-Pei Li,  
 You-Sheng Lin,  Fenglai Liu,  E. Livshits,  A. Luenser,  P. Manohar,  
 E. Mansoor,  S. F. Manzer,  Shan-Ping Mao,  Yuezhi Mao,  N. Mardirossian,  
 A. V. Marenich,  T. Markovich,  L. A. Martinez-Martinez,  S. A. Maurer,  
 N. J. Mayhall,  S. C. McKenzie,  J.-M. Mewes,  A. F. Morrison,  
 J. W. Mullinax,  K. Nanda,  T. S. Nguyen-Beck,  R. Olivares-Amaya,  
 J. A. Parkhill,  T. M. Perrine,  F. Plasser,  P. Pokhilko,  S. Prager,  
 A. Prociuk,  E. Ramos,  D. R. Rehn,  F. Rob,  M. Schneider,  N. Sergueev,  
 S. M. Sharada,  S. Sharma,  D. W. Small,  T. Stauch,  T. Stein,  
 Yu-Chuan Su,  A. J. W. Thom,  A. Tkatchenko,  T. Tsuchimochi,  N. M. Tubman,  
 L. Vogt,  M. L. Vidal,  O. Vydrov,  M. A. Watson,  J. Wenzel,  
 M. de Wergifosse,  T. A. Wesolowski,  A. White,  J. Witte,  A. Yamada,  
 Jun Yang,  K. Yao,  S. Yeganeh,  S. R. Yost,  Zhi-Qiang You,  A. Zech,  
 Igor Ying Zhang,  Xing Zhang,  Yan Zhao,  Ying Zhu,  B. R. Brooks,  
 G. K. L. Chan,  C. J. Cramer,  M. S. Gordon,  W. J. Hehre,  A. Klamt,  
 M. W. Schmidt,  C. D. Sherrill,  D. G. Truhlar,  A. Aspuru-Guzik,  R. Baer,  
 A. T. Bell,  N. A. Besley,  Jeng-Da Chai,  A. E. DePrince, III,  
 R. A. DiStasio Jr.,  A. Dreuw,  B. D. Dunietz,  T. R. Furlani,  
 Chao-Ping Hsu,  Yousung Jung,  Jing Kong,  D. S. Lambrecht,  WanZhen Liang,  
 C. Ochsenfeld,  V. A. Rassolov,  L. V. Slipchenko,  J. E. Subotnik,  
 T. Van Voorhis,  J. M. Herbert,  A. I. Krylov,  P. M. W. Gill,  M. Head-Gordon

 Contributors to earlier versions of Q-Chem not listed above: 
 R. D. Adamson,  B. Austin,  J. Baker,  G. J. O. Beran,  K. Brandhorst,  
 S. T. Brown,  E. F. C. Byrd,  A. K. Chakraborty,  C.-L. Cheng,  
 Siu Hung Chien,  D. M. Chipman,  D. L. Crittenden,  H. Dachsel,  
 R. J. Doerksen,  A. D. Dutoi,  L. Fusti-Molnar,  W. A. Goddard III,  
 A. Golubeva-Zadorozhnaya,  S. R. Gwaltney,  G. Hawkins,  A. Heyden,  
 S. Hirata,  G. Kedziora,  F. J. Keil,  C. Kelley,  Jihan Kim,  R. A. King,  
 R. Z. Khaliullin,  P. P. Korambath,  W. Kurlancheek,  A. M. Lee,  M. S. Lee,  
 S. V. Levchenko,  Ching Yeh Lin,  D. Liotard,  R. C. Lochan,  I. Lotan,  
 P. E. Maslen,  N. Nair,  D. P. O'Neill,  D. Neuhauser,  E. Neuscamman,  
 C. M. Oana,  R. Olson,  B. Peters,  R. Peverati,  P. A. Pieniazek,  
 Y. M. Rhee,  J. Ritchie,  M. A. Rohrdanz,  E. Rosta,  N. J. Russ,  
 H. F. Schaefer III,  N. E. Schultz,  N. Shenvi,  A. C. Simmonett,  A. Sodt,  
 D. Stuck,  K. S. Thanthiriwatte,  V. Vanovschi,  Tao Wang,  A. Warshel,  
 C. F. Williams,  Q. Wu,  X. Xu,  W. Zhang

 Please cite Q-Chem as follows:
 Y. Shao et al., Mol. Phys. 113, 184-215 (2015)
 DOI: 10.1080/00268976.2014.952696

 Q-Chem 5.1.1 for Intel X86 EM64T Linux

 Parts of Q-Chem use Armadillo 8.300.2 (Tropical Shenanigans).
 http://arma.sourceforge.net/

 Q-Chem begins on Mon Jul 13 23:21:22 2020  

Host: n0053.mhg0
0

     Scratch files written to /local/scratch/users/yhljason/NH3_ccsdT_aug-cc-pcVQZ.inp20200713023006//
The previous job contains 0 fragments, simply inherited here
Input Ideriv = 0
Curr. Ideriv = -1
Max.  Ideriv = 0

Checking the input file for inconsistencies... 	...done.

--------------------------------------------------------------
User input:
--------------------------------------------------------------
$molecule
read
$end

$rem

jobtype sp
method CCSD(T)
xc_grid 000099000590
basis aug-cc-pcVQZ
max_scf_cycles 200
thresh 14
scf_convergence 8
mem_total 128000
cc_memory 96000
cc_backend xm
mem_static 1500
symmetry false
sym_ignore true
scf_guess read
unrestricted true
scf_algorithm gdm
n_frozen_core 0
$end

$multipole_field
XX -0.0001
$end


--------------------------------------------------------------
 ----------------------------------------------------------------
             Standard Nuclear Orientation (Angstroms)
    I     Atom           X                Y                Z
 ----------------------------------------------------------------
    1      N       0.0000000000     0.0000000000     0.0000000000
    2      H       0.0000000000    -0.9377000000    -0.3816000000
    3      H       0.8121000000     0.4689000000    -0.3816000000
    4      H      -0.8121000000     0.4689000000    -0.3816000000
 ----------------------------------------------------------------
 Nuclear Repulsion Energy =    11.9539937263 hartrees
 There are        5 alpha and        5 beta electrons
 Requested basis set is aug-cc-pCVQZ
 There are 71 shells and 247 basis functions
 Total memory of 128000MB is distributed as follows: 
   QALLOC including MEM_STATIC uses 32000MB
   MEM_STATIC is set to 1500MB
   CCMAN JOB total memory use is  96000MB
 Warning: actual memory use might exceed 128000MB

 Total QAlloc Memory Limit  32000 MB
 Mega-Array Size      1467 MB
 MEM_STATIC part      1500 MB

                       Distance Matrix (Angstroms)
             N (  1)   H (  2)   H (  3)
   H (  2)  1.012373
   H (  3)  1.012419  1.624201
   H (  4)  1.012419  1.624201  1.624200
 
 Applying Cartesian multipole field
    Component          Value
    ---------          -----
     (2,0,0)       -1.00000E-04
 Nucleus-field energy     =    -0.0004710280 hartrees
 A cutoff of  1.0D-14 yielded   2556 shell pairs
 There are     31120 function pairs (     47305 Cartesian)
 
 -------------------------------------------------------
 OpenMP Integral Computing Module                       
 Release: version 1.0, May 2013, Q-Chem Inc. Pittsburgh 
 -------------------------------------------------------
 Integral Job Info:
 Integral job number is                      11
 Integral operator is                         1
 short-range coefficients                     0
 long-range coefficients              100000000
 Omega coefficients                           0
 if combine SR and LR in K                    0
 Integral screening is                        0
 Integral computing path is                   2
 max size of driver memory is           3200000
 size of driver memory is               1704330
 size of scratch memory is             18511652
 max col of scratch BK array              50625
 max len of scratch array in speh3         2114
 max len of scratch index in speh4           50
 max int batch size is                      520
 min int batch size is                       52
 fixed nKL is                                52
 max L of basis functions is                  4
 order of int derivative is                   0
 number of shells is                         71
 number of basis is                         304
 number of cartesian basis is               304
 number of contracted shell pairs          2556
 number of primitive shell pairs           4515
 maxK2 (contraction) of shell pair           81
 max number of K2 of shell pair               1
 max number of CS2 of shell pair            364
 max number of PS2 of shell pair            369
 mem total for path MDJ                  671149
 -------------------------------------------------------
 Smallest overlap matrix eigenvalue = 5.04E-05
 Guess MOs from SCF MO coefficient file

 -----------------------------------------------------------------------
  General SCF calculation program by
  Eric Jon Sundstrom, Paul Horn, Yuezhi Mao, Dmitri Zuev, Alec White,
  David Stuck, Shaama M.S., Shane Yost, Joonho Lee, David Small,
  Daniel Levine, Susi Lehtola, Hugh Burton, Evgeny Epifanovsky
 -----------------------------------------------------------------------
 Hartree-Fock
 using 8 threads for integral computing
 -------------------------------------------------------
 OpenMP Integral computing Module                
 Release: version 2.0, May 2017, Q-Chem Inc. Pleasanton 
 -------------------------------------------------------
 A unrestricted SCF calculation will be
 performed using GDM
 SCF converges when RMS gradient is below 1.0e-08
 ---------------------------------------
  Cycle       Energy        RMS Gradient
 ---------------------------------------
    1     -56.2235576275      2.99e-04   Normal BFGS step
    2     -56.2235585117      1.02e-04   Normal BFGS step
    3     -56.2235586210      2.16e-05   Normal BFGS step
    4     -56.2235586270      6.13e-06   Normal BFGS step
    5     -56.2235586274      1.20e-06   Normal BFGS step
    6     -56.2235586274      2.48e-07   Normal BFGS step
    7     -56.2235586274      6.41e-08   Normal BFGS step
    8     -56.2235586274      2.19e-08   Normal BFGS step
    9     -56.2235586274      4.56e-09  Convergence criterion met
 ---------------------------------------
 SCF time:   CPU 687.19s  wall 86.00s 
<S^2> =          0.000000000
 SCF   energy in the final basis set =      -56.2235586274
 Total energy in the final basis set =      -56.2235586274


 ------------------------------------------------------------------------------

   CCMAN2: suite of methods based on coupled cluster
           and equation of motion theories.

   Components:
   * libvmm-1.3-trunk
     by Evgeny Epifanovsky, Ilya Kaliman.
   * libtensor-2.5-trunk
     by Evgeny Epifanovsky, Michael Wormit, Dmitry Zuev, Sam Manzer, 
        Ilya Kaliman.
   * libcc-2.5-trunk
     by Evgeny Epifanovsky, Arik Landau, Tomasz Kus, Kirill Khistyaev, 
        Dmitry Zuev, Prashant Manohar, Xintian Feng, Anna Krylov, 
        Matthew Goldey, Alec White, Thomas Jagau, Kaushik Nanda, 
        Anastasia Gunina, Alexander Kunitsa, Joonho Lee.

   CCMAN original authors:
   Anna I. Krylov, C. David Sherrill, Steven R. Gwaltney,
   Edward F. C. Byrd (2000)
   Sergey V. Levchenko, Lyudmila V. Slipchenko, Tao Wang,
   Ana-Maria C. Cristian (2003)
   Piotr A. Pieniazek, C. Melania Oana, Evgeny Epifanovsky (2007)
   Prashant Manohar (2009)

 ------------------------------------------------------------------------------


 Calculation will run on 8 cores using libxm for tensor contractions

 ------------------------------------------------------------------------------
Libxm Tensor Library
Copyright (c) 2014-2018 Ilya Kaliman
https://github.com/ilyak/libxm
Reference: https://dx.doi.org/10.1002/jcc.24713
 ------------------------------------------------------------------------------

 
 Alpha MOs, Unrestricted
 -- Occupied --                  
-15.540  -1.142  -0.628  -0.628  -0.430
  1 A     2 A     3 A     4 A     5 A                                          
 -- Virtual --                   
  0.029   0.046   0.049   0.099   0.134   0.141   0.143   0.185
  6 A     7 A     8 A     9 A    10 A    11 A    12 A    13 A                  
  0.186   0.190   0.190   0.211   0.285   0.294   0.299   0.299
 14 A    15 A    16 A    17 A    18 A    19 A    20 A    21 A                  
  0.356   0.383   0.383   0.391   0.392   0.423   0.475   0.475
 22 A    23 A    24 A    25 A    26 A    27 A    28 A    29 A                  
  0.559   0.559   0.560   0.595   0.683   0.684   0.699   0.703
 30 A    31 A    32 A    33 A    34 A    35 A    36 A    37 A                  
  0.718   0.719   0.752   0.781   0.781   0.783   0.831   0.832
 38 A    39 A    40 A    41 A    42 A    43 A    44 A    45 A                  
  0.851   0.858   0.858   0.873   0.874   0.979   1.016   1.016
 46 A    47 A    48 A    49 A    50 A    51 A    52 A    53 A                  
  1.134   1.223   1.223   1.355   1.356   1.356   1.370   1.376
 54 A    55 A    56 A    57 A    58 A    59 A    60 A    61 A                  
  1.451   1.451   1.518   1.537   1.537   1.576   1.603   1.660
 62 A    63 A    64 A    65 A    66 A    67 A    68 A    69 A                  
  1.660   1.699   1.699   1.729   1.750   1.750   1.815   1.829
 70 A    71 A    72 A    73 A    74 A    75 A    76 A    77 A                  
  1.829   1.852   1.897   1.898   1.986   1.986   2.019   2.019
 78 A    79 A    80 A    81 A    82 A    83 A    84 A    85 A                  
  2.037   2.061   2.100   2.114   2.114   2.196   2.269   2.269
 86 A    87 A    88 A    89 A    90 A    91 A    92 A    93 A                  
  2.285   2.409   2.409   2.774   2.898   2.898   2.922   2.929
 94 A    95 A    96 A    97 A    98 A    99 A   100 A   101 A                  
  2.929   2.941   3.002   3.002   3.035   3.035   3.059   3.111
102 A   103 A   104 A   105 A   106 A   107 A   108 A   109 A                  
  3.129   3.197   3.197   3.267   3.267   3.402   3.402   3.466
110 A   111 A   112 A   113 A   114 A   115 A   116 A   117 A                  
  3.543   3.543   3.571   3.711   3.896   3.912   3.912   4.140
118 A   119 A   120 A   121 A   122 A   123 A   124 A   125 A                  
  4.140   4.142   4.181   4.181   4.220   4.229   4.295   4.374
126 A   127 A   128 A   129 A   130 A   131 A   132 A   133 A                  
  4.374   4.693   4.693   4.952   4.952   5.055   5.180   5.180
134 A   135 A   136 A   137 A   138 A   139 A   140 A   141 A                  
  5.335   5.335   5.460   5.570   6.829   6.829   6.897   6.933
142 A   143 A   144 A   145 A   146 A   147 A   148 A   149 A                  
  6.933   7.009   7.381   7.394   7.394   7.424   7.424   7.486
150 A   151 A   152 A   153 A   154 A   155 A   156 A   157 A                  
  7.682   7.706   7.706   7.856   7.856   7.928   7.928   7.970
158 A   159 A   160 A   161 A   162 A   163 A   164 A   165 A                  
  8.141   8.240   8.307   8.307   8.483   8.546   8.546   8.604
166 A   167 A   168 A   169 A   170 A   171 A   172 A   173 A                  
  8.605   8.774   8.887   8.887   8.915   8.936   8.974   8.974
174 A   175 A   176 A   177 A   178 A   179 A   180 A   181 A                  
  8.995   9.002   9.160   9.160   9.356   9.356   9.486   9.496
182 A   183 A   184 A   185 A   186 A   187 A   188 A   189 A                  
  9.496   9.775   9.775   9.775   9.801   9.968   9.968  10.107
190 A   191 A   192 A   193 A   194 A   195 A   196 A   197 A                  
 10.282  10.282  10.488  10.488  10.684  10.859  10.977  10.977
198 A   199 A   200 A   201 A   202 A   203 A   204 A   205 A                  
 11.685  12.097  12.184  12.184  12.344  12.344  12.928  12.929
[...]

 
 Alpha MOs, Unrestricted
 -- Occupied --                  
-15.540  -1.142  -0.628  -0.628  -0.430
  1 A     2 A     3 A     4 A     5 A                                          
 -- Virtual --                   
  0.029   0.045   0.045   0.101   0.134   0.141   0.141   0.185
  6 A     7 A     8 A     9 A    10 A    11 A    12 A    13 A                  
  0.185   0.190   0.190   0.211   0.284   0.295   0.299   0.299
 14 A    15 A    16 A    17 A    18 A    19 A    20 A    21 A                  
  0.356   0.383   0.383   0.390   0.390   0.424   0.475   0.475
 22 A    23 A    24 A    25 A    26 A    27 A    28 A    29 A                  
  0.559   0.559   0.560   0.595   0.683   0.683   0.699   0.702
 30 A    31 A    32 A    33 A    34 A    35 A    36 A    37 A                  
  0.718   0.718   0.752   0.781   0.781   0.783   0.831   0.831
 38 A    39 A    40 A    41 A    42 A    43 A    44 A    45 A                  
  0.851   0.858   0.858   0.873   0.873   0.980   1.016   1.016
 46 A    47 A    48 A    49 A    50 A    51 A    52 A    53 A                  
  1.134   1.223   1.223   1.355   1.356   1.356   1.370   1.376
 54 A    55 A    56 A    57 A    58 A    59 A    60 A    61 A                  
  1.451   1.451   1.518   1.537   1.537   1.576   1.603   1.660
 62 A    63 A    64 A    65 A    66 A    67 A    68 A    69 A                  
  1.660   1.699   1.699   1.729   1.749   1.750   1.815   1.829
 70 A    71 A    72 A    73 A    74 A    75 A    76 A    77 A                  
  1.829   1.852   1.897   1.897   1.986   1.986   2.019   2.019
 78 A    79 A    80 A    81 A    82 A    83 A    84 A    85 A                  
  2.037   2.061   2.100   2.114   2.114   2.196   2.268   2.268
 86 A    87 A    88 A    89 A    90 A    91 A    92 A    93 A                  
  2.285   2.409   2.409   2.775   2.898   2.898   2.922   2.929
 94 A    95 A    96 A    97 A    98 A    99 A   100 A   101 A                  
  2.929   2.941   3.002   3.002   3.035   3.035   3.059   3.110
102 A   103 A   104 A   105 A   106 A   107 A   108 A   109 A                  
  3.129   3.197   3.197   3.267   3.267   3.402   3.402   3.466
110 A   111 A   112 A   113 A   114 A   115 A   116 A   117 A                  
  3.543   3.543   3.571   3.711   3.897   3.912   3.912   4.140
118 A   119 A   120 A   121 A   122 A   123 A   124 A   125 A                  
  4.140   4.142   4.181   4.181   4.220   4.229   4.295   4.374
126 A   127 A   128 A   129 A   130 A   131 A   132 A   133 A                  
  4.374   4.693   4.693   4.952   4.952   5.055   5.180   5.180
134 A   135 A   136 A   137 A   138 A   139 A   140 A   141 A                  
  5.335   5.335   5.460   5.570   6.829   6.829   6.897   6.933
142 A   143 A   144 A   145 A   146 A   147 A   148 A   149 A                  
  6.933   7.009   7.381   7.394   7.394   7.424   7.424   7.486
150 A   151 A   152 A   153 A   154 A   155 A   156 A   157 A                  
  7.681   7.706   7.706   7.856   7.856   7.928   7.928   7.970
158 A   159 A   160 A   161 A   162 A   163 A   164 A   165 A                  
  8.141   8.240   8.307   8.307   8.483   8.546   8.546   8.604
166 A   167 A   168 A   169 A   170 A   171 A   172 A   173 A                  
  8.604   8.774   8.887   8.887   8.915   8.936   8.974   8.974
174 A   175 A   176 A   177 A   178 A   179 A   180 A   181 A                  
  8.995   9.002   9.160   9.160   9.356   9.356   9.486   9.496
182 A   183 A   184 A   185 A   186 A   187 A   188 A   189 A                  
  9.496   9.775   9.775   9.775   9.801   9.968   9.968  10.107
190 A   191 A   192 A   193 A   194 A   195 A   196 A   197 A                  
 10.282  10.282  10.488  10.488  10.684  10.859  10.977  10.977
198 A   199 A   200 A   201 A   202 A   203 A   204 A   205 A                  
 11.685  12.097  12.184  12.184  12.344  12.344  12.928  12.929
206 A   207 A   208 A   209 A   210 A   211 A   212 A   213 A                  
 13.047  14.215  14.840  14.840  16.817  27.560  29.089  29.089
214 A   215 A   216 A   217 A   218 A   219 A   220 A   221 A                  
 37.944  37.944  38.170  38.662  38.662  50.959  92.663  93.834
222 A   223 A   224 A   225 A   226 A   227 A   228 A   229 A                  
 93.834 112.289 112.314 112.314 112.335 112.357 112.357 112.391
230 A   231 A   232 A   233 A   234 A   235 A   236 A   237 A                  
157.444 157.444 157.553 157.828 157.828 167.526 310.134 311.093
238 A   239 A   240 A   241 A   242 A   243 A   244 A   245 A                  
311.094 688.514
246 A   247 A                                                                  
 
 Beta MOs, Unrestricted
 -- Occupied --                  
-15.540  -1.142  -0.628  -0.628  -0.430
  1 A     2 A     3 A     4 A     5 A                                          
 -- Virtual --                   
  0.029   0.045   0.045   0.101   0.134   0.141   0.141   0.185
  6 A     7 A     8 A     9 A    10 A    11 A    12 A    13 A                  
  0.185   0.190   0.190   0.211   0.284   0.295   0.299   0.299
 14 A    15 A    16 A    17 A    18 A    19 A    20 A    21 A                  
  0.356   0.383   0.383   0.390   0.390   0.424   0.475   0.475
 22 A    23 A    24 A    25 A    26 A    27 A    28 A    29 A                  
  0.559   0.559   0.560   0.595   0.683   0.683   0.699   0.702
 30 A    31 A    32 A    33 A    34 A    35 A    36 A    37 A                  
  0.718   0.718   0.752   0.781   0.781   0.783   0.831   0.831
 38 A    39 A    40 A    41 A    42 A    43 A    44 A    45 A                  
  0.851   0.858   0.858   0.873   0.873   0.980   1.016   1.016
 46 A    47 A    48 A    49 A    50 A    51 A    52 A    53 A                  
  1.134   1.223   1.223   1.355   1.356   1.356   1.370   1.376
 54 A    55 A    56 A    57 A    58 A    59 A    60 A    61 A                  
  1.451   1.451   1.518   1.537   1.537   1.576   1.603   1.660
 62 A    63 A    64 A    65 A    66 A    67 A    68 A    69 A                  
  1.660   1.699   1.699   1.729   1.749   1.750   1.815   1.829
 70 A    71 A    72 A    73 A    74 A    75 A    76 A    77 A                  
  1.829   1.852   1.897   1.897   1.986   1.986   2.019   2.019
 78 A    79 A    80 A    81 A    82 A    83 A    84 A    85 A                  
  2.037   2.061   2.100   2.114   2.114   2.196   2.268   2.268
 86 A    87 A    88 A    89 A    90 A    91 A    92 A    93 A                  
  2.285   2.409   2.409   2.775   2.898   2.898   2.922   2.929
 94 A    95 A    96 A    97 A    98 A    99 A   100 A   101 A                  
  2.929   2.941   3.002   3.002   3.035   3.035   3.059   3.110
102 A   103 A   104 A   105 A   106 A   107 A   108 A   109 A                  
  3.129   3.197   3.197   3.267   3.267   3.402   3.402   3.466
110 A   111 A   112 A   113 A   114 A   115 A   116 A   117 A                  
  3.543   3.543   3.571   3.711   3.897   3.912   3.912   4.140
118 A   119 A   120 A   121 A   122 A   123 A   124 A   125 A                  
  4.140   4.142   4.181   4.181   4.220   4.229   4.295   4.374
126 A   127 A   128 A   129 A   130 A   131 A   132 A   133 A                  
  4.374   4.693   4.693   4.952   4.952   5.055   5.180   5.180
134 A   135 A   136 A   137 A   138 A   139 A   140 A   141 A                  
  5.335   5.335   5.460   5.570   6.829   6.829   6.897   6.933
142 A   143 A   144 A   145 A   146 A   147 A   148 A   149 A                  
  6.933   7.009   7.381   7.394   7.394   7.424   7.424   7.486
150 A   151 A   152 A   153 A   154 A   155 A   156 A   157 A                  
  7.681   7.706   7.706   7.856   7.856   7.928   7.928   7.970
158 A   159 A   160 A   161 A   162 A   163 A   164 A   165 A                  
  8.141   8.240   8.307   8.307   8.483   8.546   8.546   8.604
166 A   167 A   168 A   169 A   170 A   171 A   172 A   173 A                  
  8.604   8.774   8.887   8.887   8.915   8.936   8.974   8.974
174 A   175 A   176 A   177 A   178 A   179 A   180 A   181 A                  
  8.995   9.002   9.160   9.160   9.356   9.356   9.486   9.496
182 A   183 A   184 A   185 A   186 A   187 A   188 A   189 A                  
  9.496   9.775   9.775   9.775   9.801   9.968   9.968  10.107
190 A   191 A   192 A   193 A   194 A   195 A   196 A   197 A                  
 10.282  10.282  10.488  10.488  10.684  10.859  10.977  10.977
198 A   199 A   200 A   201 A   202 A   203 A   204 A   205 A                  
 11.685  12.097  12.184  12.184  12.344  12.344  12.928  12.929
206 A   207 A   208 A   209 A   210 A   211 A   212 A   213 A                  
 13.047  14.215  14.840  14.840  16.817  27.560  29.089  29.089
214 A   215 A   216 A   217 A   218 A   219 A   220 A   221 A                  
 37.944  37.944  38.170  38.662  38.662  50.959  92.663  93.834
222 A   223 A   224 A   225 A   226 A   227 A   228 A   229 A                  
 93.834 112.289 112.314 112.314 112.335 112.357 112.357 112.391
230 A   231 A   232 A   233 A   234 A   235 A   236 A   237 A                  
157.444 157.444 157.553 157.828 157.828 167.526 310.134 311.093
238 A   239 A   240 A   241 A   242 A   243 A   244 A   245 A                  
311.094 688.514
246 A   247 A                                                                  

 Occupation and symmetry of molecular orbitals

 Point group: C1 (1 irreducible representation).

                           A     All 
 -------------------------------------
 All molecular orbitals:
  - Alpha                  247   247 
  - Beta                   247   247 
 -------------------------------------
 Alpha orbitals:
  - Frozen occupied        0     0   
  - Active occupied        5     5   
  - Active virtual         242   242 
  - Frozen virtual         0     0   
 -------------------------------------
 Beta orbitals:
  - Frozen occupied        0     0   
  - Active occupied        5     5   
  - Active virtual         242   242 
  - Frozen virtual         0     0   
 -------------------------------------

 Import integrals:   CPU 0.00 s  wall 0.00 s

 Import integrals:   CPU 2110.46 s  wall 398.69 s

 MP2 amplitudes:   CPU 2.90 s  wall 1.10 s

Running a double precision version
           CCSD T amplitudes will be solved using DIIS.

           Start     Size      MaxIter   EConv     TConv     
           3         7         100       1.00e-06  1.00e-04  
 ------------------------------------------------------------------------------
           Energy (a.u.)   Ediff      Tdiff       Comment
 ------------------------------------------------------------------------------
           -56.53324734                           
     1     -56.53701131   3.76e-03   4.53e-01     
     2     -56.54251719   5.51e-03   4.80e-02     
     3     -56.54289177   3.75e-04   1.51e-02     
     4     -56.54336319   4.71e-04   5.10e-03     Switched to DIIS steps.
     5     -56.54345272   8.95e-05   2.64e-03     
     6     -56.54345136   1.37e-06   4.47e-04     
     7     -56.54345212   7.63e-07   1.93e-04     
     8     -56.54345222   1.02e-07   4.40e-05     
 ------------------------------------------------------------------------------
           -56.54345222                           CCSD T converged.

End of double precision

----------------------------------------
libpt (c) 2016-2018 Ilya Kaliman
Fast Coupled Cluster Triples Corrections
https://github.com/ilyak/libpt
----------------------------------------

 Starting (T) calculation...
 Using double precision libpt code
 (T) calculation completed in 84 sec
 (T) energy is -0.0094371541

 SCF energy                 = -56.22336082
 MP2 energy                 = -56.53324734
 CCSD correlation energy     =  -0.32009140
 CCSD total energy           = -56.54345222
 CCSD(T) correlation energy =  -0.00943715
 CCSD(T) total energy       = -56.55288937

 CCSD  T1^2 = 0.0011  T2^2 = 0.0767  Leading amplitudes:

 Amplitude    Orbitals with energies
  0.0083       5 (A) A                   ->    9 (A) A                    
              -0.4295                          0.1007                     
  0.0083       5 (A) B                   ->    9 (A) B                    
              -0.4295                          0.1007                     
  0.0068       5 (A) A                   ->    17 (A) A                   
              -0.4295                          0.2113                     
  0.0068       5 (A) B                   ->    17 (A) B                   
              -0.4295                          0.2113                     

 Amplitude    Orbitals with energies
 -0.0165       3 (A) A       3 (A) B     ->    26 (A) A      26 (A) B     
              -0.6285       -0.6285            0.3905        0.3905       
  0.0165       3 (A) A       3 (A) B     ->    26 (A) B      26 (A) A     
              -0.6285       -0.6285            0.3905        0.3905       
  0.0165       3 (A) B       3 (A) A     ->    26 (A) A      26 (A) B     
              -0.6285       -0.6285            0.3905        0.3905       
 -0.0165       3 (A) B       3 (A) A     ->    26 (A) B      26 (A) A     
              -0.6285       -0.6285            0.3905        0.3905       

 CCSD calculation:   CPU 2544.80 s  wall 389.49 s

 Total ccman2 time:   CPU 4698.56 s  wall 819.42 s

 
 --------------------------------------------------------------
 
                    Orbital Energies (a.u.)
 --------------------------------------------------------------
 
 Alpha MOs
 -- Occupied --
-15.540  -1.142  -0.628  -0.628  -0.430
 -- Virtual --
  0.029   0.045   0.045   0.101   0.134   0.141   0.141   0.185
  0.185   0.190   0.190   0.211   0.284   0.295   0.299   0.299
  0.356   0.383   0.383   0.390   0.390   0.424   0.475   0.475
  0.559   0.559   0.560   0.595   0.683   0.683   0.699   0.702
  0.718   0.718   0.752   0.781   0.781   0.783   0.831   0.831
  0.851   0.858   0.858   0.873   0.873   0.980   1.016   1.016
  1.134   1.223   1.223   1.355   1.356   1.356   1.370   1.376
  1.451   1.451   1.518   1.537   1.537   1.576   1.603   1.660
  1.660   1.699   1.699   1.729   1.749   1.750   1.815   1.829
  1.829   1.852   1.897   1.897   1.986   1.986   2.019   2.019
  2.037   2.061   2.100   2.114   2.114   2.196   2.268   2.268
  2.285   2.409   2.409   2.775   2.898   2.898   2.922   2.929
  2.929   2.941   3.002   3.002   3.035   3.035   3.059   3.110
  3.129   3.197   3.197   3.267   3.267   3.402   3.402   3.466
  3.543   3.543   3.571   3.711   3.897   3.912   3.912   4.140
  4.140   4.142   4.181   4.181   4.220   4.229   4.295   4.374
  4.374   4.693   4.693   4.952   4.952   5.055   5.180   5.180
  5.335   5.335   5.460   5.570   6.829   6.829   6.897   6.933
  6.933   7.009   7.381   7.394   7.394   7.424   7.424   7.486
  7.681   7.706   7.706   7.856   7.856   7.928   7.928   7.970
  8.141   8.240   8.307   8.307   8.483   8.546   8.546   8.604
  8.604   8.774   8.887   8.887   8.915   8.936   8.974   8.974
  8.995   9.002   9.160   9.160   9.356   9.356   9.486   9.496
  9.496   9.775   9.775   9.775   9.801   9.968   9.968  10.107
 10.282  10.282  10.488  10.488  10.684  10.859  10.977  10.977
 11.685  12.097  12.184  12.184  12.344  12.344  12.928  12.929
 13.047  14.215  14.840  14.840  16.817  27.560  29.089  29.089
 37.944  37.944  38.170  38.662  38.662  50.959  92.663  93.834
 93.834 112.289 112.314 112.314 112.335 112.357 112.357 112.391
157.444 157.444 157.553 157.828 157.828 167.526 310.134 311.093
311.094 688.514
 
 Beta MOs
 -- Occupied --
-15.540  -1.142  -0.628  -0.628  -0.430
 -- Virtual --
  0.029   0.045   0.045   0.101   0.134   0.141   0.141   0.185
  0.185   0.190   0.190   0.211   0.284   0.295   0.299   0.299
  0.356   0.383   0.383   0.390   0.390   0.424   0.475   0.475
  0.559   0.559   0.560   0.595   0.683   0.683   0.699   0.702
  0.718   0.718   0.752   0.781   0.781   0.783   0.831   0.831
  0.851   0.858   0.858   0.873   0.873   0.980   1.016   1.016
  1.134   1.223   1.223   1.355   1.356   1.356   1.370   1.376
  1.451   1.451   1.518   1.537   1.537   1.576   1.603   1.660
  1.660   1.699   1.699   1.729   1.749   1.750   1.815   1.829
  1.829   1.852   1.897   1.897   1.986   1.986   2.019   2.019
  2.037   2.061   2.100   2.114   2.114   2.196   2.268   2.268
  2.285   2.409   2.409   2.775   2.898   2.898   2.922   2.929
  2.929   2.941   3.002   3.002   3.035   3.035   3.059   3.110
  3.129   3.197   3.197   3.267   3.267   3.402   3.402   3.466
  3.543   3.543   3.571   3.711   3.897   3.912   3.912   4.140
  4.140   4.142   4.181   4.181   4.220   4.229   4.295   4.374
  4.374   4.693   4.693   4.952   4.952   5.055   5.180   5.180
  5.335   5.335   5.460   5.570   6.829   6.829   6.897   6.933
  6.933   7.009   7.381   7.394   7.394   7.424   7.424   7.486
  7.681   7.706   7.706   7.856   7.856   7.928   7.928   7.970
  8.141   8.240   8.307   8.307   8.483   8.546   8.546   8.604
  8.604   8.774   8.887   8.887   8.915   8.936   8.974   8.974
  8.995   9.002   9.160   9.160   9.356   9.356   9.486   9.496
  9.496   9.775   9.775   9.775   9.801   9.968   9.968  10.107
 10.282  10.282  10.488  10.488  10.684  10.859  10.977  10.977
 11.685  12.097  12.184  12.184  12.344  12.344  12.928  12.929
 13.047  14.215  14.840  14.840  16.817  27.560  29.089  29.089
 37.944  37.944  38.170  38.662  38.662  50.959  92.663  93.834
 93.834 112.289 112.314 112.314 112.335 112.357 112.357 112.391
157.444 157.444 157.553 157.828 157.828 167.526 310.134 311.093
311.094 688.514
 --------------------------------------------------------------
 
          Ground-State Mulliken Net Atomic Charges

     Atom                 Charge (a.u.)    Spin (a.u.)
  --------------------------------------------------------
      1 N                    -0.719240       0.000000
      2 H                     0.239743       0.000000
      3 H                     0.239749      -0.000000
      4 H                     0.239749      -0.000000
  --------------------------------------------------------
  Sum of atomic charges =     0.000000
  Sum of spin   charges =     0.000000

 -----------------------------------------------------------------
                    Cartesian Multipole Moments
 -----------------------------------------------------------------
    Charge (ESU x 10^10)
                 0.0000
    Dipole Moment (Debye)
         X      -0.0000      Y       0.0001      Z      -1.6183
       Tot       1.6183
    Quadrupole Moments (Debye-Ang)
        XX      -6.2185     XY      -0.0000     YY      -6.2184
        XZ       0.0000     YZ      -0.0000     ZZ      -8.8725
    Octopole Moments (Debye-Ang^2)
       XXX      -0.0000    XXY       0.9702    XYY      -0.0000
       YYY      -0.9703    XXZ      -0.1942    XYZ       0.0000
       YYZ      -0.1943    XZZ      -0.0000    YZZ      -0.0001
       ZZZ       1.7250
    Hexadecapole Moments (Debye-Ang^3)
      XXXX      -9.9533   XXXY      -0.0000   XXYY      -3.3176
      XYYY      -0.0000   YYYY      -9.9531   XXXZ       0.0000
      XXYZ      -0.4767   XYYZ       0.0000   YYYZ       0.4768
      XXZZ      -3.7057   XYZZ      -0.0000   YYZZ      -3.7056
      XZZZ       0.0000   YZZZ       0.0001   ZZZZ     -12.2417
 -----------------------------------------------------------------
Archival summary:
1\1\n0053.mhg0\SP\ProcedureUnspecified\BasisUnspecified\13\yhljason\TueJul1400:49:002020TueJul1400:49:002020\0\\#,ProcedureUnspecified,BasisUnspecified,\\0,1\N\H,1,1.01237\H,1,1.01242,2,106.673\H,1,1.01242,2,106.673,3,-113.721,0\\HF=-56.2233608\\@

 Total job time:  1071.48s(wall), 5408.98s(cpu) 
 Tue Jul 14 00:49:00 2020

        *************************************************************
        *                                                           *
        *  Thank you very much for using Q-Chem.  Have a nice day.  *
        *                                                           *
        *************************************************************


