Q-Chem Developer Version!
                  Welcome to Q-Chem
     A Quantum Leap Into The Future Of Chemistry


 Q-Chem 5.1, Q-Chem, Inc., Pleasanton, CA (2018)

 Yihan Shao,  Zhengting Gan,  E. Epifanovsky,  A. T. B. Gilbert,  M. Wormit,  
 J. Kussmann,  A. W. Lange,  A. Behn,  Jia Deng,  Xintian Feng,  D. Ghosh,  
 M. Goldey,  P. R. Horn,  L. D. Jacobson,  I. Kaliman,  T. Kus,  A. Landau,  
 Jie Liu,  E. I. Proynov,  R. M. Richard,  R. P. Steele,  E. J. Sundstrom,  
 H. L. Woodcock III,  P. M. Zimmerman,  D. Zuev,  B. Albrecht,  E. Alguire,  
 S. A. Baeppler,  D. Barton,  Z. Benda,  Y. A. Bernard,  E. J. Berquist,  
 K. B. Bravaya,  H. Burton,  D. Casanova,  Chun-Min Chang,  Yunqing Chen,  
 A. Chien,  K. D. Closser,  M. P. Coons,  S. Coriani,  S. Dasgupta,  
 A. L. Dempwolff,  M. Diedenhofen,  Hainam Do,  R. G. Edgar,  Po-Tung Fang,  
 S. Faraji,  S. Fatehi,  Qingguo Feng,  K. D. Fenk,  J. Fosso-Tande,  
 Qinghui Ge,  A. Ghysels,  G. Gidofalvi,  J. Gomes,  J. Gonthier,  A. Gunina,  
 D. Hait,  M. W. D. Hanson-Heine,  P. H. P. Harbach,  A. W. Hauser,  
 J. E. Herr,  E. G. Hohenstein,  Z. C. Holden,  Kerwin Hui,  B. C. Huynh,  
 T.-C. Jagau,  Hyunjun Ji,  B. Kaduk,  K. Khistyaev,  Jaehoon Kim,  
 P. Klunzinger,  K. Koh,  D. Kosenkov,  L. Koulias,  T. Kowalczyk,  
 C. M. Krauter,  A. Kunitsa,  Ka Un Lao,  A. Laurent,  K. V. Lawler,  
 Joonho Lee,  D. Lefrancois,  S. Lehtola,  D. S. Levine,  Yi-Pei Li,  
 You-Sheng Lin,  Fenglai Liu,  E. Livshits,  A. Luenser,  P. Manohar,  
 E. Mansoor,  S. F. Manzer,  Shan-Ping Mao,  Yuezhi Mao,  N. Mardirossian,  
 A. V. Marenich,  T. Markovich,  L. A. Martinez-Martinez,  S. A. Maurer,  
 N. J. Mayhall,  S. C. McKenzie,  J.-M. Mewes,  A. F. Morrison,  
 J. W. Mullinax,  K. Nanda,  T. S. Nguyen-Beck,  R. Olivares-Amaya,  
 J. A. Parkhill,  T. M. Perrine,  F. Plasser,  P. Pokhilko,  S. Prager,  
 A. Prociuk,  E. Ramos,  D. R. Rehn,  F. Rob,  M. Schneider,  N. Sergueev,  
 S. M. Sharada,  S. Sharma,  D. W. Small,  T. Stauch,  T. Stein,  
 Yu-Chuan Su,  A. J. W. Thom,  A. Tkatchenko,  T. Tsuchimochi,  N. M. Tubman,  
 L. Vogt,  M. L. Vidal,  O. Vydrov,  M. A. Watson,  J. Wenzel,  
 M. de Wergifosse,  T. A. Wesolowski,  A. White,  J. Witte,  A. Yamada,  
 Jun Yang,  K. Yao,  S. Yeganeh,  S. R. Yost,  Zhi-Qiang You,  A. Zech,  
 Igor Ying Zhang,  Xing Zhang,  Yan Zhao,  Ying Zhu,  B. R. Brooks,  
 G. K. L. Chan,  C. J. Cramer,  M. S. Gordon,  W. J. Hehre,  A. Klamt,  
 M. W. Schmidt,  C. D. Sherrill,  D. G. Truhlar,  A. Aspuru-Guzik,  R. Baer,  
 A. T. Bell,  N. A. Besley,  Jeng-Da Chai,  A. E. DePrince, III,  
 R. A. DiStasio Jr.,  A. Dreuw,  B. D. Dunietz,  T. R. Furlani,  
 Chao-Ping Hsu,  Yousung Jung,  Jing Kong,  D. S. Lambrecht,  WanZhen Liang,  
 C. Ochsenfeld,  V. A. Rassolov,  L. V. Slipchenko,  J. E. Subotnik,  
 T. Van Voorhis,  J. M. Herbert,  A. I. Krylov,  P. M. W. Gill,  M. Head-Gordon

 Contributors to earlier versions of Q-Chem not listed above: 
 R. D. Adamson,  B. Austin,  J. Baker,  G. J. O. Beran,  K. Brandhorst,  
 S. T. Brown,  E. F. C. Byrd,  A. K. Chakraborty,  C.-L. Cheng,  
 Siu Hung Chien,  D. M. Chipman,  D. L. Crittenden,  H. Dachsel,  
 R. J. Doerksen,  A. D. Dutoi,  L. Fusti-Molnar,  W. A. Goddard III,  
 A. Golubeva-Zadorozhnaya,  S. R. Gwaltney,  G. Hawkins,  A. Heyden,  
 S. Hirata,  G. Kedziora,  F. J. Keil,  C. Kelley,  Jihan Kim,  R. A. King,  
 R. Z. Khaliullin,  P. P. Korambath,  W. Kurlancheek,  A. M. Lee,  M. S. Lee,  
 S. V. Levchenko,  Ching Yeh Lin,  D. Liotard,  R. C. Lochan,  I. Lotan,  
 P. E. Maslen,  N. Nair,  D. P. O'Neill,  D. Neuhauser,  E. Neuscamman,  
 C. M. Oana,  R. Olson,  B. Peters,  R. Peverati,  P. A. Pieniazek,  
 Y. M. Rhee,  J. Ritchie,  M. A. Rohrdanz,  E. Rosta,  N. J. Russ,  
 H. F. Schaefer III,  N. E. Schultz,  N. Shenvi,  A. C. Simmonett,  A. Sodt,  
 D. Stuck,  K. S. Thanthiriwatte,  V. Vanovschi,  Tao Wang,  A. Warshel,  
 C. F. Williams,  Q. Wu,  X. Xu,  W. Zhang

 Please cite Q-Chem as follows:
 Y. Shao et al., Mol. Phys. 113, 184-215 (2015)
 DOI: 10.1080/00268976.2014.952696

 Q-Chem 5.1.1 for Intel X86 EM64T Linux

 Parts of Q-Chem use Armadillo 8.300.2 (Tropical Shenanigans).
 http://arma.sourceforge.net/

 Q-Chem begins on Thu Jun 18 20:52:46 2020  

Host: n0043.mhg0
0

     Scratch files written to /local/scratch/users/yhljason/NH_ccsdT_5z.inp20200618012229//
Input Ideriv = 0
Curr. Ideriv = -1
Max.  Ideriv = 0

Checking the input file for inconsistencies... 	...done.

--------------------------------------------------------------
User input:
--------------------------------------------------------------
$molecule
0 3
N 0 0 0
H 0 0 1.0362
$end

$rem
jobtype sp
method ccsd(T)
xc_grid 000099000590
basis aug-cc-pcV5Z
max_scf_cycles 200
thresh 14
scf_convergence 8
scf_algorithm gdm
symmetry false
sym_ignore true
unrestricted true
gen_scfman true
internal_stability_iter 15
internal_stability_davidson_iter 200
mem_total 128000
cc_memory 96000
cc_backend xm
mem_static 1500
n_frozen_core 0
$end


--------------------------------------------------------------
 ----------------------------------------------------------------
             Standard Nuclear Orientation (Angstroms)
    I     Atom           X                Y                Z
 ----------------------------------------------------------------
    1      N       0.0000000000     0.0000000000     0.0000000000
    2      H       0.0000000000     0.0000000000     1.0362000000
 ----------------------------------------------------------------
 Nuclear Repulsion Energy =     3.5748315727 hartrees
 There are        5 alpha and        3 beta electrons
 Requested basis set is aug-cc-pCV5Z
 There are 61 shells and 261 basis functions
 Total memory of 128000MB is distributed as follows: 
   QALLOC including MEM_STATIC uses 32000MB
   MEM_STATIC is set to 1500MB
   CCMAN JOB total memory use is  96000MB
 Warning: actual memory use might exceed 128000MB

 Total QAlloc Memory Limit  32000 MB
 Mega-Array Size      1467 MB
 MEM_STATIC part      1500 MB

                       Distance Matrix (Angstroms)
             N (  1)
   H (  2)  1.036200
 
 A cutoff of  1.0D-14 yielded   1891 shell pairs
 There are     34871 function pairs (     65226 Cartesian)
 
 -------------------------------------------------------
 OpenMP Integral Computing Module                       
 Release: version 1.0, May 2013, Q-Chem Inc. Pittsburgh 
 -------------------------------------------------------
 Integral Job Info:
 Integral job number is                      11
 Integral operator is                         1
 short-range coefficients                     0
 long-range coefficients              100000000
 Omega coefficients                           0
 if combine SR and LR in K                    0
 Integral screening is                        0
 Integral computing path is                   2
 max size of driver memory is           6400000
 size of driver memory is               5498286
 size of scratch memory is             29551430
 max col of scratch BK array             194481
 max len of scratch array in speh3         5572
 max len of scratch index in speh4           72
 max int batch size is                      520
 min int batch size is                       52
 fixed nKL is                                30
 max L of basis functions is                  5
 order of int derivative is                   0
 number of shells is                         61
 number of basis is                         356
 number of cartesian basis is               356
 number of contracted shell pairs          1891
 number of primitive shell pairs           3663
 maxK2 (contraction) of shell pair          100
 max number of K2 of shell pair               1
 max number of CS2 of shell pair            198
 max number of PS2 of shell pair            300
 mem total for path MDJ                  871004
 -------------------------------------------------------
 Smallest overlap matrix eigenvalue = 1.61E-05

 Scale SEOQF with 1.000000e-01/1.000000e-01/1.000000e-01

 Standard Electronic Orientation quadrupole field applied
 Nucleus-field energy     =    -0.0000000001 hartrees
 Guess from superposition of atomic densities
 Warning:  Energy on first SCF cycle will be non-variational
 SAD guess density has 8.000000 electrons

 -----------------------------------------------------------------------
  General SCF calculation program by
  Eric Jon Sundstrom, Paul Horn, Yuezhi Mao, Dmitri Zuev, Alec White,
  David Stuck, Shaama M.S., Shane Yost, Joonho Lee, David Small,
  Daniel Levine, Susi Lehtola, Hugh Burton, Evgeny Epifanovsky
 -----------------------------------------------------------------------
Running Object-Oriented UHF
performing a single roothaan step with Fock from read density so that orbitals are available to all algorithms
 LTot/LBra/LKet=          12           2          10

 Q-Chem warning:

 in GenH1, ket side, handled with new code

energy of the guess density (C=0) -54.557566569878
 LTot/LBra/LBra=          18           9           9

 Q-Chem warning:

 in GenH1, bra side, handled with new code

We will preform up to 15 macro iterations over saddle points until a stable solution is found
Energy prior to optimization (guess energy) = -54.954214179290
Begin Timing: Total SCF Calculation
Begin Timing: SCF Single Stationary Point Calculation
begin iterations for algorithm: GDM          
the SCF tolerance is set to 1.00e-08
    1     -54.9542141793      6.05e-02     00000  Normal BFGS step
    2     -54.9817485251      2.76e-02     00000  Normal BFGS step
    3     -54.9856371073      8.04e-03     00000  Normal BFGS step
    4     -54.9861982708      2.06e-03     00000  Normal BFGS step
    5     -54.9862648960      1.37e-03     00000  Normal BFGS step
    6     -54.9862853555      6.58e-04     00000  Normal BFGS step
    7     -54.9862894625      3.35e-04     00000  Normal BFGS step
    8     -54.9862904156      8.27e-05     00000  Normal BFGS step
    9     -54.9862904893      2.63e-05     00000  Normal BFGS step
   10     -54.9862904969      9.20e-06     00000  Normal BFGS step
   11     -54.9862904978      3.14e-06     00000  Normal BFGS step
   12     -54.9862904979      9.91e-07     00000  Normal BFGS step
   13     -54.9862904979      3.82e-07     00000  Normal BFGS step
   14     -54.9862904979      7.76e-08     00000  Normal BFGS step
   15     -54.9862904979      1.40e-08     00000  Normal BFGS step
   16     -54.9862904979      2.19e-09     00000 Convergence criterion met
Timing for Single Stationary Point: 325.00s (wall), 5173.64s (cpu)
Begin Timing: Stability
===================================================
Beginning Test for Internal Stability
===================================================
generating davidson guess vectors based on koopmans excitations
    1      2.71e+00     00000 Davidson Iteration
    2      3.30e+00     00000 Davidson Iteration
    3      2.60e-01     00000 Davidson Iteration
    4      1.09e-01     00000 Davidson Iteration
    5      2.25e-02     00000 Davidson Iteration
    6      5.17e-03     00000 Davidson Iteration
    7      2.91e-03     00000 Davidson Iteration
    8      1.29e-03     00000 Davidson Iteration
    9      4.24e-04     00000 Davidson Iteration
   10      1.04e-04     00000 Davidson Iteration
   11      1.93e-05     00000 Davidson Iteration
   12      7.58e-03     00000 Davidson Iteration
   13      2.65e-03     00000 Davidson Iteration
   14      4.98e-04     00000 Davidson Iteration
   15      8.17e-05     00000 Davidson Converged
converged_eigenvalues
   0.2662
   0.5564
Threshold for negative eigenvalues: -1.0e-05
solution was a local minimum (stable)
===================================================
End Test for Internal Stability
===================================================
Our SCF solution is stable!
Timing for Total SCF: 812.00s (wall), 12631.17s (cpu)
 Total energy in the final basis set =      -54.9862904979
<S^2> =          2.016688655
    ==================================================
              The end of Object-Oriented SCFman       
    ==================================================


 ------------------------------------------------------------------------------

   CCMAN2: suite of methods based on coupled cluster
           and equation of motion theories.

   Components:
   * libvmm-1.3-trunk
     by Evgeny Epifanovsky, Ilya Kaliman.
   * libtensor-2.5-trunk
     by Evgeny Epifanovsky, Michael Wormit, Dmitry Zuev, Sam Manzer, 
        Ilya Kaliman.
   * libcc-2.5-trunk
     by Evgeny Epifanovsky, Arik Landau, Tomasz Kus, Kirill Khistyaev, 
        Dmitry Zuev, Prashant Manohar, Xintian Feng, Anna Krylov, 
        Matthew Goldey, Alec White, Thomas Jagau, Kaushik Nanda, 
        Anastasia Gunina, Alexander Kunitsa, Joonho Lee.

   CCMAN original authors:
   Anna I. Krylov, C. David Sherrill, Steven R. Gwaltney,
   Edward F. C. Byrd (2000)
   Sergey V. Levchenko, Lyudmila V. Slipchenko, Tao Wang,
   Ana-Maria C. Cristian (2003)
   Piotr A. Pieniazek, C. Melania Oana, Evgeny Epifanovsky (2007)
   Prashant Manohar (2009)

 ------------------------------------------------------------------------------


 Calculation will run on 16 cores using libxm for tensor contractions

 ------------------------------------------------------------------------------
Libxm Tensor Library
Copyright (c) 2014-2018 Ilya Kaliman
https://github.com/ilyak/libxm
Reference: https://dx.doi.org/10.1002/jcc.24713
 ------------------------------------------------------------------------------

 
 Alpha MOs, Unrestricted
 -- Occupied --                  
-15.638  -1.173  -0.587  -0.547  -0.547
  1 A     2 A     3 A     4 A     5 A                                          
 -- Virtual --                   
  0.023   0.084   0.086   0.086   0.123   0.168   0.178   0.178
  6 A     7 A     8 A     9 A    10 A    11 A    12 A    13 A                  
  0.289   0.289   0.296   0.337   0.364   0.364   0.426   0.432
 14 A    15 A    16 A    17 A    18 A    19 A    20 A    21 A                  
  0.432   0.467   0.525   0.525   0.537   0.537   0.660   0.783
 22 A    23 A    24 A    25 A    26 A    27 A    28 A    29 A                  
  0.783   0.804   0.877   0.877   0.881   0.881   0.896   0.912
 30 A    31 A    32 A    33 A    34 A    35 A    36 A    37 A                  
  0.912   0.996   1.010   1.010   1.184   1.184   1.195   1.257
 38 A    39 A    40 A    41 A    42 A    43 A    44 A    45 A                  
  1.257   1.314   1.314   1.329   1.329   1.390   1.483   1.588
 46 A    47 A    48 A    49 A    50 A    51 A    52 A    53 A                  
  1.588   1.817   2.047   2.047   2.119   2.119   2.154   2.154
 54 A    55 A    56 A    57 A    58 A    59 A    60 A    61 A                  
  2.302   2.302   2.342   2.359   2.359   2.384   2.400   2.400
 62 A    63 A    64 A    65 A    66 A    67 A    68 A    69 A                  
  2.418   2.418   2.428   2.428   2.433   2.487   2.487   2.826
 70 A    71 A    72 A    73 A    74 A    75 A    76 A    77 A                  
  2.978   2.978   3.008   3.008   3.057   3.057   3.162   3.319
 78 A    79 A    80 A    81 A    82 A    83 A    84 A    85 A                  
  3.319   3.355   3.355   3.449   3.476   3.476   3.669   3.719
 86 A    87 A    88 A    89 A    90 A    91 A    92 A    93 A                  
  3.719   4.257   4.257   4.317   4.348   4.348   4.737   4.737
 94 A    95 A    96 A    97 A    98 A    99 A   100 A   101 A                  
  4.878   4.925   4.925   5.037   5.037   5.115   5.115   5.395
102 A   103 A   104 A   105 A   106 A   107 A   108 A   109 A                  
  5.395   5.609   5.609   5.626   5.651   5.660   5.660   5.691
110 A   111 A   112 A   113 A   114 A   115 A   116 A   117 A                  
  5.691   5.748   5.748   5.767   5.767   5.798   5.798   5.984
118 A   119 A   120 A   121 A   122 A   123 A   124 A   125 A                  
  5.984   6.021   6.148   6.148   6.196   6.196   6.415   6.415
126 A   127 A   128 A   129 A   130 A   131 A   132 A   133 A                  
  6.856   7.267   7.399   7.458   7.458   7.814   7.814   7.864
134 A   135 A   136 A   137 A   138 A   139 A   140 A   141 A                  
  7.864   8.855   8.918   8.918  10.197  10.819  10.819  11.752
142 A   143 A   144 A   145 A   146 A   147 A   148 A   149 A                  
 12.017  12.017  12.071  12.071  12.287  12.287  12.382  12.382
150 A   151 A   152 A   153 A   154 A   155 A   156 A   157 A                  
 12.445  12.445  12.775  13.199  13.199  13.345  13.345  13.718
158 A   159 A   160 A   161 A   162 A   163 A   164 A   165 A                  
 13.770  13.770  14.072  14.072  14.158  14.158  14.311  14.311
166 A   167 A   168 A   169 A   170 A   171 A   172 A   173 A                  
 14.394  14.403  14.403  14.493  14.493  14.579  14.579  14.632
174 A   175 A   176 A   177 A   178 A   179 A   180 A   181 A                  
 14.632  14.773  14.773  15.202  15.217  15.217  15.859  15.859
182 A   183 A   184 A   185 A   186 A   187 A   188 A   189 A                  
 16.050  16.232  16.232  16.595  16.595  16.642  17.500  17.500
190 A   191 A   192 A   193 A   194 A   195 A   196 A   197 A                  
 17.609  17.609  18.112  18.219  18.219  20.527  20.527  21.795
198 A   199 A   200 A   201 A   202 A   203 A   204 A   205 A                  
 22.325  25.153  29.536  29.536  31.637  50.323  50.323  51.042
206 A   207 A   208 A   209 A   210 A   211 A   212 A   213 A                  
 51.042  51.869  58.499  58.499  58.671  58.671  59.286  59.286
214 A   215 A   216 A   217 A   218 A   219 A   220 A   221 A                  
 59.642  65.623  82.767  82.767  84.300 150.483 150.483 150.977
222 A   223 A   224 A   225 A   226 A   227 A   228 A   229 A                  
150.977 151.567 172.054 209.019 209.019 209.024 209.024 209.030
230 A   231 A   232 A   233 A   234 A   235 A   236 A   237 A                  
209.030 209.041 209.041 209.048 229.725 229.725 230.951 236.214
238 A   239 A   240 A   241 A   242 A   243 A   244 A   245 A                  
236.214 236.284 236.284 236.551 236.551 236.721 449.758 456.764
246 A   247 A   248 A   249 A   250 A   251 A   252 A   253 A                  
456.764 457.107 457.107 457.573 643.930 643.930 644.9991574.973
254 A   255 A   256 A   257 A   258 A   259 A   260 A   261 A                  
 
 Beta MOs, Unrestricted
 -- Occupied --                  
-15.577  -0.921  -0.508
  1 A     2 A     3 A                                                          
 -- Virtual --                   
  0.025   0.060   0.060   0.086   0.130   0.143   0.143   0.171
  4 A     5 A     6 A     7 A     8 A     9 A    10 A    11 A                  
  0.197   0.197   0.299   0.299   0.309   0.343   0.381   0.381
 12 A    13 A    14 A    15 A    16 A    17 A    18 A    19 A                  
  0.435   0.477   0.506   0.506   0.534   0.534   0.542   0.542
 20 A    21 A    22 A    23 A    24 A    25 A    26 A    27 A                  
  0.681   0.793   0.793   0.829   0.892   0.892   0.900   0.905
 28 A    29 A    30 A    31 A    32 A    33 A    34 A    35 A                  
  0.905   0.931   0.931   1.007   1.065   1.065   1.206   1.219
 36 A    37 A    38 A    39 A    40 A    41 A    42 A    43 A                  
  1.219   1.260   1.260   1.331   1.331   1.357   1.357   1.412
 44 A    45 A    46 A    47 A    48 A    49 A    50 A    51 A                  
  1.488   1.643   1.643   1.840   2.065   2.065   2.144   2.144
 52 A    53 A    54 A    55 A    56 A    57 A    58 A    59 A                  
  2.171   2.171   2.348   2.348   2.351   2.371   2.371   2.420
 60 A    61 A    62 A    63 A    64 A    65 A    66 A    67 A                  
  2.426   2.426   2.442   2.442   2.447   2.447   2.455   2.598
 68 A    69 A    70 A    71 A    72 A    73 A    74 A    75 A                  
  2.598   2.839   2.990   2.990   3.025   3.025   3.061   3.061
 76 A    77 A    78 A    79 A    80 A    81 A    82 A    83 A                  
  3.185   3.324   3.324   3.355   3.355   3.453   3.488   3.488
 84 A    85 A    86 A    87 A    88 A    89 A    90 A    91 A                  
  3.696   3.799   3.799   4.309   4.309   4.340   4.359   4.359
 92 A    93 A    94 A    95 A    96 A    97 A    98 A    99 A                  
  4.759   4.759   4.897   4.946   4.946   5.054   5.054   5.134
100 A   101 A   102 A   103 A   104 A   105 A   106 A   107 A                  
  5.134   5.417   5.417   5.631   5.631   5.642   5.665   5.705
108 A   109 A   110 A   111 A   112 A   113 A   114 A   115 A                  
  5.705   5.716   5.716   5.760   5.760   5.790   5.790   5.874
116 A   117 A   118 A   119 A   120 A   121 A   122 A   123 A                  
  5.874   5.999   5.999   6.047   6.173   6.173   6.228   6.228
124 A   125 A   126 A   127 A   128 A   129 A   130 A   131 A                  
  6.499   6.499   6.877   7.303   7.419   7.481   7.481   7.856
132 A   133 A   134 A   135 A   136 A   137 A   138 A   139 A                  
  7.856   7.900   7.900   8.867   8.949   8.949  10.235  10.888
140 A   141 A   142 A   143 A   144 A   145 A   146 A   147 A                  
 10.888  11.777  12.034  12.034  12.091  12.091  12.303  12.303
148 A   149 A   150 A   151 A   152 A   153 A   154 A   155 A                  
 12.425  12.425  12.477  12.477  12.793  13.203  13.203  13.346
156 A   157 A   158 A   159 A   160 A   161 A   162 A   163 A                  
 13.346  13.733  13.790  13.790  14.094  14.094  14.161  14.161
164 A   165 A   166 A   167 A   168 A   169 A   170 A   171 A                  
 14.336  14.336  14.406  14.406  14.414  14.513  14.513  14.645
172 A   173 A   174 A   175 A   176 A   177 A   178 A   179 A                  
 14.645  14.694  14.694  14.822  14.822  15.210  15.260  15.260
180 A   181 A   182 A   183 A   184 A   185 A   186 A   187 A                  
 15.875  15.875  16.061  16.258  16.258  16.611  16.611  16.658
188 A   189 A   190 A   191 A   192 A   193 A   194 A   195 A                  
 17.569  17.569  17.619  17.619  18.126  18.246  18.246  20.544
196 A   197 A   198 A   199 A   200 A   201 A   202 A   203 A                  
 20.544  21.808  22.334  25.184  29.577  29.577  31.656  50.356
204 A   205 A   206 A   207 A   208 A   209 A   210 A   211 A                  
 50.356  51.062  51.062  51.885  58.534  58.534  58.697  58.697
212 A   213 A   214 A   215 A   216 A   217 A   218 A   219 A                  
 59.306  59.306  59.659  65.640  82.784  82.784  84.308 150.494
220 A   221 A   222 A   223 A   224 A   225 A   226 A   227 A                  
150.494 150.985 150.985 151.573 172.061 209.029 209.029 209.032
228 A   229 A   230 A   231 A   232 A   233 A   234 A   235 A                  
209.032 209.037 209.037 209.047 209.047 209.053 229.732 229.732
236 A   237 A   238 A   239 A   240 A   241 A   242 A   243 A                  
230.954 236.222 236.222 236.290 236.290 236.556 236.556 236.726
244 A   245 A   246 A   247 A   248 A   249 A   250 A   251 A                  
449.761 456.767 456.767 457.109 457.109 457.575 643.932 643.932
252 A   253 A   254 A   255 A   256 A   257 A   258 A   259 A                  
645.0001574.974
260 A   261 A                                                                  

 Occupation and symmetry of molecular orbitals

 Point group: C1 (1 irreducible representation).

                           A     All 
 -------------------------------------
 All molecular orbitals:
  - Alpha                  261   261 
  - Beta                   261   261 
 -------------------------------------
 Alpha orbitals:
  - Frozen occupied        0     0   
  - Active occupied        5     5   
  - Active virtual         256   256 
  - Frozen virtual         0     0   
 -------------------------------------
 Beta orbitals:
  - Frozen occupied        0     0   
  - Active occupied        3     3   
  - Active virtual         258   258 
  - Frozen virtual         0     0   
 -------------------------------------

 Import integrals:   CPU 0.00 s  wall 0.00 s

 Import integrals:   CPU 3629.58 s  wall 441.00 s

 MP2 amplitudes:   CPU 2.89 s  wall 1.35 s

Running a double precision version
           CCSD T amplitudes will be solved using DIIS.

           Start     Size      MaxIter   EConv     TConv     
           3         7         100       1.00e-06  1.00e-04  
 ------------------------------------------------------------------------------
           Energy (a.u.)   Ediff      Tdiff       Comment
 ------------------------------------------------------------------------------
           -55.19542542                           
     1     -55.20694028   1.15e-02   3.35e-01     
     2     -55.21061437   3.67e-03   3.66e-02     
     3     -55.21156603   9.52e-04   1.28e-02     
     4     -55.21229072   7.25e-04   8.55e-03     Switched to DIIS steps.
     5     -55.21235997   6.92e-05   1.85e-03     
     6     -55.21236992   9.95e-06   1.03e-03     
     7     -55.21237147   1.55e-06   3.72e-04     
     8     -55.21237185   3.77e-07   1.37e-04     
     9     -55.21237169   1.64e-07   5.43e-05     
 ------------------------------------------------------------------------------
           -55.21237169                           CCSD T converged.

End of double precision

----------------------------------------
libpt (c) 2016-2018 Ilya Kaliman
Fast Coupled Cluster Triples Corrections
https://github.com/ilyak/libpt
----------------------------------------

 Starting (T) calculation...
 Using double precision libpt code
 (T) calculation completed in 42 sec
 (T) energy is -0.0051599324

 SCF energy                 = -54.98629050
 MP2 energy                 = -55.19542542
 CCSD correlation energy     =  -0.22608119
 CCSD total energy           = -55.21237169
 CCSD(T) correlation energy =  -0.00515993
 CCSD(T) total energy       = -55.21753162

 CCSD  T1^2 = 0.0016  T2^2 = 0.0531  Leading amplitudes:

 Amplitude    Orbitals with energies
  0.0135       2 (A) B                   ->    28 (A) B                   
              -0.9215                          0.6809                     
  0.0099       2 (A) B                   ->    17 (A) B                   
              -0.9215                          0.3426                     
 -0.0086       2 (A) B                   ->    16 (A) B                   
              -0.9215                          0.3090                     
 -0.0084       4 (A) A                   ->    21 (A) A                   
              -0.5471                          0.4324                     
 -0.0084       5 (A) A                   ->    22 (A) A                   
              -0.5471                          0.4324                     

 Amplitude    Orbitals with energies
  0.0198       3 (A) A       3 (A) B     ->    28 (A) A      28 (A) B     
              -0.5867       -0.5084            0.6597        0.6809       
 -0.0198       3 (A) A       3 (A) B     ->    28 (A) B      28 (A) A     
              -0.5867       -0.5084            0.6809        0.6597       
 -0.0198       3 (A) B       3 (A) A     ->    28 (A) A      28 (A) B     
              -0.5084       -0.5867            0.6597        0.6809       
  0.0198       3 (A) B       3 (A) A     ->    28 (A) B      28 (A) A     
              -0.5084       -0.5867            0.6809        0.6597       

 CCSD calculation:   CPU 4207.45 s  wall 352.66 s

 Total ccman2 time:   CPU 7905.81 s  wall 838.94 s

 
 --------------------------------------------------------------
 
                    Orbital Energies (a.u.)
 --------------------------------------------------------------
 
 Alpha MOs
 -- Occupied --
-15.638  -1.173  -0.587  -0.547  -0.547
 -- Virtual --
  0.023   0.084   0.086   0.086   0.123   0.168   0.178   0.178
  0.289   0.289   0.296   0.337   0.364   0.364   0.426   0.432
  0.432   0.467   0.525   0.525   0.537   0.537   0.660   0.783
  0.783   0.804   0.877   0.877   0.881   0.881   0.896   0.912
  0.912   0.996   1.010   1.010   1.184   1.184   1.195   1.257
  1.257   1.314   1.314   1.329   1.329   1.390   1.483   1.588
  1.588   1.817   2.047   2.047   2.119   2.119   2.154   2.154
  2.302   2.302   2.342   2.359   2.359   2.384   2.400   2.400
  2.418   2.418   2.428   2.428   2.433   2.487   2.487   2.826
  2.978   2.978   3.008   3.008   3.057   3.057   3.162   3.319
  3.319   3.355   3.355   3.449   3.476   3.476   3.669   3.719
  3.719   4.257   4.257   4.317   4.348   4.348   4.737   4.737
  4.878   4.925   4.925   5.037   5.037   5.115   5.115   5.395
  5.395   5.609   5.609   5.626   5.651   5.660   5.660   5.691
  5.691   5.748   5.748   5.767   5.767   5.798   5.798   5.984
  5.984   6.021   6.148   6.148   6.196   6.196   6.415   6.415
  6.856   7.267   7.399   7.458   7.458   7.814   7.814   7.864
  7.864   8.855   8.918   8.918  10.197  10.819  10.819  11.752
 12.017  12.017  12.071  12.071  12.287  12.287  12.382  12.382
 12.445  12.445  12.775  13.199  13.199  13.345  13.345  13.718
 13.770  13.770  14.072  14.072  14.158  14.158  14.311  14.311
 14.394  14.403  14.403  14.493  14.493  14.579  14.579  14.632
 14.632  14.773  14.773  15.202  15.217  15.217  15.859  15.859
 16.050  16.232  16.232  16.595  16.595  16.642  17.500  17.500
 17.609  17.609  18.112  18.219  18.219  20.527  20.527  21.795
 22.325  25.153  29.536  29.536  31.637  50.323  50.323  51.042
 51.042  51.869  58.499  58.499  58.671  58.671  59.286  59.286
 59.642  65.623  82.767  82.767  84.300 150.483 150.483 150.977
150.977 151.567 172.054 209.019 209.019 209.024 209.024 209.030
209.030 209.041 209.041 209.048 229.725 229.725 230.951 236.214
236.214 236.284 236.284 236.551 236.551 236.721 449.758 456.764
456.764 457.107 457.107 457.573 643.930 643.930 644.9991574.973
 
 Beta MOs
 -- Occupied --
-15.577  -0.921  -0.508
 -- Virtual --
  0.025   0.060   0.060   0.086   0.130   0.143   0.143   0.171
  0.197   0.197   0.299   0.299   0.309   0.343   0.381   0.381
  0.435   0.477   0.506   0.506   0.534   0.534   0.542   0.542
  0.681   0.793   0.793   0.829   0.892   0.892   0.900   0.905
  0.905   0.931   0.931   1.007   1.065   1.065   1.206   1.219
  1.219   1.260   1.260   1.331   1.331   1.357   1.357   1.412
  1.488   1.643   1.643   1.840   2.065   2.065   2.144   2.144
  2.171   2.171   2.348   2.348   2.351   2.371   2.371   2.420
  2.426   2.426   2.442   2.442   2.447   2.447   2.455   2.598
  2.598   2.839   2.990   2.990   3.025   3.025   3.061   3.061
  3.185   3.324   3.324   3.355   3.355   3.453   3.488   3.488
  3.696   3.799   3.799   4.309   4.309   4.340   4.359   4.359
  4.759   4.759   4.897   4.946   4.946   5.054   5.054   5.134
  5.134   5.417   5.417   5.631   5.631   5.642   5.665   5.705
  5.705   5.716   5.716   5.760   5.760   5.790   5.790   5.874
  5.874   5.999   5.999   6.047   6.173   6.173   6.228   6.228
  6.499   6.499   6.877   7.303   7.419   7.481   7.481   7.856
  7.856   7.900   7.900   8.867   8.949   8.949  10.235  10.888
 10.888  11.777  12.034  12.034  12.091  12.091  12.303  12.303
 12.425  12.425  12.477  12.477  12.793  13.203  13.203  13.346
 13.346  13.733  13.790  13.790  14.094  14.094  14.161  14.161
 14.336  14.336  14.406  14.406  14.414  14.513  14.513  14.645
 14.645  14.694  14.694  14.822  14.822  15.210  15.260  15.260
 15.875  15.875  16.061  16.258  16.258  16.611  16.611  16.658
 17.569  17.569  17.619  17.619  18.126  18.246  18.246  20.544
 20.544  21.808  22.334  25.184  29.577  29.577  31.656  50.356
 50.356  51.062  51.062  51.885  58.534  58.534  58.697  58.697
 59.306  59.306  59.659  65.640  82.784  82.784  84.308 150.494
150.494 150.985 150.985 151.573 172.061 209.029 209.029 209.032
209.032 209.037 209.037 209.047 209.047 209.053 229.732 229.732
230.954 236.222 236.222 236.290 236.290 236.556 236.556 236.726
449.761 456.767 456.767 457.109 457.109 457.575 643.932 643.932
645.0001574.974
 --------------------------------------------------------------
 
          Ground-State Mulliken Net Atomic Charges

     Atom                 Charge (a.u.)    Spin (a.u.)
  --------------------------------------------------------
      1 N                    -0.341400       2.083272
      2 H                     0.341400      -0.083272
  --------------------------------------------------------
  Sum of atomic charges =    -0.000000
  Sum of spin   charges =     2.000000

 -----------------------------------------------------------------
                    Cartesian Multipole Moments
 -----------------------------------------------------------------
    Charge (ESU x 10^10)
                -0.0000
    Dipole Moment (Debye)
         X       0.0000      Y       0.0000      Z       1.6329
       Tot       1.6329
    Quadrupole Moments (Debye-Ang)
        XX      -6.2690     XY      -0.0000     YY      -6.2690
        XZ      -0.0000     YZ      -0.0000     ZZ      -5.4578
    Octopole Moments (Debye-Ang^2)
       XXX       0.0000    XXY      -0.0000    XYY       0.0000
       YYY       0.0000    XXZ      -0.4594    XYZ       0.0000
       YYZ      -0.4594    XZZ       0.0000    YZZ       0.0000
       ZZZ       0.1112
    Hexadecapole Moments (Debye-Ang^3)
      XXXX      -5.6452   XXXY      -0.0000   XXYY      -1.8817
      XYYY      -0.0000   YYYY      -5.6452   XXXZ      -0.0000
      XXYZ      -0.0000   XYYZ      -0.0000   YYYZ      -0.0000
      XXZZ      -2.7006   XYZZ      -0.0000   YYZZ      -2.7006
      XZZZ      -0.0000   YZZZ      -0.0000   ZZZZ      -8.4722
 -----------------------------------------------------------------
Archival summary:
1\1\n0043.mhg0\SP\ProcedureUnspecified\BasisUnspecified\11(3)\yhljason\ThuJun1821:23:382020ThuJun1821:23:382020\0\\#,ProcedureUnspecified,BasisUnspecified,\\0,3\N\H,1,1.0362\\HF=-54.9862905\\@

 Total job time:  1851.92s(wall), 20913.96s(cpu) 
 Thu Jun 18 21:23:38 2020

        *************************************************************
        *                                                           *
        *  Thank you very much for using Q-Chem.  Have a nice day.  *
        *                                                           *
        *************************************************************


 
User input: 2 of 7 
 
Q-Chem Developer Version!
                  Welcome to Q-Chem
     A Quantum Leap Into The Future Of Chemistry


 Q-Chem 5.1, Q-Chem, Inc., Pleasanton, CA (2018)

 Yihan Shao,  Zhengting Gan,  E. Epifanovsky,  A. T. B. Gilbert,  M. Wormit,  
 J. Kussmann,  A. W. Lange,  A. Behn,  Jia Deng,  Xintian Feng,  D. Ghosh,  
 M. Goldey,  P. R. Horn,  L. D. Jacobson,  I. Kaliman,  T. Kus,  A. Landau,  
 Jie Liu,  E. I. Proynov,  R. M. Richard,  R. P. Steele,  E. J. Sundstrom,  
 H. L. Woodcock III,  P. M. Zimmerman,  D. Zuev,  B. Albrecht,  E. Alguire,  
 S. A. Baeppler,  D. Barton,  Z. Benda,  Y. A. Bernard,  E. J. Berquist,  
 K. B. Bravaya,  H. Burton,  D. Casanova,  Chun-Min Chang,  Yunqing Chen,  
 A. Chien,  K. D. Closser,  M. P. Coons,  S. Coriani,  S. Dasgupta,  
 A. L. Dempwolff,  M. Diedenhofen,  Hainam Do,  R. G. Edgar,  Po-Tung Fang,  
 S. Faraji,  S. Fatehi,  Qingguo Feng,  K. D. Fenk,  J. Fosso-Tande,  
 Qinghui Ge,  A. Ghysels,  G. Gidofalvi,  J. Gomes,  J. Gonthier,  A. Gunina,  
 D. Hait,  M. W. D. Hanson-Heine,  P. H. P. Harbach,  A. W. Hauser,  
 J. E. Herr,  E. G. Hohenstein,  Z. C. Holden,  Kerwin Hui,  B. C. Huynh,  
 T.-C. Jagau,  Hyunjun Ji,  B. Kaduk,  K. Khistyaev,  Jaehoon Kim,  
 P. Klunzinger,  K. Koh,  D. Kosenkov,  L. Koulias,  T. Kowalczyk,  
 C. M. Krauter,  A. Kunitsa,  Ka Un Lao,  A. Laurent,  K. V. Lawler,  
 Joonho Lee,  D. Lefrancois,  S. Lehtola,  D. S. Levine,  Yi-Pei Li,  
 You-Sheng Lin,  Fenglai Liu,  E. Livshits,  A. Luenser,  P. Manohar,  
 E. Mansoor,  S. F. Manzer,  Shan-Ping Mao,  Yuezhi Mao,  N. Mardirossian,  
 A. V. Marenich,  T. Markovich,  L. A. Martinez-Martinez,  S. A. Maurer,  
 N. J. Mayhall,  S. C. McKenzie,  J.-M. Mewes,  A. F. Morrison,  
 J. W. Mullinax,  K. Nanda,  T. S. Nguyen-Beck,  R. Olivares-Amaya,  
 J. A. Parkhill,  T. M. Perrine,  F. Plasser,  P. Pokhilko,  S. Prager,  
 A. Prociuk,  E. Ramos,  D. R. Rehn,  F. Rob,  M. Schneider,  N. Sergueev,  
 S. M. Sharada,  S. Sharma,  D. W. Small,  T. Stauch,  T. Stein,  
 Yu-Chuan Su,  A. J. W. Thom,  A. Tkatchenko,  T. Tsuchimochi,  N. M. Tubman,  
 L. Vogt,  M. L. Vidal,  O. Vydrov,  M. A. Watson,  J. Wenzel,  
 M. de Wergifosse,  T. A. Wesolowski,  A. White,  J. Witte,  A. Yamada,  
 Jun Yang,  K. Yao,  S. Yeganeh,  S. R. Yost,  Zhi-Qiang You,  A. Zech,  
 Igor Ying Zhang,  Xing Zhang,  Yan Zhao,  Ying Zhu,  B. R. Brooks,  
 G. K. L. Chan,  C. J. Cramer,  M. S. Gordon,  W. J. Hehre,  A. Klamt,  
 M. W. Schmidt,  C. D. Sherrill,  D. G. Truhlar,  A. Aspuru-Guzik,  R. Baer,  
 A. T. Bell,  N. A. Besley,  Jeng-Da Chai,  A. E. DePrince, III,  
 R. A. DiStasio Jr.,  A. Dreuw,  B. D. Dunietz,  T. R. Furlani,  
 Chao-Ping Hsu,  Yousung Jung,  Jing Kong,  D. S. Lambrecht,  WanZhen Liang,  
 C. Ochsenfeld,  V. A. Rassolov,  L. V. Slipchenko,  J. E. Subotnik,  
 T. Van Voorhis,  J. M. Herbert,  A. I. Krylov,  P. M. W. Gill,  M. Head-Gordon

 Contributors to earlier versions of Q-Chem not listed above: 
 R. D. Adamson,  B. Austin,  J. Baker,  G. J. O. Beran,  K. Brandhorst,  
 S. T. Brown,  E. F. C. Byrd,  A. K. Chakraborty,  C.-L. Cheng,  
 Siu Hung Chien,  D. M. Chipman,  D. L. Crittenden,  H. Dachsel,  
 R. J. Doerksen,  A. D. Dutoi,  L. Fusti-Molnar,  W. A. Goddard III,  
 A. Golubeva-Zadorozhnaya,  S. R. Gwaltney,  G. Hawkins,  A. Heyden,  
 S. Hirata,  G. Kedziora,  F. J. Keil,  C. Kelley,  Jihan Kim,  R. A. King,  
 R. Z. Khaliullin,  P. P. Korambath,  W. Kurlancheek,  A. M. Lee,  M. S. Lee,  
 S. V. Levchenko,  Ching Yeh Lin,  D. Liotard,  R. C. Lochan,  I. Lotan,  
 P. E. Maslen,  N. Nair,  D. P. O'Neill,  D. Neuhauser,  E. Neuscamman,  
 C. M. Oana,  R. Olson,  B. Peters,  R. Peverati,  P. A. Pieniazek,  
 Y. M. Rhee,  J. Ritchie,  M. A. Rohrdanz,  E. Rosta,  N. J. Russ,  
 H. F. Schaefer III,  N. E. Schultz,  N. Shenvi,  A. C. Simmonett,  A. Sodt,  
 D. Stuck,  K. S. Thanthiriwatte,  V. Vanovschi,  Tao Wang,  A. Warshel,  
 C. F. Williams,  Q. Wu,  X. Xu,  W. Zhang

 Please cite Q-Chem as follows:
 Y. Shao et al., Mol. Phys. 113, 184-215 (2015)
 DOI: 10.1080/00268976.2014.952696

 Q-Chem 5.1.1 for Intel X86 EM64T Linux

 Parts of Q-Chem use Armadillo 8.300.2 (Tropical Shenanigans).
 http://arma.sourceforge.net/

 Q-Chem begins on Thu Jun 18 21:23:38 2020  

Host: n0043.mhg0
0

     Scratch files written to /local/scratch/users/yhljason/NH_ccsdT_5z.inp20200618012229//
The previous job contains 0 fragments, simply inherited here
Input Ideriv = 0
Curr. Ideriv = -1
Max.  Ideriv = 0

Checking the input file for inconsistencies... 	...done.

--------------------------------------------------------------
User input:
--------------------------------------------------------------
$molecule
read
$end

$rem

jobtype sp
method ccsd(T)
xc_grid 000099000590
basis aug-cc-pcV5Z
max_scf_cycles 200
thresh 14
scf_convergence 8
mem_total 128000
cc_memory 96000
cc_backend xm
mem_static 1500
symmetry false
sym_ignore true
scf_guess read
unrestricted true
scf_algorithm gdm
n_frozen_core 0
$end

$multipole_field
XX 0.0001
$end

--------------------------------------------------------------
 ----------------------------------------------------------------
             Standard Nuclear Orientation (Angstroms)
    I     Atom           X                Y                Z
 ----------------------------------------------------------------
    1      N       0.0000000000     0.0000000000     0.0000000000
    2      H       0.0000000000     0.0000000000     1.0362000000
 ----------------------------------------------------------------
 Nuclear Repulsion Energy =     3.5748315727 hartrees
 There are        5 alpha and        3 beta electrons
 Requested basis set is aug-cc-pCV5Z
 There are 61 shells and 261 basis functions
 Total memory of 128000MB is distributed as follows: 
   QALLOC including MEM_STATIC uses 32000MB
   MEM_STATIC is set to 1500MB
   CCMAN JOB total memory use is  96000MB
 Warning: actual memory use might exceed 128000MB

 Total QAlloc Memory Limit  32000 MB
 Mega-Array Size      1467 MB
 MEM_STATIC part      1500 MB

                       Distance Matrix (Angstroms)
             N (  1)
   H (  2)  1.036200
 
 Applying Cartesian multipole field
    Component          Value
    ---------          -----
     (2,0,0)        1.00000E-04
 A cutoff of  1.0D-14 yielded   1891 shell pairs
 There are     34871 function pairs (     65226 Cartesian)
 
 -------------------------------------------------------
 OpenMP Integral Computing Module                       
 Release: version 1.0, May 2013, Q-Chem Inc. Pittsburgh 
 -------------------------------------------------------
 Integral Job Info:
 Integral job number is                      11
 Integral operator is                         1
 short-range coefficients                     0
 long-range coefficients              100000000
 Omega coefficients                           0
 if combine SR and LR in K                    0
 Integral screening is                        0
 Integral computing path is                   2
 max size of driver memory is           6400000
 size of driver memory is               5498286
 size of scratch memory is             29551430
 max col of scratch BK array             194481
 max len of scratch array in speh3         5572
 max len of scratch index in speh4           72
 max int batch size is                      520
 min int batch size is                       52
 fixed nKL is                                30
 max L of basis functions is                  5
 order of int derivative is                   0
 number of shells is                         61
 number of basis is                         356
 number of cartesian basis is               356
 number of contracted shell pairs          1891
 number of primitive shell pairs           3663
 maxK2 (contraction) of shell pair          100
 max number of K2 of shell pair               1
 max number of CS2 of shell pair            198
 max number of PS2 of shell pair            300
 mem total for path MDJ                  871004
 -------------------------------------------------------
 Smallest overlap matrix eigenvalue = 1.61E-05
 Guess MOs from SCF MO coefficient file

 -----------------------------------------------------------------------
  General SCF calculation program by
  Eric Jon Sundstrom, Paul Horn, Yuezhi Mao, Dmitri Zuev, Alec White,
  David Stuck, Shaama M.S., Shane Yost, Joonho Lee, David Small,
  Daniel Levine, Susi Lehtola, Hugh Burton, Evgeny Epifanovsky
 -----------------------------------------------------------------------
 Hartree-Fock
 using 16 threads for integral computing
 -------------------------------------------------------
 OpenMP Integral computing Module                
 Release: version 2.0, May 2017, Q-Chem Inc. Pleasanton 
 -------------------------------------------------------
 LTot/LBra/LKet=          18           8          10
 LTot/LBra/LKet=          20          10          10
 LTot/LBra/LKet=          18           8          10
 LTot/LBra/LKet=          18           9           9
 LTot/LBra/LKet=          18           9           9

 Q-Chem warning:

 in GenH1, ket side, handled with new code

 LTot/LBra/LKet=          18           9           9

 Q-Chem warning:

 in GenH1, ket side, handled with new code


 Q-Chem warning:

 in GenH1, ket side, handled with new code


 Q-Chem warning:

 in GenH1, ket side, handled with new code

 LTot/LBra/LKet=          18           8          10

 Q-Chem warning:

 in GenH1, ket side, handled with new code


 Q-Chem warning:

 in GenH1, ket side, handled with new code

 LTot/LBra/LKet=          18           8          10

 Q-Chem warning:

 in GenH1, ket side, handled with new code


 Q-Chem warning:

 in GenH1, ket side, handled with new code

 LTot/LBra/LBra=          18           9           9

 Q-Chem warning:

 in GenH1, bra side, handled with new code

 A unrestricted SCF calculation will be
 performed using GDM
 SCF converges when RMS gradient is below 1.0e-08
 ---------------------------------------
  Cycle       Energy        RMS Gradient
 ---------------------------------------
    1     -54.9867565853      1.89e-04   Normal BFGS step
    2     -54.9867566971      5.00e-05   Normal BFGS step
    3     -54.9867567087      1.36e-05   Normal BFGS step
    4     -54.9867567095      4.36e-06   Normal BFGS step
    5     -54.9867567096      5.25e-07   Normal BFGS step
    6     -54.9867567096      3.32e-07   Normal BFGS step
    7     -54.9867567096      1.33e-07   Normal BFGS step
    8     -54.9867567096      6.54e-08   Normal BFGS step
    9     -54.9867567096      1.95e-08   Normal BFGS step
   10     -54.9867567096      8.44e-09  Convergence criterion met
 ---------------------------------------
 SCF time:   CPU 3558.34s  wall 223.00s 
<S^2> =          2.016684600
 SCF   energy in the final basis set =      -54.9867567096
 Total energy in the final basis set =      -54.9867567096


 ------------------------------------------------------------------------------

   CCMAN2: suite of methods based on coupled cluster
           and equation of motion theories.

   Components:
   * libvmm-1.3-trunk
     by Evgeny Epifanovsky, Ilya Kaliman.
   * libtensor-2.5-trunk
     by Evgeny Epifanovsky, Michael Wormit, Dmitry Zuev, Sam Manzer, 
        Ilya Kaliman.
   * libcc-2.5-trunk
     by Evgeny Epifanovsky, Arik Landau, Tomasz Kus, Kirill Khistyaev, 
        Dmitry Zuev, Prashant Manohar, Xintian Feng, Anna Krylov, 
        Matthew Goldey, Alec White, Thomas Jagau, Kaushik Nanda, 
        Anastasia Gunina, Alexander Kunitsa, Joonho Lee.

   CCMAN original authors:
   Anna I. Krylov, C. David Sherrill, Steven R. Gwaltney,
   Edward F. C. Byrd (2000)
   Sergey V. Levchenko, Lyudmila V. Slipchenko, Tao Wang,
   Ana-Maria C. Cristian (2003)
   Piotr A. Pieniazek, C. Melania Oana, Evgeny Epifanovsky (2007)
   Prashant Manohar (2009)

 ------------------------------------------------------------------------------


 Calculation will run on 16 cores using libxm for tensor contractions

 ------------------------------------------------------------------------------
Libxm Tensor Library
Copyright (c) 2014-2018 Ilya Kaliman
https://github.com/ilyak/libxm
Reference: https://dx.doi.org/10.1002/jcc.24713
 ------------------------------------------------------------------------------

 
 Alpha MOs, Unrestricted
 -- Occupied --                  
-15.639  -1.173  -0.587  -0.547  -0.547
  1 A     2 A     3 A     4 A     5 A                                          
 -- Virtual --                   
  0.021   0.083   0.083   0.085   0.122   0.167   0.176   0.178
  6 A     7 A     8 A     9 A    10 A    11 A    12 A    13 A                  
  0.288   0.288   0.295   0.337   0.363   0.364   0.425   0.431
 14 A    15 A    16 A    17 A    18 A    19 A    20 A    21 A                  
  0.432   0.466   0.524   0.524   0.536   0.536   0.659   0.783
 22 A    23 A    24 A    25 A    26 A    27 A    28 A    29 A                  
  0.783   0.803   0.877   0.877   0.880   0.880   0.896   0.912
 30 A    31 A    32 A    33 A    34 A    35 A    36 A    37 A                  
  0.912   0.995   1.009   1.009   1.184   1.184   1.194   1.256
 38 A    39 A    40 A    41 A    42 A    43 A    44 A    45 A                  
  1.256   1.314   1.314   1.329   1.329   1.389   1.482   1.588
 46 A    47 A    48 A    49 A    50 A    51 A    52 A    53 A                  
  1.588   1.816   2.047   2.047   2.119   2.119   2.154   2.154
 54 A    55 A    56 A    57 A    58 A    59 A    60 A    61 A                  
  2.302   2.302   2.341   2.358   2.359   2.384   2.399   2.399
 62 A    63 A    64 A    65 A    66 A    67 A    68 A    69 A                  
  2.417   2.417   2.428   2.428   2.433   2.487   2.487   2.826
 70 A    71 A    72 A    73 A    74 A    75 A    76 A    77 A                  
  2.978   2.978   3.007   3.007   3.057   3.057   3.162   3.318
 78 A    79 A    80 A    81 A    82 A    83 A    84 A    85 A                  
  3.319   3.354   3.354   3.449   3.476   3.476   3.669   3.719
 86 A    87 A    88 A    89 A    90 A    91 A    92 A    93 A                  
  3.719   4.257   4.257   4.317   4.348   4.348   4.736   4.736
 94 A    95 A    96 A    97 A    98 A    99 A   100 A   101 A                  
  4.878   4.925   4.925   5.036   5.036   5.115   5.115   5.395
102 A   103 A   104 A   105 A   106 A   107 A   108 A   109 A                  
  5.395   5.609   5.609   5.626   5.651   5.660   5.660   5.691
110 A   111 A   112 A   113 A   114 A   115 A   116 A   117 A                  
  5.691   5.747   5.747   5.767   5.767   5.798   5.798   5.984
118 A   119 A   120 A   121 A   122 A   123 A   124 A   125 A                  
  5.984   6.020   6.148   6.148   6.195   6.195   6.415   6.415
126 A   127 A   128 A   129 A   130 A   131 A   132 A   133 A                  
  6.856   7.267   7.399   7.458   7.458   7.813   7.813   7.864
134 A   135 A   136 A   137 A   138 A   139 A   140 A   141 A                  
  7.864   8.855   8.917   8.917  10.197  10.819  10.819  11.752
142 A   143 A   144 A   145 A   146 A   147 A   148 A   149 A                  
 12.016  12.016  12.071  12.071  12.287  12.287  12.382  12.382
150 A   151 A   152 A   153 A   154 A   155 A   156 A   157 A                  
 12.445  12.445  12.775  13.199  13.199  13.345  13.345  13.718
158 A   159 A   160 A   161 A   162 A   163 A   164 A   165 A                  
 13.770  13.770  14.072  14.072  14.158  14.158  14.311  14.311
166 A   167 A   168 A   169 A   170 A   171 A   172 A   173 A                  
 14.394  14.403  14.403  14.493  14.493  14.578  14.578  14.632
174 A   175 A   176 A   177 A   178 A   179 A   180 A   181 A                  
 14.632  14.773  14.773  15.202  15.217  15.217  15.859  15.859
182 A   183 A   184 A   185 A   186 A   187 A   188 A   189 A                  
 16.050  16.232  16.232  16.594  16.594  16.642  17.500  17.500
190 A   191 A   192 A   193 A   194 A   195 A   196 A   197 A                  
 17.609  17.609  18.112  18.219  18.219  20.527  20.527  21.795
198 A   199 A   200 A   201 A   202 A   203 A   204 A   205 A                  
 22.324  25.152  29.536  29.536  31.637  50.322  50.322  51.041
206 A   207 A   208 A   209 A   210 A   211 A   212 A   213 A                  
 51.041  51.869  58.499  58.499  58.671  58.671  59.286  59.286
214 A   215 A   216 A   217 A   218 A   219 A   220 A   221 A                  
 59.642  65.622  82.766  82.766  84.299 150.482 150.482 150.977
222 A   223 A   224 A   225 A   226 A   227 A   228 A   229 A                  
150.977 151.567 172.054 209.019 209.019 209.024 209.024 209.030
230 A   231 A   232 A   233 A   234 A   235 A   236 A   237 A                  
209.030 209.041 209.041 209.048 229.725 229.725 230.951 236.214
238 A   239 A   240 A   241 A   242 A   243 A   244 A   245 A                  
236.214 236.284 236.284 236.551 236.551 236.721 449.758 456.764
246 A   247 A   248 A   249 A   250 A   251 A   252 A   253 A                  
456.764 457.107 457.107 457.573 643.930 643.930 644.9991574.973
254 A   255 A   256 A   257 A   258 A   259 A   260 A   261 A                  
 
 Beta MOs, Unrestricted
 -- Occupied --                  
-15.578  -0.922  -0.509
  1 A     2 A     3 A                                                          
 -- Virtual --                   
  0.023   0.058   0.059   0.085   0.129   0.141   0.142   0.170
  4 A     5 A     6 A     7 A     8 A     9 A    10 A    11 A                  
  0.196   0.197   0.298   0.298   0.308   0.342   0.380   0.381
 12 A    13 A    14 A    15 A    16 A    17 A    18 A    19 A                  
  0.435   0.476   0.505   0.505   0.533   0.533   0.541   0.541
 20 A    21 A    22 A    23 A    24 A    25 A    26 A    27 A                  
  0.680   0.792   0.792   0.828   0.891   0.892   0.899   0.905
 28 A    29 A    30 A    31 A    32 A    33 A    34 A    35 A                  
  0.905   0.931   0.931   1.007   1.064   1.064   1.206   1.218
 36 A    37 A    38 A    39 A    40 A    41 A    42 A    43 A                  
  1.219   1.259   1.259   1.330   1.330   1.356   1.357   1.411
 44 A    45 A    46 A    47 A    48 A    49 A    50 A    51 A                  
  1.488   1.643   1.643   1.840   2.065   2.065   2.144   2.144
 52 A    53 A    54 A    55 A    56 A    57 A    58 A    59 A                  
  2.170   2.170   2.347   2.347   2.350   2.370   2.370   2.420
 60 A    61 A    62 A    63 A    64 A    65 A    66 A    67 A                  
  2.426   2.426   2.442   2.442   2.447   2.447   2.455   2.598
 68 A    69 A    70 A    71 A    72 A    73 A    74 A    75 A                  
  2.598   2.839   2.990   2.990   3.025   3.025   3.061   3.061
 76 A    77 A    78 A    79 A    80 A    81 A    82 A    83 A                  
  3.185   3.324   3.324   3.355   3.355   3.453   3.487   3.487
 84 A    85 A    86 A    87 A    88 A    89 A    90 A    91 A                  
  3.695   3.799   3.799   4.308   4.308   4.340   4.359   4.359
 92 A    93 A    94 A    95 A    96 A    97 A    98 A    99 A                  
  4.759   4.759   4.896   4.946   4.946   5.054   5.054   5.134
100 A   101 A   102 A   103 A   104 A   105 A   106 A   107 A                  
  5.134   5.417   5.417   5.631   5.631   5.642   5.665   5.705
108 A   109 A   110 A   111 A   112 A   113 A   114 A   115 A                  
  5.705   5.715   5.715   5.760   5.760   5.790   5.790   5.874
116 A   117 A   118 A   119 A   120 A   121 A   122 A   123 A                  
  5.874   5.998   5.999   6.047   6.173   6.173   6.227   6.227
124 A   125 A   126 A   127 A   128 A   129 A   130 A   131 A                  
  6.499   6.499   6.877   7.302   7.419   7.481   7.481   7.856
132 A   133 A   134 A   135 A   136 A   137 A   138 A   139 A                  
  7.856   7.899   7.899   8.866   8.949   8.949  10.235  10.888
140 A   141 A   142 A   143 A   144 A   145 A   146 A   147 A                  
 10.888  11.777  12.034  12.034  12.090  12.090  12.303  12.303
148 A   149 A   150 A   151 A   152 A   153 A   154 A   155 A                  
 12.425  12.425  12.477  12.477  12.793  13.203  13.203  13.346
156 A   157 A   158 A   159 A   160 A   161 A   162 A   163 A                  
 13.346  13.733  13.789  13.789  14.094  14.094  14.161  14.161
164 A   165 A   166 A   167 A   168 A   169 A   170 A   171 A                  
 14.336  14.336  14.406  14.406  14.414  14.513  14.513  14.644
172 A   173 A   174 A   175 A   176 A   177 A   178 A   179 A                  
 14.644  14.694  14.694  14.822  14.822  15.209  15.260  15.260
180 A   181 A   182 A   183 A   184 A   185 A   186 A   187 A                  
 15.875  15.875  16.061  16.257  16.257  16.611  16.611  16.658
188 A   189 A   190 A   191 A   192 A   193 A   194 A   195 A                  
 17.569  17.569  17.618  17.618  18.126  18.246  18.246  20.544
196 A   197 A   198 A   199 A   200 A   201 A   202 A   203 A                  
 20.544  21.808  22.334  25.184  29.576  29.576  31.656  50.355
204 A   205 A   206 A   207 A   208 A   209 A   210 A   211 A                  
 50.355  51.062  51.062  51.885  58.534  58.534  58.697  58.697
212 A   213 A   214 A   215 A   216 A   217 A   218 A   219 A                  
 59.306  59.306  59.659  65.640  82.784  82.784  84.308 150.494
220 A   221 A   222 A   223 A   224 A   225 A   226 A   227 A                  
150.494 150.984 150.984 151.573 172.061 209.029 209.029 209.032
228 A   229 A   230 A   231 A   232 A   233 A   234 A   235 A                  
209.032 209.037 209.037 209.047 209.047 209.053 229.731 229.731
236 A   237 A   238 A   239 A   240 A   241 A   242 A   243 A                  
230.954 236.222 236.222 236.290 236.290 236.556 236.556 236.726
244 A   245 A   246 A   247 A   248 A   249 A   250 A   251 A                  
449.761 456.767 456.767 457.109 457.109 457.575 643.932 643.932
252 A   253 A   254 A   255 A   256 A   257 A   258 A   259 A                  
645.0001574.974
260 A   261 A                                                                  

 Occupation and symmetry of molecular orbitals

 Point group: C1 (1 irreducible representation).

                           A     All 
 -------------------------------------
 All molecular orbitals:
  - Alpha                  261   261 
  - Beta                   261   261 
 -------------------------------------
 Alpha orbitals:
  - Frozen occupied        0     0   
  - Active occupied        5     5   
  - Active virtual         256   256 
  - Frozen virtual         0     0   
 -------------------------------------
 Beta orbitals:
  - Frozen occupied        0     0   
  - Active occupied        3     3   
  - Active virtual         258   258 
  - Frozen virtual         0     0   
 -------------------------------------

 Import integrals:   CPU 0.00 s  wall 0.00 s

 Import integrals:   CPU 3670.01 s  wall 445.28 s

 MP2 amplitudes:   CPU 2.93 s  wall 1.32 s

Running a double precision version
           CCSD T amplitudes will be solved using DIIS.

           Start     Size      MaxIter   EConv     TConv     
           3         7         100       1.00e-06  1.00e-04  
 ------------------------------------------------------------------------------
           Energy (a.u.)   Ediff      Tdiff       Comment
 ------------------------------------------------------------------------------
           -55.19589937                           
     1     -55.20741225   1.15e-02   3.35e-01     
     2     -55.21108640   3.67e-03   3.66e-02     
     3     -55.21203801   9.52e-04   1.28e-02     
     4     -55.21276271   7.25e-04   8.55e-03     Switched to DIIS steps.
     5     -55.21283199   6.93e-05   1.85e-03     
     6     -55.21284195   9.95e-06   1.03e-03     
     7     -55.21284349   1.55e-06   3.72e-04     
     8     -55.21284387   3.78e-07   1.37e-04     
     9     -55.21284371   1.64e-07   5.43e-05     
 ------------------------------------------------------------------------------
           -55.21284371                           CCSD T converged.

End of double precision

----------------------------------------
libpt (c) 2016-2018 Ilya Kaliman
Fast Coupled Cluster Triples Corrections
https://github.com/ilyak/libpt
----------------------------------------

 Starting (T) calculation...
 Using double precision libpt code
 (T) calculation completed in 41 sec
 (T) energy is -0.0051612954

 SCF energy                 = -54.98675671
 MP2 energy                 = -55.19589937
 CCSD correlation energy     =  -0.22608700
 CCSD total energy           = -55.21284371
 CCSD(T) correlation energy =  -0.00516130
 CCSD(T) total energy       = -55.21800500

 CCSD  T1^2 = 0.0016  T2^2 = 0.0531  Leading amplitudes:

 Amplitude    Orbitals with energies
 -0.0135       2 (A) B                   ->    28 (A) B                   
              -0.9216                          0.6805                     
 -0.0100       2 (A) B                   ->    17 (A) B                   
              -0.9216                          0.3420                     
 -0.0086       2 (A) B                   ->    16 (A) B                   
              -0.9216                          0.3081                     
 -0.0085       4 (A) A                   ->    21 (A) A                   
              -0.5473                          0.4313                     

 Amplitude    Orbitals with energies
 -0.0198       3 (A) A       3 (A) B     ->    28 (A) A      28 (A) B     
              -0.5869       -0.5086            0.6593        0.6805       
  0.0198       3 (A) A       3 (A) B     ->    28 (A) B      28 (A) A     
              -0.5869       -0.5086            0.6805        0.6593       
  0.0198       3 (A) B       3 (A) A     ->    28 (A) A      28 (A) B     
              -0.5086       -0.5869            0.6593        0.6805       
 -0.0198       3 (A) B       3 (A) A     ->    28 (A) B      28 (A) A     
              -0.5086       -0.5869            0.6805        0.6593       

 CCSD calculation:   CPU 4143.07 s  wall 351.47 s

 Total ccman2 time:   CPU 7880.72 s  wall 839.96 s

 
 --------------------------------------------------------------
 
                    Orbital Energies (a.u.)
 --------------------------------------------------------------
 
 Alpha MOs
 -- Occupied --
-15.639  -1.173  -0.587  -0.547  -0.547
 -- Virtual --
  0.021   0.083   0.083   0.085   0.122   0.167   0.176   0.178
  0.288   0.288   0.295   0.337   0.363   0.364   0.425   0.431
  0.432   0.466   0.524   0.524   0.536   0.536   0.659   0.783
  0.783   0.803   0.877   0.877   0.880   0.880   0.896   0.912
  0.912   0.995   1.009   1.009   1.184   1.184   1.194   1.256
  1.256   1.314   1.314   1.329   1.329   1.389   1.482   1.588
  1.588   1.816   2.047   2.047   2.119   2.119   2.154   2.154
  2.302   2.302   2.341   2.358   2.359   2.384   2.399   2.399
  2.417   2.417   2.428   2.428   2.433   2.487   2.487   2.826
  2.978   2.978   3.007   3.007   3.057   3.057   3.162   3.318
  3.319   3.354   3.354   3.449   3.476   3.476   3.669   3.719
  3.719   4.257   4.257   4.317   4.348   4.348   4.736   4.736
  4.878   4.925   4.925   5.036   5.036   5.115   5.115   5.395
  5.395   5.609   5.609   5.626   5.651   5.660   5.660   5.691
  5.691   5.747   5.747   5.767   5.767   5.798   5.798   5.984
  5.984   6.020   6.148   6.148   6.195   6.195   6.415   6.415
  6.856   7.267   7.399   7.458   7.458   7.813   7.813   7.864
  7.864   8.855   8.917   8.917  10.197  10.819  10.819  11.752
 12.016  12.016  12.071  12.071  12.287  12.287  12.382  12.382
 12.445  12.445  12.775  13.199  13.199  13.345  13.345  13.718
 13.770  13.770  14.072  14.072  14.158  14.158  14.311  14.311
 14.394  14.403  14.403  14.493  14.493  14.578  14.578  14.632
 14.632  14.773  14.773  15.202  15.217  15.217  15.859  15.859
 16.050  16.232  16.232  16.594  16.594  16.642  17.500  17.500
 17.609  17.609  18.112  18.219  18.219  20.527  20.527  21.795
 22.324  25.152  29.536  29.536  31.637  50.322  50.322  51.041
 51.041  51.869  58.499  58.499  58.671  58.671  59.286  59.286
 59.642  65.622  82.766  82.766  84.299 150.482 150.482 150.977
150.977 151.567 172.054 209.019 209.019 209.024 209.024 209.030
209.030 209.041 209.041 209.048 229.725 229.725 230.951 236.214
236.214 236.284 236.284 236.551 236.551 236.721 449.758 456.764
456.764 457.107 457.107 457.573 643.930 643.930 644.9991574.973
 
 Beta MOs
 -- Occupied --
-15.578  -0.922  -0.509
 -- Virtual --
  0.023   0.058   0.059   0.085   0.129   0.141   0.142   0.170
  0.196   0.197   0.298   0.298   0.308   0.342   0.380   0.381
  0.435   0.476   0.505   0.505   0.533   0.533   0.541   0.541
  0.680   0.792   0.792   0.828   0.891   0.892   0.899   0.905
  0.905   0.931   0.931   1.007   1.064   1.064   1.206   1.218
  1.219   1.259   1.259   1.330   1.330   1.356   1.357   1.411
  1.488   1.643   1.643   1.840   2.065   2.065   2.144   2.144
  2.170   2.170   2.347   2.347   2.350   2.370   2.370   2.420
  2.426   2.426   2.442   2.442   2.447   2.447   2.455   2.598
  2.598   2.839   2.990   2.990   3.025   3.025   3.061   3.061
  3.185   3.324   3.324   3.355   3.355   3.453   3.487   3.487
  3.695   3.799   3.799   4.308   4.308   4.340   4.359   4.359
  4.759   4.759   4.896   4.946   4.946   5.054   5.054   5.134
  5.134   5.417   5.417   5.631   5.631   5.642   5.665   5.705
  5.705   5.715   5.715   5.760   5.760   5.790   5.790   5.874
  5.874   5.998   5.999   6.047   6.173   6.173   6.227   6.227
  6.499   6.499   6.877   7.302   7.419   7.481   7.481   7.856
  7.856   7.899   7.899   8.866   8.949   8.949  10.235  10.888
 10.888  11.777  12.034  12.034  12.090  12.090  12.303  12.303
 12.425  12.425  12.477  12.477  12.793  13.203  13.203  13.346
 13.346  13.733  13.789  13.789  14.094  14.094  14.161  14.161
 14.336  14.336  14.406  14.406  14.414  14.513  14.513  14.644
 14.644  14.694  14.694  14.822  14.822  15.209  15.260  15.260
 15.875  15.875  16.061  16.257  16.257  16.611  16.611  16.658
 17.569  17.569  17.618  17.618  18.126  18.246  18.246  20.544
 20.544  21.808  22.334  25.184  29.576  29.576  31.656  50.355
 50.355  51.062  51.062  51.885  58.534  58.534  58.697  58.697
 59.306  59.306  59.659  65.640  82.784  82.784  84.308 150.494
150.494 150.984 150.984 151.573 172.061 209.029 209.029 209.032
209.032 209.037 209.037 209.047 209.047 209.053 229.731 229.731
230.954 236.222 236.222 236.290 236.290 236.556 236.556 236.726
449.761 456.767 456.767 457.109 457.109 457.575 643.932 643.932
645.0001574.974
 --------------------------------------------------------------
 
          Ground-State Mulliken Net Atomic Charges

     Atom                 Charge (a.u.)    Spin (a.u.)
  --------------------------------------------------------
      1 N                    -0.341824       2.083202
      2 H                     0.341824      -0.083202
  --------------------------------------------------------
  Sum of atomic charges =    -0.000000
  Sum of spin   charges =     2.000000

 -----------------------------------------------------------------
                    Cartesian Multipole Moments
 -----------------------------------------------------------------
    Charge (ESU x 10^10)
                 0.0000
    Dipole Moment (Debye)
         X       0.0000      Y      -0.0000      Z       1.6330
       Tot       1.6330
    Quadrupole Moments (Debye-Ang)
        XX      -6.2724     XY      -0.0000     YY      -6.2697
        XZ       0.0000     YZ      -0.0000     ZZ      -5.4583
    Octopole Moments (Debye-Ang^2)
       XXX      -0.0000    XXY      -0.0000    XYY       0.0000
       YYY      -0.0000    XXZ      -0.4594    XYZ      -0.0000
       YYZ      -0.4594    XZZ       0.0000    YZZ      -0.0000
       ZZZ       0.1116
    Hexadecapole Moments (Debye-Ang^3)
      XXXX      -5.6558   XXXY      -0.0000   XXYY      -1.8839
      XYYY      -0.0000   YYYY      -5.6474   XXXZ       0.0000
      XXYZ      -0.0000   XYYZ       0.0000   YYYZ      -0.0000
      XXZZ      -2.7031   XYZZ      -0.0000   YYZZ      -2.7014
      XZZZ       0.0000   YZZZ      -0.0000   ZZZZ      -8.4741
 -----------------------------------------------------------------
Archival summary:
1\1\n0043.mhg0\SP\ProcedureUnspecified\BasisUnspecified\11(3)\yhljason\ThuJun1821:44:372020ThuJun1821:44:372020\0\\#,ProcedureUnspecified,BasisUnspecified,\\0,3\N\H,1,1.0362\\HF=-54.9867567\\@

 Total job time:  1258.63s(wall), 11479.14s(cpu) 
 Thu Jun 18 21:44:37 2020

        *************************************************************
        *                                                           *
        *  Thank you very much for using Q-Chem.  Have a nice day.  *
        *                                                           *
        *************************************************************


 
User input: 3 of 7 
 
Q-Chem Developer Version!
                  Welcome to Q-Chem
     A Quantum Leap Into The Future Of Chemistry


 Q-Chem 5.1, Q-Chem, Inc., Pleasanton, CA (2018)

 Yihan Shao,  Zhengting Gan,  E. Epifanovsky,  A. T. B. Gilbert,  M. Wormit,  
 J. Kussmann,  A. W. Lange,  A. Behn,  Jia Deng,  Xintian Feng,  D. Ghosh,  
 M. Goldey,  P. R. Horn,  L. D. Jacobson,  I. Kaliman,  T. Kus,  A. Landau,  
 Jie Liu,  E. I. Proynov,  R. M. Richard,  R. P. Steele,  E. J. Sundstrom,  
 H. L. Woodcock III,  P. M. Zimmerman,  D. Zuev,  B. Albrecht,  E. Alguire,  
 S. A. Baeppler,  D. Barton,  Z. Benda,  Y. A. Bernard,  E. J. Berquist,  
 K. B. Bravaya,  H. Burton,  D. Casanova,  Chun-Min Chang,  Yunqing Chen,  
 A. Chien,  K. D. Closser,  M. P. Coons,  S. Coriani,  S. Dasgupta,  
 A. L. Dempwolff,  M. Diedenhofen,  Hainam Do,  R. G. Edgar,  Po-Tung Fang,  
 S. Faraji,  S. Fatehi,  Qingguo Feng,  K. D. Fenk,  J. Fosso-Tande,  
 Qinghui Ge,  A. Ghysels,  G. Gidofalvi,  J. Gomes,  J. Gonthier,  A. Gunina,  
 D. Hait,  M. W. D. Hanson-Heine,  P. H. P. Harbach,  A. W. Hauser,  
 J. E. Herr,  E. G. Hohenstein,  Z. C. Holden,  Kerwin Hui,  B. C. Huynh,  
 T.-C. Jagau,  Hyunjun Ji,  B. Kaduk,  K. Khistyaev,  Jaehoon Kim,  
 P. Klunzinger,  K. Koh,  D. Kosenkov,  L. Koulias,  T. Kowalczyk,  
 C. M. Krauter,  A. Kunitsa,  Ka Un Lao,  A. Laurent,  K. V. Lawler,  
 Joonho Lee,  D. Lefrancois,  S. Lehtola,  D. S. Levine,  Yi-Pei Li,  
 You-Sheng Lin,  Fenglai Liu,  E. Livshits,  A. Luenser,  P. Manohar,  
 E. Mansoor,  S. F. Manzer,  Shan-Ping Mao,  Yuezhi Mao,  N. Mardirossian,  
 A. V. Marenich,  T. Markovich,  L. A. Martinez-Martinez,  S. A. Maurer,  
 N. J. Mayhall,  S. C. McKenzie,  J.-M. Mewes,  A. F. Morrison,  
 J. W. Mullinax,  K. Nanda,  T. S. Nguyen-Beck,  R. Olivares-Amaya,  
 J. A. Parkhill,  T. M. Perrine,  F. Plasser,  P. Pokhilko,  S. Prager,  
 A. Prociuk,  E. Ramos,  D. R. Rehn,  F. Rob,  M. Schneider,  N. Sergueev,  
 S. M. Sharada,  S. Sharma,  D. W. Small,  T. Stauch,  T. Stein,  
 Yu-Chuan Su,  A. J. W. Thom,  A. Tkatchenko,  T. Tsuchimochi,  N. M. Tubman,  
 L. Vogt,  M. L. Vidal,  O. Vydrov,  M. A. Watson,  J. Wenzel,  
 M. de Wergifosse,  T. A. Wesolowski,  A. White,  J. Witte,  A. Yamada,  
 Jun Yang,  K. Yao,  S. Yeganeh,  S. R. Yost,  Zhi-Qiang You,  A. Zech,  
 Igor Ying Zhang,  Xing Zhang,  Yan Zhao,  Ying Zhu,  B. R. Brooks,  
 G. K. L. Chan,  C. J. Cramer,  M. S. Gordon,  W. J. Hehre,  A. Klamt,  
 M. W. Schmidt,  C. D. Sherrill,  D. G. Truhlar,  A. Aspuru-Guzik,  R. Baer,  
 A. T. Bell,  N. A. Besley,  Jeng-Da Chai,  A. E. DePrince, III,  
 R. A. DiStasio Jr.,  A. Dreuw,  B. D. Dunietz,  T. R. Furlani,  
 Chao-Ping Hsu,  Yousung Jung,  Jing Kong,  D. S. Lambrecht,  WanZhen Liang,  
 C. Ochsenfeld,  V. A. Rassolov,  L. V. Slipchenko,  J. E. Subotnik,  
 T. Van Voorhis,  J. M. Herbert,  A. I. Krylov,  P. M. W. Gill,  M. Head-Gordon

 Contributors to earlier versions of Q-Chem not listed above: 
 R. D. Adamson,  B. Austin,  J. Baker,  G. J. O. Beran,  K. Brandhorst,  
 S. T. Brown,  E. F. C. Byrd,  A. K. Chakraborty,  C.-L. Cheng,  
 Siu Hung Chien,  D. M. Chipman,  D. L. Crittenden,  H. Dachsel,  
 R. J. Doerksen,  A. D. Dutoi,  L. Fusti-Molnar,  W. A. Goddard III,  
 A. Golubeva-Zadorozhnaya,  S. R. Gwaltney,  G. Hawkins,  A. Heyden,  
 S. Hirata,  G. Kedziora,  F. J. Keil,  C. Kelley,  Jihan Kim,  R. A. King,  
 R. Z. Khaliullin,  P. P. Korambath,  W. Kurlancheek,  A. M. Lee,  M. S. Lee,  
 S. V. Levchenko,  Ching Yeh Lin,  D. Liotard,  R. C. Lochan,  I. Lotan,  
 P. E. Maslen,  N. Nair,  D. P. O'Neill,  D. Neuhauser,  E. Neuscamman,  
 C. M. Oana,  R. Olson,  B. Peters,  R. Peverati,  P. A. Pieniazek,  
 Y. M. Rhee,  J. Ritchie,  M. A. Rohrdanz,  E. Rosta,  N. J. Russ,  
 H. F. Schaefer III,  N. E. Schultz,  N. Shenvi,  A. C. Simmonett,  A. Sodt,  
 D. Stuck,  K. S. Thanthiriwatte,  V. Vanovschi,  Tao Wang,  A. Warshel,  
 C. F. Williams,  Q. Wu,  X. Xu,  W. Zhang

 Please cite Q-Chem as follows:
 Y. Shao et al., Mol. Phys. 113, 184-215 (2015)
 DOI: 10.1080/00268976.2014.952696

 Q-Chem 5.1.1 for Intel X86 EM64T Linux

 Parts of Q-Chem use Armadillo 8.300.2 (Tropical Shenanigans).
 http://arma.sourceforge.net/

 Q-Chem begins on Thu Jun 18 21:44:37 2020  

Host: n0043.mhg0
0

     Scratch files written to /local/scratch/users/yhljason/NH_ccsdT_5z.inp20200618012229//
The previous job contains 0 fragments, simply inherited here
Input Ideriv = 0
Curr. Ideriv = -1
Max.  Ideriv = 0

Checking the input file for inconsistencies... 	...done.

--------------------------------------------------------------
User input:
--------------------------------------------------------------
$molecule
read
$end

$rem

jobtype sp
method ccsd(T)
xc_grid 000099000590
basis aug-cc-pcV5Z
max_scf_cycles 200
thresh 14
scf_convergence 8
mem_total 128000
cc_memory 96000
cc_backend xm
mem_static 1500
symmetry false
sym_ignore true
scf_guess read
unrestricted true
scf_algorithm gdm
n_frozen_core 0
$end

$multipole_field
XX -0.0001
$end

--------------------------------------------------------------
 ----------------------------------------------------------------
             Standard Nuclear Orientation (Angstroms)
    I     Atom           X                Y                Z
 ----------------------------------------------------------------
    1      N       0.0000000000     0.0000000000     0.0000000000
    2      H       0.0000000000     0.0000000000     1.0362000000
 ----------------------------------------------------------------
 Nuclear Repulsion Energy =     3.5748315727 hartrees
 There are        5 alpha and        3 beta electrons
 Requested basis set is aug-cc-pCV5Z
 There are 61 shells and 261 basis functions
 Total memory of 128000MB is distributed as follows: 
   QALLOC including MEM_STATIC uses 32000MB
   MEM_STATIC is set to 1500MB
   CCMAN JOB total memory use is  96000MB
 Warning: actual memory use might exceed 128000MB

 Total QAlloc Memory Limit  32000 MB
 Mega-Array Size      1467 MB
 MEM_STATIC part      1500 MB

                       Distance Matrix (Angstroms)
             N (  1)
   H (  2)  1.036200
 
 Applying Cartesian multipole field
    Component          Value
    ---------          -----
     (2,0,0)       -1.00000E-04
 A cutoff of  1.0D-14 yielded   1891 shell pairs
 There are     34871 function pairs (     65226 Cartesian)
 
 -------------------------------------------------------
 OpenMP Integral Computing Module                       
 Release: version 1.0, May 2013, Q-Chem Inc. Pittsburgh 
 -------------------------------------------------------
 Integral Job Info:
 Integral job number is                      11
 Integral operator is                         1
 short-range coefficients                     0
 long-range coefficients              100000000
 Omega coefficients                           0
 if combine SR and LR in K                    0
 Integral screening is                        0
 Integral computing path is                   2
 max size of driver memory is           6400000
 size of driver memory is               5498286
 size of scratch memory is             29551430
 max col of scratch BK array             194481
 max len of scratch array in speh3         5572
 max len of scratch index in speh4           72
 max int batch size is                      520
 min int batch size is                       52
 fixed nKL is                                30
 max L of basis functions is                  5
 order of int derivative is                   0
 number of shells is                         61
 number of basis is                         356
 number of cartesian basis is               356
 number of contracted shell pairs          1891
 number of primitive shell pairs           3663
 maxK2 (contraction) of shell pair          100
 max number of K2 of shell pair               1
 max number of CS2 of shell pair            198
 max number of PS2 of shell pair            300
 mem total for path MDJ                  871004
 -------------------------------------------------------
 Smallest overlap matrix eigenvalue = 1.61E-05
 Guess MOs from SCF MO coefficient file

 -----------------------------------------------------------------------
  General SCF calculation program by
  Eric Jon Sundstrom, Paul Horn, Yuezhi Mao, Dmitri Zuev, Alec White,
  David Stuck, Shaama M.S., Shane Yost, Joonho Lee, David Small,
  Daniel Levine, Susi Lehtola, Hugh Burton, Evgeny Epifanovsky
 -----------------------------------------------------------------------
 Hartree-Fock
 using 16 threads for integral computing
 -------------------------------------------------------
 OpenMP Integral computing Module                
 Release: version 2.0, May 2017, Q-Chem Inc. Pleasanton 
 -------------------------------------------------------
 LTot/LBra/LKet=          20          10          10
 LTot/LBra/LKet=          19           9          10
 LTot/LBra/LKet=          20          10          10
 LTot/LBra/LKet=          19           9          10
 LTot/LBra/LKet=          18           8          10
 LTot/LBra/LKet=          18           9           9

 Q-Chem warning:

 in GenH1, ket side, handled with new code

 LTot/LBra/LKet=          20          10          10

 Q-Chem warning:

 in GenH1, ket side, handled with new code


 Q-Chem warning:

 in GenH1, ket side, handled with new code

 LTot/LBra/LKet=          18           9           9

 Q-Chem warning:

 in GenH1, ket side, handled with new code


 Q-Chem warning:

 in GenH1, ket side, handled with new code


 Q-Chem warning:

 in GenH1, ket side, handled with new code


 Q-Chem warning:

 in GenH1, ket side, handled with new code


 Q-Chem warning:

 in GenH1, ket side, handled with new code

 LTot/LBra/LBra=          18           9           9

 Q-Chem warning:

 in GenH1, bra side, handled with new code

 A unrestricted SCF calculation will be
 performed using GDM
 SCF converges when RMS gradient is below 1.0e-08
 ---------------------------------------
  Cycle       Energy        RMS Gradient
 ---------------------------------------
    1     -54.9858240370      3.82e-04   Normal BFGS step
    2     -54.9858244845      1.01e-04   Normal BFGS step
    3     -54.9858245310      2.72e-05   Normal BFGS step
    4     -54.9858245339      8.71e-06   Normal BFGS step
    5     -54.9858245344      1.05e-06   Normal BFGS step
    6     -54.9858245345      6.59e-07   Normal BFGS step
    7     -54.9858245345      2.66e-07   Normal BFGS step
    8     -54.9858245345      1.31e-07   Normal BFGS step
    9     -54.9858245345      3.88e-08   Normal BFGS step
   10     -54.9858245345      1.67e-08   Normal BFGS step
   11     -54.9858245345      4.43e-09  Convergence criterion met
 ---------------------------------------
 SCF time:   CPU 3855.39s  wall 242.00s 
<S^2> =          2.016692706
 SCF   energy in the final basis set =      -54.9858245345
 Total energy in the final basis set =      -54.9858245345


 ------------------------------------------------------------------------------

   CCMAN2: suite of methods based on coupled cluster
           and equation of motion theories.

   Components:
   * libvmm-1.3-trunk
     by Evgeny Epifanovsky, Ilya Kaliman.
   * libtensor-2.5-trunk
     by Evgeny Epifanovsky, Michael Wormit, Dmitry Zuev, Sam Manzer, 
        Ilya Kaliman.
   * libcc-2.5-trunk
     by Evgeny Epifanovsky, Arik Landau, Tomasz Kus, Kirill Khistyaev, 
        Dmitry Zuev, Prashant Manohar, Xintian Feng, Anna Krylov, 
        Matthew Goldey, Alec White, Thomas Jagau, Kaushik Nanda, 
        Anastasia Gunina, Alexander Kunitsa, Joonho Lee.

   CCMAN original authors:
   Anna I. Krylov, C. David Sherrill, Steven R. Gwaltney,
   Edward F. C. Byrd (2000)
   Sergey V. Levchenko, Lyudmila V. Slipchenko, Tao Wang,
   Ana-Maria C. Cristian (2003)
   Piotr A. Pieniazek, C. Melania Oana, Evgeny Epifanovsky (2007)
   Prashant Manohar (2009)

 ------------------------------------------------------------------------------


 Calculation will run on 16 cores using libxm for tensor contractions

 ------------------------------------------------------------------------------
Libxm Tensor Library
Copyright (c) 2014-2018 Ilya Kaliman
https://github.com/ilyak/libxm
Reference: https://dx.doi.org/10.1002/jcc.24713
 ------------------------------------------------------------------------------

 
 Alpha MOs, Unrestricted
 -- Occupied --                  
-15.638  -1.173  -0.587  -0.547  -0.547
  1 A     2 A     3 A     4 A     5 A                                          
 -- Virtual --                   
  0.025   0.086   0.087   0.089   0.125   0.169   0.179   0.180
  6 A     7 A     8 A     9 A    10 A    11 A    12 A    13 A                  
  0.290   0.290   0.297   0.338   0.365   0.366   0.427   0.433
 14 A    15 A    16 A    17 A    18 A    19 A    20 A    21 A                  
  0.433   0.468   0.525   0.526   0.538   0.538   0.660   0.784
[...]
 30 A    31 A    32 A    33 A    34 A    35 A    36 A    37 A                  
  0.912   0.996   1.010   1.010   1.185   1.185   1.195   1.257
 38 A    39 A    40 A    41 A    42 A    43 A    44 A    45 A                  
  1.257   1.314   1.314   1.329   1.329   1.390   1.483   1.588
 46 A    47 A    48 A    49 A    50 A    51 A    52 A    53 A                  
  1.588   1.817   2.047   2.047   2.119   2.119   2.154   2.154
 54 A    55 A    56 A    57 A    58 A    59 A    60 A    61 A                  
  2.302   2.302   2.342   2.359   2.359   2.384   2.400   2.400
 62 A    63 A    64 A    65 A    66 A    67 A    68 A    69 A                  
  2.418   2.418   2.428   2.428   2.433   2.487   2.487   2.826
 70 A    71 A    72 A    73 A    74 A    75 A    76 A    77 A                  
  2.978   2.978   3.008   3.008   3.057   3.057   3.162   3.319
 78 A    79 A    80 A    81 A    82 A    83 A    84 A    85 A                  
  3.319   3.355   3.355   3.449   3.476   3.476   3.669   3.719
 86 A    87 A    88 A    89 A    90 A    91 A    92 A    93 A                  
  3.719   4.257   4.257   4.317   4.348   4.348   4.737   4.737
 94 A    95 A    96 A    97 A    98 A    99 A   100 A   101 A                  
  4.878   4.925   4.925   5.037   5.037   5.115   5.115   5.395
102 A   103 A   104 A   105 A   106 A   107 A   108 A   109 A                  
  5.395   5.609   5.609   5.626   5.651   5.660   5.660   5.691
110 A   111 A   112 A   113 A   114 A   115 A   116 A   117 A                  
  5.691   5.747   5.747   5.767   5.767   5.798   5.798   5.985
118 A   119 A   120 A   121 A   122 A   123 A   124 A   125 A                  
  5.985   6.021   6.148   6.148   6.196   6.196   6.415   6.415
126 A   127 A   128 A   129 A   130 A   131 A   132 A   133 A                  
  6.856   7.267   7.399   7.459   7.459   7.814   7.814   7.864
134 A   135 A   136 A   137 A   138 A   139 A   140 A   141 A                  
  7.864   8.855   8.918   8.918  10.197  10.819  10.819  11.752
142 A   143 A   144 A   145 A   146 A   147 A   148 A   149 A                  
 12.017  12.017  12.071  12.071  12.287  12.287  12.382  12.382
150 A   151 A   152 A   153 A   154 A   155 A   156 A   157 A                  
 12.445  12.445  12.775  13.199  13.199  13.345  13.345  13.718
158 A   159 A   160 A   161 A   162 A   163 A   164 A   165 A                  
 13.770  13.770  14.072  14.072  14.158  14.158  14.311  14.311
166 A   167 A   168 A   169 A   170 A   171 A   172 A   173 A                  
 14.394  14.403  14.403  14.493  14.493  14.579  14.579  14.632
174 A   175 A   176 A   177 A   178 A   179 A   180 A   181 A                  
 14.632  14.773  14.773  15.202  15.217  15.217  15.859  15.859
182 A   183 A   184 A   185 A   186 A   187 A   188 A   189 A                  
 16.050  16.232  16.232  16.595  16.595  16.642  17.500  17.500
190 A   191 A   192 A   193 A   194 A   195 A   196 A   197 A                  
 17.609  17.609  18.112  18.219  18.219  20.527  20.527  21.795
198 A   199 A   200 A   201 A   202 A   203 A   204 A   205 A                  
 22.325  25.153  29.536  29.536  31.637  50.323  50.323  51.042
206 A   207 A   208 A   209 A   210 A   211 A   212 A   213 A                  
 51.042  51.869  58.499  58.499  58.671  58.671  59.286  59.286
214 A   215 A   216 A   217 A   218 A   219 A   220 A   221 A                  
 59.642  65.623  82.767  82.767  84.300 150.483 150.483 150.977
222 A   223 A   224 A   225 A   226 A   227 A   228 A   229 A                  
150.977 151.567 172.054 209.019 209.019 209.024 209.024 209.030
230 A   231 A   232 A   233 A   234 A   235 A   236 A   237 A                  
209.030 209.041 209.041 209.048 229.725 229.725 230.951 236.214
238 A   239 A   240 A   241 A   242 A   243 A   244 A   245 A                  
236.214 236.284 236.284 236.551 236.551 236.721 449.758 456.764
246 A   247 A   248 A   249 A   250 A   251 A   252 A   253 A                  
456.764 457.107 457.107 457.573 643.930 643.930 644.9991574.973
254 A   255 A   256 A   257 A   258 A   259 A   260 A   261 A                  
 
 Beta MOs, Unrestricted
 -- Occupied --                  
-15.577  -0.921  -0.508
  1 A     2 A     3 A                                                          
 -- Virtual --                   
  0.025   0.060   0.060   0.086   0.131   0.143   0.143   0.171
  4 A     5 A     6 A     7 A     8 A     9 A    10 A    11 A                  
  0.197   0.197   0.298   0.298   0.309   0.343   0.381   0.381
 12 A    13 A    14 A    15 A    16 A    17 A    18 A    19 A                  
  0.435   0.477   0.506   0.506   0.534   0.534   0.542   0.542
 20 A    21 A    22 A    23 A    24 A    25 A    26 A    27 A                  
  0.681   0.793   0.793   0.829   0.892   0.892   0.899   0.905
 28 A    29 A    30 A    31 A    32 A    33 A    34 A    35 A                  
  0.905   0.931   0.931   1.007   1.065   1.065   1.207   1.219
 36 A    37 A    38 A    39 A    40 A    41 A    42 A    43 A                  
  1.219   1.260   1.260   1.331   1.331   1.357   1.357   1.412
 44 A    45 A    46 A    47 A    48 A    49 A    50 A    51 A                  
  1.488   1.643   1.643   1.840   2.065   2.065   2.144   2.144
 52 A    53 A    54 A    55 A    56 A    57 A    58 A    59 A                  
  2.171   2.171   2.348   2.348   2.351   2.371   2.371   2.421
 60 A    61 A    62 A    63 A    64 A    65 A    66 A    67 A                  
  2.426   2.426   2.442   2.442   2.448   2.448   2.455   2.598
 68 A    69 A    70 A    71 A    72 A    73 A    74 A    75 A                  
  2.598   2.839   2.991   2.991   3.026   3.026   3.062   3.062
 76 A    77 A    78 A    79 A    80 A    81 A    82 A    83 A                  
  3.185   3.324   3.324   3.355   3.355   3.453   3.488   3.488
 84 A    85 A    86 A    87 A    88 A    89 A    90 A    91 A                  
  3.696   3.799   3.799   4.309   4.309   4.340   4.359   4.359
 92 A    93 A    94 A    95 A    96 A    97 A    98 A    99 A                  
  4.759   4.759   4.897   4.946   4.946   5.054   5.054   5.135
100 A   101 A   102 A   103 A   104 A   105 A   106 A   107 A                  
  5.135   5.417   5.417   5.631   5.631   5.642   5.665   5.705
108 A   109 A   110 A   111 A   112 A   113 A   114 A   115 A                  
  5.705   5.716   5.716   5.760   5.760   5.790   5.790   5.874
116 A   117 A   118 A   119 A   120 A   121 A   122 A   123 A                  
  5.874   5.999   5.999   6.047   6.173   6.173   6.228   6.228
124 A   125 A   126 A   127 A   128 A   129 A   130 A   131 A                  
  6.499   6.499   6.877   7.303   7.419   7.481   7.481   7.856
132 A   133 A   134 A   135 A   136 A   137 A   138 A   139 A                  
  7.856   7.900   7.900   8.867   8.949   8.949  10.235  10.888
140 A   141 A   142 A   143 A   144 A   145 A   146 A   147 A                  
 10.888  11.777  12.034  12.034  12.091  12.091  12.303  12.303
148 A   149 A   150 A   151 A   152 A   153 A   154 A   155 A                  
 12.426  12.426  12.477  12.477  12.793  13.203  13.203  13.346
156 A   157 A   158 A   159 A   160 A   161 A   162 A   163 A                  
 13.346  13.733  13.790  13.790  14.094  14.094  14.161  14.161
164 A   165 A   166 A   167 A   168 A   169 A   170 A   171 A                  
 14.336  14.336  14.407  14.407  14.414  14.513  14.513  14.645
172 A   173 A   174 A   175 A   176 A   177 A   178 A   179 A                  
 14.645  14.694  14.694  14.822  14.822  15.210  15.260  15.260
180 A   181 A   182 A   183 A   184 A   185 A   186 A   187 A                  
 15.875  15.875  16.061  16.258  16.258  16.612  16.612  16.658
188 A   189 A   190 A   191 A   192 A   193 A   194 A   195 A                  
 17.569  17.569  17.619  17.619  18.126  18.246  18.246  20.544
196 A   197 A   198 A   199 A   200 A   201 A   202 A   203 A                  
 20.544  21.808  22.334  25.184  29.577  29.577  31.656  50.356
204 A   205 A   206 A   207 A   208 A   209 A   210 A   211 A                  
 50.356  51.063  51.063  51.885  58.534  58.534  58.697  58.697
212 A   213 A   214 A   215 A   216 A   217 A   218 A   219 A                  
 59.306  59.306  59.659  65.640  82.784  82.784  84.308 150.494
220 A   221 A   222 A   223 A   224 A   225 A   226 A   227 A                  
150.494 150.985 150.985 151.573 172.061 209.029 209.029 209.033
228 A   229 A   230 A   231 A   232 A   233 A   234 A   235 A                  
209.033 209.037 209.037 209.047 209.047 209.054 229.732 229.732
236 A   237 A   238 A   239 A   240 A   241 A   242 A   243 A                  
230.954 236.222 236.222 236.290 236.290 236.556 236.556 236.726
244 A   245 A   246 A   247 A   248 A   249 A   250 A   251 A                  
449.761 456.767 456.767 457.109 457.109 457.575 643.932 643.932
252 A   253 A   254 A   255 A   256 A   257 A   258 A   259 A                  
645.0001574.974
260 A   261 A                                                                  

 Occupation and symmetry of molecular orbitals

 Point group: C1 (1 irreducible representation).

                           A     All 
 -------------------------------------
 All molecular orbitals:
  - Alpha                  261   261 
  - Beta                   261   261 
 -------------------------------------
 Alpha orbitals:
  - Frozen occupied        0     0   
  - Active occupied        5     5   
  - Active virtual         256   256 
  - Frozen virtual         0     0   
 -------------------------------------
 Beta orbitals:
  - Frozen occupied        0     0   
  - Active occupied        3     3   
  - Active virtual         258   258 
  - Frozen virtual         0     0   
 -------------------------------------

 Import integrals:   CPU 0.00 s  wall 0.00 s

 Import integrals:   CPU 3707.48 s  wall 767.67 s

 MP2 amplitudes:   CPU 3.00 s  wall 1.43 s

Running a double precision version
           CCSD T amplitudes will be solved using DIIS.

           Start     Size      MaxIter   EConv     TConv     
           3         7         100       1.00e-06  1.00e-04  
 ------------------------------------------------------------------------------
           Energy (a.u.)   Ediff      Tdiff       Comment
 ------------------------------------------------------------------------------
           -55.19548766                           
     1     -55.20700219   1.15e-02   3.35e-01     
     2     -55.21067579   3.67e-03   3.66e-02     
     3     -55.21162733   9.52e-04   1.28e-02     
     4     -55.21235195   7.25e-04   8.55e-03     Switched to DIIS steps.
     5     -55.21242116   6.92e-05   1.85e-03     
     6     -55.21243110   9.94e-06   1.03e-03     
     7     -55.21243265   1.55e-06   3.72e-04     
     8     -55.21243303   3.74e-07   1.36e-04     
     9     -55.21243286   1.64e-07   5.42e-05     
 ------------------------------------------------------------------------------
           -55.21243286                           CCSD T converged.

End of double precision

----------------------------------------
libpt (c) 2016-2018 Ilya Kaliman
Fast Coupled Cluster Triples Corrections
https://github.com/ilyak/libpt
----------------------------------------

 Starting (T) calculation...
 Using double precision libpt code
 (T) calculation completed in 41 sec
 (T) energy is -0.0051593960

 SCF energy                 = -54.98635479
 MP2 energy                 = -55.19548766
 CCSD correlation energy     =  -0.22607807
 CCSD total energy           = -55.21243286
 CCSD(T) correlation energy =  -0.00515940
 CCSD(T) total energy       = -55.21759226

 CCSD  T1^2 = 0.0016  T2^2 = 0.0531  Leading amplitudes:

 Amplitude    Orbitals with energies
 -0.0135       2 (A) B                   ->    28 (A) B                   
              -0.9214                          0.6812                     
  0.0100       2 (A) B                   ->    17 (A) B                   
              -0.9214                          0.3426                     
  0.0085       2 (A) B                   ->    16 (A) B                   
              -0.9214                          0.3092                     
  0.0084       5 (A) A                   ->    22 (A) A                   
              -0.5470                          0.4326                     
  0.0084       4 (A) A                   ->    21 (A) A                   
              -0.5470                          0.4326                     

 Amplitude    Orbitals with energies
 -0.0197       3 (A) A       3 (A) B     ->    28 (A) A      28 (A) B     
              -0.5867       -0.5084            0.6600        0.6812       
  0.0197       3 (A) A       3 (A) B     ->    28 (A) B      28 (A) A     
              -0.5867       -0.5084            0.6812        0.6600       
  0.0197       3 (A) B       3 (A) A     ->    28 (A) A      28 (A) B     
              -0.5084       -0.5867            0.6600        0.6812       
 -0.0197       3 (A) B       3 (A) A     ->    28 (A) B      28 (A) A     
              -0.5084       -0.5867            0.6812        0.6600       

 CCSD calculation:   CPU 4132.49 s  wall 350.28 s

 Total ccman2 time:   CPU 7909.12 s  wall 1214.69 s

 
 --------------------------------------------------------------
 
                    Orbital Energies (a.u.)
 --------------------------------------------------------------
 
 Alpha MOs
 -- Occupied --
-15.638  -1.173  -0.587  -0.547  -0.547
 -- Virtual --
  0.023   0.084   0.086   0.086   0.123   0.169   0.178   0.178
  0.289   0.289   0.296   0.337   0.364   0.364   0.426   0.433
  0.433   0.467   0.525   0.525   0.537   0.537   0.660   0.783
  0.783   0.804   0.877   0.877   0.881   0.881   0.896   0.912
  0.912   0.996   1.010   1.010   1.185   1.185   1.195   1.257
  1.257   1.314   1.314   1.329   1.329   1.390   1.483   1.588
  1.588   1.817   2.047   2.047   2.119   2.119   2.154   2.154
  2.302   2.302   2.342   2.359   2.359   2.384   2.400   2.400
  2.418   2.418   2.428   2.428   2.433   2.487   2.487   2.826
  2.978   2.978   3.008   3.008   3.057   3.057   3.162   3.319
  3.319   3.355   3.355   3.449   3.476   3.476   3.669   3.719
  3.719   4.257   4.257   4.317   4.348   4.348   4.737   4.737
  4.878   4.925   4.925   5.037   5.037   5.115   5.115   5.395
  5.395   5.609   5.609   5.626   5.651   5.660   5.660   5.691
  5.691   5.747   5.747   5.767   5.767   5.798   5.798   5.985
  5.985   6.021   6.148   6.148   6.196   6.196   6.415   6.415
  6.856   7.267   7.399   7.459   7.459   7.814   7.814   7.864
  7.864   8.855   8.918   8.918  10.197  10.819  10.819  11.752
 12.017  12.017  12.071  12.071  12.287  12.287  12.382  12.382
 12.445  12.445  12.775  13.199  13.199  13.345  13.345  13.718
 13.770  13.770  14.072  14.072  14.158  14.158  14.311  14.311
 14.394  14.403  14.403  14.493  14.493  14.579  14.579  14.632
 14.632  14.773  14.773  15.202  15.217  15.217  15.859  15.859
 16.050  16.232  16.232  16.595  16.595  16.642  17.500  17.500
 17.609  17.609  18.112  18.219  18.219  20.527  20.527  21.795
 22.325  25.153  29.536  29.536  31.637  50.323  50.323  51.042
 51.042  51.869  58.499  58.499  58.671  58.671  59.286  59.286
 59.642  65.623  82.767  82.767  84.300 150.483 150.483 150.977
150.977 151.567 172.054 209.019 209.019 209.024 209.024 209.030
209.030 209.041 209.041 209.048 229.725 229.725 230.951 236.214
236.214 236.284 236.284 236.551 236.551 236.721 449.758 456.764
456.764 457.107 457.107 457.573 643.930 643.930 644.9991574.973
 
 Beta MOs
 -- Occupied --
-15.577  -0.921  -0.508
 -- Virtual --
  0.025   0.060   0.060   0.086   0.131   0.143   0.143   0.171
  0.197   0.197   0.298   0.298   0.309   0.343   0.381   0.381
  0.435   0.477   0.506   0.506   0.534   0.534   0.542   0.542
  0.681   0.793   0.793   0.829   0.892   0.892   0.899   0.905
  0.905   0.931   0.931   1.007   1.065   1.065   1.207   1.219
  1.219   1.260   1.260   1.331   1.331   1.357   1.357   1.412
  1.488   1.643   1.643   1.840   2.065   2.065   2.144   2.144
  2.171   2.171   2.348   2.348   2.351   2.371   2.371   2.421
  2.426   2.426   2.442   2.442   2.448   2.448   2.455   2.598
  2.598   2.839   2.991   2.991   3.026   3.026   3.062   3.062
  3.185   3.324   3.324   3.355   3.355   3.453   3.488   3.488
  3.696   3.799   3.799   4.309   4.309   4.340   4.359   4.359
  4.759   4.759   4.897   4.946   4.946   5.054   5.054   5.135
  5.135   5.417   5.417   5.631   5.631   5.642   5.665   5.705
  5.705   5.716   5.716   5.760   5.760   5.790   5.790   5.874
  5.874   5.999   5.999   6.047   6.173   6.173   6.228   6.228
  6.499   6.499   6.877   7.303   7.419   7.481   7.481   7.856
  7.856   7.900   7.900   8.867   8.949   8.949  10.235  10.888
 10.888  11.777  12.034  12.034  12.091  12.091  12.303  12.303
 12.426  12.426  12.477  12.477  12.793  13.203  13.203  13.346
 13.346  13.733  13.790  13.790  14.094  14.094  14.161  14.161
 14.336  14.336  14.407  14.407  14.414  14.513  14.513  14.645
 14.645  14.694  14.694  14.822  14.822  15.210  15.260  15.260
 15.875  15.875  16.061  16.258  16.258  16.612  16.612  16.658
 17.569  17.569  17.619  17.619  18.126  18.246  18.246  20.544
 20.544  21.808  22.334  25.184  29.577  29.577  31.656  50.356
 50.356  51.063  51.063  51.885  58.534  58.534  58.697  58.697
 59.306  59.306  59.659  65.640  82.784  82.784  84.308 150.494
150.494 150.985 150.985 151.573 172.061 209.029 209.029 209.033
209.033 209.037 209.037 209.047 209.047 209.054 229.732 229.732
230.954 236.222 236.222 236.290 236.290 236.556 236.556 236.726
449.761 456.767 456.767 457.109 457.109 457.575 643.932 643.932
645.0001574.974
 --------------------------------------------------------------
 
          Ground-State Mulliken Net Atomic Charges

     Atom                 Charge (a.u.)    Spin (a.u.)
  --------------------------------------------------------
      1 N                    -0.341738       2.083260
      2 H                     0.341738      -0.083260
  --------------------------------------------------------
  Sum of atomic charges =     0.000000
  Sum of spin   charges =     2.000000

 -----------------------------------------------------------------
                    Cartesian Multipole Moments
 -----------------------------------------------------------------
    Charge (ESU x 10^10)
                 0.0000
    Dipole Moment (Debye)
         X      -0.0000      Y       0.0000      Z       1.6356
       Tot       1.6356
    Quadrupole Moments (Debye-Ang)
        XX      -6.2691     XY       0.0000     YY      -6.2691
        XZ       0.0000     YZ       0.0000     ZZ      -5.4566
    Octopole Moments (Debye-Ang^2)
       XXX      -0.0000    XXY       0.0000    XYY      -0.0000
       YYY       0.0000    XXZ      -0.4582    XYZ       0.0000
       YYZ      -0.4582    XZZ       0.0000    YZZ       0.0000
       ZZZ       0.1175
    Hexadecapole Moments (Debye-Ang^3)
      XXXX      -5.6455   XXXY      -0.0000   XXYY      -1.8818
      XYYY      -0.0000   YYYY      -5.6455   XXXZ       0.0000
      XXYZ       0.0000   XYYZ       0.0000   YYYZ       0.0000
      XXZZ      -2.7002   XYZZ       0.0000   YYZZ      -2.7002
      XZZZ       0.0000   YZZZ       0.0000   ZZZZ      -8.4671
 -----------------------------------------------------------------
Archival summary:
1\1\n0043.mhg0\SP\ProcedureUnspecified\BasisUnspecified\11(3)\yhljason\ThuJun1823:40:412020ThuJun1823:40:412020\0\\#,ProcedureUnspecified,BasisUnspecified,\\0,3\N\H,1,1.0362\\HF=-54.9863548\\@

 Total job time:  1660.12s(wall), 11793.49s(cpu) 
 Thu Jun 18 23:40:41 2020

        *************************************************************
        *                                                           *
        *  Thank you very much for using Q-Chem.  Have a nice day.  *
        *                                                           *
        *************************************************************


