Q-Chem Developer Version!
                  Welcome to Q-Chem
     A Quantum Leap Into The Future Of Chemistry


 Q-Chem 5.1, Q-Chem, Inc., Pleasanton, CA (2018)

 Yihan Shao,  Zhengting Gan,  E. Epifanovsky,  A. T. B. Gilbert,  M. Wormit,
 J. Kussmann,  A. W. Lange,  A. Behn,  Jia Deng,  Xintian Feng,  D. Ghosh,
 M. Goldey,  P. R. Horn,  L. D. Jacobson,  I. Kaliman,  T. Kus,  A. Landau,
 Jie Liu,  E. I. Proynov,  R. M. Richard,  R. P. Steele,  E. J. Sundstrom,
 H. L. Woodcock III,  P. M. Zimmerman,  D. Zuev,  B. Albrecht,  E. Alguire,
 S. A. Baeppler,  D. Barton,  Z. Benda,  Y. A. Bernard,  E. J. Berquist,
 K. B. Bravaya,  H. Burton,  D. Casanova,  Chun-Min Chang,  Yunqing Chen,
 A. Chien,  K. D. Closser,  M. P. Coons,  S. Coriani,  S. Dasgupta,
 A. L. Dempwolff,  M. Diedenhofen,  Hainam Do,  R. G. Edgar,  Po-Tung Fang,
 S. Faraji,  S. Fatehi,  Qingguo Feng,  K. D. Fenk,  J. Fosso-Tande,
 Qinghui Ge,  A. Ghysels,  G. Gidofalvi,  J. Gomes,  J. Gonthier,  A. Gunina,
 D. Hait,  M. W. D. Hanson-Heine,  P. H. P. Harbach,  A. W. Hauser,
 J. E. Herr,  E. G. Hohenstein,  Z. C. Holden,  Kerwin Hui,  B. C. Huynh,
 T.-C. Jagau,  Hyunjun Ji,  B. Kaduk,  K. Khistyaev,  Jaehoon Kim,
 P. Klunzinger,  K. Koh,  D. Kosenkov,  L. Koulias,  T. Kowalczyk,
 C. M. Krauter,  A. Kunitsa,  Ka Un Lao,  A. Laurent,  K. V. Lawler,
 Joonho Lee,  D. Lefrancois,  S. Lehtola,  D. S. Levine,  Yi-Pei Li,
 You-Sheng Lin,  Fenglai Liu,  E. Livshits,  A. Luenser,  P. Manohar,
 E. Mansoor,  S. F. Manzer,  Shan-Ping Mao,  Yuezhi Mao,  N. Mardirossian,
 A. V. Marenich,  T. Markovich,  L. A. Martinez-Martinez,  S. A. Maurer,
 N. J. Mayhall,  S. C. McKenzie,  J.-M. Mewes,  A. F. Morrison,
 J. W. Mullinax,  K. Nanda,  T. S. Nguyen-Beck,  R. Olivares-Amaya,
 J. A. Parkhill,  T. M. Perrine,  F. Plasser,  P. Pokhilko,  S. Prager,
 A. Prociuk,  E. Ramos,  D. R. Rehn,  F. Rob,  M. Schneider,  N. Sergueev,
 S. M. Sharada,  S. Sharma,  D. W. Small,  T. Stauch,  T. Stein,
 Yu-Chuan Su,  A. J. W. Thom,  A. Tkatchenko,  T. Tsuchimochi,  N. M. Tubman,
 L. Vogt,  M. L. Vidal,  O. Vydrov,  M. A. Watson,  J. Wenzel,
 M. de Wergifosse,  T. A. Wesolowski,  A. White,  J. Witte,  A. Yamada,
 Jun Yang,  K. Yao,  S. Yeganeh,  S. R. Yost,  Zhi-Qiang You,  A. Zech,
 Igor Ying Zhang,  Xing Zhang,  Yan Zhao,  Ying Zhu,  B. R. Brooks,
 G. K. L. Chan,  C. J. Cramer,  M. S. Gordon,  W. J. Hehre,  A. Klamt,
 M. W. Schmidt,  C. D. Sherrill,  D. G. Truhlar,  A. Aspuru-Guzik,  R. Baer,
 A. T. Bell,  N. A. Besley,  Jeng-Da Chai,  A. E. DePrince, III,
 R. A. DiStasio Jr.,  A. Dreuw,  B. D. Dunietz,  T. R. Furlani,
 Chao-Ping Hsu,  Yousung Jung,  Jing Kong,  D. S. Lambrecht,  WanZhen Liang,
 C. Ochsenfeld,  V. A. Rassolov,  L. V. Slipchenko,  J. E. Subotnik,
 T. Van Voorhis,  J. M. Herbert,  A. I. Krylov,  P. M. W. Gill,  M. Head-Gordon

 Contributors to earlier versions of Q-Chem not listed above:
 R. D. Adamson,  B. Austin,  J. Baker,  G. J. O. Beran,  K. Brandhorst,
 S. T. Brown,  E. F. C. Byrd,  A. K. Chakraborty,  C.-L. Cheng,
 Siu Hung Chien,  D. M. Chipman,  D. L. Crittenden,  H. Dachsel,
 R. J. Doerksen,  A. D. Dutoi,  L. Fusti-Molnar,  W. A. Goddard III,
 A. Golubeva-Zadorozhnaya,  S. R. Gwaltney,  G. Hawkins,  A. Heyden,
 S. Hirata,  G. Kedziora,  F. J. Keil,  C. Kelley,  Jihan Kim,  R. A. King,
 R. Z. Khaliullin,  P. P. Korambath,  W. Kurlancheek,  A. M. Lee,  M. S. Lee,
 S. V. Levchenko,  Ching Yeh Lin,  D. Liotard,  R. C. Lochan,  I. Lotan,
 P. E. Maslen,  N. Nair,  D. P. O'Neill,  D. Neuhauser,  E. Neuscamman,
 C. M. Oana,  R. Olson,  B. Peters,  R. Peverati,  P. A. Pieniazek,
 Y. M. Rhee,  J. Ritchie,  M. A. Rohrdanz,  E. Rosta,  N. J. Russ,
 H. F. Schaefer III,  N. E. Schultz,  N. Shenvi,  A. C. Simmonett,  A. Sodt,
 D. Stuck,  K. S. Thanthiriwatte,  V. Vanovschi,  Tao Wang,  A. Warshel,
 C. F. Williams,  Q. Wu,  X. Xu,  W. Zhang

 Please cite Q-Chem as follows:
 Y. Shao et al., Mol. Phys. 113, 184-215 (2015)
 DOI: 10.1080/00268976.2014.952696

 Q-Chem 5.1.1 for Intel X86 EM64T Linux

 Parts of Q-Chem use Armadillo 8.300.2 (Tropical Shenanigans).
 http://arma.sourceforge.net/

 Q-Chem begins on Wed Jul  1 08:00:28 2020

Host: n0071.mhg0
0

     Scratch files written to /local/scratch/users/yhljason/SiO_ccsdT_aug-cc-pcVTZ.inp20200630131929//
Input Ideriv = 0
Curr. Ideriv = -1
Max.  Ideriv = 0

Checking the input file for inconsistencies... 	...done.

--------------------------------------------------------------
User input:
--------------------------------------------------------------
$molecule
0 1
Si1     0.0000  0.0000  0.0000
O2      0.0000  0.0000  1.5097
$end

$rem
jobtype sp
method CCSD(T)
xc_grid 000099000590
basis aug-cc-pcVTZ
max_scf_cycles 200
thresh 14
scf_convergence 8
scf_algorithm gdm
symmetry false
sym_ignore true
unrestricted true
gen_scfman true
internal_stability_iter 15
internal_stability_davidson_iter 200
mem_total 128000
cc_memory 96000
cc_backend xm
mem_static 1500
n_frozen_core 0
$end


--------------------------------------------------------------
 ----------------------------------------------------------------
             Standard Nuclear Orientation (Angstroms)
    I     Atom           X                Y                Z
 ----------------------------------------------------------------
    1      Si      0.0000000000     0.0000000000     0.0000000000
    2      O       0.0000000000     0.0000000000     1.5097000000
 ----------------------------------------------------------------
 Nuclear Repulsion Energy =    39.2580298136 hartrees
 There are       11 alpha and       11 beta electrons
 Requested basis set is aug-cc-pCVTZ
 There are 42 shells and 134 basis functions
 Total memory of 128000MB is distributed as follows:
   QALLOC including MEM_STATIC uses 32000MB
   MEM_STATIC is set to 1500MB
   CCMAN JOB total memory use is  96000MB
 Warning: actual memory use might exceed 128000MB

 Total QAlloc Memory Limit  32000 MB
 Mega-Array Size      1467 MB
 MEM_STATIC part      1500 MB

                       Distance Matrix (Angstroms)
             Si(  1)
   O (  2)  1.509700

 A cutoff of  1.0D-14 yielded    891 shell pairs
 There are      9167 function pairs (     12817 Cartesian)

 -------------------------------------------------------
 OpenMP Integral Computing Module
 Release: version 1.0, May 2013, Q-Chem Inc. Pittsburgh
 -------------------------------------------------------
 Integral Job Info:
 Integral job number is                      11
 Integral operator is                         1
 short-range coefficients                     0
 long-range coefficients              100000000
 Omega coefficients                           0
 if combine SR and LR in K                    0
 Integral screening is                        0
 Integral computing path is                   2
 max size of driver memory is            800000
 size of driver memory is                776718
 size of scratch memory is             29531563
 max col of scratch BK array              10000
 max len of scratch array in speh3          662
 max len of scratch index in speh4           32
 max int batch size is                      520
 min int batch size is                       52
 fixed nKL is                                31
 max L of basis functions is                  3
 order of int derivative is                   0
 number of shells is                         42
 number of basis is                         158
 number of cartesian basis is               158
 number of contracted shell pairs           891
 number of primitive shell pairs           5128
 maxK2 (contraction) of shell pair          169
 max number of K2 of shell pair               1
 max number of CS2 of shell pair             97
 max number of PS2 of shell pair           1014
 mem total for path MDJ                  562774
 -------------------------------------------------------
 Smallest overlap matrix eigenvalue = 3.52E-04

 Scale SEOQF with 1.000000e-01/1.000000e-01/1.000000e-01

 Standard Electronic Orientation quadrupole field applied
 Nucleus-field energy     =    -0.0000000020 hartrees
 Guess from superposition of atomic densities
 Warning:  Energy on first SCF cycle will be non-variational
 SAD guess density has 22.000000 electrons

 -----------------------------------------------------------------------
  General SCF calculation program by
  Eric Jon Sundstrom, Paul Horn, Yuezhi Mao, Dmitri Zuev, Alec White,
  David Stuck, Shaama M.S., Shane Yost, Joonho Lee, David Small,
  Daniel Levine, Susi Lehtola, Hugh Burton, Evgeny Epifanovsky
 -----------------------------------------------------------------------
Running Object-Oriented UHF
performing a single roothaan step with Fock from read density so that orbitals are available to all algorithms
energy of the guess density (C=0) -363.651014992702
We will preform up to 15 macro iterations over saddle points until a stable solution is found
Energy prior to optimization (guess energy) = -363.717639447778
Begin Timing: Total SCF Calculation
Begin Timing: SCF Single Stationary Point Calculation
begin iterations for algorithm: GDM
the SCF tolerance is set to 1.00e-08
    1    -363.7176394478      1.60e-01     00000  Descent step
    2    -363.8369040729      2.16e-02     00000  Normal BFGS step
    3    -363.8443303955      5.88e-03     00000  Normal BFGS step
    4    -363.8450761229      8.92e-04     00000  Normal BFGS step
    5    -363.8450916723      3.05e-04     00000  Normal BFGS step
    6    -363.8450929475      7.35e-05     00000  Normal BFGS step
    7    -363.8450930282      2.33e-05     00000  Normal BFGS step
    8    -363.8450930414      9.72e-06     00000  Normal BFGS step
    9    -363.8450930423      2.35e-06     00000  Normal BFGS step
   10    -363.8450930424      3.78e-07     00000  Normal BFGS step
   11    -363.8450930424      6.37e-08     00000  Normal BFGS step
   12    -363.8450930424      3.48e-08     00000  Normal BFGS step
   13    -363.8450930424      1.85e-08     00000  Normal BFGS step
   14    -363.8450930424      1.09e-09     00000 Convergence criterion met
Timing for Single Stationary Point: 17.00s (wall), 245.70s (cpu)
Begin Timing: Stability
===================================================
Beginning Test for Internal Stability
===================================================
generating davidson guess vectors based on koopmans excitations
    1      8.50e-01     00000 Davidson Iteration
    2      5.07e-01     00000 Davidson Iteration
    3      2.32e-01     00000 Davidson Iteration
    4      5.97e-02     00000 Davidson Iteration
    5      2.05e-02     00000 Davidson Iteration
    6      6.84e-03     00000 Davidson Iteration
    7      3.14e-03     00000 Davidson Iteration
    8      1.31e-03     00000 Davidson Iteration
    9      3.50e-04     00000 Davidson Iteration
   10      1.02e-04     00000 Davidson Iteration
   11      1.17e-04     00000 Davidson Iteration
   12      1.38e-04     00000 Davidson Iteration
   13      3.24e-05     00000 Davidson Iteration
   14      3.83e-03     00000 Davidson Iteration
   15      2.36e-03     00000 Davidson Iteration
   16      2.41e-02     00000 Davidson Iteration
   17      2.99e-02     00000 Davidson Iteration
   18      5.39e-03     00000 Davidson Iteration
   19      3.77e-03     00000 Davidson Iteration
   20      1.94e-03     00000 Davidson Iteration
   21      2.23e-03     00000 Davidson Iteration
   22      1.96e-03     00000 Davidson Iteration
   23      5.66e-04     00000 Davidson Iteration
   24      2.17e-04     00000 Davidson Iteration
   25      1.17e-04     00000 Davidson Iteration
   26      4.69e-05     00000 Davidson Converged
converged_eigenvalues
   0.1191
   0.1127
   0.1191
Threshold for negative eigenvalues: -1.0e-05
solution was a local minimum (stable)
===================================================
End Test for Internal Stability
===================================================
Our SCF solution is stable!
Timing for Total SCF: 62.00s (wall), 892.61s (cpu)
 Total energy in the final basis set =     -363.8450930424
<S^2> =          0.000000000
    ==================================================
              The end of Object-Oriented SCFman
    ==================================================


 ------------------------------------------------------------------------------

   CCMAN2: suite of methods based on coupled cluster
           and equation of motion theories.

   Components:
   * libvmm-1.3-trunk
     by Evgeny Epifanovsky, Ilya Kaliman.
   * libtensor-2.5-trunk
     by Evgeny Epifanovsky, Michael Wormit, Dmitry Zuev, Sam Manzer,
        Ilya Kaliman.
   * libcc-2.5-trunk
     by Evgeny Epifanovsky, Arik Landau, Tomasz Kus, Kirill Khistyaev,
        Dmitry Zuev, Prashant Manohar, Xintian Feng, Anna Krylov,
        Matthew Goldey, Alec White, Thomas Jagau, Kaushik Nanda,
        Anastasia Gunina, Alexander Kunitsa, Joonho Lee.

   CCMAN original authors:
   Anna I. Krylov, C. David Sherrill, Steven R. Gwaltney,
   Edward F. C. Byrd (2000)
   Sergey V. Levchenko, Lyudmila V. Slipchenko, Tao Wang,
   Ana-Maria C. Cristian (2003)
   Piotr A. Pieniazek, C. Melania Oana, Evgeny Epifanovsky (2007)
   Prashant Manohar (2009)

 ------------------------------------------------------------------------------


 Calculation will run on 16 cores using libxm for tensor contractions

 ------------------------------------------------------------------------------
Libxm Tensor Library
Copyright (c) 2014-2018 Ilya Kaliman
https://github.com/ilyak/libxm
Reference: https://dx.doi.org/10.1002/jcc.24713
 ------------------------------------------------------------------------------


 Alpha MOs, Unrestricted
 -- Occupied --
-68.822 -20.532  -6.169  -4.270  -4.270  -4.270  -1.264  -0.610
  1 A     2 A     3 A     4 A     5 A     6 A     7 A     8 A
 -0.475  -0.475  -0.438
  9 A    10 A    11 A
 -- Virtual --
  0.020   0.020   0.047   0.066   0.085   0.085   0.132   0.151
 12 A    13 A    14 A    15 A    16 A    17 A    18 A    19 A
  0.151   0.194   0.194   0.199   0.237   0.237   0.268   0.336
 20 A    21 A    22 A    23 A    24 A    25 A    26 A    27 A
  0.417   0.441   0.441   0.444   0.444   0.479   0.479   0.483
 28 A    29 A    30 A    31 A    32 A    33 A    34 A    35 A
  0.483   0.532   0.532   0.561   0.615   0.635   0.635   0.845
 36 A    37 A    38 A    39 A    40 A    41 A    42 A    43 A
  0.863   0.863   0.887   0.887   0.977   1.216   1.218   1.218
 44 A    45 A    46 A    47 A    48 A    49 A    50 A    51 A
  1.246   1.246   1.357   1.394   1.394   1.411   1.411   1.418
 52 A    53 A    54 A    55 A    56 A    57 A    58 A    59 A
  1.418   1.545   1.545   1.615   1.809   1.970   2.133   2.133
 60 A    61 A    62 A    63 A    64 A    65 A    66 A    67 A
  2.339   2.339   2.430   2.439   2.439   2.452   2.452   2.483
 68 A    69 A    70 A    71 A    72 A    73 A    74 A    75 A
  2.483   2.752   2.913   2.913   3.514   4.420   4.420   4.885
 76 A    77 A    78 A    79 A    80 A    81 A    82 A    83 A
  5.901   6.242   6.242   6.419   6.419   6.550   6.550   6.662
 84 A    85 A    86 A    87 A    88 A    89 A    90 A    91 A
  6.662   6.716   6.784   6.784   6.966   7.158   7.158   7.349
 92 A    93 A    94 A    95 A    96 A    97 A    98 A    99 A
  7.349   7.698   9.732  10.406  10.406  11.100  22.994  22.994
100 A   101 A   102 A   103 A   104 A   105 A   106 A   107 A
 23.003  23.003  23.014  23.014  23.038  26.294  26.294  26.782
108 A   109 A   110 A   111 A   112 A   113 A   114 A   115 A
 27.994  27.994  28.105  28.105  28.343  28.867  40.302  40.302
116 A   117 A   118 A   119 A   120 A   121 A   122 A   123 A
 40.955  43.989  43.989  44.055  44.055  44.185  57.415 138.432
124 A   125 A   126 A   127 A   128 A   129 A   130 A   131 A
138.432 138.817 149.555
132 A   133 A   134 A

 Beta MOs, Unrestricted
 -- Occupied --
-68.822 -20.532  -6.169  -4.270  -4.270  -4.270  -1.264  -0.610
  1 A     2 A     3 A     4 A     5 A     6 A     7 A     8 A
 -0.475  -0.475  -0.438
  9 A    10 A    11 A
 -- Virtual --
  0.020   0.020   0.047   0.066   0.085   0.085   0.132   0.151
 12 A    13 A    14 A    15 A    16 A    17 A    18 A    19 A
  0.151   0.194   0.194   0.199   0.237   0.237   0.268   0.336
 20 A    21 A    22 A    23 A    24 A    25 A    26 A    27 A
  0.417   0.441   0.441   0.444   0.444   0.479   0.479   0.483
 28 A    29 A    30 A    31 A    32 A    33 A    34 A    35 A
  0.483   0.532   0.532   0.561   0.615   0.635   0.635   0.845
 36 A    37 A    38 A    39 A    40 A    41 A    42 A    43 A
  0.863   0.863   0.887   0.887   0.977   1.216   1.218   1.218
 44 A    45 A    46 A    47 A    48 A    49 A    50 A    51 A
  1.246   1.246   1.357   1.394   1.394   1.411   1.411   1.418
 52 A    53 A    54 A    55 A    56 A    57 A    58 A    59 A
  1.418   1.545   1.545   1.615   1.809   1.970   2.133   2.133
 60 A    61 A    62 A    63 A    64 A    65 A    66 A    67 A
  2.339   2.339   2.430   2.439   2.439   2.452   2.452   2.483
 68 A    69 A    70 A    71 A    72 A    73 A    74 A    75 A
  2.483   2.752   2.913   2.913   3.514   4.420   4.420   4.885
 76 A    77 A    78 A    79 A    80 A    81 A    82 A    83 A
  5.901   6.242   6.242   6.419   6.419   6.550   6.550   6.662
 84 A    85 A    86 A    87 A    88 A    89 A    90 A    91 A
  6.662   6.716   6.784   6.784   6.966   7.158   7.158   7.349
 92 A    93 A    94 A    95 A    96 A    97 A    98 A    99 A
  7.349   7.698   9.732  10.406  10.406  11.100  22.994  22.994
100 A   101 A   102 A   103 A   104 A   105 A   106 A   107 A
 23.003  23.003  23.014  23.014  23.038  26.294  26.294  26.782
108 A   109 A   110 A   111 A   112 A   113 A   114 A   115 A
 27.994  27.994  28.105  28.105  28.343  28.867  40.302  40.302
116 A   117 A   118 A   119 A   120 A   121 A   122 A   123 A
 40.955  43.989  43.989  44.055  44.055  44.185  57.415 138.432
124 A   125 A   126 A   127 A   128 A   129 A   130 A   131 A
138.432 138.817 149.555
132 A   133 A   134 A

 Occupation and symmetry of molecular orbitals

 Point group: C1 (1 irreducible representation).

                           A     All
 -------------------------------------
 All molecular orbitals:
  - Alpha                  134   134
  - Beta                   134   134
 -------------------------------------
 Alpha orbitals:
  - Frozen occupied        0     0
  - Active occupied        11    11
  - Active virtual         123   123
  - Frozen virtual         0     0
 -------------------------------------
 Beta orbitals:
  - Frozen occupied        0     0
  - Active occupied        11    11
  - Active virtual         123   123
  - Frozen virtual         0     0
 -------------------------------------

 Import integrals:   CPU 0.00 s  wall 0.00 s

 Import integrals:   CPU 207.87 s  wall 40.78 s

 MP2 amplitudes:   CPU 4.50 s  wall 2.22 s

Running a double precision version
           CCSD T amplitudes will be solved using DIIS.

           Start     Size      MaxIter   EConv     TConv
           3         7         100       1.00e-06  1.00e-04
 ------------------------------------------------------------------------------
           Energy (a.u.)   Ediff      Tdiff       Comment
 ------------------------------------------------------------------------------
          -364.56426348
     1    -364.54713099   1.71e-02   5.51e-01
     2    -364.56721193   2.01e-02   8.42e-02
     3    -364.56247589   4.74e-03   4.37e-02
     4    -364.56525080   2.77e-03   4.32e-02     Switched to DIIS steps.
     5    -364.56599877   7.48e-04   1.05e-02
     6    -364.56602303   2.43e-05   2.70e-03
     7    -364.56601997   3.06e-06   1.12e-03
     8    -364.56602376   3.79e-06   4.29e-04
     9    -364.56602701   3.25e-06   1.66e-04
    10    -364.56602606   9.42e-07   3.62e-05
 ------------------------------------------------------------------------------
          -364.56602606                           CCSD T converged.

End of double precision

----------------------------------------
libpt (c) 2016-2018 Ilya Kaliman
Fast Coupled Cluster Triples Corrections
https://github.com/ilyak/libpt
----------------------------------------

 Starting (T) calculation...
 Using double precision libpt code
 (T) calculation completed in 84 sec
 (T) energy is -0.0223559864

 SCF energy                 = -363.84509304
 MP2 energy                 = -364.56426348
 CCSD correlation energy     =   -0.72093302
 CCSD total energy           = -364.56602606
 CCSD(T) correlation energy =   -0.02235599
 CCSD(T) total energy       = -364.58838205

 CCSD  T1^2 = 0.0136  T2^2 = 0.1468  Leading amplitudes:

 Amplitude    Orbitals with energies
 -0.0392       9 (A) A                   ->    13 (A) A
              -0.4746                          0.0195
  0.0392       10 (A) A                  ->    12 (A) A
              -0.4746                          0.0195
 -0.0392       9 (A) B                   ->    13 (A) B
              -0.4746                          0.0195
  0.0392       10 (A) B                  ->    12 (A) B
              -0.4746                          0.0195

 Amplitude    Orbitals with energies
 -0.0401       11 (A) A      11 (A) B    ->    13 (A) A      13 (A) B
              -0.4376       -0.4376            0.0195        0.0195
  0.0401       11 (A) A      11 (A) B    ->    13 (A) B      13 (A) A
              -0.4376       -0.4376            0.0195        0.0195
  0.0401       11 (A) B      11 (A) A    ->    13 (A) A      13 (A) B
              -0.4376       -0.4376            0.0195        0.0195
 -0.0401       11 (A) B      11 (A) A    ->    13 (A) B      13 (A) A
              -0.4376       -0.4376            0.0195        0.0195
 -0.0401       11 (A) A      11 (A) B    ->    12 (A) A      12 (A) B
              -0.4376       -0.4376            0.0195        0.0195
  0.0401       11 (A) A      11 (A) B    ->    12 (A) B      12 (A) A
              -0.4376       -0.4376            0.0195        0.0195
  0.0401       11 (A) B      11 (A) A    ->    12 (A) A      12 (A) B
              -0.4376       -0.4376            0.0195        0.0195
 -0.0401       11 (A) B      11 (A) A    ->    12 (A) B      12 (A) A
              -0.4376       -0.4376            0.0195        0.0195

 CCSD calculation:   CPU 2396.10 s  wall 252.16 s

 Total ccman2 time:   CPU 2632.15 s  wall 306.13 s


 --------------------------------------------------------------

                    Orbital Energies (a.u.)
 --------------------------------------------------------------

 Alpha MOs
 -- Occupied --
-68.822 -20.532  -6.169  -4.270  -4.270  -4.270  -1.264  -0.610
 -0.475  -0.475  -0.438
 -- Virtual --
  0.020   0.020   0.047   0.066   0.085   0.085   0.132   0.151
  0.151   0.194   0.194   0.199   0.237   0.237   0.268   0.336
  0.417   0.441   0.441   0.444   0.444   0.479   0.479   0.483
  0.483   0.532   0.532   0.561   0.615   0.635   0.635   0.845
  0.863   0.863   0.887   0.887   0.977   1.216   1.218   1.218
  1.246   1.246   1.357   1.394   1.394   1.411   1.411   1.418
  1.418   1.545   1.545   1.615   1.809   1.970   2.133   2.133
  2.339   2.339   2.430   2.439   2.439   2.452   2.452   2.483
  2.483   2.752   2.913   2.913   3.514   4.420   4.420   4.885
  5.901   6.242   6.242   6.419   6.419   6.550   6.550   6.662
  6.662   6.716   6.784   6.784   6.966   7.158   7.158   7.349
  7.349   7.698   9.732  10.406  10.406  11.100  22.994  22.994
 23.003  23.003  23.014  23.014  23.038  26.294  26.294  26.782
 27.994  27.994  28.105  28.105  28.343  28.867  40.302  40.302
 40.955  43.989  43.989  44.055  44.055  44.185  57.415 138.432
138.432 138.817 149.555

 Beta MOs
 -- Occupied --
-68.822 -20.532  -6.169  -4.270  -4.270  -4.270  -1.264  -0.610
 -0.475  -0.475  -0.438
 -- Virtual --
  0.020   0.020   0.047   0.066   0.085   0.085   0.132   0.151
  0.151   0.194   0.194   0.199   0.237   0.237   0.268   0.336
  0.417   0.441   0.441   0.444   0.444   0.479   0.479   0.483
  0.483   0.532   0.532   0.561   0.615   0.635   0.635   0.845
  0.863   0.863   0.887   0.887   0.977   1.216   1.218   1.218
  1.246   1.246   1.357   1.394   1.394   1.411   1.411   1.418
  1.418   1.545   1.545   1.615   1.809   1.970   2.133   2.133
  2.339   2.339   2.430   2.439   2.439   2.452   2.452   2.483
  2.483   2.752   2.913   2.913   3.514   4.420   4.420   4.885
  5.901   6.242   6.242   6.419   6.419   6.550   6.550   6.662
  6.662   6.716   6.784   6.784   6.966   7.158   7.158   7.349
  7.349   7.698   9.732  10.406  10.406  11.100  22.994  22.994
 23.003  23.003  23.014  23.014  23.038  26.294  26.294  26.782
 27.994  27.994  28.105  28.105  28.343  28.867  40.302  40.302
 40.955  43.989  43.989  44.055  44.055  44.185  57.415 138.432
138.432 138.817 149.555
 --------------------------------------------------------------

          Ground-State Mulliken Net Atomic Charges

     Atom                 Charge (a.u.)    Spin (a.u.)
  --------------------------------------------------------
      1 Si                    0.833729      -0.000000
      2 O                    -0.833729       0.000000
  --------------------------------------------------------
  Sum of atomic charges =     0.000000
  Sum of spin   charges =    -0.000000

 -----------------------------------------------------------------
                    Cartesian Multipole Moments
 -----------------------------------------------------------------
    Charge (ESU x 10^10)
                 0.0000
    Dipole Moment (Debye)
         X       0.0000      Y       0.0000      Z      -3.7234
       Tot       3.7234
    Quadrupole Moments (Debye-Ang)
        XX     -16.1034     XY       0.0000     YY     -16.1034
        XZ       0.0000     YZ       0.0000     ZZ     -25.4028
    Octopole Moments (Debye-Ang^2)
       XXX      -0.0000    XXY       0.0000    XYY       0.0000
       YYY       0.0000    XXZ      -8.8817    XYZ       0.0000
       YYZ      -8.8817    XZZ      -0.0000    YZZ       0.0000
       ZZZ     -35.9085
    Hexadecapole Moments (Debye-Ang^3)
      XXXX     -20.7228   XXXY       0.0000   XXYY      -6.9076
      XYYY       0.0000   YYYY     -20.7228   XXXZ       0.0000
      XXYZ       0.0000   XYYZ       0.0000   YYYZ       0.0000
      XXZZ     -22.5253   XYZZ       0.0000   YYZZ     -22.5253
      XZZZ      -0.0000   YZZZ       0.0000   ZZZZ    -125.9944
 -----------------------------------------------------------------
Archival summary:
1\1\n0071.mhg0\SP\ProcedureUnspecified\BasisUnspecified\i11\yhljason\WedJul108:06:412020WedJul108:06:412020\0\\#,ProcedureUnspecified,BasisUnspecified,\\0,1\Si\O,1,1.5097\\HF=-363.845093\\@

 Total job time:  372.85s(wall), 3568.67s(cpu)
 Wed Jul  1 08:06:41 2020

        *************************************************************
        *                                                           *
        *  Thank you very much for using Q-Chem.  Have a nice day.  *
        *                                                           *
        *************************************************************



User input: 2 of 9

Q-Chem Developer Version!
                  Welcome to Q-Chem
     A Quantum Leap Into The Future Of Chemistry


 Q-Chem 5.1, Q-Chem, Inc., Pleasanton, CA (2018)

 Yihan Shao,  Zhengting Gan,  E. Epifanovsky,  A. T. B. Gilbert,  M. Wormit,
 J. Kussmann,  A. W. Lange,  A. Behn,  Jia Deng,  Xintian Feng,  D. Ghosh,
 M. Goldey,  P. R. Horn,  L. D. Jacobson,  I. Kaliman,  T. Kus,  A. Landau,
 Jie Liu,  E. I. Proynov,  R. M. Richard,  R. P. Steele,  E. J. Sundstrom,
 H. L. Woodcock III,  P. M. Zimmerman,  D. Zuev,  B. Albrecht,  E. Alguire,
 S. A. Baeppler,  D. Barton,  Z. Benda,  Y. A. Bernard,  E. J. Berquist,
 K. B. Bravaya,  H. Burton,  D. Casanova,  Chun-Min Chang,  Yunqing Chen,
 A. Chien,  K. D. Closser,  M. P. Coons,  S. Coriani,  S. Dasgupta,
 A. L. Dempwolff,  M. Diedenhofen,  Hainam Do,  R. G. Edgar,  Po-Tung Fang,
 S. Faraji,  S. Fatehi,  Qingguo Feng,  K. D. Fenk,  J. Fosso-Tande,
 Qinghui Ge,  A. Ghysels,  G. Gidofalvi,  J. Gomes,  J. Gonthier,  A. Gunina,
 D. Hait,  M. W. D. Hanson-Heine,  P. H. P. Harbach,  A. W. Hauser,
 J. E. Herr,  E. G. Hohenstein,  Z. C. Holden,  Kerwin Hui,  B. C. Huynh,
 T.-C. Jagau,  Hyunjun Ji,  B. Kaduk,  K. Khistyaev,  Jaehoon Kim,
 P. Klunzinger,  K. Koh,  D. Kosenkov,  L. Koulias,  T. Kowalczyk,
 C. M. Krauter,  A. Kunitsa,  Ka Un Lao,  A. Laurent,  K. V. Lawler,
 Joonho Lee,  D. Lefrancois,  S. Lehtola,  D. S. Levine,  Yi-Pei Li,
 You-Sheng Lin,  Fenglai Liu,  E. Livshits,  A. Luenser,  P. Manohar,
 E. Mansoor,  S. F. Manzer,  Shan-Ping Mao,  Yuezhi Mao,  N. Mardirossian,
 A. V. Marenich,  T. Markovich,  L. A. Martinez-Martinez,  S. A. Maurer,
 N. J. Mayhall,  S. C. McKenzie,  J.-M. Mewes,  A. F. Morrison,
 J. W. Mullinax,  K. Nanda,  T. S. Nguyen-Beck,  R. Olivares-Amaya,
 J. A. Parkhill,  T. M. Perrine,  F. Plasser,  P. Pokhilko,  S. Prager,
 A. Prociuk,  E. Ramos,  D. R. Rehn,  F. Rob,  M. Schneider,  N. Sergueev,
 S. M. Sharada,  S. Sharma,  D. W. Small,  T. Stauch,  T. Stein,
 Yu-Chuan Su,  A. J. W. Thom,  A. Tkatchenko,  T. Tsuchimochi,  N. M. Tubman,
 L. Vogt,  M. L. Vidal,  O. Vydrov,  M. A. Watson,  J. Wenzel,
 M. de Wergifosse,  T. A. Wesolowski,  A. White,  J. Witte,  A. Yamada,
 Jun Yang,  K. Yao,  S. Yeganeh,  S. R. Yost,  Zhi-Qiang You,  A. Zech,
 Igor Ying Zhang,  Xing Zhang,  Yan Zhao,  Ying Zhu,  B. R. Brooks,
 G. K. L. Chan,  C. J. Cramer,  M. S. Gordon,  W. J. Hehre,  A. Klamt,
 M. W. Schmidt,  C. D. Sherrill,  D. G. Truhlar,  A. Aspuru-Guzik,  R. Baer,
 A. T. Bell,  N. A. Besley,  Jeng-Da Chai,  A. E. DePrince, III,
 R. A. DiStasio Jr.,  A. Dreuw,  B. D. Dunietz,  T. R. Furlani,
 Chao-Ping Hsu,  Yousung Jung,  Jing Kong,  D. S. Lambrecht,  WanZhen Liang,
 C. Ochsenfeld,  V. A. Rassolov,  L. V. Slipchenko,  J. E. Subotnik,
 T. Van Voorhis,  J. M. Herbert,  A. I. Krylov,  P. M. W. Gill,  M. Head-Gordon

 Contributors to earlier versions of Q-Chem not listed above:
 R. D. Adamson,  B. Austin,  J. Baker,  G. J. O. Beran,  K. Brandhorst,
 S. T. Brown,  E. F. C. Byrd,  A. K. Chakraborty,  C.-L. Cheng,
 Siu Hung Chien,  D. M. Chipman,  D. L. Crittenden,  H. Dachsel,
 R. J. Doerksen,  A. D. Dutoi,  L. Fusti-Molnar,  W. A. Goddard III,
 A. Golubeva-Zadorozhnaya,  S. R. Gwaltney,  G. Hawkins,  A. Heyden,
 S. Hirata,  G. Kedziora,  F. J. Keil,  C. Kelley,  Jihan Kim,  R. A. King,
 R. Z. Khaliullin,  P. P. Korambath,  W. Kurlancheek,  A. M. Lee,  M. S. Lee,
 S. V. Levchenko,  Ching Yeh Lin,  D. Liotard,  R. C. Lochan,  I. Lotan,
 P. E. Maslen,  N. Nair,  D. P. O'Neill,  D. Neuhauser,  E. Neuscamman,
 C. M. Oana,  R. Olson,  B. Peters,  R. Peverati,  P. A. Pieniazek,
 Y. M. Rhee,  J. Ritchie,  M. A. Rohrdanz,  E. Rosta,  N. J. Russ,
 H. F. Schaefer III,  N. E. Schultz,  N. Shenvi,  A. C. Simmonett,  A. Sodt,
 D. Stuck,  K. S. Thanthiriwatte,  V. Vanovschi,  Tao Wang,  A. Warshel,
 C. F. Williams,  Q. Wu,  X. Xu,  W. Zhang

 Please cite Q-Chem as follows:
 Y. Shao et al., Mol. Phys. 113, 184-215 (2015)
 DOI: 10.1080/00268976.2014.952696

 Q-Chem 5.1.1 for Intel X86 EM64T Linux

 Parts of Q-Chem use Armadillo 8.300.2 (Tropical Shenanigans).
 http://arma.sourceforge.net/

 Q-Chem begins on Wed Jul  1 08:06:42 2020

Host: n0071.mhg0
0

     Scratch files written to /local/scratch/users/yhljason/SiO_ccsdT_aug-cc-pcVTZ.inp20200630131929//
The previous job contains 0 fragments, simply inherited here
Input Ideriv = 0
Curr. Ideriv = -1
Max.  Ideriv = 0

Checking the input file for inconsistencies... 	...done.

--------------------------------------------------------------
User input:
--------------------------------------------------------------
$molecule
read
$end

$rem

jobtype sp
method CCSD(T)
xc_grid 000099000590
basis aug-cc-pcVTZ
max_scf_cycles 200
thresh 14
scf_convergence 8
mem_total 128000
cc_memory 96000
cc_backend xm
mem_static 1500
symmetry false
sym_ignore true
scf_guess read
unrestricted true
scf_algorithm gdm
n_frozen_core 0
$end

$multipole_field
XX 0.0001
$end


--------------------------------------------------------------
 ----------------------------------------------------------------
             Standard Nuclear Orientation (Angstroms)
    I     Atom           X                Y                Z
 ----------------------------------------------------------------
    1      Si      0.0000000000     0.0000000000     0.0000000000
    2      O       0.0000000000     0.0000000000     1.5097000000
 ----------------------------------------------------------------
 Nuclear Repulsion Energy =    39.2580298136 hartrees
 There are       11 alpha and       11 beta electrons
 Requested basis set is aug-cc-pCVTZ
 There are 42 shells and 134 basis functions
 Total memory of 128000MB is distributed as follows:
   QALLOC including MEM_STATIC uses 32000MB
   MEM_STATIC is set to 1500MB
   CCMAN JOB total memory use is  96000MB
 Warning: actual memory use might exceed 128000MB

 Total QAlloc Memory Limit  32000 MB
 Mega-Array Size      1467 MB
 MEM_STATIC part      1500 MB

                       Distance Matrix (Angstroms)
             Si(  1)
   O (  2)  1.509700

 Applying Cartesian multipole field
    Component          Value
    ---------          -----
     (2,0,0)        1.00000E-04
 A cutoff of  1.0D-14 yielded    891 shell pairs
 There are      9167 function pairs (     12817 Cartesian)

 -------------------------------------------------------
 OpenMP Integral Computing Module
 Release: version 1.0, May 2013, Q-Chem Inc. Pittsburgh
 -------------------------------------------------------
 Integral Job Info:
 Integral job number is                      11
 Integral operator is                         1
 short-range coefficients                     0
 long-range coefficients              100000000
 Omega coefficients                           0
 if combine SR and LR in K                    0
 Integral screening is                        0
 Integral computing path is                   2
 max size of driver memory is            800000
 size of driver memory is                776718
 size of scratch memory is             29531563
 max col of scratch BK array              10000
 max len of scratch array in speh3          662
 max len of scratch index in speh4           32
 max int batch size is                      520
 min int batch size is                       52
 fixed nKL is                                31
 max L of basis functions is                  3
 order of int derivative is                   0
 number of shells is                         42
 number of basis is                         158
 number of cartesian basis is               158
 number of contracted shell pairs           891
 number of primitive shell pairs           5128
 maxK2 (contraction) of shell pair          169
 max number of K2 of shell pair               1
 max number of CS2 of shell pair             97
 max number of PS2 of shell pair           1014
 mem total for path MDJ                  562774
 -------------------------------------------------------
 Smallest overlap matrix eigenvalue = 3.52E-04
 Guess MOs from SCF MO coefficient file

 -----------------------------------------------------------------------
  General SCF calculation program by
  Eric Jon Sundstrom, Paul Horn, Yuezhi Mao, Dmitri Zuev, Alec White,
  David Stuck, Shaama M.S., Shane Yost, Joonho Lee, David Small,
  Daniel Levine, Susi Lehtola, Hugh Burton, Evgeny Epifanovsky
 -----------------------------------------------------------------------
 Hartree-Fock
 using 16 threads for integral computing
 -------------------------------------------------------
 OpenMP Integral computing Module
 Release: version 2.0, May 2017, Q-Chem Inc. Pleasanton
 -------------------------------------------------------
 A unrestricted SCF calculation will be
 performed using GDM
 SCF converges when RMS gradient is below 1.0e-08
 ---------------------------------------
  Cycle       Energy        RMS Gradient
 ---------------------------------------
    1    -363.8462902898      2.77e-04   Normal BFGS step
    2    -363.8462908484      8.89e-05   Normal BFGS step
    3    -363.8462909194      7.05e-05   Normal BFGS step
    4    -363.8462909489      1.79e-05   Normal BFGS step
    5    -363.8462909523      1.23e-05   Normal BFGS step
    6    -363.8462909538      3.31e-06   Normal BFGS step
    7    -363.8462909539      9.63e-07   Normal BFGS step
    8    -363.8462909539      2.61e-07   Normal BFGS step
    9    -363.8462909539      8.13e-08   Normal BFGS step
   10    -363.8462909539      2.09e-08   Normal BFGS step
   11    -363.8462909539      4.85e-09  Convergence criterion met
 ---------------------------------------
 SCF time:   CPU 227.37s  wall 16.00s
<S^2> =         -0.000000000
 SCF   energy in the final basis set =     -363.8462909539
 Total energy in the final basis set =     -363.8462909539


 ------------------------------------------------------------------------------

   CCMAN2: suite of methods based on coupled cluster
           and equation of motion theories.

   Components:
   * libvmm-1.3-trunk
     by Evgeny Epifanovsky, Ilya Kaliman.
   * libtensor-2.5-trunk
     by Evgeny Epifanovsky, Michael Wormit, Dmitry Zuev, Sam Manzer,
        Ilya Kaliman.
   * libcc-2.5-trunk
     by Evgeny Epifanovsky, Arik Landau, Tomasz Kus, Kirill Khistyaev,
        Dmitry Zuev, Prashant Manohar, Xintian Feng, Anna Krylov,
        Matthew Goldey, Alec White, Thomas Jagau, Kaushik Nanda,
        Anastasia Gunina, Alexander Kunitsa, Joonho Lee.

   CCMAN original authors:
   Anna I. Krylov, C. David Sherrill, Steven R. Gwaltney,
   Edward F. C. Byrd (2000)
   Sergey V. Levchenko, Lyudmila V. Slipchenko, Tao Wang,
   Ana-Maria C. Cristian (2003)
   Piotr A. Pieniazek, C. Melania Oana, Evgeny Epifanovsky (2007)
   Prashant Manohar (2009)

 ------------------------------------------------------------------------------


 Calculation will run on 16 cores using libxm for tensor contractions

 ------------------------------------------------------------------------------
Libxm Tensor Library
Copyright (c) 2014-2018 Ilya Kaliman
https://github.com/ilyak/libxm
Reference: https://dx.doi.org/10.1002/jcc.24713
 ------------------------------------------------------------------------------


 Alpha MOs, Unrestricted
 -- Occupied --
-68.822 -20.532  -6.169  -4.270  -4.270  -4.270  -1.264  -0.610
  1 A     2 A     3 A     4 A     5 A     6 A     7 A     8 A
 -0.475  -0.475  -0.438
  9 A    10 A    11 A
 -- Virtual --
  0.017   0.019   0.046   0.064   0.082   0.084   0.131   0.149
 12 A    13 A    14 A    15 A    16 A    17 A    18 A    19 A
  0.149   0.192   0.193   0.198   0.235   0.237   0.267   0.335
 20 A    21 A    22 A    23 A    24 A    25 A    26 A    27 A
  0.416   0.440   0.441   0.443   0.443   0.478   0.478   0.482
 28 A    29 A    30 A    31 A    32 A    33 A    34 A    35 A
  0.482   0.531   0.532   0.561   0.614   0.634   0.635   0.845
 36 A    37 A    38 A    39 A    40 A    41 A    42 A    43 A
  0.863   0.863   0.887   0.887   0.977   1.216   1.218   1.218
 44 A    45 A    46 A    47 A    48 A    49 A    50 A    51 A
  1.246   1.246   1.357   1.394   1.394   1.410   1.410   1.418
 52 A    53 A    54 A    55 A    56 A    57 A    58 A    59 A
  1.418   1.544   1.545   1.615   1.809   1.969   2.133   2.133
 60 A    61 A    62 A    63 A    64 A    65 A    66 A    67 A
  2.339   2.339   2.430   2.439   2.439   2.452   2.452   2.483
 68 A    69 A    70 A    71 A    72 A    73 A    74 A    75 A
  2.483   2.752   2.913   2.913   3.514   4.420   4.420   4.885
 76 A    77 A    78 A    79 A    80 A    81 A    82 A    83 A
  5.901   6.241   6.241   6.419   6.419   6.550   6.550   6.662
 84 A    85 A    86 A    87 A    88 A    89 A    90 A    91 A
  6.662   6.716   6.784   6.784   6.966   7.158   7.158   7.349
 92 A    93 A    94 A    95 A    96 A    97 A    98 A    99 A
  7.349   7.698   9.732  10.406  10.406  11.100  22.994  22.994
100 A   101 A   102 A   103 A   104 A   105 A   106 A   107 A
 23.002  23.002  23.014  23.014  23.038  26.294  26.294  26.781
108 A   109 A   110 A   111 A   112 A   113 A   114 A   115 A
 27.994  27.994  28.105  28.105  28.343  28.867  40.302  40.302
116 A   117 A   118 A   119 A   120 A   121 A   122 A   123 A
 40.955  43.989  43.989  44.055  44.055  44.185  57.415 138.431
124 A   125 A   126 A   127 A   128 A   129 A   130 A   131 A
138.432 138.816 149.555
132 A   133 A   134 A

 Beta MOs, Unrestricted
 -- Occupied --
-68.822 -20.532  -6.169  -4.270  -4.270  -4.270  -1.264  -0.610
  1 A     2 A     3 A     4 A     5 A     6 A     7 A     8 A
 -0.475  -0.475  -0.438
  9 A    10 A    11 A
 -- Virtual --
  0.017   0.019   0.046   0.064   0.082   0.084   0.131   0.149
 12 A    13 A    14 A    15 A    16 A    17 A    18 A    19 A
  0.149   0.192   0.193   0.198   0.235   0.237   0.267   0.335
 20 A    21 A    22 A    23 A    24 A    25 A    26 A    27 A
  0.416   0.440   0.441   0.443   0.443   0.478   0.478   0.482
 28 A    29 A    30 A    31 A    32 A    33 A    34 A    35 A
  0.482   0.531   0.532   0.561   0.614   0.634   0.635   0.845
 36 A    37 A    38 A    39 A    40 A    41 A    42 A    43 A
  0.863   0.863   0.887   0.887   0.977   1.216   1.218   1.218
 44 A    45 A    46 A    47 A    48 A    49 A    50 A    51 A
  1.246   1.246   1.357   1.394   1.394   1.410   1.410   1.418
 52 A    53 A    54 A    55 A    56 A    57 A    58 A    59 A
  1.418   1.544   1.545   1.615   1.809   1.969   2.133   2.133
 60 A    61 A    62 A    63 A    64 A    65 A    66 A    67 A
  2.339   2.339   2.430   2.439   2.439   2.452   2.452   2.483
 68 A    69 A    70 A    71 A    72 A    73 A    74 A    75 A
  2.483   2.752   2.913   2.913   3.514   4.420   4.420   4.885
 76 A    77 A    78 A    79 A    80 A    81 A    82 A    83 A
  5.901   6.241   6.241   6.419   6.419   6.550   6.550   6.662
 84 A    85 A    86 A    87 A    88 A    89 A    90 A    91 A
  6.662   6.716   6.784   6.784   6.966   7.158   7.158   7.349
 92 A    93 A    94 A    95 A    96 A    97 A    98 A    99 A
  7.349   7.698   9.732  10.406  10.406  11.100  22.994  22.994
100 A   101 A   102 A   103 A   104 A   105 A   106 A   107 A
 23.002  23.002  23.014  23.014  23.038  26.294  26.294  26.781
108 A   109 A   110 A   111 A   112 A   113 A   114 A   115 A
 27.994  27.994  28.105  28.105  28.343  28.867  40.302  40.302
116 A   117 A   118 A   119 A   120 A   121 A   122 A   123 A
 40.955  43.989  43.989  44.055  44.055  44.185  57.415 138.431
124 A   125 A   126 A   127 A   128 A   129 A   130 A   131 A
138.432 138.816 149.555
132 A   133 A   134 A

 Occupation and symmetry of molecular orbitals

 Point group: C1 (1 irreducible representation).

                           A     All
 -------------------------------------
 All molecular orbitals:
  - Alpha                  134   134
  - Beta                   134   134
 -------------------------------------
 Alpha orbitals:
  - Frozen occupied        0     0
  - Active occupied        11    11
  - Active virtual         123   123
  - Frozen virtual         0     0
 -------------------------------------
 Beta orbitals:
  - Frozen occupied        0     0
  - Active occupied        11    11
  - Active virtual         123   123
  - Frozen virtual         0     0
 -------------------------------------

 Import integrals:   CPU 0.00 s  wall 0.00 s

 Import integrals:   CPU 213.99 s  wall 42.17 s

 MP2 amplitudes:   CPU 4.36 s  wall 2.06 s

Running a double precision version
           CCSD T amplitudes will be solved using DIIS.

           Start     Size      MaxIter   EConv     TConv
           3         7         100       1.00e-06  1.00e-04
 ------------------------------------------------------------------------------
           Energy (a.u.)   Ediff      Tdiff       Comment
 ------------------------------------------------------------------------------
          -364.56550412
     1    -364.54833774   1.72e-02   5.51e-01
     2    -364.56843614   2.01e-02   8.42e-02
     3    -364.56368929   4.75e-03   4.37e-02
     4    -364.56646814   2.78e-03   4.33e-02     Switched to DIIS steps.
     5    -364.56721646   7.48e-04   1.05e-02
     6    -364.56724080   2.43e-05   2.71e-03
     7    -364.56723770   3.10e-06   1.12e-03
     8    -364.56724148   3.78e-06   4.31e-04
     9    -364.56724474   3.26e-06   1.67e-04
    10    -364.56724380   9.45e-07   3.64e-05
 ------------------------------------------------------------------------------
          -364.56724380                           CCSD T converged.

End of double precision

----------------------------------------
libpt (c) 2016-2018 Ilya Kaliman
Fast Coupled Cluster Triples Corrections
https://github.com/ilyak/libpt
----------------------------------------

 Starting (T) calculation...
 Using double precision libpt code
 (T) calculation completed in 85 sec
 (T) energy is -0.0223654364

 SCF energy                 = -363.84629095
 MP2 energy                 = -364.56550412
 CCSD correlation energy     =   -0.72095284
 CCSD total energy           = -364.56724380
 CCSD(T) correlation energy =   -0.02236544
 CCSD(T) total energy       = -364.58960923

 CCSD  T1^2 = 0.0136  T2^2 = 0.1468  Leading amplitudes:

 Amplitude    Orbitals with energies
  0.0390       9 (A) A                   ->    13 (A) A
              -0.4749                          0.0188
 -0.0390       9 (A) B                   ->    13 (A) B
              -0.4749                          0.0188
 -0.0384       10 (A) A                  ->    12 (A) A
              -0.4749                          0.0174
 -0.0384       10 (A) B                  ->    12 (A) B
              -0.4749                          0.0174

 Amplitude    Orbitals with energies
  0.0395       11 (A) A      11 (A) B    ->    13 (A) A      13 (A) B
              -0.4379       -0.4379            0.0188        0.0188
 -0.0395       11 (A) A      11 (A) B    ->    13 (A) B      13 (A) A
              -0.4379       -0.4379            0.0188        0.0188
 -0.0395       11 (A) B      11 (A) A    ->    13 (A) A      13 (A) B
              -0.4379       -0.4379            0.0188        0.0188
  0.0395       11 (A) B      11 (A) A    ->    13 (A) B      13 (A) A
              -0.4379       -0.4379            0.0188        0.0188

 CCSD calculation:   CPU 2342.63 s  wall 244.12 s

 Total ccman2 time:   CPU 2587.20 s  wall 300.80 s


 --------------------------------------------------------------

                    Orbital Energies (a.u.)
 --------------------------------------------------------------

 Alpha MOs
 -- Occupied --
-68.822 -20.532  -6.169  -4.270  -4.270  -4.270  -1.264  -0.610
 -0.475  -0.475  -0.438
 -- Virtual --
  0.017   0.019   0.046   0.064   0.082   0.084   0.131   0.149
  0.149   0.192   0.193   0.198   0.235   0.237   0.267   0.335
  0.416   0.440   0.441   0.443   0.443   0.478   0.478   0.482
  0.482   0.531   0.532   0.561   0.614   0.634   0.635   0.845
  0.863   0.863   0.887   0.887   0.977   1.216   1.218   1.218
  1.246   1.246   1.357   1.394   1.394   1.410   1.410   1.418
  1.418   1.544   1.545   1.615   1.809   1.969   2.133   2.133
  2.339   2.339   2.430   2.439   2.439   2.452   2.452   2.483
  2.483   2.752   2.913   2.913   3.514   4.420   4.420   4.885
  5.901   6.241   6.241   6.419   6.419   6.550   6.550   6.662
  6.662   6.716   6.784   6.784   6.966   7.158   7.158   7.349
  7.349   7.698   9.732  10.406  10.406  11.100  22.994  22.994
 23.002  23.002  23.014  23.014  23.038  26.294  26.294  26.781
 27.994  27.994  28.105  28.105  28.343  28.867  40.302  40.302
 40.955  43.989  43.989  44.055  44.055  44.185  57.415 138.431
138.432 138.816 149.555

 Beta MOs
 -- Occupied --
-68.822 -20.532  -6.169  -4.270  -4.270  -4.270  -1.264  -0.610
 -0.475  -0.475  -0.438
 -- Virtual --
  0.017   0.019   0.046   0.064   0.082   0.084   0.131   0.149
  0.149   0.192   0.193   0.198   0.235   0.237   0.267   0.335
  0.416   0.440   0.441   0.443   0.443   0.478   0.478   0.482
  0.482   0.531   0.532   0.561   0.614   0.634   0.635   0.845
  0.863   0.863   0.887   0.887   0.977   1.216   1.218   1.218
  1.246   1.246   1.357   1.394   1.394   1.410   1.410   1.418
  1.418   1.544   1.545   1.615   1.809   1.969   2.133   2.133
  2.339   2.339   2.430   2.439   2.439   2.452   2.452   2.483
  2.483   2.752   2.913   2.913   3.514   4.420   4.420   4.885
  5.901   6.241   6.241   6.419   6.419   6.550   6.550   6.662
  6.662   6.716   6.784   6.784   6.966   7.158   7.158   7.349
  7.349   7.698   9.732  10.406  10.406  11.100  22.994  22.994
 23.002  23.002  23.014  23.014  23.038  26.294  26.294  26.781
 27.994  27.994  28.105  28.105  28.343  28.867  40.302  40.302
 40.955  43.989  43.989  44.055  44.055  44.185  57.415 138.431
138.432 138.816 149.555
 --------------------------------------------------------------

          Ground-State Mulliken Net Atomic Charges

     Atom                 Charge (a.u.)    Spin (a.u.)
  --------------------------------------------------------
      1 Si                    0.833312       0.000000
      2 O                    -0.833312      -0.000000
  --------------------------------------------------------
  Sum of atomic charges =    -0.000000
  Sum of spin   charges =     0.000000

 -----------------------------------------------------------------
                    Cartesian Multipole Moments
 -----------------------------------------------------------------
    Charge (ESU x 10^10)
                 0.0000
    Dipole Moment (Debye)
         X      -0.0000      Y      -0.0000      Z      -3.7225
       Tot       3.7225
    Quadrupole Moments (Debye-Ang)
        XX     -16.1213     XY      -0.0000     YY     -16.1048
        XZ      -0.0000     YZ       0.0000     ZZ     -25.4003
    Octopole Moments (Debye-Ang^2)
       XXX      -0.0000    XXY      -0.0000    XYY      -0.0000
       YYY      -0.0000    XXZ      -8.8835    XYZ       0.0000
       YYZ      -8.8831    XZZ       0.0000    YZZ      -0.0000
       ZZZ     -35.9047
    Hexadecapole Moments (Debye-Ang^3)
      XXXX     -20.8042   XXXY       0.0000   XXYY      -6.9223
      XYYY      -0.0000   YYYY     -20.7298   XXXZ      -0.0000
      XXYZ       0.0000   XYYZ      -0.0000   YYYZ      -0.0000
      XXZZ     -22.5463   XYZZ      -0.0000   YYZZ     -22.5289
      XZZZ      -0.0000   YZZZ      -0.0000   ZZZZ    -125.9937
 -----------------------------------------------------------------
Archival summary:
1\1\n0071.mhg0\SP\ProcedureUnspecified\BasisUnspecified\i11\yhljason\WedJul108:12:012020WedJul108:12:012020\0\\#,ProcedureUnspecified,BasisUnspecified,\\0,1\Si\O,1,1.5097\\HF=-363.846291\\@

 Total job time:  319.77s(wall), 2826.34s(cpu)
 Wed Jul  1 08:12:01 2020

        *************************************************************
        *                                                           *
        *  Thank you very much for using Q-Chem.  Have a nice day.  *
        *                                                           *
        *************************************************************



User input: 3 of 9

Q-Chem Developer Version!
                  Welcome to Q-Chem
     A Quantum Leap Into The Future Of Chemistry


 Q-Chem 5.1, Q-Chem, Inc., Pleasanton, CA (2018)

 Yihan Shao,  Zhengting Gan,  E. Epifanovsky,  A. T. B. Gilbert,  M. Wormit,
 J. Kussmann,  A. W. Lange,  A. Behn,  Jia Deng,  Xintian Feng,  D. Ghosh,
 M. Goldey,  P. R. Horn,  L. D. Jacobson,  I. Kaliman,  T. Kus,  A. Landau,
 Jie Liu,  E. I. Proynov,  R. M. Richard,  R. P. Steele,  E. J. Sundstrom,
 H. L. Woodcock III,  P. M. Zimmerman,  D. Zuev,  B. Albrecht,  E. Alguire,
 S. A. Baeppler,  D. Barton,  Z. Benda,  Y. A. Bernard,  E. J. Berquist,
 K. B. Bravaya,  H. Burton,  D. Casanova,  Chun-Min Chang,  Yunqing Chen,
 A. Chien,  K. D. Closser,  M. P. Coons,  S. Coriani,  S. Dasgupta,
 A. L. Dempwolff,  M. Diedenhofen,  Hainam Do,  R. G. Edgar,  Po-Tung Fang,
 S. Faraji,  S. Fatehi,  Qingguo Feng,  K. D. Fenk,  J. Fosso-Tande,
 Qinghui Ge,  A. Ghysels,  G. Gidofalvi,  J. Gomes,  J. Gonthier,  A. Gunina,
 D. Hait,  M. W. D. Hanson-Heine,  P. H. P. Harbach,  A. W. Hauser,
 J. E. Herr,  E. G. Hohenstein,  Z. C. Holden,  Kerwin Hui,  B. C. Huynh,
 T.-C. Jagau,  Hyunjun Ji,  B. Kaduk,  K. Khistyaev,  Jaehoon Kim,
 P. Klunzinger,  K. Koh,  D. Kosenkov,  L. Koulias,  T. Kowalczyk,
 C. M. Krauter,  A. Kunitsa,  Ka Un Lao,  A. Laurent,  K. V. Lawler,
 Joonho Lee,  D. Lefrancois,  S. Lehtola,  D. S. Levine,  Yi-Pei Li,
 You-Sheng Lin,  Fenglai Liu,  E. Livshits,  A. Luenser,  P. Manohar,
 E. Mansoor,  S. F. Manzer,  Shan-Ping Mao,  Yuezhi Mao,  N. Mardirossian,
 A. V. Marenich,  T. Markovich,  L. A. Martinez-Martinez,  S. A. Maurer,
 N. J. Mayhall,  S. C. McKenzie,  J.-M. Mewes,  A. F. Morrison,
 J. W. Mullinax,  K. Nanda,  T. S. Nguyen-Beck,  R. Olivares-Amaya,
 J. A. Parkhill,  T. M. Perrine,  F. Plasser,  P. Pokhilko,  S. Prager,
 A. Prociuk,  E. Ramos,  D. R. Rehn,  F. Rob,  M. Schneider,  N. Sergueev,
 S. M. Sharada,  S. Sharma,  D. W. Small,  T. Stauch,  T. Stein,
 Yu-Chuan Su,  A. J. W. Thom,  A. Tkatchenko,  T. Tsuchimochi,  N. M. Tubman,
 L. Vogt,  M. L. Vidal,  O. Vydrov,  M. A. Watson,  J. Wenzel,
 M. de Wergifosse,  T. A. Wesolowski,  A. White,  J. Witte,  A. Yamada,
 Jun Yang,  K. Yao,  S. Yeganeh,  S. R. Yost,  Zhi-Qiang You,  A. Zech,
 Igor Ying Zhang,  Xing Zhang,  Yan Zhao,  Ying Zhu,  B. R. Brooks,
 G. K. L. Chan,  C. J. Cramer,  M. S. Gordon,  W. J. Hehre,  A. Klamt,
 M. W. Schmidt,  C. D. Sherrill,  D. G. Truhlar,  A. Aspuru-Guzik,  R. Baer,
 A. T. Bell,  N. A. Besley,  Jeng-Da Chai,  A. E. DePrince, III,
 R. A. DiStasio Jr.,  A. Dreuw,  B. D. Dunietz,  T. R. Furlani,
 Chao-Ping Hsu,  Yousung Jung,  Jing Kong,  D. S. Lambrecht,  WanZhen Liang,
 C. Ochsenfeld,  V. A. Rassolov,  L. V. Slipchenko,  J. E. Subotnik,
 T. Van Voorhis,  J. M. Herbert,  A. I. Krylov,  P. M. W. Gill,  M. Head-Gordon

 Contributors to earlier versions of Q-Chem not listed above:
 R. D. Adamson,  B. Austin,  J. Baker,  G. J. O. Beran,  K. Brandhorst,
 S. T. Brown,  E. F. C. Byrd,  A. K. Chakraborty,  C.-L. Cheng,
 Siu Hung Chien,  D. M. Chipman,  D. L. Crittenden,  H. Dachsel,
 R. J. Doerksen,  A. D. Dutoi,  L. Fusti-Molnar,  W. A. Goddard III,
 A. Golubeva-Zadorozhnaya,  S. R. Gwaltney,  G. Hawkins,  A. Heyden,
 S. Hirata,  G. Kedziora,  F. J. Keil,  C. Kelley,  Jihan Kim,  R. A. King,
 R. Z. Khaliullin,  P. P. Korambath,  W. Kurlancheek,  A. M. Lee,  M. S. Lee,
 S. V. Levchenko,  Ching Yeh Lin,  D. Liotard,  R. C. Lochan,  I. Lotan,
 P. E. Maslen,  N. Nair,  D. P. O'Neill,  D. Neuhauser,  E. Neuscamman,
 C. M. Oana,  R. Olson,  B. Peters,  R. Peverati,  P. A. Pieniazek,
 Y. M. Rhee,  J. Ritchie,  M. A. Rohrdanz,  E. Rosta,  N. J. Russ,
 H. F. Schaefer III,  N. E. Schultz,  N. Shenvi,  A. C. Simmonett,  A. Sodt,
 D. Stuck,  K. S. Thanthiriwatte,  V. Vanovschi,  Tao Wang,  A. Warshel,
 C. F. Williams,  Q. Wu,  X. Xu,  W. Zhang

 Please cite Q-Chem as follows:
 Y. Shao et al., Mol. Phys. 113, 184-215 (2015)
 DOI: 10.1080/00268976.2014.952696

 Q-Chem 5.1.1 for Intel X86 EM64T Linux

 Parts of Q-Chem use Armadillo 8.300.2 (Tropical Shenanigans).
 http://arma.sourceforge.net/

 Q-Chem begins on Thu Jul  2 10:39:18 2020

Host: n0046.mhg0
0

     Scratch files written to /local/scratch/users/yhljason/SiO_ccsdT_aug-cc-pcVTZ.inp20200702023618//
The previous job contains 0 fragments, simply inherited here
Input Ideriv = 0
Curr. Ideriv = -1
Max.  Ideriv = 0

Checking the input file for inconsistencies... 	...done.

--------------------------------------------------------------
User input:
--------------------------------------------------------------
$molecule
read
$end

$rem

jobtype sp
method CCSD(T)
xc_grid 000099000590
basis aug-cc-pcVTZ
max_scf_cycles 200
thresh 14
scf_convergence 8
mem_total 128000
cc_memory 96000
cc_backend xm
mem_static 1500
symmetry false
sym_ignore true
scf_guess read
unrestricted true
scf_algorithm gdm
n_frozen_core 0
$end

$multipole_field
XX -0.0001
$end


--------------------------------------------------------------
 ----------------------------------------------------------------
             Standard Nuclear Orientation (Angstroms)
    I     Atom           X                Y                Z
 ----------------------------------------------------------------
    1      Si      0.0000000000     0.0000000000     0.0000000000
    2      O       0.0000000000     0.0000000000     1.5097000000
 ----------------------------------------------------------------
 Nuclear Repulsion Energy =    39.2580298136 hartrees
 There are       11 alpha and       11 beta electrons
 Requested basis set is aug-cc-pCVTZ
 There are 42 shells and 134 basis functions
 Total memory of 128000MB is distributed as follows:
   QALLOC including MEM_STATIC uses 32000MB
   MEM_STATIC is set to 1500MB
   CCMAN JOB total memory use is  96000MB
 Warning: actual memory use might exceed 128000MB

 Total QAlloc Memory Limit  32000 MB
 Mega-Array Size      1467 MB
 MEM_STATIC part      1500 MB

                       Distance Matrix (Angstroms)
             Si(  1)
   O (  2)  1.509700

 Applying Cartesian multipole field
    Component          Value
    ---------          -----
     (2,0,0)       -1.00000E-04
 A cutoff of  1.0D-14 yielded    891 shell pairs
 There are      9167 function pairs (     12817 Cartesian)

 -------------------------------------------------------
 OpenMP Integral Computing Module
 Release: version 1.0, May 2013, Q-Chem Inc. Pittsburgh
 -------------------------------------------------------
 Integral Job Info:
 Integral job number is                      11
 Integral operator is                         1
 short-range coefficients                     0
 long-range coefficients              100000000
 Omega coefficients                           0
 if combine SR and LR in K                    0
 Integral screening is                        0
 Integral computing path is                   2
 max size of driver memory is            800000
 size of driver memory is                776718
 size of scratch memory is             29531563
 max col of scratch BK array              10000
 max len of scratch array in speh3          662
 max len of scratch index in speh4           32
 max int batch size is                      520
 min int batch size is                       52
 fixed nKL is                                31
 max L of basis functions is                  3
 order of int derivative is                   0
 number of shells is                         42
 number of basis is                         158
 number of cartesian basis is               158
 number of contracted shell pairs           891
 number of primitive shell pairs           5128
 maxK2 (contraction) of shell pair          169
 max number of K2 of shell pair               1
 max number of CS2 of shell pair             97
 max number of PS2 of shell pair           1014
 mem total for path MDJ                  562774
 -------------------------------------------------------
 Smallest overlap matrix eigenvalue = 3.52E-04
 Guess MOs from SCF MO coefficient file

 -----------------------------------------------------------------------
  General SCF calculation program by
  Eric Jon Sundstrom, Paul Horn, Yuezhi Mao, Dmitri Zuev, Alec White,
  David Stuck, Shaama M.S., Shane Yost, Joonho Lee, David Small,
  Daniel Levine, Susi Lehtola, Hugh Burton, Evgeny Epifanovsky
 -----------------------------------------------------------------------
 Hartree-Fock
 using 16 threads for integral computing
 -------------------------------------------------------
 OpenMP Integral computing Module
 Release: version 2.0, May 2017, Q-Chem Inc. Pleasanton
 -------------------------------------------------------
 A unrestricted SCF calculation will be
 performed using GDM
 SCF converges when RMS gradient is below 1.0e-08
 ---------------------------------------
  Cycle       Energy        RMS Gradient
 ---------------------------------------
    1    -363.8438957954      2.87e-04   Normal BFGS step
    2    -363.8438963511      9.30e-05   Normal BFGS step
    3    -363.8438964213      7.28e-05   Normal BFGS step
    4    -363.8438964505      1.83e-05   Normal BFGS step
    5    -363.8438964539      1.24e-05   Normal BFGS step
    6    -363.8438964554      3.35e-06   Normal BFGS step
    7    -363.8438964555      9.45e-07   Normal BFGS step
    8    -363.8438964555      2.58e-07   Normal BFGS step
    9    -363.8438964555      8.10e-08   Normal BFGS step
   10    -363.8438964555      2.10e-08   Normal BFGS step
   11    -363.8438964555      4.87e-09  Convergence criterion met
 ---------------------------------------
 SCF time:   CPU 210.59s  wall 13.00s
<S^2> =         -0.000000000
 SCF   energy in the final basis set =     -363.8438964555
 Total energy in the final basis set =     -363.8438964555


 ------------------------------------------------------------------------------

   CCMAN2: suite of methods based on coupled cluster
           and equation of motion theories.

   Components:
   * libvmm-1.3-trunk
     by Evgeny Epifanovsky, Ilya Kaliman.
   * libtensor-2.5-trunk
     by Evgeny Epifanovsky, Michael Wormit, Dmitry Zuev, Sam Manzer,
        Ilya Kaliman.
   * libcc-2.5-trunk
     by Evgeny Epifanovsky, Arik Landau, Tomasz Kus, Kirill Khistyaev,
        Dmitry Zuev, Prashant Manohar, Xintian Feng, Anna Krylov,
        Matthew Goldey, Alec White, Thomas Jagau, Kaushik Nanda,
        Anastasia Gunina, Alexander Kunitsa, Joonho Lee.

   CCMAN original authors:
   Anna I. Krylov, C. David Sherrill, Steven R. Gwaltney,
   Edward F. C. Byrd (2000)
   Sergey V. Levchenko, Lyudmila V. Slipchenko, Tao Wang,
   Ana-Maria C. Cristian (2003)
   Piotr A. Pieniazek, C. Melania Oana, Evgeny Epifanovsky (2007)
   Prashant Manohar (2009)

 ------------------------------------------------------------------------------


 Calculation will run on 16 cores using libxm for tensor contractions

 ------------------------------------------------------------------------------
Libxm Tensor Library
Copyright (c) 2014-2018 Ilya Kaliman
https://github.com/ilyak/libxm
Reference: https://dx.doi.org/10.1002/jcc.24713
 ------------------------------------------------------------------------------


 Alpha MOs, Unrestricted
 -- Occupied --
-68.821 -20.531  -6.169  -4.270  -4.270  -4.270  -1.263  -0.609
  1 A     2 A     3 A     4 A     5 A     6 A     7 A     8 A
 -0.474  -0.474  -0.437
  9 A    10 A    11 A
 -- Virtual --
  0.020   0.021   0.049   0.068   0.086   0.088   0.133   0.152
 12 A    13 A    14 A    15 A    16 A    17 A    18 A    19 A
  0.152   0.194   0.195   0.200   0.238   0.239   0.269   0.337
 20 A    21 A    22 A    23 A    24 A    25 A    26 A    27 A
  0.418   0.442   0.442   0.445   0.445   0.480   0.480   0.484
 28 A    29 A    30 A    31 A    32 A    33 A    34 A    35 A
  0.484   0.532   0.533   0.562   0.615   0.636   0.636   0.846
 36 A    37 A    38 A    39 A    40 A    41 A    42 A    43 A
  0.864   0.864   0.888   0.888   0.978   1.216   1.219   1.219
 44 A    45 A    46 A    47 A    48 A    49 A    50 A    51 A
  1.246   1.247   1.358   1.395   1.395   1.411   1.411   1.418
 52 A    53 A    54 A    55 A    56 A    57 A    58 A    59 A
  1.418   1.545   1.545   1.616   1.809   1.970   2.134   2.134
 60 A    61 A    62 A    63 A    64 A    65 A    66 A    67 A
  2.340   2.340   2.430   2.440   2.440   2.452   2.452   2.483
 68 A    69 A    70 A    71 A    72 A    73 A    74 A    75 A
  2.483   2.752   2.913   2.914   3.515   4.420   4.420   4.886
 76 A    77 A    78 A    79 A    80 A    81 A    82 A    83 A
  5.902   6.242   6.242   6.420   6.420   6.550   6.550   6.663
 84 A    85 A    86 A    87 A    88 A    89 A    90 A    91 A
  6.663   6.716   6.784   6.784   6.967   7.158   7.158   7.349
 92 A    93 A    94 A    95 A    96 A    97 A    98 A    99 A
  7.349   7.698   9.733  10.407  10.407  11.101  22.994  22.994
100 A   101 A   102 A   103 A   104 A   105 A   106 A   107 A
 23.003  23.003  23.015  23.015  23.038  26.294  26.294  26.782
108 A   109 A   110 A   111 A   112 A   113 A   114 A   115 A
 27.995  27.995  28.105  28.105  28.343  28.867  40.302  40.302
116 A   117 A   118 A   119 A   120 A   121 A   122 A   123 A
 40.956  43.989  43.989  44.056  44.056  44.186  57.415 138.432
124 A   125 A   126 A   127 A   128 A   129 A   130 A   131 A
138.432 138.817 149.556
132 A   133 A   134 A

 Beta MOs, Unrestricted
 -- Occupied --
-68.821 -20.531  -6.169  -4.270  -4.270  -4.270  -1.263  -0.609
  1 A     2 A     3 A     4 A     5 A     6 A     7 A     8 A
 -0.474  -0.474  -0.437
  9 A    10 A    11 A
 -- Virtual --
  0.020   0.021   0.049   0.068   0.086   0.088   0.133   0.152
 12 A    13 A    14 A    15 A    16 A    17 A    18 A    19 A
  0.152   0.194   0.195   0.200   0.238   0.239   0.269   0.337
 20 A    21 A    22 A    23 A    24 A    25 A    26 A    27 A
  0.418   0.442   0.442   0.445   0.445   0.480   0.480   0.484
 28 A    29 A    30 A    31 A    32 A    33 A    34 A    35 A
  0.484   0.532   0.533   0.562   0.615   0.636   0.636   0.846
 36 A    37 A    38 A    39 A    40 A    41 A    42 A    43 A
  0.864   0.864   0.888   0.888   0.978   1.216   1.219   1.219
 44 A    45 A    46 A    47 A    48 A    49 A    50 A    51 A
  1.246   1.247   1.358   1.395   1.395   1.411   1.411   1.418
 52 A    53 A    54 A    55 A    56 A    57 A    58 A    59 A
  1.418   1.545   1.545   1.616   1.809   1.970   2.134   2.134
 60 A    61 A    62 A    63 A    64 A    65 A    66 A    67 A
  2.340   2.340   2.430   2.440   2.440   2.452   2.452   2.483
 68 A    69 A    70 A    71 A    72 A    73 A    74 A    75 A
  2.483   2.752   2.913   2.914   3.515   4.420   4.420   4.886
 76 A    77 A    78 A    79 A    80 A    81 A    82 A    83 A
  5.902   6.242   6.242   6.420   6.420   6.550   6.550   6.663
 84 A    85 A    86 A    87 A    88 A    89 A    90 A    91 A
  6.663   6.716   6.784   6.784   6.967   7.158   7.158   7.349
 92 A    93 A    94 A    95 A    96 A    97 A    98 A    99 A
  7.349   7.698   9.733  10.407  10.407  11.101  22.994  22.994
100 A   101 A   102 A   103 A   104 A   105 A   106 A   107 A
 23.003  23.003  23.015  23.015  23.038  26.294  26.294  26.782
108 A   109 A   110 A   111 A   112 A   113 A   114 A   115 A
 27.995  27.995  28.105  28.105  28.343  28.867  40.302  40.302
116 A   117 A   118 A   119 A   120 A   121 A   122 A   123 A
 40.956  43.989  43.989  44.056  44.056  44.186  57.415 138.432
124 A   125 A   126 A   127 A   128 A   129 A   130 A   131 A
138.432 138.817 149.556
132 A   133 A   134 A

 Occupation and symmetry of molecular orbitals

 Point group: C1 (1 irreducible representation).

                           A     All
 -------------------------------------
 All molecular orbitals:
  - Alpha                  134   134
  - Beta                   134   134
 -------------------------------------
 Alpha orbitals:
  - Frozen occupied        0     0
  - Active occupied        11    11
  - Active virtual         123   123
  - Frozen virtual         0     0
 -------------------------------------
 Beta orbitals:
  - Frozen occupied        0     0
  - Active occupied        11    11
  - Active virtual         123   123
  - Frozen virtual         0     0
 -------------------------------------

 Import integrals:   CPU 0.00 s  wall 0.00 s

 Import integrals:   CPU 183.19 s  wall 29.95 s

 MP2 amplitudes:   CPU 3.46 s  wall 1.60 s

Running a double precision version
           CCSD T amplitudes will be solved using DIIS.

           Start     Size      MaxIter   EConv     TConv
           3         7         100       1.00e-06  1.00e-04
 ------------------------------------------------------------------------------
           Energy (a.u.)   Ediff      Tdiff       Comment
 ------------------------------------------------------------------------------
          -364.56302434
     1    -364.54592554   1.71e-02   5.51e-01
     2    -364.56598914   2.01e-02   8.42e-02
     3    -364.56126383   4.73e-03   4.36e-02
     4    -364.56403482   2.77e-03   4.31e-02     Switched to DIIS steps.
     5    -364.56478245   7.48e-04   1.05e-02
     6    -364.56480664   2.42e-05   2.70e-03
     7    -364.56480361   3.02e-06   1.12e-03
     8    -364.56480741   3.80e-06   4.27e-04
     9    -364.56481064   3.23e-06   1.66e-04
    10    -364.56480971   9.39e-07   3.60e-05
 ------------------------------------------------------------------------------
          -364.56480971                           CCSD T converged.

End of double precision

----------------------------------------
libpt (c) 2016-2018 Ilya Kaliman
Fast Coupled Cluster Triples Corrections
https://github.com/ilyak/libpt
----------------------------------------

 Starting (T) calculation...
 Using double precision libpt code
 (T) calculation completed in 84 sec
 (T) energy is -0.0223465810

 SCF energy                 = -363.84389646
 MP2 energy                 = -364.56302434
 CCSD correlation energy     =   -0.72091325
 CCSD total energy           = -364.56480971
 CCSD(T) correlation energy =   -0.02234658
 CCSD(T) total energy       = -364.58715629

 CCSD  T1^2 = 0.0136  T2^2 = 0.1468  Leading amplitudes:

 Amplitude    Orbitals with energies
 -0.0399       9 (A) A                   ->    13 (A) A
              -0.4743                          0.0215
 -0.0399       9 (A) B                   ->    13 (A) B
              -0.4743                          0.0215
 -0.0394       10 (A) A                  ->    12 (A) A
              -0.4743                          0.0202
 -0.0394       10 (A) B                  ->    12 (A) B
              -0.4743                          0.0202

 Amplitude    Orbitals with energies
 -0.0418       11 (A) A      11 (A) B    ->    13 (A) A      13 (A) B
              -0.4373       -0.4373            0.0215        0.0215
  0.0418       11 (A) A      11 (A) B    ->    13 (A) B      13 (A) A
              -0.4373       -0.4373            0.0215        0.0215
  0.0418       11 (A) B      11 (A) A    ->    13 (A) A      13 (A) B
              -0.4373       -0.4373            0.0215        0.0215
 -0.0418       11 (A) B      11 (A) A    ->    13 (A) B      13 (A) A
              -0.4373       -0.4373            0.0215        0.0215

 CCSD calculation:   CPU 2357.72 s  wall 211.03 s

 Total ccman2 time:   CPU 2562.46 s  wall 250.23 s


 --------------------------------------------------------------

                    Orbital Energies (a.u.)
 --------------------------------------------------------------

 Alpha MOs
 -- Occupied --
-68.821 -20.531  -6.169  -4.270  -4.270  -4.270  -1.263  -0.609
 -0.474  -0.474  -0.437
 -- Virtual --
  0.020   0.021   0.049   0.068   0.086   0.088   0.133   0.152
  0.152   0.194   0.195   0.200   0.238   0.239   0.269   0.337
  0.418   0.442   0.442   0.445   0.445   0.480   0.480   0.484
  0.484   0.532   0.533   0.562   0.615   0.636   0.636   0.846
  0.864   0.864   0.888   0.888   0.978   1.216   1.219   1.219
  1.246   1.247   1.358   1.395   1.395   1.411   1.411   1.418
  1.418   1.545   1.545   1.616   1.809   1.970   2.134   2.134
  2.340   2.340   2.430   2.440   2.440   2.452   2.452   2.483
  2.483   2.752   2.913   2.914   3.515   4.420   4.420   4.886
  5.902   6.242   6.242   6.420   6.420   6.550   6.550   6.663
  6.663   6.716   6.784   6.784   6.967   7.158   7.158   7.349
  7.349   7.698   9.733  10.407  10.407  11.101  22.994  22.994
 23.003  23.003  23.015  23.015  23.038  26.294  26.294  26.782
 27.995  27.995  28.105  28.105  28.343  28.867  40.302  40.302
 40.956  43.989  43.989  44.056  44.056  44.186  57.415 138.432
138.432 138.817 149.556

 Beta MOs
 -- Occupied --
-68.821 -20.531  -6.169  -4.270  -4.270  -4.270  -1.263  -0.609
 -0.474  -0.474  -0.437
 -- Virtual --
  0.020   0.021   0.049   0.068   0.086   0.088   0.133   0.152
  0.152   0.194   0.195   0.200   0.238   0.239   0.269   0.337
  0.418   0.442   0.442   0.445   0.445   0.480   0.480   0.484
  0.484   0.532   0.533   0.562   0.615   0.636   0.636   0.846
  0.864   0.864   0.888   0.888   0.978   1.216   1.219   1.219
  1.246   1.247   1.358   1.395   1.395   1.411   1.411   1.418
  1.418   1.545   1.545   1.616   1.809   1.970   2.134   2.134
  2.340   2.340   2.430   2.440   2.440   2.452   2.452   2.483
  2.483   2.752   2.913   2.914   3.515   4.420   4.420   4.886
  5.902   6.242   6.242   6.420   6.420   6.550   6.550   6.663
  6.663   6.716   6.784   6.784   6.967   7.158   7.158   7.349
  7.349   7.698   9.733  10.407  10.407  11.101  22.994  22.994
 23.003  23.003  23.015  23.015  23.038  26.294  26.294  26.782
 27.995  27.995  28.105  28.105  28.343  28.867  40.302  40.302
 40.956  43.989  43.989  44.056  44.056  44.186  57.415 138.432
138.432 138.817 149.556
 --------------------------------------------------------------

          Ground-State Mulliken Net Atomic Charges

     Atom                 Charge (a.u.)    Spin (a.u.)
  --------------------------------------------------------
      1 Si                    0.834137       0.000000
      2 O                    -0.834137      -0.000000
  --------------------------------------------------------
  Sum of atomic charges =    -0.000000
  Sum of spin   charges =     0.000000

 -----------------------------------------------------------------
                    Cartesian Multipole Moments
 -----------------------------------------------------------------
    Charge (ESU x 10^10)
                -0.0000
    Dipole Moment (Debye)
         X       0.0000      Y      -0.0000      Z      -3.7242
       Tot       3.7242
    Quadrupole Moments (Debye-Ang)
        XX     -16.0857     XY       0.0000     YY     -16.1019
        XZ      -0.0000     YZ      -0.0000     ZZ     -25.4053
    Octopole Moments (Debye-Ang^2)
       XXX       0.0000    XXY       0.0000    XYY       0.0000
       YYY       0.0000    XXZ      -8.8799    XYZ       0.0000
       YYZ      -8.8803    XZZ       0.0000    YZZ      -0.0000
       ZZZ     -35.9122
    Hexadecapole Moments (Debye-Ang^3)
      XXXX     -20.6425   XXXY       0.0000   XXYY      -6.8931
      XYYY       0.0000   YYYY     -20.7159   XXXZ      -0.0000
      XXYZ      -0.0000   XYYZ      -0.0000   YYYZ      -0.0000
      XXZZ     -22.5046   XYZZ       0.0000   YYZZ     -22.5218
      XZZZ      -0.0000   YZZZ      -0.0000   ZZZZ    -125.9952
 -----------------------------------------------------------------
Archival summary:
1\1\n0046.mhg0\SP\ProcedureUnspecified\BasisUnspecified\i11\yhljason\ThuJul210:43:442020ThuJul210:43:442020\0\\#,ProcedureUnspecified,BasisUnspecified,\\0,1\Si\O,1,1.5097\\HF=-363.843896\\@

 Total job time:  265.61s(wall), 2784.00s(cpu)
 Thu Jul  2 10:43:44 2020

        *************************************************************
        *                                                           *
        *  Thank you very much for using Q-Chem.  Have a nice day.  *
        *                                                           *
        *************************************************************



User input: 4 of 9

Q-Chem Developer Version!
                  Welcome to Q-Chem
     A Quantum Leap Into The Future Of Chemistry


 Q-Chem 5.1, Q-Chem, Inc., Pleasanton, CA (2018)

 Yihan Shao,  Zhengting Gan,  E. Epifanovsky,  A. T. B. Gilbert,  M. Wormit,
 J. Kussmann,  A. W. Lange,  A. Behn,  Jia Deng,  Xintian Feng,  D. Ghosh,
 M. Goldey,  P. R. Horn,  L. D. Jacobson,  I. Kaliman,  T. Kus,  A. Landau,
 Jie Liu,  E. I. Proynov,  R. M. Richard,  R. P. Steele,  E. J. Sundstrom,
 H. L. Woodcock III,  P. M. Zimmerman,  D. Zuev,  B. Albrecht,  E. Alguire,
 S. A. Baeppler,  D. Barton,  Z. Benda,  Y. A. Bernard,  E. J. Berquist,
 K. B. Bravaya,  H. Burton,  D. Casanova,  Chun-Min Chang,  Yunqing Chen,
 A. Chien,  K. D. Closser,  M. P. Coons,  S. Coriani,  S. Dasgupta,
 A. L. Dempwolff,  M. Diedenhofen,  Hainam Do,  R. G. Edgar,  Po-Tung Fang,
 S. Faraji,  S. Fatehi,  Qingguo Feng,  K. D. Fenk,  J. Fosso-Tande,
 Qinghui Ge,  A. Ghysels,  G. Gidofalvi,  J. Gomes,  J. Gonthier,  A. Gunina,
 D. Hait,  M. W. D. Hanson-Heine,  P. H. P. Harbach,  A. W. Hauser,
 J. E. Herr,  E. G. Hohenstein,  Z. C. Holden,  Kerwin Hui,  B. C. Huynh,
 T.-C. Jagau,  Hyunjun Ji,  B. Kaduk,  K. Khistyaev,  Jaehoon Kim,
 P. Klunzinger,  K. Koh,  D. Kosenkov,  L. Koulias,  T. Kowalczyk,
 C. M. Krauter,  A. Kunitsa,  Ka Un Lao,  A. Laurent,  K. V. Lawler,
 Joonho Lee,  D. Lefrancois,  S. Lehtola,  D. S. Levine,  Yi-Pei Li,
 You-Sheng Lin,  Fenglai Liu,  E. Livshits,  A. Luenser,  P. Manohar,
 E. Mansoor,  S. F. Manzer,  Shan-Ping Mao,  Yuezhi Mao,  N. Mardirossian,
 A. V. Marenich,  T. Markovich,  L. A. Martinez-Martinez,  S. A. Maurer,
 N. J. Mayhall,  S. C. McKenzie,  J.-M. Mewes,  A. F. Morrison,
 J. W. Mullinax,  K. Nanda,  T. S. Nguyen-Beck,  R. Olivares-Amaya,
 J. A. Parkhill,  T. M. Perrine,  F. Plasser,  P. Pokhilko,  S. Prager,
 A. Prociuk,  E. Ramos,  D. R. Rehn,  F. Rob,  M. Schneider,  N. Sergueev,
 S. M. Sharada,  S. Sharma,  D. W. Small,  T. Stauch,  T. Stein,
 Yu-Chuan Su,  A. J. W. Thom,  A. Tkatchenko,  T. Tsuchimochi,  N. M. Tubman,
 L. Vogt,  M. L. Vidal,  O. Vydrov,  M. A. Watson,  J. Wenzel,
 M. de Wergifosse,  T. A. Wesolowski,  A. White,  J. Witte,  A. Yamada,
 Jun Yang,  K. Yao,  S. Yeganeh,  S. R. Yost,  Zhi-Qiang You,  A. Zech,
 Igor Ying Zhang,  Xing Zhang,  Yan Zhao,  Ying Zhu,  B. R. Brooks,
 G. K. L. Chan,  C. J. Cramer,  M. S. Gordon,  W. J. Hehre,  A. Klamt,
 M. W. Schmidt,  C. D. Sherrill,  D. G. Truhlar,  A. Aspuru-Guzik,  R. Baer,
 A. T. Bell,  N. A. Besley,  Jeng-Da Chai,  A. E. DePrince, III,
 R. A. DiStasio Jr.,  A. Dreuw,  B. D. Dunietz,  T. R. Furlani,
 Chao-Ping Hsu,  Yousung Jung,  Jing Kong,  D. S. Lambrecht,  WanZhen Liang,
 C. Ochsenfeld,  V. A. Rassolov,  L. V. Slipchenko,  J. E. Subotnik,
 T. Van Voorhis,  J. M. Herbert,  A. I. Krylov,  P. M. W. Gill,  M. Head-Gordon

 Contributors to earlier versions of Q-Chem not listed above:
 R. D. Adamson,  B. Austin,  J. Baker,  G. J. O. Beran,  K. Brandhorst,
 S. T. Brown,  E. F. C. Byrd,  A. K. Chakraborty,  C.-L. Cheng,
 Siu Hung Chien,  D. M. Chipman,  D. L. Crittenden,  H. Dachsel,
 R. J. Doerksen,  A. D. Dutoi,  L. Fusti-Molnar,  W. A. Goddard III,
 A. Golubeva-Zadorozhnaya,  S. R. Gwaltney,  G. Hawkins,  A. Heyden,
 S. Hirata,  G. Kedziora,  F. J. Keil,  C. Kelley,  Jihan Kim,  R. A. King,
 R. Z. Khaliullin,  P. P. Korambath,  W. Kurlancheek,  A. M. Lee,  M. S. Lee,
 S. V. Levchenko,  Ching Yeh Lin,  D. Liotard,  R. C. Lochan,  I. Lotan,
 P. E. Maslen,  N. Nair,  D. P. O'Neill,  D. Neuhauser,  E. Neuscamman,
 C. M. Oana,  R. Olson,  B. Peters,  R. Peverati,  P. A. Pieniazek,
 Y. M. Rhee,  J. Ritchie,  M. A. Rohrdanz,  E. Rosta,  N. J. Russ,
 H. F. Schaefer III,  N. E. Schultz,  N. Shenvi,  A. C. Simmonett,  A. Sodt,
 D. Stuck,  K. S. Thanthiriwatte,  V. Vanovschi,  Tao Wang,  A. Warshel,
 C. F. Williams,  Q. Wu,  X. Xu,  W. Zhang

 Please cite Q-Chem as follows:
 Y. Shao et al., Mol. Phys. 113, 184-215 (2015)
 DOI: 10.1080/00268976.2014.952696

 Q-Chem 5.1.1 for Intel X86 EM64T Linux

 Parts of Q-Chem use Armadillo 8.300.2 (Tropical Shenanigans).
 http://arma.sourceforge.net/

 Q-Chem begins on Wed Jul  1 08:12:02 2020

Host: n0071.mhg0
0

     Scratch files written to /local/scratch/users/yhljason/SiO_ccsdT_aug-cc-pcVTZ.inp20200630131929//
The previous job contains 0 fragments, simply inherited here
Input Ideriv = 0
Curr. Ideriv = -1
Max.  Ideriv = 0

Checking the input file for inconsistencies... 	...done.

--------------------------------------------------------------
User input:
--------------------------------------------------------------
$molecule
read
$end

$rem

jobtype sp
method CCSD(T)
xc_grid 000099000590
basis aug-cc-pcVTZ
max_scf_cycles 200
thresh 14
scf_convergence 8
mem_total 128000
cc_memory 96000
cc_backend xm
mem_static 1500
symmetry false
sym_ignore true
scf_guess read
unrestricted true
scf_algorithm gdm
n_frozen_core 0
$end

$multipole_field
YY 0.0001
$end


--------------------------------------------------------------
[...]
basis aug-cc-pcVTZ
max_scf_cycles 200
thresh 14
scf_convergence 8
mem_total 128000
cc_memory 96000
cc_backend xm
mem_static 1500
symmetry false
sym_ignore true
scf_guess read
unrestricted true
scf_algorithm gdm
n_frozen_core 0
$end

$multipole_field
ZZ -0.0001
$end


--------------------------------------------------------------
 ----------------------------------------------------------------
             Standard Nuclear Orientation (Angstroms)
    I     Atom           X                Y                Z
 ----------------------------------------------------------------
    1      Si      0.0000000000     0.0000000000     0.0000000000
    2      O       0.0000000000     0.0000000000     1.5097000000
 ----------------------------------------------------------------
 Nuclear Repulsion Energy =    39.2580298136 hartrees
 There are       11 alpha and       11 beta electrons
 Requested basis set is aug-cc-pCVTZ
 There are 42 shells and 134 basis functions
 Total memory of 128000MB is distributed as follows:
   QALLOC including MEM_STATIC uses 32000MB
   MEM_STATIC is set to 1500MB
   CCMAN JOB total memory use is  96000MB
 Warning: actual memory use might exceed 128000MB

 Total QAlloc Memory Limit  32000 MB
 Mega-Array Size      1467 MB
 MEM_STATIC part      1500 MB

                       Distance Matrix (Angstroms)
             Si(  1)
   O (  2)  1.509700

 Applying Cartesian multipole field
    Component          Value
    ---------          -----
     (0,0,2)       -1.00000E-04
 Nucleus-field energy     =    -0.0065113199 hartrees
 A cutoff of  1.0D-14 yielded    891 shell pairs
 There are      9167 function pairs (     12817 Cartesian)

 -------------------------------------------------------
 OpenMP Integral Computing Module
 Release: version 1.0, May 2013, Q-Chem Inc. Pittsburgh
 -------------------------------------------------------
 Integral Job Info:
 Integral job number is                      11
 Integral operator is                         1
 short-range coefficients                     0
 long-range coefficients              100000000
 Omega coefficients                           0
 if combine SR and LR in K                    0
 Integral screening is                        0
 Integral computing path is                   2
 max size of driver memory is            800000
 size of driver memory is                776718
 size of scratch memory is             29531563
 max col of scratch BK array              10000
 max len of scratch array in speh3          662
 max len of scratch index in speh4           32
 max int batch size is                      520
 min int batch size is                       52
 fixed nKL is                                31
 max L of basis functions is                  3
 order of int derivative is                   0
 number of shells is                         42
 number of basis is                         158
 number of cartesian basis is               158
 number of contracted shell pairs           891
 number of primitive shell pairs           5128
 maxK2 (contraction) of shell pair          169
 max number of K2 of shell pair               1
 max number of CS2 of shell pair             97
 max number of PS2 of shell pair           1014
 mem total for path MDJ                  562774
 -------------------------------------------------------
 Smallest overlap matrix eigenvalue = 3.52E-04
 Guess MOs from SCF MO coefficient file

 -----------------------------------------------------------------------
  General SCF calculation program by
  Eric Jon Sundstrom, Paul Horn, Yuezhi Mao, Dmitri Zuev, Alec White,
  David Stuck, Shaama M.S., Shane Yost, Joonho Lee, David Small,
  Daniel Levine, Susi Lehtola, Hugh Burton, Evgeny Epifanovsky
 -----------------------------------------------------------------------
 Hartree-Fock
 using 16 threads for integral computing
 -------------------------------------------------------
 OpenMP Integral computing Module
 Release: version 2.0, May 2017, Q-Chem Inc. Pleasanton
 -------------------------------------------------------
 A unrestricted SCF calculation will be
 performed using GDM
 SCF converges when RMS gradient is below 1.0e-08
 ---------------------------------------
  Cycle       Energy        RMS Gradient
 ---------------------------------------
    1    -363.8432035603      5.74e-04   Normal BFGS step
    2    -363.8432059624      2.38e-04   Normal BFGS step
    3    -363.8432063432      1.21e-04   Normal BFGS step
    4    -363.8432064474      2.66e-05   Normal BFGS step
    5    -363.8432064552      1.26e-05   Normal BFGS step
    6    -363.8432064575      5.54e-06   Normal BFGS step
    7    -363.8432064577      2.73e-06   Normal BFGS step
    8    -363.8432064578      6.27e-07   Normal BFGS step
    9    -363.8432064578      2.10e-07   Normal BFGS step
   10    -363.8432064578      5.33e-08   Normal BFGS step
   11    -363.8432064578      1.09e-08   Normal BFGS step
   12    -363.8432064578      2.01e-09  Convergence criterion met
 ---------------------------------------
 SCF time:   CPU 212.15s  wall 14.00s
<S^2> =         -0.000000000
 SCF   energy in the final basis set =     -363.8432064578
 Total energy in the final basis set =     -363.8432064578


 ------------------------------------------------------------------------------

   CCMAN2: suite of methods based on coupled cluster
           and equation of motion theories.

   Components:
   * libvmm-1.3-trunk
     by Evgeny Epifanovsky, Ilya Kaliman.
   * libtensor-2.5-trunk
     by Evgeny Epifanovsky, Michael Wormit, Dmitry Zuev, Sam Manzer,
        Ilya Kaliman.
   * libcc-2.5-trunk
     by Evgeny Epifanovsky, Arik Landau, Tomasz Kus, Kirill Khistyaev,
        Dmitry Zuev, Prashant Manohar, Xintian Feng, Anna Krylov,
        Matthew Goldey, Alec White, Thomas Jagau, Kaushik Nanda,
        Anastasia Gunina, Alexander Kunitsa, Joonho Lee.

   CCMAN original authors:
   Anna I. Krylov, C. David Sherrill, Steven R. Gwaltney,
   Edward F. C. Byrd (2000)
   Sergey V. Levchenko, Lyudmila V. Slipchenko, Tao Wang,
   Ana-Maria C. Cristian (2003)
   Piotr A. Pieniazek, C. Melania Oana, Evgeny Epifanovsky (2007)
   Prashant Manohar (2009)

 ------------------------------------------------------------------------------


 Calculation will run on 16 cores using libxm for tensor contractions

 ------------------------------------------------------------------------------
Libxm Tensor Library
Copyright (c) 2014-2018 Ilya Kaliman
https://github.com/ilyak/libxm
Reference: https://dx.doi.org/10.1002/jcc.24713
 ------------------------------------------------------------------------------


 Alpha MOs, Unrestricted
 -- Occupied --
-68.821 -20.531  -6.168  -4.270  -4.270  -4.270  -1.263  -0.609
  1 A     2 A     3 A     4 A     5 A     6 A     7 A     8 A
 -0.474  -0.474  -0.437
  9 A    10 A    11 A
 -- Virtual --
  0.020   0.020   0.051   0.068   0.086   0.086   0.135   0.151
 12 A    13 A    14 A    15 A    16 A    17 A    18 A    19 A
  0.151   0.195   0.195   0.203   0.240   0.240   0.270   0.339
 20 A    21 A    22 A    23 A    24 A    25 A    26 A    27 A
  0.418   0.442   0.442   0.444   0.444   0.480   0.480   0.484
 28 A    29 A    30 A    31 A    32 A    33 A    34 A    35 A
  0.484   0.533   0.533   0.563   0.616   0.636   0.636   0.847
 36 A    37 A    38 A    39 A    40 A    41 A    42 A    43 A
  0.865   0.865   0.888   0.888   0.979   1.217   1.219   1.219
 44 A    45 A    46 A    47 A    48 A    49 A    50 A    51 A
  1.247   1.247   1.358   1.395   1.395   1.411   1.411   1.419
 52 A    53 A    54 A    55 A    56 A    57 A    58 A    59 A
  1.419   1.546   1.546   1.616   1.810   1.970   2.134   2.134
 60 A    61 A    62 A    63 A    64 A    65 A    66 A    67 A
  2.340   2.340   2.431   2.440   2.440   2.453   2.453   2.484
 68 A    69 A    70 A    71 A    72 A    73 A    74 A    75 A
  2.484   2.753   2.914   2.914   3.515   4.421   4.421   4.886
 76 A    77 A    78 A    79 A    80 A    81 A    82 A    83 A
  5.902   6.242   6.242   6.420   6.420   6.551   6.551   6.663
 84 A    85 A    86 A    87 A    88 A    89 A    90 A    91 A
  6.663   6.717   6.785   6.785   6.967   7.159   7.159   7.350
 92 A    93 A    94 A    95 A    96 A    97 A    98 A    99 A
  7.350   7.699   9.733  10.407  10.407  11.101  22.995  22.995
100 A   101 A   102 A   103 A   104 A   105 A   106 A   107 A
 23.003  23.003  23.015  23.015  23.039  26.295  26.295  26.782
108 A   109 A   110 A   111 A   112 A   113 A   114 A   115 A
 27.995  27.995  28.106  28.106  28.343  28.868  40.303  40.303
116 A   117 A   118 A   119 A   120 A   121 A   122 A   123 A
 40.956  43.990  43.990  44.056  44.056  44.186  57.416 138.433
124 A   125 A   126 A   127 A   128 A   129 A   130 A   131 A
138.433 138.817 149.556
132 A   133 A   134 A

 Beta MOs, Unrestricted
 -- Occupied --
-68.821 -20.531  -6.168  -4.270  -4.270  -4.270  -1.263  -0.609
  1 A     2 A     3 A     4 A     5 A     6 A     7 A     8 A
 -0.474  -0.474  -0.437
  9 A    10 A    11 A
 -- Virtual --
  0.020   0.020   0.051   0.068   0.086   0.086   0.135   0.151
 12 A    13 A    14 A    15 A    16 A    17 A    18 A    19 A
  0.151   0.195   0.195   0.203   0.240   0.240   0.270   0.339
 20 A    21 A    22 A    23 A    24 A    25 A    26 A    27 A
  0.418   0.442   0.442   0.444   0.444   0.480   0.480   0.484
 28 A    29 A    30 A    31 A    32 A    33 A    34 A    35 A
  0.484   0.533   0.533   0.563   0.616   0.636   0.636   0.847
 36 A    37 A    38 A    39 A    40 A    41 A    42 A    43 A
  0.865   0.865   0.888   0.888   0.979   1.217   1.219   1.219
 44 A    45 A    46 A    47 A    48 A    49 A    50 A    51 A
  1.247   1.247   1.358   1.395   1.395   1.411   1.411   1.419
 52 A    53 A    54 A    55 A    56 A    57 A    58 A    59 A
  1.419   1.546   1.546   1.616   1.810   1.970   2.134   2.134
 60 A    61 A    62 A    63 A    64 A    65 A    66 A    67 A
  2.340   2.340   2.431   2.440   2.440   2.453   2.453   2.484
 68 A    69 A    70 A    71 A    72 A    73 A    74 A    75 A
  2.484   2.753   2.914   2.914   3.515   4.421   4.421   4.886
 76 A    77 A    78 A    79 A    80 A    81 A    82 A    83 A
  5.902   6.242   6.242   6.420   6.420   6.551   6.551   6.663
 84 A    85 A    86 A    87 A    88 A    89 A    90 A    91 A
  6.663   6.717   6.785   6.785   6.967   7.159   7.159   7.350
 92 A    93 A    94 A    95 A    96 A    97 A    98 A    99 A
  7.350   7.699   9.733  10.407  10.407  11.101  22.995  22.995
100 A   101 A   102 A   103 A   104 A   105 A   106 A   107 A
 23.003  23.003  23.015  23.015  23.039  26.295  26.295  26.782
108 A   109 A   110 A   111 A   112 A   113 A   114 A   115 A
 27.995  27.995  28.106  28.106  28.343  28.868  40.303  40.303
116 A   117 A   118 A   119 A   120 A   121 A   122 A   123 A
 40.956  43.990  43.990  44.056  44.056  44.186  57.416 138.433
124 A   125 A   126 A   127 A   128 A   129 A   130 A   131 A
138.433 138.817 149.556
132 A   133 A   134 A

 Occupation and symmetry of molecular orbitals

 Point group: C1 (1 irreducible representation).

                           A     All
 -------------------------------------
 All molecular orbitals:
  - Alpha                  134   134
  - Beta                   134   134
 -------------------------------------
 Alpha orbitals:
  - Frozen occupied        0     0
  - Active occupied        11    11
  - Active virtual         123   123
  - Frozen virtual         0     0
 -------------------------------------
 Beta orbitals:
  - Frozen occupied        0     0
  - Active occupied        11    11
  - Active virtual         123   123
  - Frozen virtual         0     0
 -------------------------------------

 Import integrals:   CPU 0.00 s  wall 0.00 s

 Import integrals:   CPU 177.05 s  wall 28.42 s

 MP2 amplitudes:   CPU 3.22 s  wall 1.51 s

Running a double precision version
           CCSD T amplitudes will be solved using DIIS.

           Start     Size      MaxIter   EConv     TConv
           3         7         100       1.00e-06  1.00e-04
 ------------------------------------------------------------------------------
           Energy (a.u.)   Ediff      Tdiff       Comment
 ------------------------------------------------------------------------------
          -364.56250143
     1    -364.54531076   1.72e-02   5.51e-01
     2    -364.56543247   2.01e-02   8.42e-02
     3    -364.56067264   4.76e-03   4.37e-02
     4    -364.56345762   2.78e-03   4.34e-02     Switched to DIIS steps.
     5    -364.56420659   7.49e-04   1.05e-02
     6    -364.56423083   2.42e-05   2.71e-03
     7    -364.56422771   3.12e-06   1.12e-03
     8    -364.56423150   3.79e-06   4.28e-04
     9    -364.56423476   3.26e-06   1.67e-04
    10    -364.56423381   9.48e-07   3.60e-05
 ------------------------------------------------------------------------------
          -364.56423381                           CCSD T converged.

End of double precision

----------------------------------------
libpt (c) 2016-2018 Ilya Kaliman
Fast Coupled Cluster Triples Corrections
https://github.com/ilyak/libpt
----------------------------------------

 Starting (T) calculation...
 Using double precision libpt code
 (T) calculation completed in 69 sec
 (T) energy is -0.0223810214

 SCF energy                 = -363.84320646
 MP2 energy                 = -364.56250143
 CCSD correlation energy     =   -0.72102735
 CCSD total energy           = -364.56423381
 CCSD(T) correlation energy =   -0.02238102
 CCSD(T) total energy       = -364.58661483

 CCSD  T1^2 = 0.0136  T2^2 = 0.1469  Leading amplitudes:

 Amplitude    Orbitals with energies
  0.0394       10 (A) B                  ->    13 (A) B
              -0.4738                          0.0203
  0.0394       10 (A) A                  ->    13 (A) A
              -0.4738                          0.0203
  0.0394       9 (A) A                   ->    12 (A) A
              -0.4738                          0.0203
  0.0394       9 (A) B                   ->    12 (A) B
              -0.4738                          0.0203

 Amplitude    Orbitals with energies
 -0.0404       11 (A) A      11 (A) B    ->    13 (A) A      13 (A) B
              -0.4370       -0.4370            0.0203        0.0203
  0.0404       11 (A) A      11 (A) B    ->    13 (A) B      13 (A) A
              -0.4370       -0.4370            0.0203        0.0203
  0.0404       11 (A) B      11 (A) A    ->    13 (A) A      13 (A) B
              -0.4370       -0.4370            0.0203        0.0203
 -0.0404       11 (A) B      11 (A) A    ->    13 (A) B      13 (A) A
              -0.4370       -0.4370            0.0203        0.0203
 -0.0404       11 (A) A      11 (A) B    ->    12 (A) A      12 (A) B
              -0.4370       -0.4370            0.0203        0.0203
  0.0404       11 (A) A      11 (A) B    ->    12 (A) B      12 (A) A
              -0.4370       -0.4370            0.0203        0.0203
  0.0404       11 (A) B      11 (A) A    ->    12 (A) A      12 (A) B
              -0.4370       -0.4370            0.0203        0.0203
 -0.0404       11 (A) B      11 (A) A    ->    12 (A) B      12 (A) A
              -0.4370       -0.4370            0.0203        0.0203

 CCSD calculation:   CPU 2002.02 s  wall 189.91 s

 Total ccman2 time:   CPU 2200.13 s  wall 226.79 s


 --------------------------------------------------------------

                    Orbital Energies (a.u.)
 --------------------------------------------------------------

 Alpha MOs
 -- Occupied --
-68.821 -20.531  -6.168  -4.270  -4.270  -4.270  -1.263  -0.609
 -0.474  -0.474  -0.437
 -- Virtual --
  0.020   0.020   0.051   0.068   0.086   0.086   0.135   0.151
  0.151   0.195   0.195   0.203   0.240   0.240   0.270   0.339
  0.418   0.442   0.442   0.444   0.444   0.480   0.480   0.484
  0.484   0.533   0.533   0.563   0.616   0.636   0.636   0.847
  0.865   0.865   0.888   0.888   0.979   1.217   1.219   1.219
  1.247   1.247   1.358   1.395   1.395   1.411   1.411   1.419
  1.419   1.546   1.546   1.616   1.810   1.970   2.134   2.134
  2.340   2.340   2.431   2.440   2.440   2.453   2.453   2.484
  2.484   2.753   2.914   2.914   3.515   4.421   4.421   4.886
  5.902   6.242   6.242   6.420   6.420   6.551   6.551   6.663
  6.663   6.717   6.785   6.785   6.967   7.159   7.159   7.350
  7.350   7.699   9.733  10.407  10.407  11.101  22.995  22.995
 23.003  23.003  23.015  23.015  23.039  26.295  26.295  26.782
 27.995  27.995  28.106  28.106  28.343  28.868  40.303  40.303
 40.956  43.990  43.990  44.056  44.056  44.186  57.416 138.433
138.433 138.817 149.556

 Beta MOs
 -- Occupied --
-68.821 -20.531  -6.168  -4.270  -4.270  -4.270  -1.263  -0.609
 -0.474  -0.474  -0.437
 -- Virtual --
  0.020   0.020   0.051   0.068   0.086   0.086   0.135   0.151
  0.151   0.195   0.195   0.203   0.240   0.240   0.270   0.339
  0.418   0.442   0.442   0.444   0.444   0.480   0.480   0.484
  0.484   0.533   0.533   0.563   0.616   0.636   0.636   0.847
  0.865   0.865   0.888   0.888   0.979   1.217   1.219   1.219
  1.247   1.247   1.358   1.395   1.395   1.411   1.411   1.419
  1.419   1.546   1.546   1.616   1.810   1.970   2.134   2.134
  2.340   2.340   2.431   2.440   2.440   2.453   2.453   2.484
  2.484   2.753   2.914   2.914   3.515   4.421   4.421   4.886
  5.902   6.242   6.242   6.420   6.420   6.551   6.551   6.663
  6.663   6.717   6.785   6.785   6.967   7.159   7.159   7.350
  7.350   7.699   9.733  10.407  10.407  11.101  22.995  22.995
 23.003  23.003  23.015  23.015  23.039  26.295  26.295  26.782
 27.995  27.995  28.106  28.106  28.343  28.868  40.303  40.303
 40.956  43.990  43.990  44.056  44.056  44.186  57.416 138.433
138.433 138.817 149.556
 --------------------------------------------------------------

          Ground-State Mulliken Net Atomic Charges

     Atom                 Charge (a.u.)    Spin (a.u.)
  --------------------------------------------------------
      1 Si                    0.831069      -0.000000
      2 O                    -0.831069       0.000000
  --------------------------------------------------------
  Sum of atomic charges =    -0.000000
  Sum of spin   charges =     0.000000

 -----------------------------------------------------------------
                    Cartesian Multipole Moments
 -----------------------------------------------------------------
    Charge (ESU x 10^10)
                -0.0000
    Dipole Moment (Debye)
         X       0.0000      Y       0.0000      Z      -3.7127
       Tot       3.7127
    Quadrupole Moments (Debye-Ang)
        XX     -16.1059     XY      -0.0000     YY     -16.1059
        XZ      -0.0000     YZ      -0.0000     ZZ     -25.3477
    Octopole Moments (Debye-Ang^2)
       XXX       0.0000    XXY       0.0000    XYY       0.0000
       YYY      -0.0000    XXZ      -8.8760    XYZ      -0.0000
       YYZ      -8.8760    XZZ      -0.0000    YZZ       0.0000
       ZZZ     -35.8191
    Hexadecapole Moments (Debye-Ang^3)
      XXXX     -20.7292   XXXY      -0.0000   XXYY      -6.9097
      XYYY      -0.0000   YYYY     -20.7292   XXXZ      -0.0000
      XXYZ      -0.0000   XYYZ      -0.0000   YYYZ      -0.0000
      XXZZ     -22.4891   XYZZ      -0.0000   YYZZ     -22.4891
      XZZZ      -0.0000   YZZZ      -0.0000   ZZZZ    -125.6219
 -----------------------------------------------------------------
Archival summary:
1\1\n0046.mhg0\SP\ProcedureUnspecified\BasisUnspecified\i11\yhljason\ThuJul210:52:032020ThuJul210:52:032020\0\\#,ProcedureUnspecified,BasisUnspecified,\\0,1\Si\O,1,1.5097\\HF=-363.843206\\@

 Total job time:  242.84s(wall), 2423.10s(cpu)
 Thu Jul  2 10:52:03 2020

        *************************************************************
        *                                                           *
        *  Thank you very much for using Q-Chem.  Have a nice day.  *
        *                                                           *
        *************************************************************
