                  Welcome to Q-Chem
     A Quantum Leap Into The Future Of Chemistry


 Q-Chem 5.3 (devel), Q-Chem, Inc., Pleasanton, CA (2020)

 Yihan Shao,  Zhengting Gan,  E. Epifanovsky,  A. T. B. Gilbert,  M. Wormit,  
 J. Kussmann,  A. W. Lange,  A. Behn,  Jia Deng,  Xintian Feng,  D. Ghosh,  
 M. Goldey,  P. R. Horn,  L. D. Jacobson,  I. Kaliman,  T. Kus,  A. Landau,  
 Jie Liu,  E. I. Proynov,  R. M. Richard,  R. P. Steele,  E. J. Sundstrom,  
 H. L. Woodcock III,  P. M. Zimmerman,  D. Zuev,  B. Alam,  B. Albrecht,  
 E. Alguire,  S. A. Baeppler,  D. Barton,  Z. Benda,  Y. A. Bernard,  
 E. J. Berquist,  K. B. Bravaya,  H. Burton,  K. Carter-Fenk,  D. Casanova,  
 Chun-Min Chang,  Yunqing Chen,  A. Chien,  K. D. Closser,  M. P. Coons,  
 S. Coriani,  S. Dasgupta,  A. L. Dempwolff,  M. Diedenhofen,  Hainam Do,  
 R. G. Edgar,  Po-Tung Fang,  S. Faraji,  S. Fatehi,  Qingguo Feng,  
 J. Fosso-Tande,  J. Gayvert,  Qinghui Ge,  A. Ghysels,  G. Gidofalvi,  
 J. Gomes,  J. Gonthier,  A. Gunina,  D. Hait,  M. W. D. Hanson-Heine,  
 P. H. P. Harbach,  A. W. Hauser,  M. F. Herbst,  J. E. Herr,  
 E. G. Hohenstein,  Z. C. Holden,  Kerwin Hui,  B. C. Huynh,  T.-C. Jagau,  
 Hyunjun Ji,  B. Kaduk,  K. Khistyaev,  Jaehoon Kim,  P. Klunzinger,  K. Koh,  
 D. Kosenkov,  L. Koulias,  T. Kowalczyk,  C. M. Krauter,  A. Kunitsa,  
 Ka Un Lao,  A. Laurent,  K. V. Lawler,  Joonho Lee,  D. Lefrancois,  
 S. Lehtola,  D. S. Levine,  Yi-Pei Li,  You-Sheng Lin,  Fenglai Liu,  
 Kuan-Yu Liu,  E. Livshits,  M. Loipersberger,  A. Luenser,  P. Manohar,  
 E. Mansoor,  S. F. Manzer,  Shan-Ping Mao,  Yuezhi Mao,  N. Mardirossian,  
 A. V. Marenich,  T. Markovich,  L. A. Martinez-Martinez,  S. A. Maurer,  
 N. J. Mayhall,  S. C. McKenzie,  J.-M. Mewes,  P. Morgante,  A. F. Morrison,  
 J. W. Mullinax,  K. Nanda,  T. S. Nguyen-Beck,  R. Olivares-Amaya,  
 K. J. Oosterbaan,  J. A. Parkhill,  S. K. Paul,  F. Pavosevic,  Zheng Pei,  
 T. M. Perrine,  F. Plasser,  P. Pokhilko,  S. Prager,  A. Prociuk,  
 E. Ramos,  B. Rana,  D. R. Rehn,  F. Rob,  M. Scheurer,  M. Schneider,  
 N. Sergueev,  S. M. Sharada,  S. Sharma,  D. W. Small,  T. Stauch,  
 C. J. Stein,  T. Stein,  Yu-Chuan Su,  S. P. Veccham,  Zhen Tao,  
 A. J. W. Thom,  A. Tkatchenko,  T. Tsuchimochi,  N. M. Tubman,  L. Vogt,  
 M. L. Vidal,  O. Vydrov,  M. A. Watson,  J. Wenzel,  M. de Wergifosse,  
 T. A. Wesolowski,  A. White,  J. Witte,  A. Yamada,  Jun Yang,  K. Yao,  
 S. Yeganeh,  S. R. Yost,  Zhi-Qiang You,  A. Zech,  Igor Ying Zhang,  
 Xing Zhang,  Yan Zhao,  Ying Zhu,  B. R. Brooks,  G. K. L. Chan,  
 C. J. Cramer,  M. S. Gordon,  W. J. Hehre,  A. Klamt,  M. W. Schmidt,  
 C. D. Sherrill,  D. G. Truhlar,  A. Aspuru-Guzik,  R. Baer,  A. T. Bell,  
 N. A. Besley,  Jeng-Da Chai,  A. E. DePrince, III,  R. A. DiStasio Jr.,  
 A. Dreuw,  B. D. Dunietz,  T. R. Furlani,  Chao-Ping Hsu,  Yousung Jung,  
 Jing Kong,  D. S. Lambrecht,  WanZhen Liang,  C. Ochsenfeld,  
 V. A. Rassolov,  L. V. Slipchenko,  J. E. Subotnik,  T. Van Voorhis,  
 J. M. Herbert,  A. I. Krylov,  P. M. W. Gill,  M. Head-Gordon

 Contributors to earlier versions of Q-Chem not listed above: 
 R. D. Adamson,  B. Austin,  J. Baker,  G. J. O. Beran,  K. Brandhorst,  
 S. T. Brown,  E. F. C. Byrd,  A. K. Chakraborty,  C.-L. Cheng,  
 Siu Hung Chien,  D. M. Chipman,  D. L. Crittenden,  H. Dachsel,  
 R. J. Doerksen,  A. D. Dutoi,  L. Fusti-Molnar,  W. A. Goddard III,  
 A. Golubeva-Zadorozhnaya,  S. R. Gwaltney,  G. Hawkins,  A. Heyden,  
 S. Hirata,  G. Kedziora,  F. J. Keil,  C. Kelley,  Jihan Kim,  R. A. King,  
 R. Z. Khaliullin,  P. P. Korambath,  W. Kurlancheek,  A. M. Lee,  M. S. Lee,  
 S. V. Levchenko,  Ching Yeh Lin,  D. Liotard,  R. C. Lochan,  I. Lotan,  
 P. E. Maslen,  N. Nair,  D. P. O'Neill,  D. Neuhauser,  E. Neuscamman,  
 C. M. Oana,  R. Olson,  B. Peters,  R. Peverati,  P. A. Pieniazek,  
 Y. M. Rhee,  J. Ritchie,  M. A. Rohrdanz,  E. Rosta,  N. J. Russ,  
 H. F. Schaefer III,  N. E. Schultz,  N. Shenvi,  A. C. Simmonett,  A. Sodt,  
 D. Stuck,  K. S. Thanthiriwatte,  V. Vanovschi,  Tao Wang,  A. Warshel,  
 C. F. Williams,  Q. Wu,  X. Xu,  W. Zhang

 Please cite Q-Chem as follows:
 Y. Shao et al., Mol. Phys. 113, 184-215 (2015)
 DOI: 10.1080/00268976.2014.952696

 Q-Chem 5.3.0 for Intel X86 EM64T Linux

 Parts of Q-Chem use Armadillo 9.800.1 (Horizon Scraper).
 http://arma.sourceforge.net/

 Q-Chem begins on Sun Aug 23 03:39:35 2020  

n0032.mhg0
Host: 0

     Scratch files written to /local/scratch/users/yhljason/HCHS_SPW92_aug-pc-4.inp20200822215627//
Processing $rem in /clusterfs/mhg/diptarka/qchem_transmom//config/preferences:
Processing $rem in /global/home/users/yhljason/.qchemrc:

Checking the input file for inconsistencies... 	...done.

--------------------------------------------------------------
User input:
--------------------------------------------------------------
$molecule
0 1
S1      0.0000  0.0000  0.5846
C2      0.0000  0.0000  -1.0262
H3      0.0000  0.9244  -1.5980
H4      0.0000  -0.9244 -1.5980
$end

$rem
jobtype sp
method SPW92
xc_grid 000099000590
basis aug-pc-4
max_scf_cycles 200
thresh 14
scf_convergence 8
scf_algorithm gdm
symmetry false
sym_ignore true
unrestricted true
gen_scfman true
internal_stability_iter 15
internal_stability_davidson_iter 200
mem_total 64000
mem_static 1500
n_frozen_core 0
$end


--------------------------------------------------------------
 ----------------------------------------------------------------
             Standard Nuclear Orientation (Angstroms)
    I     Atom           X                Y                Z
 ----------------------------------------------------------------
    1      S       0.0000000000     0.0000000000     0.5846000000
    2      C       0.0000000000     0.0000000000    -1.0262000000
    3      H       0.0000000000     0.9244000000    -1.5980000000
    4      H       0.0000000000    -0.9244000000    -1.5980000000
 ----------------------------------------------------------------
 Nuclear Repulsion Energy =          44.81025132 hartrees
 There are       12 alpha and       12 beta electrons
 Requested basis set is aug-pc-4
 There are 112 shells and 462 basis functions

 Total QAlloc Memory Limit  64000 MB
 Mega-Array Size      1467 MB
 MEM_STATIC part      1500 MB

                       Distance Matrix (Angstroms)
             S (  1)   C (  2)   H (  3)
   C (  2)  1.610800
   H (  3)  2.370287  1.086955
   H (  4)  2.370287  1.086955  1.848800

 A cutoff of  1.0D-14 yielded   6256 shell pairs
 There are    107410 function pairs (    198118 Cartesian)
 Smallest overlap matrix eigenvalue = 7.79E-08
 Linear dependence detected in AO basis
 Tighter screening thresholds may be required for diffuse basis sets
 Use S2THRESH > 14 and THRESH = 14 in case of SCF convergence issues
 Number of orthogonalized atomic orbitals = 460
 Maximum deviation from orthogonality = 3.160E-10

 Scale SEOQF with 1.000000e-01/1.000000e-01/1.000000e-01

 Standard Electronic Orientation quadrupole field applied
 Nucleus-field energy     =    -0.0000000017 hartrees
 Guess from superposition of atomic densities
 Warning:  Energy on first SCF cycle will be non-variational
 SAD guess density has 24.000000 electrons

 -----------------------------------------------------------------------
  General SCF calculation program by
  Eric Jon Sundstrom, Paul Horn, Yuezhi Mao, Dmitri Zuev, Alec White,
  David Stuck, Shaama M.S., Shane Yost, Joonho Lee, David Small,
  Daniel Levine, Susi Lehtola, Hugh Burton, Evgeny Epifanovsky,
  Bang C. Huynh
 -----------------------------------------------------------------------
 Exchange:  Slater      Correlation:  PW92
 Using Euler-Maclaurin-Lebedev (99,590) quadrature formula
Running Object-Oriented UKS (UHF)
performing a single roothaan step with Fock from read density so that orbitals are available to all algorithms
energy of the guess density (C=0) -435.897522573399
We will preform up to 15 macro iterations over saddle points until a stable solution is found
Energy prior to optimization (guess energy) = -435.690647201304
Begin Timing: Total SCF Calculation
Begin Timing: SCF Single Stationary Point Calculation
begin iterations for algorithm: GDM          
the SCF tolerance is set to 1.00e-08
    1    -435.6906472013      3.28e-01     00000  Descent step
    2    -435.6831526474      7.04e-01     00000 Line search: overstep
    3    -435.7492829358      7.82e-02     00000  Normal BFGS step
    4    -435.7426830521      9.44e-02     00000 Line search: overstep
    5    -435.7589801604      7.25e-03     00000  Normal BFGS step
    6    -435.7595540578      2.70e-03     00000  Normal BFGS step
    7    -435.7596662465      9.55e-04     00000  Normal BFGS step
    8    -435.7596743948      3.17e-04     00000  Normal BFGS step
    9    -435.7596762956      1.78e-05     00000  Normal BFGS step
   10    -435.7596763006      4.10e-06     00000  Normal BFGS step
   11    -435.7596763008      5.82e-07     00000  Normal BFGS step
   12    -435.7596763008      6.43e-07     00000  Normal BFGS step
   13    -435.7596763008      1.81e-06     00000  Normal BFGS step
   14    -435.7596763008      3.01e-07     00000  Normal BFGS step
   15    -435.7596763008      6.26e-08     00000  Normal BFGS step
   16    -435.7596763008      1.63e-08     00000  Normal BFGS step
   17    -435.7596763008      7.82e-09     00000 Convergence criterion met
Timing for Single Stationary Point: 4150.00s (wall), 32651.72s (cpu)
Begin Timing: Stability
===================================================
Beginning Test for Internal Stability
===================================================
generating davidson guess vectors based on koopmans excitations
 Warning: Hessian-vector products not implemented
 Finite difference Hessian-vector products will be used.
computing hessian-vector products by finite difference
    1      6.61e-01     00000 Davidson Iteration
computing hessian-vector products by finite difference
    2      8.23e-02     00000 Davidson Iteration
computing hessian-vector products by finite difference
    3      3.22e-03     00000 Davidson Iteration
computing hessian-vector products by finite difference
    4      5.25e-04     00000 Davidson Iteration
computing hessian-vector products by finite difference
    5      1.53e-04     00000 Davidson Iteration
computing hessian-vector products by finite difference
    6      3.28e-05     00000 Davidson Converged
converged_eigenvalues
   0.0977
   0.1705
Threshold for negative eigenvalues: -1.0e-05
solution was a local minimum (stable)
===================================================
End Test for Internal Stability
===================================================
Timing for Internal Stability: 7358.00s (wall), 57859.58s (cpu)
Our SCF solution is stable!
Timing for Total SCF: 11508.00s (wall), 90511.50s (cpu)
 Total energy in the final basis set =     -435.7596763008
<S^2> =         -0.000000000
    ==================================================
              The end of Object-Oriented SCFman       
    ==================================================

 --------------------------------------------------------------

                    Orbital Energies (a.u.)
 --------------------------------------------------------------

 Alpha MOs
 -- Occupied --
-87.7048  -9.8550  -7.6422  -5.6981  -5.6947  -5.6859  -0.7323  -0.5484
 -0.4221  -0.3633  -0.3047  -0.2060
 -- Virtual --
 -0.1402  -0.0186   0.0043   0.0095   0.0164   0.0255   0.0368   0.0398
  0.0417   0.0509   0.0523   0.0552   0.0605   0.0704   0.0750   0.0784
  0.0952   0.1064   0.1100   0.1164   0.1166   0.1178   0.1216   0.1293
  0.1316   0.1372   0.1503   0.1531   0.1605   0.1665   0.1723   0.1728
  0.1869   0.1934   0.1964   0.1965   0.2105   0.2143   0.2199   0.2240
  0.2276   0.2299   0.2410   0.2415   0.2434   0.2494   0.2580   0.2758
  0.2846   0.2892   0.2918   0.2922   0.3111   0.3142   0.3158   0.3175
  0.3257   0.3258   0.3364   0.3364   0.3415   0.3455   0.3622   0.3690
  0.3740   0.3823   0.3955   0.4001   0.4022   0.4088   0.4112   0.4120
  0.4140   0.4246   0.4414   0.4496   0.4531   0.4533   0.4556   0.4617
  0.4624   0.4674   0.4740   0.4965   0.5081   0.5133   0.5143   0.5163
  0.5249   0.5249   0.5273   0.5329   0.5420   0.5430   0.5576   0.5590
  0.5606   0.5676   0.5770   0.5883   0.5977   0.5996   0.6006   0.6041
  0.6042   0.6139   0.6331   0.6410   0.6499   0.6535   0.6627   0.6638
  0.6849   0.6940   0.6949   0.7129   0.7151   0.7211   0.7215   0.7390
  0.7427   0.7609   0.7634   0.7675   0.7713   0.7819   0.7854   0.7946
  0.7951   0.7979   0.7987   0.8146   0.8155   0.8211   0.8385   0.8386
  0.8430   0.8506   0.8527   0.8586   0.8627   0.8653   0.8714   0.8741
  0.8762   0.8842   0.8847   0.8967   0.8981   0.8982   0.9048   0.9168
  0.9214   0.9319   0.9581   0.9594   0.9655   0.9766   0.9915   1.0006
  1.0309   1.0453   1.0694   1.1069   1.1412   1.1557   1.1920   1.2261
  1.2302   1.2495   1.3260   1.3298   1.3329   1.3549   1.3752   1.3756
  1.3862   1.3992   1.4356   1.4693   1.4803   1.5131   1.5195   1.5497
  1.5600   1.5646   1.5714   1.5878   1.6116   1.6336   1.6827   1.7003
  1.7242   1.7574   1.7733   1.7760   1.7992   2.0006   2.0117   2.0284
  2.0347   2.0659   2.0863   2.1004   2.1478   2.1626   2.1793   2.2489
  2.2929   2.3201   2.3267   2.3666   2.4125   2.4472   2.4837   2.5603
  2.5622   2.5886   2.6231   2.7077   2.7359   2.7861   2.8034   2.8398
  2.8647   2.9293   2.9833   3.1055   3.1193   3.1814   3.2054   3.2300
  3.3097   3.3263   3.3727   3.3928   3.4333   3.4836   3.5081   3.5244
  3.5277   3.5364   3.5492   3.5580   3.5894   3.5940   3.6127   3.6252
  3.6341   3.7097   3.7874   3.8741   3.9376   3.9456   3.9521   3.9773
  4.1068   4.1271   4.1397   4.1712   4.3226   4.3367   4.4257   4.4424
  4.4988   4.5115   4.5157   4.6111   4.6119   4.6298   4.6760   4.7134
  4.7582   4.8563   4.8977   4.9182   5.0982   5.1351   5.1409   5.1698
  5.1818   5.1896   5.3025   5.3162   5.3347   5.3982   5.4090   5.4319
  5.5554   5.5844   5.6846   5.6887   5.7518   5.7543   5.7850   5.8184
  5.9052   5.9796   6.1933   6.2197   6.2834   6.2946   6.3825   6.4151
  6.5611   6.5962   6.6339   6.7953   6.8627   6.9153   7.1371   7.3996
  7.4764   7.6458   7.8166   8.1843   8.1885   8.2595   8.3092   8.4469
  8.4922   8.5546   8.6417   8.7130   8.7678   8.8445   8.9113   8.9825
  9.0228   9.0390   9.0826   9.0929   9.1471   9.2024   9.2047   9.4379
  9.8027   9.8675  10.4586  10.5531  10.6629  10.6770  10.6786  10.7981
 10.8310  10.9383  11.0039  11.0315  11.1450  11.1643  11.2185  11.3795
 11.4532  11.5391  11.5689  11.5748  11.5828  11.6130  11.6433  11.6576
 11.6689  11.8426  11.8921  12.0895  12.1345  12.2318  12.3119  12.4058
 12.4483  12.4528  12.4666  12.4969  12.7047  12.7370  12.7372  12.9217
 13.0053  13.0394  13.1679  13.2468  13.2896  13.4190  13.4635  13.5926
 13.6532  13.7179  14.1650  14.3086  14.3701  14.8868  15.0836  15.3037
 15.6194  16.0596  16.1922  16.7219  16.7228  16.7351  16.7388  16.9303
 16.9536  17.0002  17.0245  17.1567  17.1691  17.2384  17.2651  17.4321
 17.9965  18.3164  18.5185  18.5584  18.6145  18.9322  19.8289  19.9287
 20.1150  20.1347  20.2871  20.3871  21.1971  21.3070  23.4889  23.5576
 23.6160  23.9492  25.3797  25.6427  31.6575  32.1217  32.2355  32.7593
 33.4153  33.6826  41.1084  41.1659  62.4004  62.4184  62.5110  62.6155
 63.0787  75.5845  91.1028  91.1521  91.1875  91.4047  92.3685  92.5082

 Beta MOs
 -- Occupied --
-87.7048  -9.8550  -7.6422  -5.6981  -5.6947  -5.6859  -0.7323  -0.5484
 -0.4221  -0.3633  -0.3047  -0.2060
 -- Virtual --
 -0.1402  -0.0186   0.0043   0.0095   0.0164   0.0255   0.0368   0.0398
  0.0417   0.0509   0.0523   0.0552   0.0605   0.0704   0.0750   0.0784
  0.0952   0.1064   0.1100   0.1164   0.1166   0.1178   0.1216   0.1293
  0.1316   0.1372   0.1503   0.1531   0.1605   0.1665   0.1723   0.1728
  0.1869   0.1934   0.1964   0.1965   0.2105   0.2143   0.2199   0.2240
  0.2276   0.2299   0.2410   0.2415   0.2434   0.2494   0.2580   0.2758
  0.2846   0.2892   0.2918   0.2922   0.3111   0.3142   0.3158   0.3175
  0.3257   0.3258   0.3364   0.3364   0.3415   0.3455   0.3622   0.3690
  0.3740   0.3823   0.3955   0.4001   0.4022   0.4088   0.4112   0.4120
  0.4140   0.4246   0.4414   0.4496   0.4531   0.4533   0.4556   0.4617
  0.4624   0.4674   0.4740   0.4965   0.5081   0.5133   0.5143   0.5163
  0.5249   0.5249   0.5273   0.5329   0.5420   0.5430   0.5576   0.5590
  0.5606   0.5676   0.5770   0.5883   0.5977   0.5996   0.6006   0.6041
  0.6042   0.6139   0.6331   0.6410   0.6499   0.6535   0.6627   0.6638
  0.6849   0.6940   0.6949   0.7129   0.7151   0.7211   0.7215   0.7390
  0.7427   0.7609   0.7634   0.7675   0.7713   0.7819   0.7854   0.7946
  0.7951   0.7979   0.7987   0.8146   0.8155   0.8211   0.8385   0.8386
  0.8430   0.8506   0.8527   0.8586   0.8627   0.8653   0.8714   0.8741
  0.8762   0.8842   0.8847   0.8967   0.8981   0.8982   0.9048   0.9168
  0.9214   0.9319   0.9581   0.9594   0.9655   0.9766   0.9915   1.0006
  1.0309   1.0453   1.0694   1.1069   1.1412   1.1557   1.1920   1.2261
  1.2302   1.2495   1.3260   1.3298   1.3329   1.3549   1.3752   1.3756
  1.3862   1.3992   1.4356   1.4693   1.4803   1.5131   1.5195   1.5497
  1.5600   1.5646   1.5714   1.5878   1.6116   1.6336   1.6827   1.7003
  1.7242   1.7574   1.7733   1.7760   1.7992   2.0006   2.0117   2.0284
  2.0347   2.0659   2.0863   2.1004   2.1478   2.1626   2.1793   2.2489
  2.2929   2.3201   2.3267   2.3666   2.4125   2.4472   2.4837   2.5603
  2.5622   2.5886   2.6231   2.7077   2.7359   2.7861   2.8034   2.8398
  2.8647   2.9293   2.9833   3.1055   3.1193   3.1814   3.2054   3.2300
  3.3097   3.3263   3.3727   3.3928   3.4333   3.4836   3.5081   3.5244
  3.5277   3.5364   3.5492   3.5580   3.5894   3.5940   3.6127   3.6252
  3.6341   3.7097   3.7874   3.8741   3.9376   3.9456   3.9521   3.9773
  4.1068   4.1271   4.1397   4.1712   4.3226   4.3367   4.4257   4.4424
  4.4988   4.5115   4.5157   4.6111   4.6119   4.6298   4.6760   4.7134
  4.7582   4.8563   4.8977   4.9182   5.0982   5.1351   5.1409   5.1698
  5.1818   5.1896   5.3025   5.3162   5.3347   5.3982   5.4090   5.4319
  5.5554   5.5844   5.6846   5.6887   5.7518   5.7543   5.7850   5.8184
  5.9052   5.9796   6.1933   6.2197   6.2834   6.2946   6.3825   6.4151
  6.5611   6.5962   6.6339   6.7953   6.8627   6.9153   7.1371   7.3996
  7.4764   7.6458   7.8166   8.1843   8.1885   8.2595   8.3092   8.4469
  8.4922   8.5546   8.6417   8.7130   8.7678   8.8445   8.9113   8.9825
  9.0228   9.0390   9.0826   9.0929   9.1471   9.2024   9.2047   9.4379
  9.8027   9.8675  10.4586  10.5531  10.6629  10.6770  10.6786  10.7981
 10.8310  10.9383  11.0039  11.0315  11.1450  11.1643  11.2185  11.3795
 11.4532  11.5391  11.5689  11.5748  11.5828  11.6130  11.6433  11.6576
 11.6689  11.8426  11.8921  12.0895  12.1345  12.2318  12.3119  12.4058
 12.4483  12.4528  12.4666  12.4969  12.7047  12.7370  12.7372  12.9217
 13.0053  13.0394  13.1679  13.2468  13.2896  13.4190  13.4635  13.5926
 13.6532  13.7179  14.1650  14.3086  14.3701  14.8868  15.0836  15.3037
 15.6194  16.0596  16.1922  16.7219  16.7228  16.7351  16.7388  16.9303
 16.9536  17.0002  17.0245  17.1567  17.1691  17.2384  17.2651  17.4321
 17.9965  18.3164  18.5185  18.5584  18.6145  18.9322  19.8289  19.9287
 20.1150  20.1347  20.2871  20.3871  21.1971  21.3070  23.4889  23.5576
 23.6160  23.9492  25.3797  25.6427  31.6575  32.1217  32.2355  32.7593
 33.4153  33.6826  41.1084  41.1659  62.4004  62.4184  62.5110  62.6155
 63.0787  75.5845  91.1028  91.1521  91.1875  91.4047  92.3685  92.5082
 --------------------------------------------------------------

          Ground-State Mulliken Net Atomic Charges

     Atom                 Charge (a.u.)    Spin (a.u.)
  --------------------------------------------------------
      1 S                    -0.148044       0.000000
      2 C                    -0.009211       0.000000
      3 H                     0.078628       0.000000
      4 H                     0.078628       0.000000
  --------------------------------------------------------
  Sum of atomic charges =    -0.000000
  Sum of spin   charges =     0.000000

 -----------------------------------------------------------------
                    Cartesian Multipole Moments
 -----------------------------------------------------------------
    Charge (ESU x 10^10)
                -0.0000
    Dipole Moment (Debye)
         X       0.0000      Y       0.0000      Z      -1.6663
       Tot       1.6663
    Quadrupole Moments (Debye-Ang)
        XX     -19.9209     XY       0.0000     YY     -20.5304
        XZ       0.0000     YZ      -0.0000     ZZ     -17.4524
    Octopole Moments (Debye-Ang^2)
       XXX       0.0000    XXY      -0.0000    XYY       0.0000
       YYY       0.0000    XXZ       1.0292    XYZ       0.0000
       YYZ      -3.3259    XZZ      -0.0000    YZZ      -0.0000
       ZZZ      -1.4838
    Hexadecapole Moments (Debye-Ang^3)
      XXXX     -25.2914   XXXY       0.0000   XXYY     -10.6971
      XYYY       0.0000   YYYY     -36.1230   XXXZ       0.0000
      XXYZ       0.0000   XYYZ      -0.0000   YYYZ      -0.0000
      XXZZ     -22.0248   XYZZ       0.0000   YYZZ     -22.0684
      XZZZ       0.0000   YZZZ       0.0000   ZZZZ    -101.6326
 -----------------------------------------------------------------
Archival summary:
1\1\n0032.mhg0\SP\ProcedureUnspecified\BasisUnspecified\112\yhljason\SunAug2306:59:352020SunAug2306:59:352020\0\\#,ProcedureUnspecified,BasisUnspecified,\\0,1\S\C,1,1.6108\H,2,1.08695,1,121.739\H,2,1.08695,1,121.739,3,-180,0\\\@

 Total job time:  12000.38s(wall), 94378.14s(cpu) 
 Sun Aug 23 06:59:35 2020

        *************************************************************
        *                                                           *
        *  Thank you very much for using Q-Chem.  Have a nice day.  *
        *                                                           *
        *************************************************************


