                  Welcome to Q-Chem
     A Quantum Leap Into The Future Of Chemistry


 Q-Chem 5.3 (devel), Q-Chem, Inc., Pleasanton, CA (2020)

 Yihan Shao,  Zhengting Gan,  E. Epifanovsky,  A. T. B. Gilbert,  M. Wormit,  
 J. Kussmann,  A. W. Lange,  A. Behn,  Jia Deng,  Xintian Feng,  D. Ghosh,  
 M. Goldey,  P. R. Horn,  L. D. Jacobson,  I. Kaliman,  T. Kus,  A. Landau,  
 Jie Liu,  E. I. Proynov,  R. M. Richard,  R. P. Steele,  E. J. Sundstrom,  
 H. L. Woodcock III,  P. M. Zimmerman,  D. Zuev,  B. Alam,  B. Albrecht,  
 E. Alguire,  S. A. Baeppler,  D. Barton,  Z. Benda,  Y. A. Bernard,  
 E. J. Berquist,  K. B. Bravaya,  H. Burton,  K. Carter-Fenk,  D. Casanova,  
 Chun-Min Chang,  Yunqing Chen,  A. Chien,  K. D. Closser,  M. P. Coons,  
 S. Coriani,  S. Dasgupta,  A. L. Dempwolff,  M. Diedenhofen,  Hainam Do,  
 R. G. Edgar,  Po-Tung Fang,  S. Faraji,  S. Fatehi,  Qingguo Feng,  
 J. Fosso-Tande,  J. Gayvert,  Qinghui Ge,  A. Ghysels,  G. Gidofalvi,  
 J. Gomes,  J. Gonthier,  A. Gunina,  D. Hait,  M. W. D. Hanson-Heine,  
 P. H. P. Harbach,  A. W. Hauser,  M. F. Herbst,  J. E. Herr,  
 E. G. Hohenstein,  Z. C. Holden,  Kerwin Hui,  B. C. Huynh,  T.-C. Jagau,  
 Hyunjun Ji,  B. Kaduk,  K. Khistyaev,  Jaehoon Kim,  P. Klunzinger,  K. Koh,  
 D. Kosenkov,  L. Koulias,  T. Kowalczyk,  C. M. Krauter,  A. Kunitsa,  
 Ka Un Lao,  A. Laurent,  K. V. Lawler,  Joonho Lee,  D. Lefrancois,  
 S. Lehtola,  D. S. Levine,  Yi-Pei Li,  You-Sheng Lin,  Fenglai Liu,  
 Kuan-Yu Liu,  E. Livshits,  M. Loipersberger,  A. Luenser,  P. Manohar,  
 E. Mansoor,  S. F. Manzer,  Shan-Ping Mao,  Yuezhi Mao,  N. Mardirossian,  
 A. V. Marenich,  T. Markovich,  L. A. Martinez-Martinez,  S. A. Maurer,  
 N. J. Mayhall,  S. C. McKenzie,  J.-M. Mewes,  P. Morgante,  A. F. Morrison,  
 J. W. Mullinax,  K. Nanda,  T. S. Nguyen-Beck,  R. Olivares-Amaya,  
 K. J. Oosterbaan,  J. A. Parkhill,  S. K. Paul,  F. Pavosevic,  Zheng Pei,  
 T. M. Perrine,  F. Plasser,  P. Pokhilko,  S. Prager,  A. Prociuk,  
 E. Ramos,  B. Rana,  D. R. Rehn,  F. Rob,  M. Scheurer,  M. Schneider,  
 N. Sergueev,  S. M. Sharada,  S. Sharma,  D. W. Small,  T. Stauch,  
 C. J. Stein,  T. Stein,  Yu-Chuan Su,  S. P. Veccham,  Zhen Tao,  
 A. J. W. Thom,  A. Tkatchenko,  T. Tsuchimochi,  N. M. Tubman,  L. Vogt,  
 M. L. Vidal,  O. Vydrov,  M. A. Watson,  J. Wenzel,  M. de Wergifosse,  
 T. A. Wesolowski,  A. White,  J. Witte,  A. Yamada,  Jun Yang,  K. Yao,  
 S. Yeganeh,  S. R. Yost,  Zhi-Qiang You,  A. Zech,  Igor Ying Zhang,  
 Xing Zhang,  Yan Zhao,  Ying Zhu,  B. R. Brooks,  G. K. L. Chan,  
 C. J. Cramer,  M. S. Gordon,  W. J. Hehre,  A. Klamt,  M. W. Schmidt,  
 C. D. Sherrill,  D. G. Truhlar,  A. Aspuru-Guzik,  R. Baer,  A. T. Bell,  
 N. A. Besley,  Jeng-Da Chai,  A. E. DePrince, III,  R. A. DiStasio Jr.,  
 A. Dreuw,  B. D. Dunietz,  T. R. Furlani,  Chao-Ping Hsu,  Yousung Jung,  
 Jing Kong,  D. S. Lambrecht,  WanZhen Liang,  C. Ochsenfeld,  
 V. A. Rassolov,  L. V. Slipchenko,  J. E. Subotnik,  T. Van Voorhis,  
 J. M. Herbert,  A. I. Krylov,  P. M. W. Gill,  M. Head-Gordon

 Contributors to earlier versions of Q-Chem not listed above: 
 R. D. Adamson,  B. Austin,  J. Baker,  G. J. O. Beran,  K. Brandhorst,  
 S. T. Brown,  E. F. C. Byrd,  A. K. Chakraborty,  C.-L. Cheng,  
 Siu Hung Chien,  D. M. Chipman,  D. L. Crittenden,  H. Dachsel,  
 R. J. Doerksen,  A. D. Dutoi,  L. Fusti-Molnar,  W. A. Goddard III,  
 A. Golubeva-Zadorozhnaya,  S. R. Gwaltney,  G. Hawkins,  A. Heyden,  
 S. Hirata,  G. Kedziora,  F. J. Keil,  C. Kelley,  Jihan Kim,  R. A. King,  
 R. Z. Khaliullin,  P. P. Korambath,  W. Kurlancheek,  A. M. Lee,  M. S. Lee,  
 S. V. Levchenko,  Ching Yeh Lin,  D. Liotard,  R. C. Lochan,  I. Lotan,  
 P. E. Maslen,  N. Nair,  D. P. O'Neill,  D. Neuhauser,  E. Neuscamman,  
 C. M. Oana,  R. Olson,  B. Peters,  R. Peverati,  P. A. Pieniazek,  
 Y. M. Rhee,  J. Ritchie,  M. A. Rohrdanz,  E. Rosta,  N. J. Russ,  
 H. F. Schaefer III,  N. E. Schultz,  N. Shenvi,  A. C. Simmonett,  A. Sodt,  
 D. Stuck,  K. S. Thanthiriwatte,  V. Vanovschi,  Tao Wang,  A. Warshel,  
 C. F. Williams,  Q. Wu,  X. Xu,  W. Zhang

 Please cite Q-Chem as follows:
 Y. Shao et al., Mol. Phys. 113, 184-215 (2015)
 DOI: 10.1080/00268976.2014.952696

 Q-Chem 5.3.0 for Intel X86 EM64T Linux

 Parts of Q-Chem use Armadillo 9.800.1 (Horizon Scraper).
 http://arma.sourceforge.net/

 Q-Chem begins on Sun Aug 23 03:27:51 2020  

n0055.mhg0
Host: 0

     Scratch files written to /local/scratch/users/yhljason/HCHS_M06-2X_aug-pc-4.inp20200822215626//
Processing $rem in /clusterfs/mhg/diptarka/qchem_transmom//config/preferences:
Processing $rem in /global/home/users/yhljason/.qchemrc:

Checking the input file for inconsistencies... 	...done.

--------------------------------------------------------------
User input:
--------------------------------------------------------------
$molecule
0 1
S1      0.0000  0.0000  0.5846
C2      0.0000  0.0000  -1.0262
H3      0.0000  0.9244  -1.5980
H4      0.0000  -0.9244 -1.5980
$end

$rem
jobtype sp
method M06-2X
xc_grid 000099000590
basis aug-pc-4
max_scf_cycles 200
thresh 14
scf_convergence 8
scf_algorithm gdm
symmetry false
sym_ignore true
unrestricted true
gen_scfman true
internal_stability_iter 15
internal_stability_davidson_iter 200
mem_total 64000
mem_static 1500
n_frozen_core 0
$end


--------------------------------------------------------------
 ----------------------------------------------------------------
             Standard Nuclear Orientation (Angstroms)
    I     Atom           X                Y                Z
 ----------------------------------------------------------------
    1      S       0.0000000000     0.0000000000     0.5846000000
    2      C       0.0000000000     0.0000000000    -1.0262000000
    3      H       0.0000000000     0.9244000000    -1.5980000000
    4      H       0.0000000000    -0.9244000000    -1.5980000000
 ----------------------------------------------------------------
 Nuclear Repulsion Energy =          44.81025132 hartrees
 There are       12 alpha and       12 beta electrons
 Requested basis set is aug-pc-4
 There are 112 shells and 462 basis functions

 Total QAlloc Memory Limit  64000 MB
 Mega-Array Size      1467 MB
 MEM_STATIC part      1500 MB

                       Distance Matrix (Angstroms)
             S (  1)   C (  2)   H (  3)
   C (  2)  1.610800
   H (  3)  2.370287  1.086955
   H (  4)  2.370287  1.086955  1.848800

 A cutoff of  1.0D-14 yielded   6256 shell pairs
 There are    107410 function pairs (    198118 Cartesian)
 Smallest overlap matrix eigenvalue = 7.79E-08
 Linear dependence detected in AO basis
 Tighter screening thresholds may be required for diffuse basis sets
 Use S2THRESH > 14 and THRESH = 14 in case of SCF convergence issues
 Number of orthogonalized atomic orbitals = 460
 Maximum deviation from orthogonality = 3.160E-10

 Scale SEOQF with 1.000000e-01/1.000000e-01/1.000000e-01

 Standard Electronic Orientation quadrupole field applied
 Nucleus-field energy     =    -0.0000000017 hartrees
 Guess from superposition of atomic densities
 Warning:  Energy on first SCF cycle will be non-variational
 SAD guess density has 24.000000 electrons

 -----------------------------------------------------------------------
  General SCF calculation program by
  Eric Jon Sundstrom, Paul Horn, Yuezhi Mao, Dmitri Zuev, Alec White,
  David Stuck, Shaama M.S., Shane Yost, Joonho Lee, David Small,
  Daniel Levine, Susi Lehtola, Hugh Burton, Evgeny Epifanovsky,
  Bang C. Huynh
 -----------------------------------------------------------------------
 Exchange:     0.5400 Hartree-Fock + 1.0000 M06-2X
 Correlation:  1.0000 M06-2X
 Using Euler-Maclaurin-Lebedev (99,590) quadrature formula
Running Object-Oriented UKS (UHF)
performing a single roothaan step with Fock from read density so that orbitals are available to all algorithms
energy of the guess density (C=0) -437.664299827676
We will preform up to 15 macro iterations over saddle points until a stable solution is found
Energy prior to optimization (guess energy) = -437.457705806163
Begin Timing: Total SCF Calculation
Begin Timing: SCF Single Stationary Point Calculation
begin iterations for algorithm: GDM          
the SCF tolerance is set to 1.00e-08
    1    -437.4577058062      4.15e-02     00000  Normal BFGS step
    2    -437.4643981983      2.78e-02     00000  Normal BFGS step
    3    -437.4666645467      1.48e-02     00000  Normal BFGS step
    4    -437.4666986699      8.48e-03     00000  Normal BFGS step
    5    -437.4669146479      3.92e-04     00000  Normal BFGS step
    6    -437.4669162715      1.42e-04     00000  Normal BFGS step
    7    -437.4669165402      4.95e-05     00000  Normal BFGS step
    8    -437.4669165512      8.90e-06     00000  Normal BFGS step
    9    -437.4669165518      9.63e-07     00000  Normal BFGS step
   10    -437.4669165518      2.04e-07     00000  Normal BFGS step
   11    -437.4669165518      3.72e-08     00000  Normal BFGS step
   12    -437.4669165518      7.46e-08     00000  Normal BFGS step
   13    -437.4669165518      2.59e-08     00000  Normal BFGS step
   14    -437.4669165518      1.95e-09     00000 Convergence criterion met
Timing for Single Stationary Point: 3120.00s (wall), 24641.94s (cpu)
Begin Timing: Stability
===================================================
Beginning Test for Internal Stability
===================================================
generating davidson guess vectors based on koopmans excitations
 Warning: Hessian-vector products not implemented
 Finite difference Hessian-vector products will be used.
computing hessian-vector products by finite difference
    1      6.88e-01     00000 Davidson Iteration
computing hessian-vector products by finite difference
    2      6.35e-02     00000 Davidson Iteration
computing hessian-vector products by finite difference
    3      5.12e-03     00000 Davidson Iteration
computing hessian-vector products by finite difference
    4      1.10e-03     00000 Davidson Iteration
computing hessian-vector products by finite difference
    5      6.28e-04     00000 Davidson Iteration
computing hessian-vector products by finite difference
    6      7.50e-05     00000 Davidson Iteration
computing hessian-vector products by finite difference
    7      1.40e-04     00000 Davidson Iteration
computing hessian-vector products by finite difference
    8      2.71e-05     00000 Davidson Converged
converged_eigenvalues
   0.1797
   0.1139
Threshold for negative eigenvalues: -1.0e-05
solution was a local minimum (stable)
===================================================
End Test for Internal Stability
===================================================
Timing for Internal Stability: 8895.00s (wall), 70236.34s (cpu)
Our SCF solution is stable!
Timing for Total SCF: 12015.00s (wall), 94878.45s (cpu)
 Total energy in the final basis set =     -437.4669165518
<S^2> =          0.000000000
    ==================================================
              The end of Object-Oriented SCFman       
    ==================================================

 --------------------------------------------------------------

                    Orbital Energies (a.u.)
 --------------------------------------------------------------

 Alpha MOs
 -- Occupied --
-89.8881 -10.6147  -8.2608  -6.1816  -6.1801  -6.1760  -0.8931  -0.6841
 -0.5383  -0.4576  -0.3782  -0.2922
 -- Virtual --
 -0.0615  -0.0073   0.0094   0.0115   0.0143   0.0316   0.0338   0.0387
  0.0450   0.0561   0.0597   0.0644   0.0700   0.0812   0.0850   0.0945
  0.1002   0.1100   0.1128   0.1129   0.1160   0.1171   0.1227   0.1356
  0.1439   0.1506   0.1567   0.1645   0.1658   0.1666   0.1814   0.1866
  0.1930   0.1940   0.1974   0.2065   0.2067   0.2244   0.2317   0.2349
  0.2351   0.2392   0.2463   0.2593   0.2634   0.2674   0.2690   0.2731
  0.2812   0.2862   0.2952   0.2968   0.2975   0.3124   0.3165   0.3187
  0.3257   0.3268   0.3379   0.3424   0.3433   0.3542   0.3561   0.3605
  0.3704   0.3926   0.3978   0.3982   0.4004   0.4107   0.4192   0.4219
  0.4264   0.4313   0.4368   0.4516   0.4534   0.4552   0.4585   0.4628
  0.4685   0.4844   0.4860   0.4919   0.5110   0.5175   0.5180   0.5222
  0.5230   0.5264   0.5379   0.5433   0.5474   0.5538   0.5676   0.5718
  0.5755   0.5804   0.5860   0.5916   0.6121   0.6145   0.6174   0.6210
  0.6225   0.6230   0.6331   0.6460   0.6725   0.6746   0.6756   0.6811
  0.6878   0.6975   0.7009   0.7070   0.7126   0.7190   0.7223   0.7416
  0.7432   0.7558   0.7564   0.7642   0.7725   0.7858   0.7868   0.7910
  0.7934   0.7941   0.8049   0.8132   0.8204   0.8209   0.8339   0.8349
  0.8447   0.8478   0.8498   0.8540   0.8627   0.8704   0.8770   0.8797
  0.8866   0.8939   0.8953   0.8972   0.9085   0.9089   0.9269   0.9288
  0.9336   0.9381   0.9466   0.9518   0.9757   0.9800   1.0317   1.0435
  1.0787   1.0801   1.1241   1.1482   1.2044   1.2144   1.2420   1.2910
  1.3031   1.3145   1.3678   1.3819   1.3822   1.4006   1.4126   1.4334
  1.4509   1.4539   1.4830   1.5219   1.5341   1.5538   1.5717   1.6030
  1.6050   1.6078   1.6276   1.6563   1.6571   1.6797   1.7247   1.7511
  1.7968   1.8021   1.8151   1.8279   1.8490   2.0576   2.0578   2.0818
  2.0848   2.1315   2.1483   2.1546   2.2239   2.2266   2.2377   2.3029
  2.3652   2.3887   2.3938   2.4353   2.4770   2.5082   2.5492   2.6101
  2.6123   2.6389   2.6850   2.7709   2.7875   2.8462   2.8694   2.8870
  2.9135   2.9881   3.0182   3.1514   3.1693   3.2320   3.2434   3.2917
  3.3612   3.3898   3.4240   3.4487   3.4744   3.5169   3.5612   3.5691
  3.5837   3.5942   3.6013   3.6260   3.6365   3.6466   3.6507   3.6741
  3.6877   3.7335   3.8373   3.9265   3.9692   4.0035   4.0132   4.0548
  4.1546   4.1776   4.1835   4.1963   4.3502   4.3522   4.4600   4.4722
  4.5232   4.5442   4.5531   4.6280   4.6392   4.6480   4.6881   4.7446
  4.7854   4.8589   4.8911   4.9444   5.0766   5.1267   5.1393   5.1431
  5.1432   5.1919   5.3094   5.3124   5.3360   5.4080   5.4270   5.4546
  5.5709   5.5942   5.6893   5.7235   5.7733   5.8589   5.8600   5.8629
  5.9802   6.0418   6.2046   6.2078   6.2656   6.2811   6.3633   6.4026
  6.5383   6.5599   6.6370   6.7728   6.8252   6.8757   7.0647   7.3962
  7.4410   7.6539   7.7861   8.1524   8.1572   8.2141   8.2666   8.3540
  8.3740   8.4612   8.5811   8.6503   8.6559   8.7762   8.7778   8.8393
  8.9059   8.9297   8.9811   8.9918   9.0707   9.0707   9.0988   9.2763
  9.6680   9.7095  10.3215  10.4033  10.5196  10.5494  10.5812  10.6441
 10.6538  10.7715  10.8714  10.8741  10.9363  11.0674  11.1142  11.2372
 11.3432  11.3713  11.4700  11.5112  11.5782  11.6355  11.6545  11.8278
 11.8434  11.8985  11.9038  11.9765  11.9975  12.0727  12.0932  12.1080
 12.1316  12.1948  12.1971  12.3500  12.4266  12.5610  12.6099  12.7937
 12.8678  12.9091  12.9178  13.0319  13.0586  13.1251  13.2979  13.3346
 13.3466  13.5072  13.8863  13.9656  14.1932  14.5005  14.7569  14.9585
 15.2778  15.8513  16.0334  16.1128  16.1161  16.1287  16.1336  16.4799
 16.6565  16.6631  16.7049  16.9064  17.2741  17.3035  17.5201  17.6802
 17.8822  18.0574  18.0712  18.1741  18.4713  18.7446  19.2299  19.5133
 19.7696  19.8249  19.8870  20.1072  20.7704  21.4112  22.8047  22.8682
 22.9228  23.2432  24.8365  25.1182  31.7897  32.2315  32.3425  32.8311
 33.4560  33.6692  40.5071  40.5672  62.8275  62.8454  62.9379  63.0389
 63.4960  75.0664  89.6376  89.6847  89.7105  89.9192  91.6566  91.8035

 Beta MOs
 -- Occupied --
-89.8881 -10.6147  -8.2608  -6.1816  -6.1801  -6.1760  -0.8931  -0.6841
 -0.5383  -0.4576  -0.3782  -0.2922
 -- Virtual --
 -0.0615  -0.0073   0.0094   0.0115   0.0143   0.0316   0.0338   0.0387
  0.0450   0.0561   0.0597   0.0644   0.0700   0.0812   0.0850   0.0945
  0.1002   0.1100   0.1128   0.1129   0.1160   0.1171   0.1227   0.1356
  0.1439   0.1506   0.1567   0.1645   0.1658   0.1666   0.1814   0.1866
  0.1930   0.1940   0.1974   0.2065   0.2067   0.2244   0.2317   0.2349
  0.2351   0.2392   0.2463   0.2593   0.2634   0.2674   0.2690   0.2731
  0.2812   0.2862   0.2952   0.2968   0.2975   0.3124   0.3165   0.3187
  0.3257   0.3268   0.3379   0.3424   0.3433   0.3542   0.3561   0.3605
  0.3704   0.3926   0.3978   0.3982   0.4004   0.4107   0.4192   0.4219
  0.4264   0.4313   0.4368   0.4516   0.4534   0.4552   0.4585   0.4628
  0.4685   0.4844   0.4860   0.4919   0.5110   0.5175   0.5180   0.5222
  0.5230   0.5264   0.5379   0.5433   0.5474   0.5538   0.5676   0.5718
  0.5755   0.5804   0.5860   0.5916   0.6121   0.6145   0.6174   0.6210
  0.6225   0.6230   0.6331   0.6460   0.6725   0.6746   0.6756   0.6811
  0.6878   0.6975   0.7009   0.7070   0.7126   0.7190   0.7223   0.7416
  0.7432   0.7558   0.7564   0.7642   0.7725   0.7858   0.7868   0.7910
  0.7934   0.7941   0.8049   0.8132   0.8204   0.8209   0.8339   0.8349
  0.8447   0.8478   0.8498   0.8540   0.8627   0.8704   0.8770   0.8797
  0.8866   0.8939   0.8953   0.8972   0.9085   0.9089   0.9269   0.9288
  0.9336   0.9381   0.9466   0.9518   0.9757   0.9800   1.0317   1.0435
  1.0787   1.0801   1.1241   1.1482   1.2044   1.2144   1.2420   1.2910
  1.3031   1.3145   1.3678   1.3819   1.3822   1.4006   1.4126   1.4334
  1.4509   1.4539   1.4830   1.5219   1.5341   1.5538   1.5717   1.6030
  1.6050   1.6078   1.6276   1.6563   1.6571   1.6797   1.7247   1.7511
  1.7968   1.8021   1.8151   1.8279   1.8490   2.0576   2.0578   2.0818
  2.0848   2.1315   2.1483   2.1546   2.2239   2.2266   2.2377   2.3029
  2.3652   2.3887   2.3938   2.4353   2.4770   2.5082   2.5492   2.6101
  2.6123   2.6389   2.6850   2.7709   2.7875   2.8462   2.8694   2.8870
  2.9135   2.9881   3.0182   3.1514   3.1693   3.2320   3.2434   3.2917
  3.3612   3.3898   3.4240   3.4487   3.4744   3.5169   3.5612   3.5691
  3.5837   3.5942   3.6013   3.6260   3.6365   3.6466   3.6507   3.6741
  3.6877   3.7335   3.8373   3.9265   3.9692   4.0035   4.0132   4.0548
  4.1546   4.1776   4.1835   4.1963   4.3502   4.3522   4.4600   4.4722
  4.5232   4.5442   4.5531   4.6280   4.6392   4.6480   4.6881   4.7446
  4.7854   4.8589   4.8911   4.9444   5.0766   5.1267   5.1393   5.1431
  5.1432   5.1919   5.3094   5.3124   5.3360   5.4080   5.4270   5.4546
  5.5709   5.5942   5.6893   5.7235   5.7733   5.8589   5.8600   5.8629
  5.9802   6.0418   6.2046   6.2078   6.2656   6.2811   6.3633   6.4026
  6.5383   6.5599   6.6370   6.7728   6.8252   6.8757   7.0647   7.3962
  7.4410   7.6539   7.7861   8.1524   8.1572   8.2141   8.2666   8.3540
  8.3740   8.4612   8.5811   8.6503   8.6559   8.7762   8.7778   8.8393
  8.9059   8.9297   8.9811   8.9918   9.0707   9.0707   9.0988   9.2763
  9.6680   9.7095  10.3215  10.4033  10.5196  10.5494  10.5812  10.6441
 10.6538  10.7715  10.8714  10.8741  10.9363  11.0674  11.1142  11.2372
 11.3432  11.3713  11.4700  11.5112  11.5782  11.6355  11.6545  11.8278
 11.8434  11.8985  11.9038  11.9765  11.9975  12.0727  12.0932  12.1080
 12.1316  12.1948  12.1971  12.3500  12.4266  12.5610  12.6099  12.7937
 12.8678  12.9091  12.9178  13.0319  13.0586  13.1251  13.2979  13.3346
 13.3466  13.5072  13.8863  13.9656  14.1932  14.5005  14.7569  14.9585
 15.2778  15.8513  16.0334  16.1128  16.1161  16.1287  16.1336  16.4799
 16.6565  16.6631  16.7049  16.9064  17.2741  17.3035  17.5201  17.6802
 17.8822  18.0574  18.0712  18.1741  18.4713  18.7446  19.2299  19.5133
 19.7696  19.8249  19.8870  20.1072  20.7704  21.4112  22.8047  22.8682
 22.9228  23.2432  24.8365  25.1182  31.7897  32.2315  32.3425  32.8311
 33.4560  33.6692  40.5071  40.5672  62.8275  62.8454  62.9379  63.0389
 63.4960  75.0664  89.6376  89.6847  89.7105  89.9192  91.6566  91.8035
 --------------------------------------------------------------

          Ground-State Mulliken Net Atomic Charges

     Atom                 Charge (a.u.)    Spin (a.u.)
  --------------------------------------------------------
      1 S                    -0.755790       0.000000
      2 C                     1.270356       0.000000
      3 H                    -0.257283       0.000000
      4 H                    -0.257283       0.000000
  --------------------------------------------------------
  Sum of atomic charges =    -0.000000
  Sum of spin   charges =     0.000000

 -----------------------------------------------------------------
                    Cartesian Multipole Moments
 -----------------------------------------------------------------
    Charge (ESU x 10^10)
                 0.0000
    Dipole Moment (Debye)
         X       0.0000      Y      -0.0000      Z      -1.6905
       Tot       1.6905
    Quadrupole Moments (Debye-Ang)
        XX     -19.9357     XY      -0.0000     YY     -20.4457
        XZ       0.0000     YZ      -0.0000     ZZ     -17.2249
    Octopole Moments (Debye-Ang^2)
       XXX      -0.0000    XXY      -0.0000    XYY       0.0000
       YYY      -0.0000    XXZ       0.9883    XYZ       0.0000
       YYZ      -3.3369    XZZ      -0.0000    YZZ      -0.0000
       ZZZ      -1.7612
    Hexadecapole Moments (Debye-Ang^3)
      XXXX     -25.2723   XXXY      -0.0000   XXYY     -10.4996
      XYYY      -0.0000   YYYY     -34.9645   XXXZ      -0.0000
      XXYZ      -0.0000   XYYZ       0.0000   YYYZ       0.0000
      XXZZ     -21.6064   XYZZ      -0.0000   YYZZ     -21.6105
      XZZZ       0.0000   YZZZ       0.0000   ZZZZ     -99.5885
 -----------------------------------------------------------------
Archival summary:
1\1\n0055.mhg0\SP\ProcedureUnspecified\BasisUnspecified\112\yhljason\SunAug2306:55:432020SunAug2306:55:432020\0\\#,ProcedureUnspecified,BasisUnspecified,\\0,1\S\C,1,1.6108\H,2,1.08695,1,121.739\H,2,1.08695,1,121.739,3,-180,0\\\@

 Total job time:  12472.47s(wall), 98482.94s(cpu) 
 Sun Aug 23 06:55:43 2020

        *************************************************************
        *                                                           *
        *  Thank you very much for using Q-Chem.  Have a nice day.  *
        *                                                           *
        *************************************************************


