                  Welcome to Q-Chem
     A Quantum Leap Into The Future Of Chemistry


 Q-Chem 5.3 (devel), Q-Chem, Inc., Pleasanton, CA (2020)

 Yihan Shao,  Zhengting Gan,  E. Epifanovsky,  A. T. B. Gilbert,  M. Wormit,  
 J. Kussmann,  A. W. Lange,  A. Behn,  Jia Deng,  Xintian Feng,  D. Ghosh,  
 M. Goldey,  P. R. Horn,  L. D. Jacobson,  I. Kaliman,  T. Kus,  A. Landau,  
 Jie Liu,  E. I. Proynov,  R. M. Richard,  R. P. Steele,  E. J. Sundstrom,  
 H. L. Woodcock III,  P. M. Zimmerman,  D. Zuev,  B. Alam,  B. Albrecht,  
 E. Alguire,  S. A. Baeppler,  D. Barton,  Z. Benda,  Y. A. Bernard,  
 E. J. Berquist,  K. B. Bravaya,  H. Burton,  K. Carter-Fenk,  D. Casanova,  
 Chun-Min Chang,  Yunqing Chen,  A. Chien,  K. D. Closser,  M. P. Coons,  
 S. Coriani,  S. Dasgupta,  A. L. Dempwolff,  M. Diedenhofen,  Hainam Do,  
 R. G. Edgar,  Po-Tung Fang,  S. Faraji,  S. Fatehi,  Qingguo Feng,  
 J. Fosso-Tande,  J. Gayvert,  Qinghui Ge,  A. Ghysels,  G. Gidofalvi,  
 J. Gomes,  J. Gonthier,  A. Gunina,  D. Hait,  M. W. D. Hanson-Heine,  
 P. H. P. Harbach,  A. W. Hauser,  M. F. Herbst,  J. E. Herr,  
 E. G. Hohenstein,  Z. C. Holden,  Kerwin Hui,  B. C. Huynh,  T.-C. Jagau,  
 Hyunjun Ji,  B. Kaduk,  K. Khistyaev,  Jaehoon Kim,  P. Klunzinger,  K. Koh,  
 D. Kosenkov,  L. Koulias,  T. Kowalczyk,  C. M. Krauter,  A. Kunitsa,  
 Ka Un Lao,  A. Laurent,  K. V. Lawler,  Joonho Lee,  D. Lefrancois,  
 S. Lehtola,  D. S. Levine,  Yi-Pei Li,  You-Sheng Lin,  Fenglai Liu,  
 Kuan-Yu Liu,  E. Livshits,  M. Loipersberger,  A. Luenser,  P. Manohar,  
 E. Mansoor,  S. F. Manzer,  Shan-Ping Mao,  Yuezhi Mao,  N. Mardirossian,  
 A. V. Marenich,  T. Markovich,  L. A. Martinez-Martinez,  S. A. Maurer,  
 N. J. Mayhall,  S. C. McKenzie,  J.-M. Mewes,  P. Morgante,  A. F. Morrison,  
 J. W. Mullinax,  K. Nanda,  T. S. Nguyen-Beck,  R. Olivares-Amaya,  
 K. J. Oosterbaan,  J. A. Parkhill,  S. K. Paul,  F. Pavosevic,  Zheng Pei,  
 T. M. Perrine,  F. Plasser,  P. Pokhilko,  S. Prager,  A. Prociuk,  
 E. Ramos,  B. Rana,  D. R. Rehn,  F. Rob,  M. Scheurer,  M. Schneider,  
 N. Sergueev,  S. M. Sharada,  S. Sharma,  D. W. Small,  T. Stauch,  
 C. J. Stein,  T. Stein,  Yu-Chuan Su,  S. P. Veccham,  Zhen Tao,  
 A. J. W. Thom,  A. Tkatchenko,  T. Tsuchimochi,  N. M. Tubman,  L. Vogt,  
 M. L. Vidal,  O. Vydrov,  M. A. Watson,  J. Wenzel,  M. de Wergifosse,  
 T. A. Wesolowski,  A. White,  J. Witte,  A. Yamada,  Jun Yang,  K. Yao,  
 S. Yeganeh,  S. R. Yost,  Zhi-Qiang You,  A. Zech,  Igor Ying Zhang,  
 Xing Zhang,  Yan Zhao,  Ying Zhu,  B. R. Brooks,  G. K. L. Chan,  
 C. J. Cramer,  M. S. Gordon,  W. J. Hehre,  A. Klamt,  M. W. Schmidt,  
 C. D. Sherrill,  D. G. Truhlar,  A. Aspuru-Guzik,  R. Baer,  A. T. Bell,  
 N. A. Besley,  Jeng-Da Chai,  A. E. DePrince, III,  R. A. DiStasio Jr.,  
 A. Dreuw,  B. D. Dunietz,  T. R. Furlani,  Chao-Ping Hsu,  Yousung Jung,  
 Jing Kong,  D. S. Lambrecht,  WanZhen Liang,  C. Ochsenfeld,  
 V. A. Rassolov,  L. V. Slipchenko,  J. E. Subotnik,  T. Van Voorhis,  
 J. M. Herbert,  A. I. Krylov,  P. M. W. Gill,  M. Head-Gordon

 Contributors to earlier versions of Q-Chem not listed above: 
 R. D. Adamson,  B. Austin,  J. Baker,  G. J. O. Beran,  K. Brandhorst,  
 S. T. Brown,  E. F. C. Byrd,  A. K. Chakraborty,  C.-L. Cheng,  
 Siu Hung Chien,  D. M. Chipman,  D. L. Crittenden,  H. Dachsel,  
 R. J. Doerksen,  A. D. Dutoi,  L. Fusti-Molnar,  W. A. Goddard III,  
 A. Golubeva-Zadorozhnaya,  S. R. Gwaltney,  G. Hawkins,  A. Heyden,  
 S. Hirata,  G. Kedziora,  F. J. Keil,  C. Kelley,  Jihan Kim,  R. A. King,  
 R. Z. Khaliullin,  P. P. Korambath,  W. Kurlancheek,  A. M. Lee,  M. S. Lee,  
 S. V. Levchenko,  Ching Yeh Lin,  D. Liotard,  R. C. Lochan,  I. Lotan,  
 P. E. Maslen,  N. Nair,  D. P. O'Neill,  D. Neuhauser,  E. Neuscamman,  
 C. M. Oana,  R. Olson,  B. Peters,  R. Peverati,  P. A. Pieniazek,  
 Y. M. Rhee,  J. Ritchie,  M. A. Rohrdanz,  E. Rosta,  N. J. Russ,  
 H. F. Schaefer III,  N. E. Schultz,  N. Shenvi,  A. C. Simmonett,  A. Sodt,  
 D. Stuck,  K. S. Thanthiriwatte,  V. Vanovschi,  Tao Wang,  A. Warshel,  
 C. F. Williams,  Q. Wu,  X. Xu,  W. Zhang

 Please cite Q-Chem as follows:
 Y. Shao et al., Mol. Phys. 113, 184-215 (2015)
 DOI: 10.1080/00268976.2014.952696

 Q-Chem 5.3.0 for Intel X86 EM64T Linux

 Parts of Q-Chem use Armadillo 9.800.1 (Horizon Scraper).
 http://arma.sourceforge.net/

 Q-Chem begins on Sun Aug 23 04:11:58 2020  

n0092.mhg0
Host: 0

     Scratch files written to /local/scratch/users/yhljason/HCP_MN15_aug-pc-4.inp20200822215630//
Processing $rem in /clusterfs/mhg/diptarka/qchem_transmom//config/preferences:
Processing $rem in /global/home/users/yhljason/.qchemrc:

Checking the input file for inconsistencies... 	...done.

--------------------------------------------------------------
User input:
--------------------------------------------------------------
$molecule
0 1
C1      0.0000  0.0000  0.0000
H2      0.0000  0.0000  1.0670
P3      0.0000  0.0000  -1.5420
$end

$rem
jobtype sp
method MN15
xc_grid 000099000590
basis aug-pc-4
max_scf_cycles 200
thresh 14
scf_convergence 8
scf_algorithm gdm
symmetry false
sym_ignore true
unrestricted true
gen_scfman true
internal_stability_iter 15
internal_stability_davidson_iter 200
mem_total 64000
mem_static 1500
n_frozen_core 0
$end


--------------------------------------------------------------
 ----------------------------------------------------------------
             Standard Nuclear Orientation (Angstroms)
    I     Atom           X                Y                Z
 ----------------------------------------------------------------
    1      C       0.0000000000     0.0000000000     0.0000000000
    2      H       0.0000000000     0.0000000000     1.0670000000
    3      P       0.0000000000     0.0000000000    -1.5420000000
 ----------------------------------------------------------------
 Nuclear Repulsion Energy =          36.90393534 hartrees
 There are       11 alpha and       11 beta electrons
 Requested basis set is aug-pc-4
 There are 88 shells and 374 basis functions

 Total QAlloc Memory Limit  64000 MB
 Mega-Array Size      1467 MB
 MEM_STATIC part      1500 MB

                       Distance Matrix (Angstroms)
             C (  1)   H (  2)
   H (  2)  1.067000
   P (  3)  1.542000  2.609000

 A cutoff of  1.0D-14 yielded   3877 shell pairs
 There are     70619 function pairs (    133618 Cartesian)
 Smallest overlap matrix eigenvalue = 1.02E-06

 Scale SEOQF with 1.000000e-01/1.000000e-01/1.000000e-01

 Standard Electronic Orientation quadrupole field applied
 Nucleus-field energy     =    -0.0000000039 hartrees
 Guess from superposition of atomic densities
 Warning:  Energy on first SCF cycle will be non-variational
 SAD guess density has 22.000000 electrons

 -----------------------------------------------------------------------
  General SCF calculation program by
  Eric Jon Sundstrom, Paul Horn, Yuezhi Mao, Dmitri Zuev, Alec White,
  David Stuck, Shaama M.S., Shane Yost, Joonho Lee, David Small,
  Daniel Levine, Susi Lehtola, Hugh Burton, Evgeny Epifanovsky,
  Bang C. Huynh
 -----------------------------------------------------------------------
 Exchange:     0.4400 Hartree-Fock + 1.0000 MN15
 Correlation:  1.0000 MN15
 Using Euler-Maclaurin-Lebedev (99,590) quadrature formula
Running Object-Oriented UKS (UHF)
performing a single roothaan step with Fock from read density so that orbitals are available to all algorithms
energy of the guess density (C=0) -380.006867659487
We will preform up to 15 macro iterations over saddle points until a stable solution is found
Energy prior to optimization (guess energy) = -379.845671551726
Begin Timing: Total SCF Calculation
Begin Timing: SCF Single Stationary Point Calculation
begin iterations for algorithm: GDM          
the SCF tolerance is set to 1.00e-08
    1    -379.8456715517      1.48e-01     00000  Descent step
    2    -379.8535256270      2.12e-01     00000  Normal BFGS step
    3    -379.9005495542      1.60e-02     00000  Normal BFGS step
    4    -379.9017232236      6.51e-03     00000  Normal BFGS step
    5    -379.9022481834      4.08e-04     00000  Normal BFGS step
    6    -379.9022498490      7.40e-05     00000  Normal BFGS step
    7    -379.9022499939      1.43e-05     00000  Normal BFGS step
    8    -379.9022499955      1.93e-06     00000  Normal BFGS step
    9    -379.9022499956      4.97e-07     00000  Normal BFGS step
   10    -379.9022499956      9.42e-07     00000  Normal BFGS step
   11    -379.9022499956      5.50e-07     00000  Normal BFGS step
   12    -379.9022499956      1.50e-08     00000  Normal BFGS step
   13    -379.9022499956      3.76e-09     00000 Convergence criterion met
Timing for Single Stationary Point: 1720.00s (wall), 13632.43s (cpu)
Begin Timing: Stability
===================================================
Beginning Test for Internal Stability
===================================================
generating davidson guess vectors based on koopmans excitations
 Warning: Hessian-vector products not implemented
 Finite difference Hessian-vector products will be used.
computing hessian-vector products by finite difference
    1      5.90e-01     00000 Davidson Iteration
computing hessian-vector products by finite difference
    2      5.75e-01     00000 Davidson Iteration
computing hessian-vector products by finite difference
    3      2.34e-01     00000 Davidson Iteration
computing hessian-vector products by finite difference
    4      1.50e-01     00000 Davidson Iteration
computing hessian-vector products by finite difference
    5      1.38e-01     00000 Davidson Iteration
computing hessian-vector products by finite difference
    6      2.00e-02     00000 Davidson Iteration
computing hessian-vector products by finite difference
    7      3.61e-03     00000 Davidson Iteration
computing hessian-vector products by finite difference
    8      1.56e-03     00000 Davidson Iteration
computing hessian-vector products by finite difference
    9      3.23e-04     00000 Davidson Iteration
computing hessian-vector products by finite difference
   10      8.83e-05     00000 Davidson Iteration
computing hessian-vector products by finite difference
   11      2.90e-04     00000 Davidson Iteration
computing hessian-vector products by finite difference
   12      7.09e-05     00000 Davidson Converged
converged_eigenvalues
   0.2216
   0.1348
Threshold for negative eigenvalues: -1.0e-05
solution was a local minimum (stable)
===================================================
End Test for Internal Stability
===================================================
Timing for Internal Stability: 7955.00s (wall), 62988.07s (cpu)
Our SCF solution is stable!
Timing for Total SCF: 9675.00s (wall), 76620.62s (cpu)
 Total energy in the final basis set =     -379.9022499956
<S^2> =          0.000000000
    ==================================================
              The end of Object-Oriented SCFman       
    ==================================================

 --------------------------------------------------------------

                    Orbital Energies (a.u.)
 --------------------------------------------------------------

 Alpha MOs
 -- Occupied --
-76.1416 -10.1125  -6.3909  -4.7502  -4.7502  -4.7446  -0.7576  -0.5829
 -0.3993  -0.3218  -0.3218
 -- Virtual --
 -0.0323  -0.0323   0.0204   0.0266   0.0363   0.0363   0.0446   0.0487
  0.0487   0.0667   0.0768   0.1043   0.1093   0.1093   0.1141   0.1160
  0.1160   0.1410   0.1410   0.1476   0.1476   0.1538   0.1538   0.1616
  0.1692   0.1814   0.1965   0.2141   0.2141   0.2163   0.2163   0.2211
  0.2211   0.2244   0.2541   0.2541   0.2640   0.2640   0.2820   0.2820
  0.2860   0.2860   0.3013   0.3142   0.3142   0.3180   0.3180   0.3221
  0.3269   0.3269   0.3532   0.3591   0.3712   0.3712   0.3923   0.4073
  0.4073   0.4259   0.4259   0.4307   0.4307   0.4561   0.4579   0.4579
  0.4655   0.4655   0.4822   0.4822   0.5019   0.5019   0.5057   0.5101
  0.5101   0.5162   0.5162   0.5338   0.5338   0.5452   0.5452   0.5563
  0.5614   0.5614   0.5847   0.5910   0.6033   0.6033   0.6133   0.6133
  0.6220   0.6220   0.6431   0.6431   0.6558   0.6586   0.6586   0.6784
  0.6799   0.6799   0.7165   0.7165   0.7191   0.7191   0.7279   0.7372
  0.7372   0.7717   0.7717   0.7762   0.7762   0.7950   0.7950   0.8075
  0.8075   0.8302   0.8302   0.8436   0.8436   0.8567   0.8567   0.8655
  0.8921   0.8921   0.9042   0.9181   0.9181   0.9430   0.9846   0.9846
  1.0014   1.0109   1.0536   1.0536   1.0907   1.0930   1.0930   1.1660
  1.1660   1.1771   1.1893   1.1893   1.2197   1.2197   1.2570   1.2915
  1.2915   1.3444   1.3444   1.3876   1.4103   1.4103   1.4262   1.4262
  1.5349   1.6057   1.6057   1.6233   1.6233   1.6287   1.7200   1.7578
  1.7578   1.7822   1.9594   1.9594   1.9757   1.9757   2.0626   2.1501
  2.1501   2.1615   2.1615   2.2518   2.2673   2.2673   2.2950   2.2950
  2.3051   2.3051   2.3969   2.3969   2.5334   2.5611   2.5663   2.5663
  2.7017   2.7918   2.7918   2.8222   2.8222   2.8341   2.8341   2.8685
  2.8685   2.8874   3.0290   3.1908   3.1908   3.2141   3.2141   3.2356
  3.2537   3.2537   3.3302   3.5555   3.5555   3.5697   3.6688   3.6688
  3.8216   3.8216   3.9596   3.9596   3.9862   3.9862   4.0437   4.0995
  4.0995   4.1871   4.1871   4.2724   4.2724   4.4084   4.4084   4.4363
  4.4687   4.4687   4.5595   4.5595   4.6180   4.6180   4.6750   4.6779
  4.6779   4.8229   4.8229   4.8804   5.0047   5.1715   5.1715   5.2782
  5.2782   5.3400   5.3400   5.4609   5.4631   5.4631   5.6421   5.8789
  5.8789   6.0976   6.1580   6.1580   6.2863   6.2863   6.4074   6.4074
  6.8342   6.8342   6.8528   7.0957   7.1105   7.1106   7.1246   7.1246
  7.1977   7.3850   7.3851   8.1240   8.1274   8.1274   8.4745   8.5658
  8.5658   8.6063   8.6063   9.2372   9.5082   9.5082   9.8901   9.8901
 10.0760  10.0760  10.2008  10.2008  10.2020  10.2020  10.3329  10.3329
 10.3499  10.3499  10.4285  10.4285  10.5352  10.5352  10.5628  10.8844
 11.0595  11.0595  11.0671  11.0671  11.2307  11.2308  11.2610  11.2610
 11.4278  11.4278  11.4572  11.4978  11.4978  11.7741  12.0307  12.0307
 12.0489  12.0489  12.1379  12.1466  12.1466  12.9908  12.9908  13.0069
 13.0581  13.0581  14.2058  15.0803  15.0803  15.9947  16.0812  16.0813
 16.1864  16.1864  16.3889  16.4683  16.4683  16.5852  16.5852  17.5592
 17.8341  17.8341  17.9471  17.9471  19.2650  19.6615  19.6615  21.0179
 22.7911  22.7911  24.5230  24.7379  31.2683  31.2684  31.5874  31.5874
 33.2665  38.7784  57.0753  57.0754  57.3110  57.3110  57.8763  70.3552
 86.5285  86.5285  86.6432

 Beta MOs
 -- Occupied --
-76.1416 -10.1125  -6.3909  -4.7502  -4.7502  -4.7446  -0.7576  -0.5829
 -0.3993  -0.3218  -0.3218
 -- Virtual --
 -0.0323  -0.0323   0.0204   0.0266   0.0363   0.0363   0.0446   0.0487
  0.0487   0.0667   0.0768   0.1043   0.1093   0.1093   0.1141   0.1160
  0.1160   0.1410   0.1410   0.1476   0.1476   0.1538   0.1538   0.1616
  0.1692   0.1814   0.1965   0.2141   0.2141   0.2163   0.2163   0.2211
  0.2211   0.2244   0.2541   0.2541   0.2640   0.2640   0.2820   0.2820
  0.2860   0.2860   0.3013   0.3142   0.3142   0.3180   0.3180   0.3221
  0.3269   0.3269   0.3532   0.3591   0.3712   0.3712   0.3923   0.4073
  0.4073   0.4259   0.4259   0.4307   0.4307   0.4561   0.4579   0.4579
  0.4655   0.4655   0.4822   0.4822   0.5019   0.5019   0.5057   0.5101
  0.5101   0.5162   0.5162   0.5338   0.5338   0.5452   0.5452   0.5563
  0.5614   0.5614   0.5847   0.5910   0.6033   0.6033   0.6133   0.6133
  0.6220   0.6220   0.6431   0.6431   0.6558   0.6586   0.6586   0.6784
  0.6799   0.6799   0.7165   0.7165   0.7191   0.7191   0.7279   0.7372
  0.7372   0.7717   0.7717   0.7762   0.7762   0.7950   0.7950   0.8075
  0.8075   0.8302   0.8302   0.8436   0.8436   0.8567   0.8567   0.8655
  0.8921   0.8921   0.9042   0.9181   0.9181   0.9430   0.9846   0.9846
  1.0014   1.0109   1.0536   1.0536   1.0907   1.0930   1.0930   1.1660
  1.1660   1.1771   1.1893   1.1893   1.2197   1.2197   1.2570   1.2915
  1.2915   1.3444   1.3444   1.3876   1.4103   1.4103   1.4262   1.4262
  1.5349   1.6057   1.6057   1.6233   1.6233   1.6287   1.7200   1.7578
  1.7578   1.7822   1.9594   1.9594   1.9757   1.9757   2.0626   2.1501
  2.1501   2.1615   2.1615   2.2518   2.2673   2.2673   2.2950   2.2950
  2.3051   2.3051   2.3969   2.3969   2.5334   2.5611   2.5663   2.5663
  2.7017   2.7918   2.7918   2.8222   2.8222   2.8341   2.8341   2.8685
  2.8685   2.8874   3.0290   3.1908   3.1908   3.2141   3.2141   3.2356
  3.2537   3.2537   3.3302   3.5555   3.5555   3.5697   3.6688   3.6688
  3.8216   3.8216   3.9596   3.9596   3.9862   3.9862   4.0437   4.0995
  4.0995   4.1871   4.1871   4.2724   4.2724   4.4084   4.4084   4.4363
  4.4687   4.4687   4.5595   4.5595   4.6180   4.6180   4.6750   4.6779
  4.6779   4.8229   4.8229   4.8804   5.0047   5.1715   5.1715   5.2782
  5.2782   5.3400   5.3400   5.4609   5.4631   5.4631   5.6421   5.8789
  5.8789   6.0976   6.1580   6.1580   6.2863   6.2863   6.4074   6.4074
  6.8342   6.8342   6.8528   7.0957   7.1105   7.1106   7.1246   7.1246
  7.1977   7.3850   7.3851   8.1240   8.1274   8.1274   8.4745   8.5658
  8.5658   8.6063   8.6063   9.2372   9.5082   9.5082   9.8901   9.8901
 10.0760  10.0760  10.2008  10.2008  10.2020  10.2020  10.3329  10.3329
 10.3499  10.3499  10.4285  10.4285  10.5352  10.5352  10.5628  10.8844
 11.0595  11.0595  11.0671  11.0671  11.2307  11.2308  11.2610  11.2610
 11.4278  11.4278  11.4572  11.4978  11.4978  11.7741  12.0307  12.0307
 12.0489  12.0489  12.1379  12.1466  12.1466  12.9908  12.9908  13.0069
 13.0581  13.0581  14.2058  15.0803  15.0803  15.9947  16.0812  16.0813
 16.1864  16.1864  16.3889  16.4683  16.4683  16.5852  16.5852  17.5592
 17.8341  17.8341  17.9471  17.9471  19.2650  19.6615  19.6615  21.0179
 22.7911  22.7911  24.5230  24.7379  31.2683  31.2684  31.5874  31.5874
 33.2665  38.7784  57.0753  57.0754  57.3110  57.3110  57.8763  70.3552
 86.5285  86.5285  86.6432
 --------------------------------------------------------------

          Ground-State Mulliken Net Atomic Charges

     Atom                 Charge (a.u.)    Spin (a.u.)
  --------------------------------------------------------
      1 C                    -1.007191      -0.000000
      2 H                     0.972136      -0.000000
      3 P                     0.035054       0.000000
  --------------------------------------------------------
  Sum of atomic charges =    -0.000000
  Sum of spin   charges =     0.000000

 -----------------------------------------------------------------
                    Cartesian Multipole Moments
 -----------------------------------------------------------------
    Charge (ESU x 10^10)
                -0.0000
    Dipole Moment (Debye)
         X       0.0000      Y       0.0000      Z       0.3792
       Tot       0.3792
    Quadrupole Moments (Debye-Ang)
        XX     -19.9844     XY       0.0000     YY     -19.9844
        XZ      -0.0000     YZ       0.0000     ZZ     -16.3105
    Octopole Moments (Debye-Ang^2)
       XXX       0.0000    XXY       0.0000    XYY      -0.0000
       YYY       0.0000    XXZ      18.7480    XYZ      -0.0000
       YYZ      18.7480    XZZ       0.0000    YZZ       0.0000
       ZZZ      55.4856
    Hexadecapole Moments (Debye-Ang^3)
      XXXX     -29.6404   XXXY       0.0000   XXYY      -9.8801
      XYYY       0.0000   YYYY     -29.6404   XXXZ      -0.0000
      XXYZ      -0.0000   XYYZ      -0.0000   YYYZ       0.0000
      XXZZ     -39.1553   XYZZ       0.0000   YYZZ     -39.1553
      XZZZ      -0.0000   YZZZ       0.0000   ZZZZ    -205.6279
 -----------------------------------------------------------------
Archival summary:
1\1\n0092.mhg0\SP\ProcedureUnspecified\BasisUnspecified\111\yhljason\SunAug2306:57:452020SunAug2306:57:452020\0\\#,ProcedureUnspecified,BasisUnspecified,\\0,1\P\C,1,1.542\H,2,1.067,1,180\\\@

 Total job time:  9946.84s(wall), 78764.90s(cpu) 
 Sun Aug 23 06:57:45 2020

        *************************************************************
        *                                                           *
        *  Thank you very much for using Q-Chem.  Have a nice day.  *
        *                                                           *
        *************************************************************


