Q-Chem Developer Version!
                  Welcome to Q-Chem
     A Quantum Leap Into The Future Of Chemistry


 Q-Chem 5.1, Q-Chem, Inc., Pleasanton, CA (2018)

 Yihan Shao,  Zhengting Gan,  E. Epifanovsky,  A. T. B. Gilbert,  M. Wormit,  
 J. Kussmann,  A. W. Lange,  A. Behn,  Jia Deng,  Xintian Feng,  D. Ghosh,  
 M. Goldey,  P. R. Horn,  L. D. Jacobson,  I. Kaliman,  T. Kus,  A. Landau,  
 Jie Liu,  E. I. Proynov,  R. M. Richard,  R. P. Steele,  E. J. Sundstrom,  
 H. L. Woodcock III,  P. M. Zimmerman,  D. Zuev,  B. Albrecht,  E. Alguire,  
 S. A. Baeppler,  D. Barton,  Z. Benda,  Y. A. Bernard,  E. J. Berquist,  
 K. B. Bravaya,  H. Burton,  D. Casanova,  Chun-Min Chang,  Yunqing Chen,  
 A. Chien,  K. D. Closser,  M. P. Coons,  S. Coriani,  S. Dasgupta,  
 A. L. Dempwolff,  M. Diedenhofen,  Hainam Do,  R. G. Edgar,  Po-Tung Fang,  
 S. Faraji,  S. Fatehi,  Qingguo Feng,  K. D. Fenk,  J. Fosso-Tande,  
 Qinghui Ge,  A. Ghysels,  G. Gidofalvi,  J. Gomes,  J. Gonthier,  A. Gunina,  
 D. Hait,  M. W. D. Hanson-Heine,  P. H. P. Harbach,  A. W. Hauser,  
 J. E. Herr,  E. G. Hohenstein,  Z. C. Holden,  Kerwin Hui,  B. C. Huynh,  
 T.-C. Jagau,  Hyunjun Ji,  B. Kaduk,  K. Khistyaev,  Jaehoon Kim,  
 P. Klunzinger,  K. Koh,  D. Kosenkov,  L. Koulias,  T. Kowalczyk,  
 C. M. Krauter,  A. Kunitsa,  Ka Un Lao,  A. Laurent,  K. V. Lawler,  
 Joonho Lee,  D. Lefrancois,  S. Lehtola,  D. S. Levine,  Yi-Pei Li,  
 You-Sheng Lin,  Fenglai Liu,  E. Livshits,  A. Luenser,  P. Manohar,  
 E. Mansoor,  S. F. Manzer,  Shan-Ping Mao,  Yuezhi Mao,  N. Mardirossian,  
 A. V. Marenich,  T. Markovich,  L. A. Martinez-Martinez,  S. A. Maurer,  
 N. J. Mayhall,  S. C. McKenzie,  J.-M. Mewes,  A. F. Morrison,  
 J. W. Mullinax,  K. Nanda,  T. S. Nguyen-Beck,  R. Olivares-Amaya,  
 J. A. Parkhill,  T. M. Perrine,  F. Plasser,  P. Pokhilko,  S. Prager,  
 A. Prociuk,  E. Ramos,  D. R. Rehn,  F. Rob,  M. Schneider,  N. Sergueev,  
 S. M. Sharada,  S. Sharma,  D. W. Small,  T. Stauch,  T. Stein,  
 Yu-Chuan Su,  A. J. W. Thom,  A. Tkatchenko,  T. Tsuchimochi,  N. M. Tubman,  
 L. Vogt,  M. L. Vidal,  O. Vydrov,  M. A. Watson,  J. Wenzel,  
 M. de Wergifosse,  T. A. Wesolowski,  A. White,  J. Witte,  A. Yamada,  
 Jun Yang,  K. Yao,  S. Yeganeh,  S. R. Yost,  Zhi-Qiang You,  A. Zech,  
 Igor Ying Zhang,  Xing Zhang,  Yan Zhao,  Ying Zhu,  B. R. Brooks,  
 G. K. L. Chan,  C. J. Cramer,  M. S. Gordon,  W. J. Hehre,  A. Klamt,  
 M. W. Schmidt,  C. D. Sherrill,  D. G. Truhlar,  A. Aspuru-Guzik,  R. Baer,  
 A. T. Bell,  N. A. Besley,  Jeng-Da Chai,  A. E. DePrince, III,  
 R. A. DiStasio Jr.,  A. Dreuw,  B. D. Dunietz,  T. R. Furlani,  
 Chao-Ping Hsu,  Yousung Jung,  Jing Kong,  D. S. Lambrecht,  WanZhen Liang,  
 C. Ochsenfeld,  V. A. Rassolov,  L. V. Slipchenko,  J. E. Subotnik,  
 T. Van Voorhis,  J. M. Herbert,  A. I. Krylov,  P. M. W. Gill,  M. Head-Gordon

 Contributors to earlier versions of Q-Chem not listed above: 
 R. D. Adamson,  B. Austin,  J. Baker,  G. J. O. Beran,  K. Brandhorst,  
 S. T. Brown,  E. F. C. Byrd,  A. K. Chakraborty,  C.-L. Cheng,  
 Siu Hung Chien,  D. M. Chipman,  D. L. Crittenden,  H. Dachsel,  
 R. J. Doerksen,  A. D. Dutoi,  L. Fusti-Molnar,  W. A. Goddard III,  
 A. Golubeva-Zadorozhnaya,  S. R. Gwaltney,  G. Hawkins,  A. Heyden,  
 S. Hirata,  G. Kedziora,  F. J. Keil,  C. Kelley,  Jihan Kim,  R. A. King,  
 R. Z. Khaliullin,  P. P. Korambath,  W. Kurlancheek,  A. M. Lee,  M. S. Lee,  
 S. V. Levchenko,  Ching Yeh Lin,  D. Liotard,  R. C. Lochan,  I. Lotan,  
 P. E. Maslen,  N. Nair,  D. P. O'Neill,  D. Neuhauser,  E. Neuscamman,  
 C. M. Oana,  R. Olson,  B. Peters,  R. Peverati,  P. A. Pieniazek,  
 Y. M. Rhee,  J. Ritchie,  M. A. Rohrdanz,  E. Rosta,  N. J. Russ,  
 H. F. Schaefer III,  N. E. Schultz,  N. Shenvi,  A. C. Simmonett,  A. Sodt,  
 D. Stuck,  K. S. Thanthiriwatte,  V. Vanovschi,  Tao Wang,  A. Warshel,  
 C. F. Williams,  Q. Wu,  X. Xu,  W. Zhang

 Please cite Q-Chem as follows:
 Y. Shao et al., Mol. Phys. 113, 184-215 (2015)
 DOI: 10.1080/00268976.2014.952696

 Q-Chem 5.1.1 for Intel X86 EM64T Linux

 Parts of Q-Chem use Armadillo 8.300.2 (Tropical Shenanigans).
 http://arma.sourceforge.net/

 Q-Chem begins on Sat Jun 27 06:55:43 2020  

Host: n0031.mhg0
0

     Scratch files written to /local/scratch/users/yhljason/Ar_wB97X-V_aug-pc-4.inp20200627013254//
Input Ideriv = 2
Curr. Ideriv = -1
Max.  Ideriv = 2
Input Ideriv = 1
Curr. Ideriv = 2
Max.  Ideriv = 1

Checking the input file for inconsistencies... 	...done.

--------------------------------------------------------------
User input:
--------------------------------------------------------------
$molecule
0 1
Ar
$end

$rem
jobtype sp
method wB97X-V
xc_grid 000099000590
basis aug-pc-4
max_scf_cycles 200
thresh 14
scf_convergence 8
scf_algorithm gdm
symmetry false
sym_ignore true
unrestricted true
gen_scfman true
internal_stability_iter 15
internal_stability_davidson_iter 200
mem_total 64000
mem_static 1500
n_frozen_core 0
$end


--------------------------------------------------------------
 ----------------------------------------------------------------
             Standard Nuclear Orientation (Angstroms)
    I     Atom           X                Y                Z
 ----------------------------------------------------------------
    1      Ar      0.0000000000     0.0000000000     0.0000000000
 ----------------------------------------------------------------
 Nuclear Repulsion Energy =     0.0000000000 hartrees
 There are        9 alpha and        9 beta electrons
 Requested basis set is aug-pc-4
 There are 31 shells and 141 basis functions

 Total QAlloc Memory Limit  64000 MB
 Mega-Array Size      1467 MB
 MEM_STATIC part      1500 MB
 A cutoff of  1.0D-14 yielded    496 shell pairs
 There are     10404 function pairs (     20742 Cartesian)
 
 -------------------------------------------------------
 OpenMP Integral Computing Module                       
 Release: version 1.0, May 2013, Q-Chem Inc. Pittsburgh 
 -------------------------------------------------------
 Integral Job Info:
 Integral job number is                      11
 Integral operator is                         1
 short-range coefficients              16700000
 long-range coefficients              100000000
 Omega coefficients                         300
 if combine SR and LR in K                    1
 Integral screening is                        0
 Integral computing path is                   2
 max size of driver memory is           6400000
 size of driver memory is               5498286
 size of scratch memory is             28418842
 max col of scratch BK array             194481
 max len of scratch array in speh3         5572
 max len of scratch index in speh4           72
 max int batch size is                      520
 min int batch size is                       52
 fixed nKL is                                 7
 max L of basis functions is                  5
 order of int derivative is                   0
 number of shells is                         31
 number of basis is                         198
 number of cartesian basis is               198
 number of contracted shell pairs           496
 number of primitive shell pairs           4175
 maxK2 (contraction) of shell pair          225
 max number of K2 of shell pair               1
 max number of CS2 of shell pair             35
 max number of PS2 of shell pair            528
 mem total for path MDJ                  814052
 -------------------------------------------------------
 Smallest overlap matrix eigenvalue = 6.02E-04

 Scale SEOQF with 1.000000e-01/1.000000e-01/1.000000e-01

 Standard Electronic Orientation quadrupole field applied
 Guess from superposition of atomic densities
 Warning:  Energy on first SCF cycle will be non-variational
 SAD guess density has 18.000000 electrons

 -----------------------------------------------------------------------
  General SCF calculation program by
  Eric Jon Sundstrom, Paul Horn, Yuezhi Mao, Dmitri Zuev, Alec White,
  David Stuck, Shaama M.S., Shane Yost, Joonho Lee, David Small,
  Daniel Levine, Susi Lehtola, Hugh Burton, Evgeny Epifanovsky
 -----------------------------------------------------------------------
 Exchange:     0.1670 Hartree-Fock + 1.0000 wB97X-V + LR-HF
 Correlation:  1.0000 wB97X-V
 Using Euler-Maclaurin-Lebedev (99,590) quadrature formula
 Nonlocal Correlation:  VV10 with C = 0.0100 and b = 6.00 and scale = 1.00000
 Grid used for NLC:  SG-1 standard quadrature
Running Object-Oriented UKS (UHF)
performing a single roothaan step with Fock from read density so that orbitals are available to all algorithms
 Nonlocal correlation = 0.077238760052
energy of the guess density (C=0) -527.470904169266
 Nonlocal correlation = 0.077225811545
We will preform up to 15 macro iterations over saddle points until a stable solution is found
Energy prior to optimization (guess energy) = -527.474532681248
Begin Timing: Total SCF Calculation
Begin Timing: SCF Single Stationary Point Calculation
begin iterations for algorithm: GDM          
the SCF tolerance is set to 1.00e-08
 Nonlocal correlation = 7.721675585862e-02
    1    -527.4745326812      2.47e-03     00000  Normal BFGS step
 Nonlocal correlation = 7.721790734319e-02
    2    -527.4745772905      6.52e-04     00000  Normal BFGS step
 Nonlocal correlation = 7.721764326162e-02
    3    -527.4745794036      1.22e-04     00000  Normal BFGS step
 Nonlocal correlation = 7.721766427445e-02
    4    -527.4745795360      1.98e-05     00000  Normal BFGS step
 Nonlocal correlation = 7.721766717726e-02
    5    -527.4745795388      2.27e-06     00000  Normal BFGS step
 Nonlocal correlation = 7.721766727407e-02
    6    -527.4745795388      2.77e-07     00000  Normal BFGS step
 Nonlocal correlation = 7.721766725279e-02
    7    -527.4745795388      1.89e-08     00000  Normal BFGS step
 Nonlocal correlation = 7.721766724973e-02
    8    -527.4745795388      1.77e-09     00000 Convergence criterion met
Timing for Single Stationary Point: 40.00s (wall), 311.20s (cpu)
Begin Timing: Stability
===================================================
Beginning Test for Internal Stability
===================================================
generating davidson guess vectors based on koopmans excitations
computing hessian-vector products by finite difference
 Nonlocal correlation = 0.077217667174
 Nonlocal correlation = 0.077217667309
 Nonlocal correlation = 0.077217667193
 Nonlocal correlation = 0.077217667290
 Nonlocal correlation = 0.077217667250
    1      8.15e-01     00000 Davidson Iteration
computing hessian-vector products by finite difference
 Nonlocal correlation = 7.721766749685e-02
 Nonlocal correlation = 7.721766698055e-02
 Nonlocal correlation = 7.721766665533e-02
 Nonlocal correlation = 7.721766782137e-02
 Nonlocal correlation = 7.721766724973e-02
    2      4.63e-01     00000 Davidson Iteration
computing hessian-vector products by finite difference
 Nonlocal correlation = 7.721766862610e-02
 Nonlocal correlation = 7.721766586153e-02
 Nonlocal correlation = 7.721766145144e-02
 Nonlocal correlation = 7.721767303881e-02
 Nonlocal correlation = 7.721766724973e-02
    3      2.70e-02     00000 Davidson Iteration
computing hessian-vector products by finite difference
 Nonlocal correlation = 7.721766991294e-02
 Nonlocal correlation = 7.721766457525e-02
 Nonlocal correlation = 7.721765190262e-02
 Nonlocal correlation = 7.721768258492e-02
 Nonlocal correlation = 7.721766724973e-02
    4      4.05e-02     00000 Davidson Iteration
computing hessian-vector products by finite difference
 Nonlocal correlation = 7.721766042172e-02
 Nonlocal correlation = 7.721767407520e-02
 Nonlocal correlation = 7.721762039280e-02
 Nonlocal correlation = 7.721771410316e-02
 Nonlocal correlation = 7.721766724973e-02
    5      8.35e-02     00000 Davidson Iteration
computing hessian-vector products by finite difference
 Nonlocal correlation = 7.721767821166e-02
 Nonlocal correlation = 7.721765627388e-02
 Nonlocal correlation = 7.721769127031e-02
 Nonlocal correlation = 7.721764322204e-02
 Nonlocal correlation = 7.721766724973e-02
    6      4.45e-02     00000 Davidson Iteration
computing hessian-vector products by finite difference
 Nonlocal correlation = 7.721762147400e-02
 Nonlocal correlation = 7.721771301230e-02
 Nonlocal correlation = 7.721766795697e-02
 Nonlocal correlation = 7.721766652274e-02
 Nonlocal correlation = 7.721766724973e-02
    7      1.18e-02     00000 Davidson Iteration
computing hessian-vector products by finite difference
 Nonlocal correlation = 7.721753599763e-02
 Nonlocal correlation = 7.721779849381e-02
 Nonlocal correlation = 7.721770875292e-02
 Nonlocal correlation = 7.721762573940e-02
 Nonlocal correlation = 7.721766724973e-02
    8      3.27e-03     00000 Davidson Iteration
computing hessian-vector products by finite difference
 Nonlocal correlation = 7.721757416429e-02
 Nonlocal correlation = 7.721776032704e-02
 Nonlocal correlation = 7.721768834738e-02
 Nonlocal correlation = 7.721764614453e-02
 Nonlocal correlation = 7.721766724973e-02
    9      1.70e-02     00000 Davidson Iteration
computing hessian-vector products by finite difference
 Nonlocal correlation = 7.721768920740e-02
 Nonlocal correlation = 7.721764528684e-02
 Nonlocal correlation = 7.721769506699e-02
 Nonlocal correlation = 7.721763942612e-02
 Nonlocal correlation = 7.721766724973e-02
   10      2.86e-03     00000 Davidson Iteration
computing hessian-vector products by finite difference
 Nonlocal correlation = 7.721767193697e-02
 Nonlocal correlation = 7.721766254765e-02
 Nonlocal correlation = 7.721763060880e-02
 Nonlocal correlation = 7.721770388168e-02
 Nonlocal correlation = 7.721766724973e-02
   11      1.76e-03     00000 Davidson Iteration
computing hessian-vector products by finite difference
 Nonlocal correlation = 7.721769732064e-02
 Nonlocal correlation = 7.721763717071e-02
 Nonlocal correlation = 7.721765751009e-02
 Nonlocal correlation = 7.721767698161e-02
 Nonlocal correlation = 7.721766724973e-02
   12      4.27e-03     00000 Davidson Iteration
computing hessian-vector products by finite difference
 Nonlocal correlation = 7.721766676427e-02
 Nonlocal correlation = 7.721766772927e-02
 Nonlocal correlation = 7.721768604217e-02
 Nonlocal correlation = 7.721764844782e-02
 Nonlocal correlation = 7.721766724973e-02
   13      1.49e-03     00000 Davidson Iteration
computing hessian-vector products by finite difference
 Nonlocal correlation = 7.721767703268e-02
 Nonlocal correlation = 7.721765746402e-02
 Nonlocal correlation = 7.721765879983e-02
 Nonlocal correlation = 7.721767569569e-02
 Nonlocal correlation = 7.721766724973e-02
   14      1.22e-03     00000 Davidson Iteration
computing hessian-vector products by finite difference
 Nonlocal correlation = 7.721770168940e-02
 Nonlocal correlation = 7.721763280379e-02
 Nonlocal correlation = 7.721765544989e-02
 Nonlocal correlation = 7.721767904472e-02
 Nonlocal correlation = 7.721766724973e-02
   15      7.30e-04     00000 Davidson Iteration
computing hessian-vector products by finite difference
 Nonlocal correlation = 7.721766980190e-02
 Nonlocal correlation = 7.721766468693e-02
 Nonlocal correlation = 7.721767201556e-02
 Nonlocal correlation = 7.721766247171e-02
 Nonlocal correlation = 7.721766724973e-02
   16      2.05e-02     00000 Davidson Iteration
computing hessian-vector products by finite difference
 Nonlocal correlation = 7.721766168512e-02
 Nonlocal correlation = 7.721767281280e-02
 Nonlocal correlation = 7.721766539919e-02
 Nonlocal correlation = 7.721766909678e-02
 Nonlocal correlation = 7.721766724973e-02
   17      7.55e-03     00000 Davidson Iteration
computing hessian-vector products by finite difference
 Nonlocal correlation = 7.721769101099e-02
 Nonlocal correlation = 7.721764348668e-02
 Nonlocal correlation = 7.721766354304e-02
 Nonlocal correlation = 7.721767095147e-02
 Nonlocal correlation = 7.721766724973e-02
   18      3.70e-03     00000 Davidson Iteration
computing hessian-vector products by finite difference
 Nonlocal correlation = 7.721769441105e-02
 Nonlocal correlation = 7.721764008990e-02
 Nonlocal correlation = 7.721770432371e-02
 Nonlocal correlation = 7.721763016657e-02
 Nonlocal correlation = 7.721766724973e-02
   19      1.71e-03     00000 Davidson Iteration
computing hessian-vector products by finite difference
 Nonlocal correlation = 7.721764640652e-02
 Nonlocal correlation = 7.721768808705e-02
 Nonlocal correlation = 7.721760511876e-02
 Nonlocal correlation = 7.721772937830e-02
 Nonlocal correlation = 7.721766724973e-02
   20      9.54e-04     00000 Davidson Converged
converged_eigenvalues
   0.8907
   0.8104
Threshold for negative eigenvalues: -1.0e-05
solution was a local minimum (stable)
===================================================
End Test for Internal Stability
===================================================
Our SCF solution is stable!
Timing for Total SCF: 1053.00s (wall), 8344.96s (cpu)
 Total energy in the final basis set =     -527.4745795388
<S^2> =         -0.000000000
    ==================================================
              The end of Object-Oriented SCFman       
    ==================================================
 
 --------------------------------------------------------------
 
                    Orbital Energies (a.u.)
 --------------------------------------------------------------
 
 Alpha MOs
 -- Occupied --
******* -11.229  -8.771  -8.771  -8.771  -1.095  -0.535  -0.535
 -0.535
 -- Virtual --
  0.065   0.065   0.065   0.081   0.219   0.219   0.219   0.219
  0.219   0.252   0.252   0.252   0.437   0.466   0.466   0.466
  0.466   0.466   0.466   0.466   0.481   0.481   0.481   0.481
  0.481   0.739   0.739   0.739   0.739   0.739   0.739   0.739
  0.739   0.739   0.770   0.770   0.770   1.049   1.049   1.049
  1.049   1.049   1.062   1.062   1.062   1.062   1.062   1.062
  1.062   1.062   1.062   1.062   1.062   1.523   1.611   1.611
  1.611   1.611   1.611   1.611   1.611   2.132   2.132   2.132
  2.438   2.438   2.438   2.438   2.438   3.356   3.356   3.356
  3.356   3.356   3.356   3.356   3.356   3.356   4.074   4.074
  4.074   4.074   4.074   4.074   4.074   4.876   5.980   5.980
  5.980   6.195   6.195   6.195   6.195   6.195   6.333   6.333
  6.333   6.333   6.333   6.333   6.333   6.333   6.333   6.333
  6.333  10.216  10.216  10.216  10.216  10.216  10.216  10.216
 10.216  10.216  14.376  14.376  14.376  14.376  14.376  14.376
 14.376  18.610  18.610  18.610  18.610  18.610  48.896  69.581
 69.581  69.581  69.581  69.581
 
 Beta MOs
 -- Occupied --
******* -11.229  -8.771  -8.771  -8.771  -1.095  -0.535  -0.535
 -0.535
 -- Virtual --
  0.065   0.065   0.065   0.081   0.219   0.219   0.219   0.219
  0.219   0.252   0.252   0.252   0.437   0.466   0.466   0.466
  0.466   0.466   0.466   0.466   0.481   0.481   0.481   0.481
  0.481   0.739   0.739   0.739   0.739   0.739   0.739   0.739
  0.739   0.739   0.770   0.770   0.770   1.049   1.049   1.049
  1.049   1.049   1.062   1.062   1.062   1.062   1.062   1.062
  1.062   1.062   1.062   1.062   1.062   1.523   1.611   1.611
  1.611   1.611   1.611   1.611   1.611   2.132   2.132   2.132
  2.438   2.438   2.438   2.438   2.438   3.356   3.356   3.356
  3.356   3.356   3.356   3.356   3.356   3.356   4.074   4.074
  4.074   4.074   4.074   4.074   4.074   4.876   5.980   5.980
  5.980   6.195   6.195   6.195   6.195   6.195   6.333   6.333
  6.333   6.333   6.333   6.333   6.333   6.333   6.333   6.333
  6.333  10.216  10.216  10.216  10.216  10.216  10.216  10.216
 10.216  10.216  14.376  14.376  14.376  14.376  14.376  14.376
 14.376  18.610  18.610  18.610  18.610  18.610  48.896  69.581
 69.581  69.581  69.581  69.581
 --------------------------------------------------------------
 
          Ground-State Mulliken Net Atomic Charges

     Atom                 Charge (a.u.)    Spin (a.u.)
  --------------------------------------------------------
      1 Ar                   -0.000000      -0.000000
  --------------------------------------------------------
  Sum of atomic charges =    -0.000000
  Sum of spin   charges =    -0.000000

 -----------------------------------------------------------------
                    Cartesian Multipole Moments
 -----------------------------------------------------------------
    Charge (ESU x 10^10)
                -0.0000
    Dipole Moment (Debye)
         X       0.0000      Y       0.0000      Z      -0.0000
       Tot       0.0000
    Quadrupole Moments (Debye-Ang)
        XX     -11.7107     XY       0.0000     YY     -11.7107
        XZ       0.0000     YZ       0.0000     ZZ     -11.7107
    Octopole Moments (Debye-Ang^2)
       XXX       0.0000    XXY      -0.0000    XYY       0.0000
       YYY      -0.0000    XXZ      -0.0000    XYZ       0.0000
       YYZ      -0.0000    XZZ       0.0000    YZZ      -0.0000
       ZZZ      -0.0000
    Hexadecapole Moments (Debye-Ang^3)
      XXXX     -11.2169   XXXY      -0.0000   XXYY      -3.7390
      XYYY      -0.0000   YYYY     -11.2169   XXXZ       0.0000
      XXYZ      -0.0000   XYYZ       0.0000   YYYZ      -0.0000
      XXZZ      -3.7390   XYZZ      -0.0000   YYZZ      -3.7390
      XZZZ       0.0000   YZZZ      -0.0000   ZZZZ     -11.2169
 -----------------------------------------------------------------

 STANDARD THERMODYNAMIC QUANTITIES AT   298.15 K  AND     1.00 ATM

   Translational Enthalpy:        0.889 kcal/mol
   Rotational Enthalpy:           0.000 kcal/mol
   Vibrational Enthalpy:          0.000 kcal/mol
   gas constant (RT):             0.592 kcal/mol
   Translational Entropy:        36.983  cal/mol.K
   Rotational Entropy:            0.000  cal/mol.K
   Vibrational Entropy:           0.000  cal/mol.K

   Total Enthalpy:                1.481 kcal/mol
   Total Entropy:                36.983  cal/mol.K

 -----------------------------------------------------------------

Archival summary:
1\1\n0031.mhg0\SP\ProcedureUnspecified\BasisUnspecified\r1\yhljason\SatJun2707:13:252020SatJun2707:13:252020\0\\#,ProcedureUnspecified,BasisUnspecified,\\0,1\Ar\\\@

 Total job time:  1062.33s(wall), 8409.04s(cpu) 
 Sat Jun 27 07:13:25 2020

        *************************************************************
        *                                                           *
        *  Thank you very much for using Q-Chem.  Have a nice day.  *
        *                                                           *
        *************************************************************


