Q-Chem Developer Version!
                  Welcome to Q-Chem
     A Quantum Leap Into The Future Of Chemistry


 Q-Chem 5.1, Q-Chem, Inc., Pleasanton, CA (2018)

 Yihan Shao,  Zhengting Gan,  E. Epifanovsky,  A. T. B. Gilbert,  M. Wormit,  
 J. Kussmann,  A. W. Lange,  A. Behn,  Jia Deng,  Xintian Feng,  D. Ghosh,  
 M. Goldey,  P. R. Horn,  L. D. Jacobson,  I. Kaliman,  T. Kus,  A. Landau,  
 Jie Liu,  E. I. Proynov,  R. M. Richard,  R. P. Steele,  E. J. Sundstrom,  
 H. L. Woodcock III,  P. M. Zimmerman,  D. Zuev,  B. Albrecht,  E. Alguire,  
 S. A. Baeppler,  D. Barton,  Z. Benda,  Y. A. Bernard,  E. J. Berquist,  
 K. B. Bravaya,  H. Burton,  D. Casanova,  Chun-Min Chang,  Yunqing Chen,  
 A. Chien,  K. D. Closser,  M. P. Coons,  S. Coriani,  S. Dasgupta,  
 A. L. Dempwolff,  M. Diedenhofen,  Hainam Do,  R. G. Edgar,  Po-Tung Fang,  
 S. Faraji,  S. Fatehi,  Qingguo Feng,  K. D. Fenk,  J. Fosso-Tande,  
 Qinghui Ge,  A. Ghysels,  G. Gidofalvi,  J. Gomes,  J. Gonthier,  A. Gunina,  
 D. Hait,  M. W. D. Hanson-Heine,  P. H. P. Harbach,  A. W. Hauser,  
 J. E. Herr,  E. G. Hohenstein,  Z. C. Holden,  Kerwin Hui,  B. C. Huynh,  
 T.-C. Jagau,  Hyunjun Ji,  B. Kaduk,  K. Khistyaev,  Jaehoon Kim,  
 P. Klunzinger,  K. Koh,  D. Kosenkov,  L. Koulias,  T. Kowalczyk,  
 C. M. Krauter,  A. Kunitsa,  Ka Un Lao,  A. Laurent,  K. V. Lawler,  
 Joonho Lee,  D. Lefrancois,  S. Lehtola,  D. S. Levine,  Yi-Pei Li,  
 You-Sheng Lin,  Fenglai Liu,  E. Livshits,  A. Luenser,  P. Manohar,  
 E. Mansoor,  S. F. Manzer,  Shan-Ping Mao,  Yuezhi Mao,  N. Mardirossian,  
 A. V. Marenich,  T. Markovich,  L. A. Martinez-Martinez,  S. A. Maurer,  
 N. J. Mayhall,  S. C. McKenzie,  J.-M. Mewes,  A. F. Morrison,  
 J. W. Mullinax,  K. Nanda,  T. S. Nguyen-Beck,  R. Olivares-Amaya,  
 J. A. Parkhill,  T. M. Perrine,  F. Plasser,  P. Pokhilko,  S. Prager,  
 A. Prociuk,  E. Ramos,  D. R. Rehn,  F. Rob,  M. Schneider,  N. Sergueev,  
 S. M. Sharada,  S. Sharma,  D. W. Small,  T. Stauch,  T. Stein,  
 Yu-Chuan Su,  A. J. W. Thom,  A. Tkatchenko,  T. Tsuchimochi,  N. M. Tubman,  
 L. Vogt,  M. L. Vidal,  O. Vydrov,  M. A. Watson,  J. Wenzel,  
 M. de Wergifosse,  T. A. Wesolowski,  A. White,  J. Witte,  A. Yamada,  
 Jun Yang,  K. Yao,  S. Yeganeh,  S. R. Yost,  Zhi-Qiang You,  A. Zech,  
 Igor Ying Zhang,  Xing Zhang,  Yan Zhao,  Ying Zhu,  B. R. Brooks,  
 G. K. L. Chan,  C. J. Cramer,  M. S. Gordon,  W. J. Hehre,  A. Klamt,  
 M. W. Schmidt,  C. D. Sherrill,  D. G. Truhlar,  A. Aspuru-Guzik,  R. Baer,  
 A. T. Bell,  N. A. Besley,  Jeng-Da Chai,  A. E. DePrince, III,  
 R. A. DiStasio Jr.,  A. Dreuw,  B. D. Dunietz,  T. R. Furlani,  
 Chao-Ping Hsu,  Yousung Jung,  Jing Kong,  D. S. Lambrecht,  WanZhen Liang,  
 C. Ochsenfeld,  V. A. Rassolov,  L. V. Slipchenko,  J. E. Subotnik,  
 T. Van Voorhis,  J. M. Herbert,  A. I. Krylov,  P. M. W. Gill,  M. Head-Gordon

 Contributors to earlier versions of Q-Chem not listed above: 
 R. D. Adamson,  B. Austin,  J. Baker,  G. J. O. Beran,  K. Brandhorst,  
 S. T. Brown,  E. F. C. Byrd,  A. K. Chakraborty,  C.-L. Cheng,  
 Siu Hung Chien,  D. M. Chipman,  D. L. Crittenden,  H. Dachsel,  
 R. J. Doerksen,  A. D. Dutoi,  L. Fusti-Molnar,  W. A. Goddard III,  
 A. Golubeva-Zadorozhnaya,  S. R. Gwaltney,  G. Hawkins,  A. Heyden,  
 S. Hirata,  G. Kedziora,  F. J. Keil,  C. Kelley,  Jihan Kim,  R. A. King,  
 R. Z. Khaliullin,  P. P. Korambath,  W. Kurlancheek,  A. M. Lee,  M. S. Lee,  
 S. V. Levchenko,  Ching Yeh Lin,  D. Liotard,  R. C. Lochan,  I. Lotan,  
 P. E. Maslen,  N. Nair,  D. P. O'Neill,  D. Neuhauser,  E. Neuscamman,  
 C. M. Oana,  R. Olson,  B. Peters,  R. Peverati,  P. A. Pieniazek,  
 Y. M. Rhee,  J. Ritchie,  M. A. Rohrdanz,  E. Rosta,  N. J. Russ,  
 H. F. Schaefer III,  N. E. Schultz,  N. Shenvi,  A. C. Simmonett,  A. Sodt,  
 D. Stuck,  K. S. Thanthiriwatte,  V. Vanovschi,  Tao Wang,  A. Warshel,  
 C. F. Williams,  Q. Wu,  X. Xu,  W. Zhang

 Please cite Q-Chem as follows:
 Y. Shao et al., Mol. Phys. 113, 184-215 (2015)
 DOI: 10.1080/00268976.2014.952696

 Q-Chem 5.1.1 for Intel X86 EM64T Linux

 Parts of Q-Chem use Armadillo 8.300.2 (Tropical Shenanigans).
 http://arma.sourceforge.net/

 Q-Chem begins on Thu Jul  9 03:05:09 2020  

Host: n0070.mhg0
0

     Scratch files written to /local/scratch/users/yhljason/BeH_MGGA_MS2_aug-pc-4.inp20200709030442//
Input Ideriv = 2
Curr. Ideriv = -1
Max.  Ideriv = 2
Input Ideriv = 1
Curr. Ideriv = 2
Max.  Ideriv = 1

Checking the input file for inconsistencies... 	...done.

--------------------------------------------------------------
User input:
--------------------------------------------------------------
$molecule
0 2
H 0 0 0
Be 0 0 1.3426
$end

$rem
jobtype sp
method MGGA_MS2
xc_grid 000099000590
basis aug-pc-4
max_scf_cycles 200
thresh 14
scf_convergence 8
scf_algorithm gdm
symmetry false
sym_ignore true
unrestricted true
gen_scfman true
internal_stability_iter 15
internal_stability_davidson_iter 200
mem_total 64000
mem_static 1500
n_frozen_core 0
$end


--------------------------------------------------------------
 ----------------------------------------------------------------
             Standard Nuclear Orientation (Angstroms)
    I     Atom           X                Y                Z
 ----------------------------------------------------------------
    1      H       0.0000000000     0.0000000000     0.0000000000
    2      Be      0.0000000000     0.0000000000     1.3426000000
 ----------------------------------------------------------------
 Nuclear Repulsion Energy =     1.5765744400 hartrees
 There are        3 alpha and        2 beta electrons
 Requested basis set is aug-pc-4
 There are 47 shells and 171 basis functions

 Total QAlloc Memory Limit  64000 MB
 Mega-Array Size      1467 MB
 MEM_STATIC part      1500 MB

                       Distance Matrix (Angstroms)
             H (  1)
   Be(  2)  1.342600
 
 A cutoff of  1.0D-14 yielded   1128 shell pairs
 There are     15092 function pairs (     25377 Cartesian)
 
 -------------------------------------------------------
 OpenMP Integral Computing Module                       
 Release: version 1.0, May 2013, Q-Chem Inc. Pittsburgh 
 -------------------------------------------------------
 Integral Job Info:
 Integral job number is                      11
 Integral operator is                         1
 short-range coefficients                     0
 long-range coefficients              100000000
 Omega coefficients                           0
 if combine SR and LR in K                    0
 Integral screening is                        0
 Integral computing path is                   2
 max size of driver memory is           3200000
 size of driver memory is               1704330
 size of scratch memory is             29509040
 max col of scratch BK array              50625
 max len of scratch array in speh3         2114
 max len of scratch index in speh4           50
 max int batch size is                      520
 min int batch size is                       52
 fixed nKL is                                40
 max L of basis functions is                  4
 order of int derivative is                   0
 number of shells is                         47
 number of basis is                         221
 number of cartesian basis is               221
 number of contracted shell pairs          1128
 number of primitive shell pairs           3017
 maxK2 (contraction) of shell pair          144
 max number of K2 of shell pair               1
 max number of CS2 of shell pair            154
 max number of PS2 of shell pair            432
 mem total for path MDJ                  660646
 -------------------------------------------------------
 Smallest overlap matrix eigenvalue = 1.01E-05

 Scale SEOQF with 1.000000e-01/1.000000e-01/1.000000e-01

 Standard Electronic Orientation quadrupole field applied
 Nucleus-field energy     =    -0.0000000008 hartrees
 Guess from superposition of atomic densities
 Warning:  Energy on first SCF cycle will be non-variational
 SAD guess density has 5.000000 electrons

 -----------------------------------------------------------------------
  General SCF calculation program by
  Eric Jon Sundstrom, Paul Horn, Yuezhi Mao, Dmitri Zuev, Alec White,
  David Stuck, Shaama M.S., Shane Yost, Joonho Lee, David Small,
  Daniel Levine, Susi Lehtola, Hugh Burton, Evgeny Epifanovsky
 -----------------------------------------------------------------------
 Exchange:  MGGA_MS2      Correlation:  regTPSS
 Using Euler-Maclaurin-Lebedev (99,590) quadrature formula
Running Object-Oriented UKS (UHF)
performing a single roothaan step with Fock from read density so that orbitals are available to all algorithms
energy of the guess density (C=0) -15.221591304722
We will preform up to 15 macro iterations over saddle points until a stable solution is found
Energy prior to optimization (guess energy) = -15.266125895231
Begin Timing: Total SCF Calculation
Begin Timing: SCF Single Stationary Point Calculation
begin iterations for algorithm: GDM          
the SCF tolerance is set to 1.00e-08
    1     -15.2661258952      6.04e-02     00000  Normal BFGS step
    2     -15.2735239644      6.25e-02     00000  Normal BFGS step
    3     -15.2769885407      1.23e-03     00000  Normal BFGS step
    4     -15.2770009152      3.75e-04     00000  Normal BFGS step
    5     -15.2770014705      5.17e-05     00000  Normal BFGS step
    6     -15.2770014902      9.77e-06     00000  Normal BFGS step
    7     -15.2770014905      1.66e-06     00000  Normal BFGS step
    8     -15.2770014905      1.93e-07     00000  Normal BFGS step
    9     -15.2770014905      4.59e-08     00000  Normal BFGS step
   10     -15.2770014905      1.38e-08     00000  Normal BFGS step
   11     -15.2770014905      7.48e-09     00000 Convergence criterion met
Timing for Single Stationary Point: 40.00s (wall), 315.40s (cpu)
Begin Timing: Stability
===================================================
Beginning Test for Internal Stability
===================================================
generating davidson guess vectors based on koopmans excitations
    1      3.55e-01     00000 Davidson Iteration
    2      8.26e-02     00000 Davidson Iteration
    3      3.52e-02     00000 Davidson Iteration
    4      1.22e-02     00000 Davidson Iteration
    5      1.62e-03     00000 Davidson Iteration
    6      1.42e-04     00000 Davidson Iteration
    7      3.07e-05     00000 Davidson Converged
converged_eigenvalues
   0.1767
   0.1767
Threshold for negative eigenvalues: -1.0e-05
solution was a local minimum (stable)
===================================================
End Test for Internal Stability
===================================================
Our SCF solution is stable!
Timing for Total SCF: 130.00s (wall), 1026.78s (cpu)
 Total energy in the final basis set =      -15.2770014905
<S^2> =          0.751244245
    ==================================================
              The end of Object-Oriented SCFman       
    ==================================================
 
 --------------------------------------------------------------
 
                    Orbital Energies (a.u.)
 --------------------------------------------------------------
 
 Alpha MOs
 -- Occupied --
 -3.950  -0.319  -0.184
 -- Virtual --
 -0.076  -0.076   0.001   0.015   0.023   0.023   0.039   0.050
  0.071   0.071   0.073   0.079   0.079   0.108   0.108   0.112
  0.132   0.151   0.162   0.162   0.172   0.172   0.175   0.175
  0.200   0.200   0.215   0.248   0.250   0.250   0.297   0.297
  0.302   0.302   0.303   0.303   0.305   0.305   0.308   0.308
  0.308   0.318   0.355   0.378   0.378   0.411   0.411   0.423
  0.460   0.460   0.490   0.490   0.517   0.529   0.529   0.546
  0.546   0.550   0.554   0.554   0.592   0.592   0.667   0.667
  0.675   0.735   0.749   0.749   0.755   0.814   0.814   1.014
  1.017   1.017   1.107   1.107   1.209   1.243   1.243   1.278
  1.278   1.320   1.320   1.375   1.504   1.622   1.655   1.655
  1.786   1.786   1.856   1.998   2.062   2.062   2.064   2.064
  2.744   2.847   2.848   2.962   2.962   3.370   3.410   3.410
  3.425   3.425   3.454   3.454   3.549   3.549   3.562   3.760
  3.760   3.848   3.886   3.886   3.928   3.928   4.011   4.130
  4.130   4.225   4.591   4.591   4.592   4.924   4.924   5.418
  5.529   5.529   8.390   8.390   8.763   8.763   8.778   9.027
  9.027   9.502   9.824   9.824  10.204  10.221  10.221  10.848
 12.314  12.314  12.551  12.551  12.826  12.826  13.437  16.801
 16.801  16.808  16.808  16.957  16.971  16.971  17.412  17.412
 19.377  23.258  23.258  23.967  38.748  90.994  90.994  91.512
 
 Beta MOs
 -- Occupied --
 -3.941  -0.308
 -- Virtual --
 -0.077  -0.045  -0.045   0.008   0.026   0.030   0.030   0.043
  0.062   0.091   0.091   0.092   0.092   0.107   0.121   0.121
  0.121   0.149   0.167   0.176   0.176   0.187   0.187   0.192
  0.192   0.229   0.229   0.238   0.251   0.251   0.269   0.312
  0.312   0.316   0.316   0.321   0.321   0.324   0.324   0.325
  0.325   0.330   0.358   0.372   0.402   0.402   0.425   0.425
  0.430   0.455   0.455   0.496   0.496   0.533   0.537   0.537
  0.544   0.544   0.581   0.584   0.584   0.587   0.587   0.666
  0.666   0.685   0.745   0.745   0.748   0.778   0.838   0.838
  1.027   1.027   1.065   1.136   1.136   1.219   1.253   1.253
  1.286   1.286   1.299   1.299   1.362   1.508   1.647   1.661
  1.661   1.793   1.793   1.875   2.010   2.057   2.057   2.068
  2.068   2.760   2.798   2.798   2.952   2.952   3.346   3.376
  3.376   3.387   3.387   3.441   3.441   3.549   3.549   3.549
  3.751   3.751   3.846   3.901   3.901   3.920   3.920   3.992
  4.102   4.102   4.213   4.562   4.582   4.582   4.873   4.873
  5.409   5.507   5.507   8.362   8.362   8.742   8.742   8.762
  9.015   9.015   9.486   9.783   9.783  10.169  10.169  10.185
 10.832  12.292  12.292  12.532  12.532  12.816  12.816  13.427
 16.783  16.783  16.793  16.793  16.954  16.960  16.960  17.405
 17.405  19.370  23.261  23.261  23.974  38.762  91.010  91.010
 91.528
 --------------------------------------------------------------
 
          Ground-State Mulliken Net Atomic Charges

     Atom                 Charge (a.u.)    Spin (a.u.)
  --------------------------------------------------------
      1 H                    -0.217486       0.070863
      2 Be                    0.217486       0.929137
  --------------------------------------------------------
  Sum of atomic charges =    -0.000000
  Sum of spin   charges =     1.000000

 -----------------------------------------------------------------
                    Cartesian Multipole Moments
 -----------------------------------------------------------------
    Charge (ESU x 10^10)
                 0.0000
    Dipole Moment (Debye)
         X       0.0000      Y      -0.0000      Z       0.2607
       Tot       0.2607
    Quadrupole Moments (Debye-Ang)
        XX      -6.6589     XY       0.0000     YY      -6.6589
        XZ       0.0000     YZ       0.0000     ZZ     -10.1564
    Octopole Moments (Debye-Ang^2)
       XXX       0.0000    XXY      -0.0000    XYY       0.0000
       YYY      -0.0000    XXZ      -8.2133    XYZ      -0.0000
       YYZ      -8.2133    XZZ       0.0000    YZZ       0.0000
       ZZZ     -38.8198
    Hexadecapole Moments (Debye-Ang^3)
      XXXX     -12.7876   XXXY      -0.0000   XXYY      -4.2625
      XYYY      -0.0000   YYYY     -12.7876   XXXZ       0.0000
      XXYZ      -0.0000   XYYZ       0.0000   YYYZ      -0.0000
      XXZZ     -18.7874   XYZZ      -0.0000   YYZZ     -18.7874
      XZZZ       0.0000   YZZZ       0.0000   ZZZZ    -135.6352
 -----------------------------------------------------------------
Archival summary:
1\1\n0070.mhg0\SP\ProcedureUnspecified\BasisUnspecified\e11(2)\yhljason\ThuJul903:07:272020ThuJul903:07:272020\0\\#,ProcedureUnspecified,BasisUnspecified,\\0,2\H\Be,1,1.3426\\\@

 Total job time:  137.73s(wall), 1083.96s(cpu) 
 Thu Jul  9 03:07:27 2020

        *************************************************************
        *                                                           *
        *  Thank you very much for using Q-Chem.  Have a nice day.  *
        *                                                           *
        *************************************************************


