Q-Chem Developer Version!
                  Welcome to Q-Chem
     A Quantum Leap Into The Future Of Chemistry


 Q-Chem 5.1, Q-Chem, Inc., Pleasanton, CA (2018)

 Yihan Shao,  Zhengting Gan,  E. Epifanovsky,  A. T. B. Gilbert,  M. Wormit,  
 J. Kussmann,  A. W. Lange,  A. Behn,  Jia Deng,  Xintian Feng,  D. Ghosh,  
 M. Goldey,  P. R. Horn,  L. D. Jacobson,  I. Kaliman,  T. Kus,  A. Landau,  
 Jie Liu,  E. I. Proynov,  R. M. Richard,  R. P. Steele,  E. J. Sundstrom,  
 H. L. Woodcock III,  P. M. Zimmerman,  D. Zuev,  B. Albrecht,  E. Alguire,  
 S. A. Baeppler,  D. Barton,  Z. Benda,  Y. A. Bernard,  E. J. Berquist,  
 K. B. Bravaya,  H. Burton,  D. Casanova,  Chun-Min Chang,  Yunqing Chen,  
 A. Chien,  K. D. Closser,  M. P. Coons,  S. Coriani,  S. Dasgupta,  
 A. L. Dempwolff,  M. Diedenhofen,  Hainam Do,  R. G. Edgar,  Po-Tung Fang,  
 S. Faraji,  S. Fatehi,  Qingguo Feng,  K. D. Fenk,  J. Fosso-Tande,  
 Qinghui Ge,  A. Ghysels,  G. Gidofalvi,  J. Gomes,  J. Gonthier,  A. Gunina,  
 D. Hait,  M. W. D. Hanson-Heine,  P. H. P. Harbach,  A. W. Hauser,  
 J. E. Herr,  E. G. Hohenstein,  Z. C. Holden,  Kerwin Hui,  B. C. Huynh,  
 T.-C. Jagau,  Hyunjun Ji,  B. Kaduk,  K. Khistyaev,  Jaehoon Kim,  
 P. Klunzinger,  K. Koh,  D. Kosenkov,  L. Koulias,  T. Kowalczyk,  
 C. M. Krauter,  A. Kunitsa,  Ka Un Lao,  A. Laurent,  K. V. Lawler,  
 Joonho Lee,  D. Lefrancois,  S. Lehtola,  D. S. Levine,  Yi-Pei Li,  
 You-Sheng Lin,  Fenglai Liu,  E. Livshits,  A. Luenser,  P. Manohar,  
 E. Mansoor,  S. F. Manzer,  Shan-Ping Mao,  Yuezhi Mao,  N. Mardirossian,  
 A. V. Marenich,  T. Markovich,  L. A. Martinez-Martinez,  S. A. Maurer,  
 N. J. Mayhall,  S. C. McKenzie,  J.-M. Mewes,  A. F. Morrison,  
 J. W. Mullinax,  K. Nanda,  T. S. Nguyen-Beck,  R. Olivares-Amaya,  
 J. A. Parkhill,  T. M. Perrine,  F. Plasser,  P. Pokhilko,  S. Prager,  
 A. Prociuk,  E. Ramos,  D. R. Rehn,  F. Rob,  M. Schneider,  N. Sergueev,  
 S. M. Sharada,  S. Sharma,  D. W. Small,  T. Stauch,  T. Stein,  
 Yu-Chuan Su,  A. J. W. Thom,  A. Tkatchenko,  T. Tsuchimochi,  N. M. Tubman,  
 L. Vogt,  M. L. Vidal,  O. Vydrov,  M. A. Watson,  J. Wenzel,  
 M. de Wergifosse,  T. A. Wesolowski,  A. White,  J. Witte,  A. Yamada,  
 Jun Yang,  K. Yao,  S. Yeganeh,  S. R. Yost,  Zhi-Qiang You,  A. Zech,  
 Igor Ying Zhang,  Xing Zhang,  Yan Zhao,  Ying Zhu,  B. R. Brooks,  
 G. K. L. Chan,  C. J. Cramer,  M. S. Gordon,  W. J. Hehre,  A. Klamt,  
 M. W. Schmidt,  C. D. Sherrill,  D. G. Truhlar,  A. Aspuru-Guzik,  R. Baer,  
 A. T. Bell,  N. A. Besley,  Jeng-Da Chai,  A. E. DePrince, III,  
 R. A. DiStasio Jr.,  A. Dreuw,  B. D. Dunietz,  T. R. Furlani,  
 Chao-Ping Hsu,  Yousung Jung,  Jing Kong,  D. S. Lambrecht,  WanZhen Liang,  
 C. Ochsenfeld,  V. A. Rassolov,  L. V. Slipchenko,  J. E. Subotnik,  
 T. Van Voorhis,  J. M. Herbert,  A. I. Krylov,  P. M. W. Gill,  M. Head-Gordon

 Contributors to earlier versions of Q-Chem not listed above: 
 R. D. Adamson,  B. Austin,  J. Baker,  G. J. O. Beran,  K. Brandhorst,  
 S. T. Brown,  E. F. C. Byrd,  A. K. Chakraborty,  C.-L. Cheng,  
 Siu Hung Chien,  D. M. Chipman,  D. L. Crittenden,  H. Dachsel,  
 R. J. Doerksen,  A. D. Dutoi,  L. Fusti-Molnar,  W. A. Goddard III,  
 A. Golubeva-Zadorozhnaya,  S. R. Gwaltney,  G. Hawkins,  A. Heyden,  
 S. Hirata,  G. Kedziora,  F. J. Keil,  C. Kelley,  Jihan Kim,  R. A. King,  
 R. Z. Khaliullin,  P. P. Korambath,  W. Kurlancheek,  A. M. Lee,  M. S. Lee,  
 S. V. Levchenko,  Ching Yeh Lin,  D. Liotard,  R. C. Lochan,  I. Lotan,  
 P. E. Maslen,  N. Nair,  D. P. O'Neill,  D. Neuhauser,  E. Neuscamman,  
 C. M. Oana,  R. Olson,  B. Peters,  R. Peverati,  P. A. Pieniazek,  
 Y. M. Rhee,  J. Ritchie,  M. A. Rohrdanz,  E. Rosta,  N. J. Russ,  
 H. F. Schaefer III,  N. E. Schultz,  N. Shenvi,  A. C. Simmonett,  A. Sodt,  
 D. Stuck,  K. S. Thanthiriwatte,  V. Vanovschi,  Tao Wang,  A. Warshel,  
 C. F. Williams,  Q. Wu,  X. Xu,  W. Zhang

 Please cite Q-Chem as follows:
 Y. Shao et al., Mol. Phys. 113, 184-215 (2015)
 DOI: 10.1080/00268976.2014.952696

 Q-Chem 5.1.1 for Intel X86 EM64T Linux

 Parts of Q-Chem use Armadillo 8.300.2 (Tropical Shenanigans).
 http://arma.sourceforge.net/

 Q-Chem begins on Sat Jun 27 08:10:13 2020  

Host: n0056.mhg0
0

     Scratch files written to /local/scratch/users/yhljason/BeH_wB97X-V_aug-pc-4.inp20200627013259//
Input Ideriv = 2
Curr. Ideriv = -1
Max.  Ideriv = 2
Input Ideriv = 1
Curr. Ideriv = 2
Max.  Ideriv = 1

Checking the input file for inconsistencies... 	...done.

--------------------------------------------------------------
User input:
--------------------------------------------------------------
$molecule
0 2
H 0 0 0
Be 0 0 1.3426
$end

$rem
jobtype sp
method wB97X-V
xc_grid 000099000590
basis aug-pc-4
max_scf_cycles 200
thresh 14
scf_convergence 8
scf_algorithm gdm
symmetry false
sym_ignore true
unrestricted true
gen_scfman true
internal_stability_iter 15
internal_stability_davidson_iter 200
mem_total 64000
mem_static 1500
n_frozen_core 0
$end


--------------------------------------------------------------
 ----------------------------------------------------------------
             Standard Nuclear Orientation (Angstroms)
    I     Atom           X                Y                Z
 ----------------------------------------------------------------
    1      H       0.0000000000     0.0000000000     0.0000000000
    2      Be      0.0000000000     0.0000000000     1.3426000000
 ----------------------------------------------------------------
 Nuclear Repulsion Energy =     1.5765744400 hartrees
 There are        3 alpha and        2 beta electrons
 Requested basis set is aug-pc-4
 There are 47 shells and 171 basis functions

 Total QAlloc Memory Limit  64000 MB
 Mega-Array Size      1467 MB
 MEM_STATIC part      1500 MB

                       Distance Matrix (Angstroms)
             H (  1)
   Be(  2)  1.342600
 
 A cutoff of  1.0D-14 yielded   1128 shell pairs
 There are     15092 function pairs (     25377 Cartesian)
 
 -------------------------------------------------------
 OpenMP Integral Computing Module                       
 Release: version 1.0, May 2013, Q-Chem Inc. Pittsburgh 
 -------------------------------------------------------
 Integral Job Info:
 Integral job number is                      11
 Integral operator is                         1
 short-range coefficients              16700000
 long-range coefficients              100000000
 Omega coefficients                         300
 if combine SR and LR in K                    1
 Integral screening is                        0
 Integral computing path is                   2
 max size of driver memory is           3200000
 size of driver memory is               1704330
 size of scratch memory is             29582543
 max col of scratch BK array              50625
 max len of scratch array in speh3         2114
 max len of scratch index in speh4           50
 max int batch size is                      520
 min int batch size is                       52
 fixed nKL is                                39
 max L of basis functions is                  4
 order of int derivative is                   0
 number of shells is                         47
 number of basis is                         221
 number of cartesian basis is               221
 number of contracted shell pairs          1128
 number of primitive shell pairs           3017
 maxK2 (contraction) of shell pair          144
 max number of K2 of shell pair               1
 max number of CS2 of shell pair            154
 max number of PS2 of shell pair            432
 mem total for path MDJ                  660646
 -------------------------------------------------------
 Smallest overlap matrix eigenvalue = 1.01E-05

 Scale SEOQF with 1.000000e-01/1.000000e-01/1.000000e-01

 Standard Electronic Orientation quadrupole field applied
 Nucleus-field energy     =    -0.0000000008 hartrees
 Guess from superposition of atomic densities
 Warning:  Energy on first SCF cycle will be non-variational
 SAD guess density has 5.000000 electrons

 -----------------------------------------------------------------------
  General SCF calculation program by
  Eric Jon Sundstrom, Paul Horn, Yuezhi Mao, Dmitri Zuev, Alec White,
  David Stuck, Shaama M.S., Shane Yost, Joonho Lee, David Small,
  Daniel Levine, Susi Lehtola, Hugh Burton, Evgeny Epifanovsky
 -----------------------------------------------------------------------
 Exchange:     0.1670 Hartree-Fock + 1.0000 wB97X-V + LR-HF
 Correlation:  1.0000 wB97X-V
 Using Euler-Maclaurin-Lebedev (99,590) quadrature formula
 Nonlocal Correlation:  VV10 with C = 0.0100 and b = 6.00 and scale = 1.00000
 Grid used for NLC:  SG-1 standard quadrature
Running Object-Oriented UKS (UHF)
performing a single roothaan step with Fock from read density so that orbitals are available to all algorithms
 Nonlocal correlation = 0.021478014931
energy of the guess density (C=0) -15.215943302931
 Nonlocal correlation = 0.021680281257
We will preform up to 15 macro iterations over saddle points until a stable solution is found
Energy prior to optimization (guess energy) = -15.233418468465
Begin Timing: Total SCF Calculation
Begin Timing: SCF Single Stationary Point Calculation
begin iterations for algorithm: GDM          
the SCF tolerance is set to 1.00e-08
 Nonlocal correlation = 2.172504032340e-02
    1     -15.2334184685      7.11e-02     00000  Normal BFGS step
 Nonlocal correlation = 2.177873575869e-02
    2     -15.2466476579      4.37e-02     00000  Normal BFGS step
 Nonlocal correlation = 2.177927613568e-02
    3     -15.2512371451      6.67e-03     00000  Normal BFGS step
 Nonlocal correlation = 2.177847097619e-02
    4     -15.2514685606      2.99e-03     00000  Normal BFGS step
 Nonlocal correlation = 2.177838415124e-02
    5     -15.2515371728      4.60e-04     00000  Normal BFGS step
 Nonlocal correlation = 2.177835259413e-02
    6     -15.2515381722      1.64e-04     00000  Normal BFGS step
 Nonlocal correlation = 2.177835283010e-02
    7     -15.2515382994      1.88e-05     00000  Normal BFGS step
 Nonlocal correlation = 2.177835319915e-02
    8     -15.2515383008      7.07e-06     00000  Normal BFGS step
 Nonlocal correlation = 2.177835332112e-02
    9     -15.2515383010      9.66e-07     00000  Normal BFGS step
 Nonlocal correlation = 2.177835342112e-02
   10     -15.2515383010      4.23e-07     00000  Normal BFGS step
 Nonlocal correlation = 2.177835344261e-02
   11     -15.2515383010      5.42e-08     00000  Normal BFGS step
 Nonlocal correlation = 2.177835344924e-02
   12     -15.2515383010      1.96e-08     00000  Normal BFGS step
 Nonlocal correlation = 2.177835344880e-02
   13     -15.2515383010      3.42e-09     00000 Convergence criterion met
Timing for Single Stationary Point: 79.00s (wall), 626.09s (cpu)
Begin Timing: Stability
===================================================
Beginning Test for Internal Stability
===================================================
generating davidson guess vectors based on koopmans excitations
computing hessian-vector products by finite difference
 Nonlocal correlation = 0.021778353546
 Nonlocal correlation = 0.021778353341
 Nonlocal correlation = 0.021778353446
 Nonlocal correlation = 0.021778353441
 Nonlocal correlation = 0.021778353449
    1      3.44e-01     00000 Davidson Iteration
computing hessian-vector products by finite difference
 Nonlocal correlation = 2.177835376800e-02
 Nonlocal correlation = 2.177835311438e-02
 Nonlocal correlation = 2.177835325872e-02
 Nonlocal correlation = 2.177835362365e-02
 Nonlocal correlation = 2.177835344880e-02
    2      3.38e-01     00000 Davidson Iteration
computing hessian-vector products by finite difference
 Nonlocal correlation = 2.177835433822e-02
 Nonlocal correlation = 2.177835254403e-02
 Nonlocal correlation = 2.177835182508e-02
 Nonlocal correlation = 2.177835505691e-02
 Nonlocal correlation = 2.177835344880e-02
    3      1.20e-01     00000 Davidson Iteration
computing hessian-vector products by finite difference
 Nonlocal correlation = 2.177835568991e-02
 Nonlocal correlation = 2.177835120940e-02
 Nonlocal correlation = 2.177834849143e-02
 Nonlocal correlation = 2.177835840832e-02
 Nonlocal correlation = 2.177835344880e-02
    4      1.21e-02     00000 Davidson Iteration
computing hessian-vector products by finite difference
 Nonlocal correlation = 2.177835636310e-02
 Nonlocal correlation = 2.177835052766e-02
 Nonlocal correlation = 2.177834893566e-02
 Nonlocal correlation = 2.177835795523e-02
 Nonlocal correlation = 2.177835344880e-02
    5      6.46e-03     00000 Davidson Iteration
computing hessian-vector products by finite difference
 Nonlocal correlation = 2.177835479555e-02
 Nonlocal correlation = 2.177835209640e-02
 Nonlocal correlation = 2.177834567244e-02
 Nonlocal correlation = 2.177836121996e-02
 Nonlocal correlation = 2.177835344880e-02
    6      2.36e-03     00000 Davidson Iteration
computing hessian-vector products by finite difference
 Nonlocal correlation = 2.177835548125e-02
 Nonlocal correlation = 2.177835141772e-02
 Nonlocal correlation = 2.177833465172e-02
 Nonlocal correlation = 2.177837224785e-02
 Nonlocal correlation = 2.177835344880e-02
    7      3.55e-04     00000 Davidson Converged
converged_eigenvalues
   0.1793
   0.1793
Threshold for negative eigenvalues: -1.0e-05
solution was a local minimum (stable)
===================================================
End Test for Internal Stability
===================================================
Our SCF solution is stable!
Timing for Total SCF: 293.00s (wall), 2329.25s (cpu)
 Total energy in the final basis set =      -15.2515383010
<S^2> =          0.751067623
    ==================================================
              The end of Object-Oriented SCFman       
    ==================================================
 
 --------------------------------------------------------------
 
                    Orbital Energies (a.u.)
 --------------------------------------------------------------
 
 Alpha MOs
 -- Occupied --
 -4.174  -0.454  -0.289
 -- Virtual --
  0.014   0.014   0.016   0.032   0.048   0.048   0.060   0.074
  0.115   0.115   0.118   0.118   0.122   0.152   0.152   0.159
  0.169   0.191   0.210   0.210   0.214   0.214   0.215   0.215
  0.253   0.253   0.267   0.313   0.313   0.323   0.347   0.347
  0.348   0.348   0.352   0.352   0.355   0.355   0.369   0.369
  0.369   0.382   0.409   0.435   0.435   0.466   0.466   0.477
  0.513   0.513   0.561   0.561   0.589   0.589   0.596   0.597
  0.597   0.640   0.640   0.644   0.644   0.646   0.734   0.738
  0.738   0.818   0.835   0.837   0.837   0.903   0.903   1.119
  1.119   1.122   1.225   1.225   1.314   1.323   1.323   1.372
  1.372   1.420   1.420   1.482   1.611   1.709   1.769   1.769
  1.892   1.892   1.949   2.119   2.145   2.145   2.171   2.171
  2.858   2.952   2.952   3.071   3.071   3.480   3.527   3.527
  3.541   3.541   3.546   3.546   3.602   3.602   3.672   3.837
  3.837   3.922   3.922   3.947   4.013   4.013   4.116   4.172
  4.172   4.338   4.643   4.659   4.659   4.957   4.957   5.540
  5.583   5.583   8.555   8.555   8.940   8.946   8.946   9.206
  9.206   9.659   9.970   9.971  10.350  10.350  10.367  11.003
 12.502  12.502  12.732  12.732  12.998  12.998  13.576  16.998
 16.998  17.002  17.002  17.136  17.155  17.155  17.580  17.580
 19.646  23.463  23.463  24.166  38.877  91.166  91.166  91.681
 
 Beta MOs
 -- Occupied --
 -4.165  -0.437
 -- Virtual --
  0.007   0.021   0.026   0.026   0.041   0.060   0.060   0.062
  0.085   0.124   0.124   0.127   0.127   0.147   0.161   0.161
  0.164   0.182   0.207   0.217   0.217   0.224   0.224   0.227
  0.227   0.275   0.275   0.289   0.315   0.315   0.340   0.357
  0.357   0.363   0.363   0.365   0.365   0.369   0.369   0.379
  0.379   0.381   0.420   0.426   0.452   0.452   0.475   0.475
  0.483   0.516   0.516   0.568   0.568   0.593   0.593   0.599
  0.599   0.613   0.641   0.641   0.659   0.659   0.664   0.743
  0.743   0.744   0.841   0.846   0.846   0.853   0.924   0.924
  1.128   1.128   1.151   1.243   1.243   1.327   1.330   1.330
  1.382   1.382   1.423   1.423   1.487   1.618   1.739   1.777
  1.777   1.910   1.910   1.974   2.133   2.155   2.155   2.193
  2.193   2.887   2.958   2.958   3.097   3.097   3.503   3.531
  3.531   3.554   3.554   3.559   3.559   3.619   3.619   3.688
  3.873   3.873   3.940   3.940   3.977   4.057   4.057   4.144
  4.193   4.193   4.355   4.688   4.692   4.692   4.979   4.979
  5.554   5.599   5.599   8.569   8.569   8.955   8.959   8.959
  9.219   9.219   9.675   9.975   9.975  10.363  10.363  10.387
 11.020  12.515  12.515  12.745  12.745  13.011  13.011  13.590
 17.011  17.011  17.015  17.015  17.150  17.169  17.169  17.595
 17.595  19.657  23.485  23.485  24.188  38.907  91.196  91.196
 91.712
 --------------------------------------------------------------
 
          Ground-State Mulliken Net Atomic Charges

     Atom                 Charge (a.u.)    Spin (a.u.)
  --------------------------------------------------------
      1 H                    -0.188315      -0.014896
      2 Be                    0.188315       1.014896
  --------------------------------------------------------
  Sum of atomic charges =     0.000000
  Sum of spin   charges =     1.000000

 -----------------------------------------------------------------
                    Cartesian Multipole Moments
 -----------------------------------------------------------------
    Charge (ESU x 10^10)
                 0.0000
    Dipole Moment (Debye)
         X      -0.0000      Y       0.0000      Z       0.2334
       Tot       0.2334
    Quadrupole Moments (Debye-Ang)
        XX      -6.7379     XY       0.0000     YY      -6.7379
        XZ      -0.0000     YZ       0.0000     ZZ     -10.5200
    Octopole Moments (Debye-Ang^2)
       XXX       0.0000    XXY      -0.0000    XYY       0.0000
       YYY      -0.0000    XXZ      -8.3390    XYZ      -0.0000
       YYZ      -8.3390    XZZ       0.0000    YZZ       0.0000
       ZZZ     -40.3036
    Hexadecapole Moments (Debye-Ang^3)
      XXXX     -13.2069   XXXY       0.0000   XXYY      -4.4023
      XYYY       0.0000   YYYY     -13.2069   XXXZ       0.0000
      XXYZ      -0.0000   XYYZ       0.0000   YYYZ      -0.0000
      XXZZ     -19.3667   XYZZ      -0.0000   YYZZ     -19.3667
      XZZZ       0.0000   YZZZ      -0.0000   ZZZZ    -141.9202
 -----------------------------------------------------------------
Archival summary:
1\1\n0056.mhg0\SP\ProcedureUnspecified\BasisUnspecified\e11(2)\yhljason\SatJun2708:15:152020SatJun2708:15:152020\0\\#,ProcedureUnspecified,BasisUnspecified,\\0,2\H\Be,1,1.3426\\\@

 Total job time:  302.23s(wall), 2401.11s(cpu) 
 Sat Jun 27 08:15:15 2020

        *************************************************************
        *                                                           *
        *  Thank you very much for using Q-Chem.  Have a nice day.  *
        *                                                           *
        *************************************************************


