Q-Chem Developer Version!
                  Welcome to Q-Chem
     A Quantum Leap Into The Future Of Chemistry


 Q-Chem 5.1, Q-Chem, Inc., Pleasanton, CA (2018)

 Yihan Shao,  Zhengting Gan,  E. Epifanovsky,  A. T. B. Gilbert,  M. Wormit,  
 J. Kussmann,  A. W. Lange,  A. Behn,  Jia Deng,  Xintian Feng,  D. Ghosh,  
 M. Goldey,  P. R. Horn,  L. D. Jacobson,  I. Kaliman,  T. Kus,  A. Landau,  
 Jie Liu,  E. I. Proynov,  R. M. Richard,  R. P. Steele,  E. J. Sundstrom,  
 H. L. Woodcock III,  P. M. Zimmerman,  D. Zuev,  B. Albrecht,  E. Alguire,  
 S. A. Baeppler,  D. Barton,  Z. Benda,  Y. A. Bernard,  E. J. Berquist,  
 K. B. Bravaya,  H. Burton,  D. Casanova,  Chun-Min Chang,  Yunqing Chen,  
 A. Chien,  K. D. Closser,  M. P. Coons,  S. Coriani,  S. Dasgupta,  
 A. L. Dempwolff,  M. Diedenhofen,  Hainam Do,  R. G. Edgar,  Po-Tung Fang,  
 S. Faraji,  S. Fatehi,  Qingguo Feng,  K. D. Fenk,  J. Fosso-Tande,  
 Qinghui Ge,  A. Ghysels,  G. Gidofalvi,  J. Gomes,  J. Gonthier,  A. Gunina,  
 D. Hait,  M. W. D. Hanson-Heine,  P. H. P. Harbach,  A. W. Hauser,  
 J. E. Herr,  E. G. Hohenstein,  Z. C. Holden,  Kerwin Hui,  B. C. Huynh,  
 T.-C. Jagau,  Hyunjun Ji,  B. Kaduk,  K. Khistyaev,  Jaehoon Kim,  
 P. Klunzinger,  K. Koh,  D. Kosenkov,  L. Koulias,  T. Kowalczyk,  
 C. M. Krauter,  A. Kunitsa,  Ka Un Lao,  A. Laurent,  K. V. Lawler,  
 Joonho Lee,  D. Lefrancois,  S. Lehtola,  D. S. Levine,  Yi-Pei Li,  
 You-Sheng Lin,  Fenglai Liu,  E. Livshits,  A. Luenser,  P. Manohar,  
 E. Mansoor,  S. F. Manzer,  Shan-Ping Mao,  Yuezhi Mao,  N. Mardirossian,  
 A. V. Marenich,  T. Markovich,  L. A. Martinez-Martinez,  S. A. Maurer,  
 N. J. Mayhall,  S. C. McKenzie,  J.-M. Mewes,  A. F. Morrison,  
 J. W. Mullinax,  K. Nanda,  T. S. Nguyen-Beck,  R. Olivares-Amaya,  
 J. A. Parkhill,  T. M. Perrine,  F. Plasser,  P. Pokhilko,  S. Prager,  
 A. Prociuk,  E. Ramos,  D. R. Rehn,  F. Rob,  M. Schneider,  N. Sergueev,  
 S. M. Sharada,  S. Sharma,  D. W. Small,  T. Stauch,  T. Stein,  
 Yu-Chuan Su,  A. J. W. Thom,  A. Tkatchenko,  T. Tsuchimochi,  N. M. Tubman,  
 L. Vogt,  M. L. Vidal,  O. Vydrov,  M. A. Watson,  J. Wenzel,  
 M. de Wergifosse,  T. A. Wesolowski,  A. White,  J. Witte,  A. Yamada,  
 Jun Yang,  K. Yao,  S. Yeganeh,  S. R. Yost,  Zhi-Qiang You,  A. Zech,  
 Igor Ying Zhang,  Xing Zhang,  Yan Zhao,  Ying Zhu,  B. R. Brooks,  
 G. K. L. Chan,  C. J. Cramer,  M. S. Gordon,  W. J. Hehre,  A. Klamt,  
 M. W. Schmidt,  C. D. Sherrill,  D. G. Truhlar,  A. Aspuru-Guzik,  R. Baer,  
 A. T. Bell,  N. A. Besley,  Jeng-Da Chai,  A. E. DePrince, III,  
 R. A. DiStasio Jr.,  A. Dreuw,  B. D. Dunietz,  T. R. Furlani,  
 Chao-Ping Hsu,  Yousung Jung,  Jing Kong,  D. S. Lambrecht,  WanZhen Liang,  
 C. Ochsenfeld,  V. A. Rassolov,  L. V. Slipchenko,  J. E. Subotnik,  
 T. Van Voorhis,  J. M. Herbert,  A. I. Krylov,  P. M. W. Gill,  M. Head-Gordon

 Contributors to earlier versions of Q-Chem not listed above: 
 R. D. Adamson,  B. Austin,  J. Baker,  G. J. O. Beran,  K. Brandhorst,  
 S. T. Brown,  E. F. C. Byrd,  A. K. Chakraborty,  C.-L. Cheng,  
 Siu Hung Chien,  D. M. Chipman,  D. L. Crittenden,  H. Dachsel,  
 R. J. Doerksen,  A. D. Dutoi,  L. Fusti-Molnar,  W. A. Goddard III,  
 A. Golubeva-Zadorozhnaya,  S. R. Gwaltney,  G. Hawkins,  A. Heyden,  
 S. Hirata,  G. Kedziora,  F. J. Keil,  C. Kelley,  Jihan Kim,  R. A. King,  
 R. Z. Khaliullin,  P. P. Korambath,  W. Kurlancheek,  A. M. Lee,  M. S. Lee,  
 S. V. Levchenko,  Ching Yeh Lin,  D. Liotard,  R. C. Lochan,  I. Lotan,  
 P. E. Maslen,  N. Nair,  D. P. O'Neill,  D. Neuhauser,  E. Neuscamman,  
 C. M. Oana,  R. Olson,  B. Peters,  R. Peverati,  P. A. Pieniazek,  
 Y. M. Rhee,  J. Ritchie,  M. A. Rohrdanz,  E. Rosta,  N. J. Russ,  
 H. F. Schaefer III,  N. E. Schultz,  N. Shenvi,  A. C. Simmonett,  A. Sodt,  
 D. Stuck,  K. S. Thanthiriwatte,  V. Vanovschi,  Tao Wang,  A. Warshel,  
 C. F. Williams,  Q. Wu,  X. Xu,  W. Zhang

 Please cite Q-Chem as follows:
 Y. Shao et al., Mol. Phys. 113, 184-215 (2015)
 DOI: 10.1080/00268976.2014.952696

 Q-Chem 5.1.1 for Intel X86 EM64T Linux

 Parts of Q-Chem use Armadillo 8.300.2 (Tropical Shenanigans).
 http://arma.sourceforge.net/

 Q-Chem begins on Sun Jun 28 07:12:20 2020  

Host: n0044.mhg0
0

     Scratch files written to /local/scratch/users/yhljason/ClF_B3LYP5_aug-pc-4.inp20200628020237//
Input Ideriv = 2
Curr. Ideriv = -1
Max.  Ideriv = 2

Checking the input file for inconsistencies... 	...done.

--------------------------------------------------------------
User input:
--------------------------------------------------------------
$molecule
0 1
F1      0.0000  0.0000  0.0000
Cl2     0.0000  0.0000  1.6283
$end

$rem
jobtype sp
method B3LYP5
xc_grid 000099000590
basis aug-pc-4
max_scf_cycles 200
thresh 14
scf_convergence 8
scf_algorithm gdm
symmetry false
sym_ignore true
unrestricted true
gen_scfman true
internal_stability_iter 15
internal_stability_davidson_iter 200
mem_total 64000
mem_static 1500
n_frozen_core 0
$end


--------------------------------------------------------------
 ----------------------------------------------------------------
             Standard Nuclear Orientation (Angstroms)
    I     Atom           X                Y                Z
 ----------------------------------------------------------------
    1      F       0.0000000000     0.0000000000     0.0000000000
    2      Cl      0.0000000000     0.0000000000     1.6283000000
 ----------------------------------------------------------------
 Nuclear Repulsion Energy =    49.7230935653 hartrees
 There are       13 alpha and       13 beta electrons
 Requested basis set is aug-pc-4
 There are 64 shells and 286 basis functions

 Total QAlloc Memory Limit  64000 MB
 Mega-Array Size      1467 MB
 MEM_STATIC part      1500 MB

                       Distance Matrix (Angstroms)
             F (  1)
   Cl(  2)  1.628300
 
 A cutoff of  1.0D-14 yielded   2063 shell pairs
 There are     41683 function pairs (     82092 Cartesian)
 
 -------------------------------------------------------
 OpenMP Integral Computing Module                       
 Release: version 1.0, May 2013, Q-Chem Inc. Pittsburgh 
 -------------------------------------------------------
 Integral Job Info:
 Integral job number is                      11
 Integral operator is                         1
 short-range coefficients                     0
 long-range coefficients              100000000
 Omega coefficients                           0
 if combine SR and LR in K                    0
 Integral screening is                        0
 Integral computing path is                   2
 max size of driver memory is           6400000
 size of driver memory is               5498286
 size of scratch memory is             27847117
 max col of scratch BK array             194481
 max len of scratch array in speh3         5572
 max len of scratch index in speh4           72
 max int batch size is                      520
 min int batch size is                       52
 fixed nKL is                                 7
 max L of basis functions is                  5
 order of int derivative is                   0
 number of shells is                         64
 number of basis is                         400
 number of cartesian basis is               400
 number of contracted shell pairs          2063
 number of primitive shell pairs           8853
 maxK2 (contraction) of shell pair          225
 max number of K2 of shell pair               1
 max number of CS2 of shell pair            169
 max number of PS2 of shell pair            528
 mem total for path MDJ                  956866
 -------------------------------------------------------
 Smallest overlap matrix eigenvalue = 2.20E-05

 Scale SEOQF with 1.000000e-01/1.000000e-01/1.000000e-01

 Standard Electronic Orientation quadrupole field applied
 Nucleus-field energy     =    -0.0000000048 hartrees
 Guess from superposition of atomic densities
 Warning:  Energy on first SCF cycle will be non-variational
 SAD guess density has 26.000000 electrons

 -----------------------------------------------------------------------
  General SCF calculation program by
  Eric Jon Sundstrom, Paul Horn, Yuezhi Mao, Dmitri Zuev, Alec White,
  David Stuck, Shaama M.S., Shane Yost, Joonho Lee, David Small,
  Daniel Levine, Susi Lehtola, Hugh Burton, Evgeny Epifanovsky
 -----------------------------------------------------------------------
 Exchange:     0.2000 Hartree-Fock + 0.0800 Slater + 0.7200 B88
 Correlation:  0.1900 VWN5 + 0.8100 LYP
 Using Euler-Maclaurin-Lebedev (99,590) quadrature formula
Running Object-Oriented UKS (UHF)
performing a single roothaan step with Fock from read density so that orbitals are available to all algorithms
 LTot/LBra/LKet=          20          10          10

 Q-Chem warning:

 in GenH1, ket side, handled with new code

 LTot/LBra/LBra=          20          10          10

 Q-Chem warning:

 in GenH1, bra side, handled with new code

energy of the guess density (C=0) -560.065825288520
We will preform up to 15 macro iterations over saddle points until a stable solution is found
Energy prior to optimization (guess energy) = -559.942156245922
Begin Timing: Total SCF Calculation
Begin Timing: SCF Single Stationary Point Calculation
begin iterations for algorithm: GDM          
the SCF tolerance is set to 1.00e-08
    1    -559.9421562459      8.99e-02     00000  Normal BFGS step
    2    -559.9195281546      2.01e-01     00000 Line search: overstep
    3    -559.9549178316      1.94e-02     00000  Normal BFGS step
    4    -559.9555323419      1.68e-02     00000  Normal BFGS step
    5    -559.9565374671      3.08e-03     00000  Normal BFGS step
    6    -559.9565622173      1.18e-03     00000  Normal BFGS step
    7    -559.9565694642      5.98e-05     00000  Normal BFGS step
    8    -559.9565694846      1.33e-05     00000  Normal BFGS step
    9    -559.9565694869      3.15e-06     00000  Normal BFGS step
   10    -559.9565694870      1.30e-06     00000  Normal BFGS step
   11    -559.9565694871      4.60e-08     00000  Normal BFGS step
   12    -559.9565694871      2.28e-08     00000  Normal BFGS step
   13    -559.9565694871      3.12e-08     00000  Normal BFGS step
   14    -559.9565694871      1.83e-09     00000 Convergence criterion met
Timing for Single Stationary Point: 1587.00s (wall), 12630.00s (cpu)
Begin Timing: Stability
===================================================
Beginning Test for Internal Stability
===================================================
generating davidson guess vectors based on koopmans excitations
    1      8.30e-01     00000 Davidson Iteration
    2      2.04e-01     00000 Davidson Iteration
    3      1.22e-02     00000 Davidson Iteration
    4      5.50e-03     00000 Davidson Iteration
    5      1.70e-03     00000 Davidson Iteration
    6      5.57e-04     00000 Davidson Iteration
    7      1.74e-04     00000 Davidson Iteration
    8      5.77e-05     00000 Davidson Iteration
    9      2.46e-04     00000 Davidson Iteration
   10      8.67e-05     00000 Davidson Converged
converged_eigenvalues
   0.1618
   0.3307
Threshold for negative eigenvalues: -1.0e-05
solution was a local minimum (stable)
===================================================
End Test for Internal Stability
===================================================
Our SCF solution is stable!
Timing for Total SCF: 3117.00s (wall), 24790.46s (cpu)
 Total energy in the final basis set =     -559.9565694871
<S^2> =          0.000000000
    ==================================================
              The end of Object-Oriented SCFman       
    ==================================================
 
 --------------------------------------------------------------
 
                    Orbital Energies (a.u.)
 --------------------------------------------------------------
 
 Alpha MOs
 -- Occupied --
******* -24.738  -9.536  -7.303  -7.286  -7.286  -1.249  -0.838
 -0.544  -0.496  -0.496  -0.336  -0.336
 -- Virtual --
 -0.125   0.001   0.026   0.026   0.031   0.064   0.072   0.072
  0.116   0.116   0.138   0.138   0.138   0.154   0.165   0.165
  0.173   0.233   0.257   0.257   0.274   0.274   0.290   0.290
  0.299   0.299   0.323   0.323   0.343   0.347   0.347   0.350
  0.373   0.373   0.422   0.422   0.461   0.498   0.507   0.507
  0.521   0.521   0.561   0.598   0.598   0.605   0.605   0.619
  0.643   0.643   0.663   0.663   0.676   0.680   0.680   0.684
  0.684   0.769   0.769   0.784   0.800   0.800   0.801   0.801
  0.802   0.802   0.843   0.843   0.847   0.862   0.862   0.887
  0.887   0.929   0.929   0.944   0.944   0.982   0.992   0.992
  0.994   0.994   1.113   1.143   1.143   1.220   1.220   1.244
  1.249   1.249   1.282   1.283   1.283   1.303   1.303   1.333
  1.333   1.401   1.401   1.415   1.415   1.424   1.469   1.660
  1.660   1.730   1.730   1.792   1.792   1.817   1.966   1.966
  2.045   2.086   2.086   2.159   2.226   2.226   2.272   2.272
  2.322   2.322   2.358   2.358   2.471   2.471   2.493   2.581
  2.581   2.612   2.897   2.968   2.968   2.991   2.991   3.003
  3.003   3.168   3.290   3.290   3.776   3.776   3.860   3.860
  3.981   3.981   3.988   4.140   4.154   4.154   4.665   4.837
  4.837   5.165   5.212   5.212   5.469   5.469   5.496   5.521
  5.521   5.558   5.636   5.636   5.687   5.687   5.737   5.737
  5.742   5.742   5.905   5.905   5.945   5.954   5.954   6.128
  6.128   6.168   6.168   6.173   6.359   6.359   7.110   7.110
  7.120   7.199   7.199   7.281   7.281   7.745   7.889   7.889
  8.685   8.685   9.015   9.182   9.182   9.209   9.209   9.382
  9.382   9.983   9.983  10.205  12.237  12.237  12.498  12.498
 12.739  12.739  12.766  12.766  12.787  12.787  12.794  12.794
 12.880  12.923  12.923  13.014  13.014  13.087  13.152  13.152
 13.532  13.532  14.052  14.335  14.335  14.658  15.074  15.074
 15.148  15.148  15.495  15.495  15.527  16.014  17.825  17.825
 17.870  17.870  18.381  20.251  20.251  20.258  20.258  20.531
 20.531  21.142  21.142  21.594  30.427  30.427  30.666  30.666
 31.243  40.146  41.709  41.709  41.972  42.904  66.145  66.145
 66.162  66.162  66.465  91.542  91.542  91.704  91.704  92.112
201.942
 
 Beta MOs
 -- Occupied --
******* -24.738  -9.536  -7.303  -7.286  -7.286  -1.249  -0.838
 -0.544  -0.496  -0.496  -0.336  -0.336
 -- Virtual --
 -0.125   0.001   0.026   0.026   0.031   0.064   0.072   0.072
  0.116   0.116   0.138   0.138   0.138   0.154   0.165   0.165
  0.173   0.233   0.257   0.257   0.274   0.274   0.290   0.290
  0.299   0.299   0.323   0.323   0.343   0.347   0.347   0.350
  0.373   0.373   0.422   0.422   0.461   0.498   0.507   0.507
  0.521   0.521   0.561   0.598   0.598   0.605   0.605   0.619
  0.643   0.643   0.663   0.663   0.676   0.680   0.680   0.684
  0.684   0.769   0.769   0.784   0.800   0.800   0.801   0.801
  0.802   0.802   0.843   0.843   0.847   0.862   0.862   0.887
  0.887   0.929   0.929   0.944   0.944   0.982   0.992   0.992
  0.994   0.994   1.113   1.143   1.143   1.220   1.220   1.244
  1.249   1.249   1.282   1.283   1.283   1.303   1.303   1.333
  1.333   1.401   1.401   1.415   1.415   1.424   1.469   1.660
  1.660   1.730   1.730   1.792   1.792   1.817   1.966   1.966
  2.045   2.086   2.086   2.159   2.226   2.226   2.272   2.272
  2.322   2.322   2.358   2.358   2.471   2.471   2.493   2.581
  2.581   2.612   2.897   2.968   2.968   2.991   2.991   3.003
  3.003   3.168   3.290   3.290   3.776   3.776   3.860   3.860
  3.981   3.981   3.988   4.140   4.154   4.154   4.665   4.837
  4.837   5.165   5.212   5.212   5.469   5.469   5.496   5.521
  5.521   5.558   5.636   5.636   5.687   5.687   5.737   5.737
  5.742   5.742   5.905   5.905   5.945   5.954   5.954   6.128
  6.128   6.168   6.168   6.173   6.359   6.359   7.110   7.110
  7.120   7.199   7.199   7.281   7.281   7.745   7.889   7.889
  8.685   8.685   9.015   9.182   9.182   9.209   9.209   9.382
  9.382   9.983   9.983  10.205  12.237  12.237  12.498  12.498
 12.739  12.739  12.766  12.766  12.787  12.787  12.794  12.794
 12.880  12.923  12.923  13.014  13.014  13.087  13.152  13.152
 13.532  13.532  14.052  14.335  14.335  14.658  15.074  15.074
 15.148  15.148  15.495  15.495  15.527  16.014  17.825  17.825
 17.870  17.870  18.381  20.251  20.251  20.258  20.258  20.531
 20.531  21.142  21.142  21.594  30.427  30.427  30.666  30.666
 31.243  40.146  41.709  41.709  41.972  42.904  66.145  66.145
 66.162  66.162  66.465  91.542  91.542  91.704  91.704  92.112
201.942
 --------------------------------------------------------------
 
          Ground-State Mulliken Net Atomic Charges

     Atom                 Charge (a.u.)    Spin (a.u.)
  --------------------------------------------------------
      1 F                    -0.114639      -0.000000
      2 Cl                    0.114639       0.000000
  --------------------------------------------------------
  Sum of atomic charges =     0.000000
  Sum of spin   charges =     0.000000

 -----------------------------------------------------------------
                    Cartesian Multipole Moments
 -----------------------------------------------------------------
    Charge (ESU x 10^10)
                -0.0000
    Dipole Moment (Debye)
         X       0.0000      Y       0.0000      Z       0.8542
       Tot       0.8542
    Quadrupole Moments (Debye-Ang)
        XX     -17.5306     XY       0.0000     YY     -17.5306
        XZ       0.0000     YZ       0.0000     ZZ     -14.4592
    Octopole Moments (Debye-Ang^2)
       XXX       0.0000    XXY       0.0000    XYY       0.0000
       YYY      -0.0000    XXZ     -20.9496    XYZ       0.0000
       YYZ     -20.9496    XZZ       0.0000    YZZ       0.0000
       ZZZ     -51.0785
    Hexadecapole Moments (Debye-Ang^3)
      XXXX     -17.8338   XXXY       0.0000   XXYY      -5.9446
      XYYY       0.0000   YYYY     -17.8338   XXXZ       0.0000
      XXYZ       0.0000   XYYZ       0.0000   YYYZ       0.0000
      XXZZ     -40.1102   XYZZ       0.0000   YYZZ     -40.1102
      XZZZ       0.0000   YZZZ       0.0000   ZZZZ    -180.2736
 -----------------------------------------------------------------
Archival summary:
1\1\n0044.mhg0\SP\ProcedureUnspecified\BasisUnspecified\l11\yhljason\SunJun2808:06:512020SunJun2808:06:512020\0\\#,ProcedureUnspecified,BasisUnspecified,\\0,1\F\Cl,1,1.6283\\\@

 Total job time:  3270.63s(wall), 25977.49s(cpu) 
 Sun Jun 28 08:06:51 2020

        *************************************************************
        *                                                           *
        *  Thank you very much for using Q-Chem.  Have a nice day.  *
        *                                                           *
        *************************************************************


