Q-Chem Developer Version!
                  Welcome to Q-Chem
     A Quantum Leap Into The Future Of Chemistry


 Q-Chem 5.1, Q-Chem, Inc., Pleasanton, CA (2018)

 Yihan Shao,  Zhengting Gan,  E. Epifanovsky,  A. T. B. Gilbert,  M. Wormit,  
 J. Kussmann,  A. W. Lange,  A. Behn,  Jia Deng,  Xintian Feng,  D. Ghosh,  
 M. Goldey,  P. R. Horn,  L. D. Jacobson,  I. Kaliman,  T. Kus,  A. Landau,  
 Jie Liu,  E. I. Proynov,  R. M. Richard,  R. P. Steele,  E. J. Sundstrom,  
 H. L. Woodcock III,  P. M. Zimmerman,  D. Zuev,  B. Albrecht,  E. Alguire,  
 S. A. Baeppler,  D. Barton,  Z. Benda,  Y. A. Bernard,  E. J. Berquist,  
 K. B. Bravaya,  H. Burton,  D. Casanova,  Chun-Min Chang,  Yunqing Chen,  
 A. Chien,  K. D. Closser,  M. P. Coons,  S. Coriani,  S. Dasgupta,  
 A. L. Dempwolff,  M. Diedenhofen,  Hainam Do,  R. G. Edgar,  Po-Tung Fang,  
 S. Faraji,  S. Fatehi,  Qingguo Feng,  K. D. Fenk,  J. Fosso-Tande,  
 Qinghui Ge,  A. Ghysels,  G. Gidofalvi,  J. Gomes,  J. Gonthier,  A. Gunina,  
 D. Hait,  M. W. D. Hanson-Heine,  P. H. P. Harbach,  A. W. Hauser,  
 J. E. Herr,  E. G. Hohenstein,  Z. C. Holden,  Kerwin Hui,  B. C. Huynh,  
 T.-C. Jagau,  Hyunjun Ji,  B. Kaduk,  K. Khistyaev,  Jaehoon Kim,  
 P. Klunzinger,  K. Koh,  D. Kosenkov,  L. Koulias,  T. Kowalczyk,  
 C. M. Krauter,  A. Kunitsa,  Ka Un Lao,  A. Laurent,  K. V. Lawler,  
 Joonho Lee,  D. Lefrancois,  S. Lehtola,  D. S. Levine,  Yi-Pei Li,  
 You-Sheng Lin,  Fenglai Liu,  E. Livshits,  A. Luenser,  P. Manohar,  
 E. Mansoor,  S. F. Manzer,  Shan-Ping Mao,  Yuezhi Mao,  N. Mardirossian,  
 A. V. Marenich,  T. Markovich,  L. A. Martinez-Martinez,  S. A. Maurer,  
 N. J. Mayhall,  S. C. McKenzie,  J.-M. Mewes,  A. F. Morrison,  
 J. W. Mullinax,  K. Nanda,  T. S. Nguyen-Beck,  R. Olivares-Amaya,  
 J. A. Parkhill,  T. M. Perrine,  F. Plasser,  P. Pokhilko,  S. Prager,  
 A. Prociuk,  E. Ramos,  D. R. Rehn,  F. Rob,  M. Schneider,  N. Sergueev,  
 S. M. Sharada,  S. Sharma,  D. W. Small,  T. Stauch,  T. Stein,  
 Yu-Chuan Su,  A. J. W. Thom,  A. Tkatchenko,  T. Tsuchimochi,  N. M. Tubman,  
 L. Vogt,  M. L. Vidal,  O. Vydrov,  M. A. Watson,  J. Wenzel,  
 M. de Wergifosse,  T. A. Wesolowski,  A. White,  J. Witte,  A. Yamada,  
 Jun Yang,  K. Yao,  S. Yeganeh,  S. R. Yost,  Zhi-Qiang You,  A. Zech,  
 Igor Ying Zhang,  Xing Zhang,  Yan Zhao,  Ying Zhu,  B. R. Brooks,  
 G. K. L. Chan,  C. J. Cramer,  M. S. Gordon,  W. J. Hehre,  A. Klamt,  
 M. W. Schmidt,  C. D. Sherrill,  D. G. Truhlar,  A. Aspuru-Guzik,  R. Baer,  
 A. T. Bell,  N. A. Besley,  Jeng-Da Chai,  A. E. DePrince, III,  
 R. A. DiStasio Jr.,  A. Dreuw,  B. D. Dunietz,  T. R. Furlani,  
 Chao-Ping Hsu,  Yousung Jung,  Jing Kong,  D. S. Lambrecht,  WanZhen Liang,  
 C. Ochsenfeld,  V. A. Rassolov,  L. V. Slipchenko,  J. E. Subotnik,  
 T. Van Voorhis,  J. M. Herbert,  A. I. Krylov,  P. M. W. Gill,  M. Head-Gordon

 Contributors to earlier versions of Q-Chem not listed above: 
 R. D. Adamson,  B. Austin,  J. Baker,  G. J. O. Beran,  K. Brandhorst,  
 S. T. Brown,  E. F. C. Byrd,  A. K. Chakraborty,  C.-L. Cheng,  
 Siu Hung Chien,  D. M. Chipman,  D. L. Crittenden,  H. Dachsel,  
 R. J. Doerksen,  A. D. Dutoi,  L. Fusti-Molnar,  W. A. Goddard III,  
 A. Golubeva-Zadorozhnaya,  S. R. Gwaltney,  G. Hawkins,  A. Heyden,  
 S. Hirata,  G. Kedziora,  F. J. Keil,  C. Kelley,  Jihan Kim,  R. A. King,  
 R. Z. Khaliullin,  P. P. Korambath,  W. Kurlancheek,  A. M. Lee,  M. S. Lee,  
 S. V. Levchenko,  Ching Yeh Lin,  D. Liotard,  R. C. Lochan,  I. Lotan,  
 P. E. Maslen,  N. Nair,  D. P. O'Neill,  D. Neuhauser,  E. Neuscamman,  
 C. M. Oana,  R. Olson,  B. Peters,  R. Peverati,  P. A. Pieniazek,  
 Y. M. Rhee,  J. Ritchie,  M. A. Rohrdanz,  E. Rosta,  N. J. Russ,  
 H. F. Schaefer III,  N. E. Schultz,  N. Shenvi,  A. C. Simmonett,  A. Sodt,  
 D. Stuck,  K. S. Thanthiriwatte,  V. Vanovschi,  Tao Wang,  A. Warshel,  
 C. F. Williams,  Q. Wu,  X. Xu,  W. Zhang

 Please cite Q-Chem as follows:
 Y. Shao et al., Mol. Phys. 113, 184-215 (2015)
 DOI: 10.1080/00268976.2014.952696

 Q-Chem 5.1.1 for Intel X86 EM64T Linux

 Parts of Q-Chem use Armadillo 8.300.2 (Tropical Shenanigans).
 http://arma.sourceforge.net/

 Q-Chem begins on Thu Jul  9 03:05:11 2020  

Host: n0097.mhg0
0

     Scratch files written to /local/scratch/users/yhljason/CO_B97-D3_aug-pc-4.inp20200709030447//
Input Ideriv = 2
Curr. Ideriv = -1
Max.  Ideriv = 2

Checking the input file for inconsistencies... 	...done.

--------------------------------------------------------------
User input:
--------------------------------------------------------------
$molecule
0 1
C1	0.0000	0.0000	0.0000
O2	0.0000	0.0000	1.1282
$end

$rem
jobtype sp
method B97-D3
xc_grid 000099000590
basis aug-pc-4
max_scf_cycles 200
thresh 14
scf_convergence 8
scf_algorithm gdm
symmetry false
sym_ignore true
unrestricted true
gen_scfman true
internal_stability_iter 15
internal_stability_davidson_iter 200
mem_total 64000
mem_static 1500
n_frozen_core 0
$end


--------------------------------------------------------------
 Adding empirical dispersion correction 
 ----------------------------------------------------------------
 Doing -D3(0) with
 s6  =   1.00000
 s8  =   0.90900
 rs6 =   0.89200
 rs8 =   1.00000
 -D3 energy without 3body term =     -0.0000023202 hartrees
 ----------------------------------------------------------------
             Standard Nuclear Orientation (Angstroms)
    I     Atom           X                Y                Z
 ----------------------------------------------------------------
    1      C       0.0000000000     0.0000000000     0.0000000000
    2      O       0.0000000000     0.0000000000     1.1282000000
 ----------------------------------------------------------------
 Nuclear Repulsion Energy =    22.5141849856 hartrees
 There are        7 alpha and        7 beta electrons
 Requested basis set is aug-pc-4
 There are 66 shells and 290 basis functions

 Total QAlloc Memory Limit  64000 MB
 Mega-Array Size      1467 MB
 MEM_STATIC part      1500 MB

                       Distance Matrix (Angstroms)
             C (  1)
   O (  2)  1.128200
 
 A cutoff of  1.0D-14 yielded   2211 shell pairs
 There are     42987 function pairs (     83898 Cartesian)
 
 -------------------------------------------------------
 OpenMP Integral Computing Module                       
 Release: version 1.0, May 2013, Q-Chem Inc. Pittsburgh 
 -------------------------------------------------------
 Integral Job Info:
 Integral job number is                      11
 Integral operator is                         1
 short-range coefficients                     0
 long-range coefficients              100000000
 Omega coefficients                           0
 if combine SR and LR in K                    0
 Integral screening is                        0
 Integral computing path is                   2
 max size of driver memory is           6400000
 size of driver memory is               5498286
 size of scratch memory is             29792225
 max col of scratch BK array             194481
 max len of scratch array in speh3         5572
 max len of scratch index in speh4           72
 max int batch size is                      520
 min int batch size is                       52
 fixed nKL is                                25
 max L of basis functions is                  5
 order of int derivative is                   0
 number of shells is                         66
 number of basis is                         404
 number of cartesian basis is               404
 number of contracted shell pairs          2211
 number of primitive shell pairs           5817
 maxK2 (contraction) of shell pair          121
 max number of K2 of shell pair               1
 max number of CS2 of shell pair            197
 max number of PS2 of shell pair            319
 mem total for path MDJ                  956866
 -------------------------------------------------------
 Smallest overlap matrix eigenvalue = 1.03E-06

 Scale SEOQF with 1.000000e-01/1.000000e-01/1.000000e-01

 Standard Electronic Orientation quadrupole field applied
 Nucleus-field energy     =    -0.0000000011 hartrees
 Guess from superposition of atomic densities
 Warning:  Energy on first SCF cycle will be non-variational
 SAD guess density has 14.000000 electrons

 -----------------------------------------------------------------------
  General SCF calculation program by
  Eric Jon Sundstrom, Paul Horn, Yuezhi Mao, Dmitri Zuev, Alec White,
  David Stuck, Shaama M.S., Shane Yost, Joonho Lee, David Small,
  Daniel Levine, Susi Lehtola, Hugh Burton, Evgeny Epifanovsky
 -----------------------------------------------------------------------
 Exchange:  B97-D      Correlation:  B97-D
 Using Euler-Maclaurin-Lebedev (99,590) quadrature formula
 Dispersion:   Grimme D3
Running Object-Oriented UKS (UHF)
performing a single roothaan step with Fock from read density so that orbitals are available to all algorithms
energy of the guess density (C=0) -113.451715133053
We will preform up to 15 macro iterations over saddle points until a stable solution is found
Energy prior to optimization (guess energy) = -113.271135916186
Begin Timing: Total SCF Calculation
Begin Timing: SCF Single Stationary Point Calculation
begin iterations for algorithm: GDM          
the SCF tolerance is set to 1.00e-08
    1    -113.2711359162      1.51e-01     00000  Descent step
    2    -113.1907112025      3.71e-01     00000 Line search: overstep
    3    -113.2948138768      1.91e-02     00000  Normal BFGS step
    4    -113.2955332554      2.04e-02     00000  Normal BFGS step
    5    -113.2981838584      5.85e-04     00000  Normal BFGS step
    6    -113.2981883936      1.86e-04     00000  Normal BFGS step
    7    -113.2981887882      2.49e-05     00000  Normal BFGS step
    8    -113.2981887943      5.10e-06     00000  Normal BFGS step
    9    -113.2981887947      2.10e-07     00000  Normal BFGS step
   10    -113.2981887947      5.88e-08     00000  Normal BFGS step
   11    -113.2981887947      1.29e-07     00000  Normal BFGS step
   12    -113.2981887947      9.81e-08     00000  Normal BFGS step
   13    -113.2981887947      4.40e-09     00000 Convergence criterion met
Timing for Single Stationary Point: 129.00s (wall), 1014.34s (cpu)
Begin Timing: Stability
===================================================
Beginning Test for Internal Stability
===================================================
generating davidson guess vectors based on koopmans excitations
    1      5.22e-01     00000 Davidson Iteration
    2      8.54e-02     00000 Davidson Iteration
    3      4.59e-02     00000 Davidson Iteration
    4      2.37e-02     00000 Davidson Iteration
    5      4.03e-03     00000 Davidson Iteration
    6      2.69e-03     00000 Davidson Iteration
    7      4.12e-04     00000 Davidson Iteration
    8      1.09e-04     00000 Davidson Iteration
    9      4.23e-05     00000 Davidson Iteration
   10      1.11e-02     00000 Davidson Iteration
   11      1.12e-02     00000 Davidson Iteration
   12      1.48e-02     00000 Davidson Iteration
   13      5.33e-03     00000 Davidson Iteration
   14      5.18e-03     00000 Davidson Iteration
   15      1.09e-03     00000 Davidson Iteration
   16      5.06e-04     00000 Davidson Iteration
   17      2.76e-04     00000 Davidson Iteration
   18      1.87e-04     00000 Davidson Iteration
   19      7.99e-05     00000 Davidson Converged
converged_eigenvalues
   0.3498
   0.4459
Threshold for negative eigenvalues: -1.0e-05
solution was a local minimum (stable)
===================================================
End Test for Internal Stability
===================================================
Our SCF solution is stable!
Timing for Total SCF: 3432.00s (wall), 27214.98s (cpu)
 Total energy in the final basis set =     -113.2981887947
<S^2> =          0.000000000
    ==================================================
              The end of Object-Oriented SCFman       
    ==================================================
 
 --------------------------------------------------------------
 
                    Orbital Energies (a.u.)
 --------------------------------------------------------------
 
 Alpha MOs
 -- Occupied --
-18.856 -10.018  -1.081  -0.520  -0.434  -0.434  -0.335
 -- Virtual --
 -0.071  -0.071   0.004   0.020   0.022   0.022   0.056   0.059
  0.059   0.083   0.092   0.092   0.093   0.093   0.093   0.137
  0.148   0.148   0.190   0.206   0.206   0.208   0.208   0.211
  0.211   0.237   0.237   0.247   0.258   0.258   0.269   0.269
  0.271   0.282   0.317   0.319   0.319   0.356   0.356   0.358
  0.358   0.359   0.359   0.443   0.458   0.466   0.466   0.470
  0.470   0.516   0.516   0.524   0.524   0.540   0.540   0.551
  0.566   0.566   0.567   0.567   0.569   0.569   0.577   0.577
  0.586   0.595   0.595   0.616   0.616   0.636   0.662   0.680
  0.680   0.684   0.684   0.714   0.762   0.762   0.794   0.800
  0.800   0.809   0.809   0.810   0.810   0.939   0.952   0.952
  0.962   0.962   0.963   0.963   1.000   1.000   1.012   1.012
  1.080   1.080   1.085   1.103   1.103   1.137   1.137   1.151
  1.264   1.307   1.307   1.358   1.590   1.597   1.597   1.610
  1.610   1.680   1.680   1.731   1.825   1.825   1.891   1.891
  2.032   2.032   2.079   2.079   2.108   2.219   2.219   2.227
  2.335   2.335   2.394   2.444   2.444   2.637   2.646   2.646
  3.066   3.066   3.176   3.312   3.847   3.847   3.916   3.916
  4.024   4.024   4.045   4.045   4.065   4.166   4.166   4.222
  4.222   4.275   4.314   4.314   4.646   4.646   4.710   4.710
  4.770   4.822   4.822   4.861   4.861   4.931   5.105   5.105
  5.353   5.570   5.570   5.710   5.710   5.898   5.898   5.912
  6.163   6.163   6.236   6.416   6.416   6.462   6.821   6.821
  7.547   7.547   7.933   8.208   8.208   9.075   9.241   9.241
  9.909   9.909  10.061  10.061  10.266  10.266  10.266  10.266
 10.363  10.552  10.552  10.605  10.605  10.714  10.714  10.778
 11.041  11.041  11.171  11.403  11.403  11.516  11.516  11.615
 11.615  11.693  11.700  11.700  11.834  11.834  11.958  11.958
 12.269  12.269  12.406  12.406  12.420  12.519  12.519  12.659
 12.659  12.833  12.833  12.971  13.260  13.260  13.589  13.589
 14.418  14.418  14.438  15.520  15.922  15.922  16.122  16.910
 16.910  17.212  17.212  17.331  17.331  17.845  17.979  17.979
 18.554  18.554  19.037  19.037  19.475  22.038  22.892  22.892
 24.056  24.056  26.621  30.511  31.798  31.798  31.829  31.829
 32.756  32.756  33.587  34.875  66.464  66.464  67.134  67.134
 68.972  74.015 143.713
 
 Beta MOs
 -- Occupied --
-18.856 -10.018  -1.081  -0.520  -0.434  -0.434  -0.335
 -- Virtual --
 -0.071  -0.071   0.004   0.020   0.022   0.022   0.056   0.059
  0.059   0.083   0.092   0.092   0.093   0.093   0.093   0.137
  0.148   0.148   0.190   0.206   0.206   0.208   0.208   0.211
  0.211   0.237   0.237   0.247   0.258   0.258   0.269   0.269
  0.271   0.282   0.317   0.319   0.319   0.356   0.356   0.358
  0.358   0.359   0.359   0.443   0.458   0.466   0.466   0.470
  0.470   0.516   0.516   0.524   0.524   0.540   0.540   0.551
  0.566   0.566   0.567   0.567   0.569   0.569   0.577   0.577
  0.586   0.595   0.595   0.616   0.616   0.636   0.662   0.680
  0.680   0.684   0.684   0.714   0.762   0.762   0.794   0.800
  0.800   0.809   0.809   0.810   0.810   0.939   0.952   0.952
  0.962   0.962   0.963   0.963   1.000   1.000   1.012   1.012
  1.080   1.080   1.085   1.103   1.103   1.137   1.137   1.151
  1.264   1.307   1.307   1.358   1.590   1.597   1.597   1.610
  1.610   1.680   1.680   1.731   1.825   1.825   1.891   1.891
  2.032   2.032   2.079   2.079   2.108   2.219   2.219   2.227
  2.335   2.335   2.394   2.444   2.444   2.637   2.646   2.646
  3.066   3.066   3.176   3.312   3.847   3.847   3.916   3.916
  4.024   4.024   4.045   4.045   4.065   4.166   4.166   4.222
  4.222   4.275   4.314   4.314   4.646   4.646   4.710   4.710
  4.770   4.822   4.822   4.861   4.861   4.931   5.105   5.105
  5.353   5.570   5.570   5.710   5.710   5.898   5.898   5.912
  6.163   6.163   6.236   6.416   6.416   6.462   6.821   6.821
  7.547   7.547   7.933   8.208   8.208   9.075   9.241   9.241
  9.909   9.909  10.061  10.061  10.266  10.266  10.266  10.266
 10.363  10.552  10.552  10.605  10.605  10.714  10.714  10.778
 11.041  11.041  11.171  11.403  11.403  11.516  11.516  11.615
 11.615  11.693  11.700  11.700  11.834  11.834  11.958  11.958
 12.269  12.269  12.406  12.406  12.420  12.519  12.519  12.659
 12.659  12.833  12.833  12.971  13.260  13.260  13.589  13.589
 14.418  14.418  14.438  15.520  15.922  15.922  16.122  16.910
 16.910  17.212  17.212  17.331  17.331  17.845  17.979  17.979
 18.554  18.554  19.037  19.037  19.475  22.038  22.892  22.892
 24.056  24.056  26.621  30.511  31.798  31.798  31.829  31.829
 32.756  32.756  33.587  34.875  66.464  66.464  67.134  67.134
 68.972  74.015 143.713
 --------------------------------------------------------------
 
          Ground-State Mulliken Net Atomic Charges

     Atom                 Charge (a.u.)    Spin (a.u.)
  --------------------------------------------------------
      1 C                    -0.072129       0.000000
      2 O                     0.072129      -0.000000
  --------------------------------------------------------
  Sum of atomic charges =     0.000000
  Sum of spin   charges =    -0.000000

 -----------------------------------------------------------------
                    Cartesian Multipole Moments
 -----------------------------------------------------------------
    Charge (ESU x 10^10)
                 0.0000
    Dipole Moment (Debye)
         X       0.0000      Y       0.0000      Z       0.1670
       Tot       0.1670
    Quadrupole Moments (Debye-Ang)
        XX     -10.2501     XY       0.0000     YY     -10.2501
        XZ       0.0000     YZ      -0.0000     ZZ     -12.0613
    Octopole Moments (Debye-Ang^2)
       XXX       0.0000    XXY       0.0000    XYY       0.0000
       YYY       0.0000    XXZ      -5.2939    XYZ      -0.0000
       YYZ      -5.2939    XZZ      -0.0000    YZZ      -0.0000
       ZZZ     -17.1659
    Hexadecapole Moments (Debye-Ang^3)
      XXXX      -9.6201   XXXY       0.0000   XXYY      -3.2067
      XYYY      -0.0000   YYYY      -9.6201   XXXZ       0.0000
      XXYZ       0.0000   XYYZ       0.0000   YYYZ       0.0000
      XXZZ      -9.8627   XYZZ       0.0000   YYZZ      -9.8627
      XZZZ       0.0000   YZZZ      -0.0000   ZZZZ     -51.3458
 -----------------------------------------------------------------
Archival summary:
1\1\n0097.mhg0\SP\ProcedureUnspecified\BasisUnspecified\11\yhljason\ThuJul904:02:422020ThuJul904:02:422020\0\\#,ProcedureUnspecified,BasisUnspecified,\\0,1\C\O,1,1.1282\\\@

 Total job time:  3451.11s(wall), 27338.54s(cpu) 
 Thu Jul  9 04:02:42 2020

        *************************************************************
        *                                                           *
        *  Thank you very much for using Q-Chem.  Have a nice day.  *
        *                                                           *
        *************************************************************


