Q-Chem Developer Version!
                  Welcome to Q-Chem
     A Quantum Leap Into The Future Of Chemistry


 Q-Chem 5.1, Q-Chem, Inc., Pleasanton, CA (2018)

 Yihan Shao,  Zhengting Gan,  E. Epifanovsky,  A. T. B. Gilbert,  M. Wormit,  
 J. Kussmann,  A. W. Lange,  A. Behn,  Jia Deng,  Xintian Feng,  D. Ghosh,  
 M. Goldey,  P. R. Horn,  L. D. Jacobson,  I. Kaliman,  T. Kus,  A. Landau,  
 Jie Liu,  E. I. Proynov,  R. M. Richard,  R. P. Steele,  E. J. Sundstrom,  
 H. L. Woodcock III,  P. M. Zimmerman,  D. Zuev,  B. Albrecht,  E. Alguire,  
 S. A. Baeppler,  D. Barton,  Z. Benda,  Y. A. Bernard,  E. J. Berquist,  
 K. B. Bravaya,  H. Burton,  D. Casanova,  Chun-Min Chang,  Yunqing Chen,  
 A. Chien,  K. D. Closser,  M. P. Coons,  S. Coriani,  S. Dasgupta,  
 A. L. Dempwolff,  M. Diedenhofen,  Hainam Do,  R. G. Edgar,  Po-Tung Fang,  
 S. Faraji,  S. Fatehi,  Qingguo Feng,  K. D. Fenk,  J. Fosso-Tande,  
 Qinghui Ge,  A. Ghysels,  G. Gidofalvi,  J. Gomes,  J. Gonthier,  A. Gunina,  
 D. Hait,  M. W. D. Hanson-Heine,  P. H. P. Harbach,  A. W. Hauser,  
 J. E. Herr,  E. G. Hohenstein,  Z. C. Holden,  Kerwin Hui,  B. C. Huynh,  
 T.-C. Jagau,  Hyunjun Ji,  B. Kaduk,  K. Khistyaev,  Jaehoon Kim,  
 P. Klunzinger,  K. Koh,  D. Kosenkov,  L. Koulias,  T. Kowalczyk,  
 C. M. Krauter,  A. Kunitsa,  Ka Un Lao,  A. Laurent,  K. V. Lawler,  
 Joonho Lee,  D. Lefrancois,  S. Lehtola,  D. S. Levine,  Yi-Pei Li,  
 You-Sheng Lin,  Fenglai Liu,  E. Livshits,  A. Luenser,  P. Manohar,  
 E. Mansoor,  S. F. Manzer,  Shan-Ping Mao,  Yuezhi Mao,  N. Mardirossian,  
 A. V. Marenich,  T. Markovich,  L. A. Martinez-Martinez,  S. A. Maurer,  
 N. J. Mayhall,  S. C. McKenzie,  J.-M. Mewes,  A. F. Morrison,  
 J. W. Mullinax,  K. Nanda,  T. S. Nguyen-Beck,  R. Olivares-Amaya,  
 J. A. Parkhill,  T. M. Perrine,  F. Plasser,  P. Pokhilko,  S. Prager,  
 A. Prociuk,  E. Ramos,  D. R. Rehn,  F. Rob,  M. Schneider,  N. Sergueev,  
 S. M. Sharada,  S. Sharma,  D. W. Small,  T. Stauch,  T. Stein,  
 Yu-Chuan Su,  A. J. W. Thom,  A. Tkatchenko,  T. Tsuchimochi,  N. M. Tubman,  
 L. Vogt,  M. L. Vidal,  O. Vydrov,  M. A. Watson,  J. Wenzel,  
 M. de Wergifosse,  T. A. Wesolowski,  A. White,  J. Witte,  A. Yamada,  
 Jun Yang,  K. Yao,  S. Yeganeh,  S. R. Yost,  Zhi-Qiang You,  A. Zech,  
 Igor Ying Zhang,  Xing Zhang,  Yan Zhao,  Ying Zhu,  B. R. Brooks,  
 G. K. L. Chan,  C. J. Cramer,  M. S. Gordon,  W. J. Hehre,  A. Klamt,  
 M. W. Schmidt,  C. D. Sherrill,  D. G. Truhlar,  A. Aspuru-Guzik,  R. Baer,  
 A. T. Bell,  N. A. Besley,  Jeng-Da Chai,  A. E. DePrince, III,  
 R. A. DiStasio Jr.,  A. Dreuw,  B. D. Dunietz,  T. R. Furlani,  
 Chao-Ping Hsu,  Yousung Jung,  Jing Kong,  D. S. Lambrecht,  WanZhen Liang,  
 C. Ochsenfeld,  V. A. Rassolov,  L. V. Slipchenko,  J. E. Subotnik,  
 T. Van Voorhis,  J. M. Herbert,  A. I. Krylov,  P. M. W. Gill,  M. Head-Gordon

 Contributors to earlier versions of Q-Chem not listed above: 
 R. D. Adamson,  B. Austin,  J. Baker,  G. J. O. Beran,  K. Brandhorst,  
 S. T. Brown,  E. F. C. Byrd,  A. K. Chakraborty,  C.-L. Cheng,  
 Siu Hung Chien,  D. M. Chipman,  D. L. Crittenden,  H. Dachsel,  
 R. J. Doerksen,  A. D. Dutoi,  L. Fusti-Molnar,  W. A. Goddard III,  
 A. Golubeva-Zadorozhnaya,  S. R. Gwaltney,  G. Hawkins,  A. Heyden,  
 S. Hirata,  G. Kedziora,  F. J. Keil,  C. Kelley,  Jihan Kim,  R. A. King,  
 R. Z. Khaliullin,  P. P. Korambath,  W. Kurlancheek,  A. M. Lee,  M. S. Lee,  
 S. V. Levchenko,  Ching Yeh Lin,  D. Liotard,  R. C. Lochan,  I. Lotan,  
 P. E. Maslen,  N. Nair,  D. P. O'Neill,  D. Neuhauser,  E. Neuscamman,  
 C. M. Oana,  R. Olson,  B. Peters,  R. Peverati,  P. A. Pieniazek,  
 Y. M. Rhee,  J. Ritchie,  M. A. Rohrdanz,  E. Rosta,  N. J. Russ,  
 H. F. Schaefer III,  N. E. Schultz,  N. Shenvi,  A. C. Simmonett,  A. Sodt,  
 D. Stuck,  K. S. Thanthiriwatte,  V. Vanovschi,  Tao Wang,  A. Warshel,  
 C. F. Williams,  Q. Wu,  X. Xu,  W. Zhang

 Please cite Q-Chem as follows:
 Y. Shao et al., Mol. Phys. 113, 184-215 (2015)
 DOI: 10.1080/00268976.2014.952696

 Q-Chem 5.1.1 for Intel X86 EM64T Linux

 Parts of Q-Chem use Armadillo 8.300.2 (Tropical Shenanigans).
 http://arma.sourceforge.net/

 Q-Chem begins on Tue Jun 23 03:39:19 2020  

Host: n0097.mhg0
0

     Scratch files written to /local/scratch/users/yhljason/FCO_B3LYP_aug-pc-4.inp20200623021225//
Input Ideriv = 2
Curr. Ideriv = -1
Max.  Ideriv = 2

Checking the input file for inconsistencies... 	...done.

--------------------------------------------------------------
User input:
--------------------------------------------------------------
$molecule
0 2
F1 -1.0211  -0.4211  0.0000
C2 0.0000   0.4249   0.0000
O3 1.1487   0.1550   0.0000
$end

$rem
jobtype sp
method B3LYP
xc_grid 000099000590
basis aug-pc-4
max_scf_cycles 200
thresh 14
scf_convergence 8
scf_algorithm gdm
symmetry false
sym_ignore true
unrestricted true
gen_scfman true
internal_stability_iter 15
internal_stability_davidson_iter 200
mem_total 64000
mem_static 1500
n_frozen_core 0
$end


--------------------------------------------------------------
 ----------------------------------------------------------------
             Standard Nuclear Orientation (Angstroms)
    I     Atom           X                Y                Z
 ----------------------------------------------------------------
    1      F      -1.0211000000    -0.4211000000     0.0000000000
    2      C       0.0000000000     0.4249000000     0.0000000000
    3      O       1.1487000000     0.1550000000     0.0000000000
 ----------------------------------------------------------------
 Nuclear Repulsion Energy =    60.0474168568 hartrees
 There are       12 alpha and       11 beta electrons
 Requested basis set is aug-pc-4
 There are 99 shells and 435 basis functions

 Total QAlloc Memory Limit  64000 MB
 Mega-Array Size      1467 MB
 MEM_STATIC part      1500 MB

                       Distance Matrix (Angstroms)
             F (  1)   C (  2)
   C (  2)  1.326032
   O (  3)  2.244977  1.179982
 
 A cutoff of  1.0D-14 yielded   4856 shell pairs
 There are     95116 function pairs (    185714 Cartesian)
 
 -------------------------------------------------------
 OpenMP Integral Computing Module                       
 Release: version 1.0, May 2013, Q-Chem Inc. Pittsburgh 
 -------------------------------------------------------
 Integral Job Info:
 Integral job number is                      11
 Integral operator is                         1
 short-range coefficients                     0
 long-range coefficients              100000000
 Omega coefficients                           0
 if combine SR and LR in K                    0
 Integral screening is                        0
 Integral computing path is                   2
 max size of driver memory is           6400000
 size of driver memory is               5498286
 size of scratch memory is             29792225
 max col of scratch BK array             194481
 max len of scratch array in speh3         5572
 max len of scratch index in speh4           72
 max int batch size is                      520
 min int batch size is                       52
 fixed nKL is                                25
 max L of basis functions is                  5
 order of int derivative is                   0
 number of shells is                         99
 number of basis is                         606
 number of cartesian basis is               606
 number of contracted shell pairs          4856
 number of primitive shell pairs          11718
 maxK2 (contraction) of shell pair          121
 max number of K2 of shell pair               1
 max number of CS2 of shell pair            441
 max number of PS2 of shell pair            682
 mem total for path MDJ                 1213232
 -------------------------------------------------------
 Smallest overlap matrix eigenvalue = 6.56E-07
 Linear dependence detected in AO basis
 Number of orthogonalized atomic orbitals = 434
 Maximum deviation from orthogonality = 1.425E-10

 Scale SEOQF with 1.000000e-01/1.000000e-01/1.000000e-01

 Standard Electronic Orientation quadrupole field applied
 Nucleus-field energy     =     0.0000000009 hartrees
 Guess from superposition of atomic densities
 Warning:  Energy on first SCF cycle will be non-variational
 SAD guess density has 23.000000 electrons

 -----------------------------------------------------------------------
  General SCF calculation program by
  Eric Jon Sundstrom, Paul Horn, Yuezhi Mao, Dmitri Zuev, Alec White,
  David Stuck, Shaama M.S., Shane Yost, Joonho Lee, David Small,
  Daniel Levine, Susi Lehtola, Hugh Burton, Evgeny Epifanovsky
 -----------------------------------------------------------------------
 Exchange:     0.2000 Hartree-Fock + 0.0800 Slater + 0.7200 B88
 Correlation:  0.1900 VWN1RPA + 0.8100 LYP
 Using Euler-Maclaurin-Lebedev (99,590) quadrature formula
Running Object-Oriented UKS (UHF)
performing a single roothaan step with Fock from read density so that orbitals are available to all algorithms
 LTot/LBra/LKet=          18           9           9
 LTot/LBra/LKet=          18           9           9
 LTot/LBra/LKet=          18           9           9

 Q-Chem warning:

 in GenH1, ket side, handled with new code


 Q-Chem warning:

 in GenH1, ket side, handled with new code


 Q-Chem warning:

 in GenH1, ket side, handled with new code

 LTot/LBra/LKet=          18           9           9

 Q-Chem warning:

 in GenH1, ket side, handled with new code

 LTot/LBra/LKet=          18           9           9

 Q-Chem warning:

 in GenH1, ket side, handled with new code

 LTot/LBra/LBra=          18           9           9

 Q-Chem warning:

 in GenH1, bra side, handled with new code

energy of the guess density (C=0) -213.581367543002
We will preform up to 15 macro iterations over saddle points until a stable solution is found
Energy prior to optimization (guess energy) = -213.137006939788
Begin Timing: Total SCF Calculation
Begin Timing: SCF Single Stationary Point Calculation
begin iterations for algorithm: GDM          
the SCF tolerance is set to 1.00e-08
    1    -213.1370069398      3.02e-01     00000  Descent step
    2    -213.1453285218      2.53e-01     00000  Normal BFGS step
    3    -213.2031831951      5.98e-02     00000  Normal BFGS step
    4    -213.2008950469      6.72e-02     00000 Line search: overstep
    5    -213.2091747446      3.82e-02     00000  Normal BFGS step
    6    -213.2102969302      2.53e-03     00000  Normal BFGS step
    7    -213.2103351993      1.57e-03     00000  Normal BFGS step
    8    -213.2103424713      5.15e-04     00000  Normal BFGS step
    9    -213.2103431189      2.85e-04     00000  Normal BFGS step
   10    -213.2103433054      6.77e-05     00000  Normal BFGS step
   11    -213.2103433207      9.80e-06     00000  Normal BFGS step
   12    -213.2103433213      5.24e-06     00000  Normal BFGS step
   13    -213.2103433214      5.13e-07     00000  Normal BFGS step
   14    -213.2103433214      1.97e-07     00000  Normal BFGS step
   15    -213.2103433214      2.30e-07     00000  Normal BFGS step
   16    -213.2103433214      5.97e-08     00000  Normal BFGS step
   17    -213.2103433214      1.03e-08     00000  Normal BFGS step
   18    -213.2103433214      5.69e-09     00000 Convergence criterion met
Timing for Single Stationary Point: 10689.00s (wall), 85051.87s (cpu)
Begin Timing: Stability
===================================================
Beginning Test for Internal Stability
===================================================
generating davidson guess vectors based on koopmans excitations
    1      6.06e-01     00000 Davidson Iteration
    2      1.63e-01     00000 Davidson Iteration
    3      9.45e-02     00000 Davidson Iteration
    4      4.42e-02     00000 Davidson Iteration
    5      4.02e-02     00000 Davidson Iteration
    6      7.17e-03     00000 Davidson Iteration
    7      4.44e-03     00000 Davidson Iteration
    8      5.21e-04     00000 Davidson Iteration
    9      8.17e-05     00000 Davidson Iteration
   10      1.35e-03     00000 Davidson Iteration
   11      4.43e-04     00000 Davidson Iteration
   12      1.18e-04     00000 Davidson Iteration
   13      3.49e-05     00000 Davidson Converged
converged_eigenvalues
   0.2967
   0.3240
Threshold for negative eigenvalues: -1.0e-05
solution was a local minimum (stable)
===================================================
End Test for Internal Stability
===================================================
Our SCF solution is stable!
Timing for Total SCF: 21317.00s (wall), 169489.04s (cpu)
 Total energy in the final basis set =     -213.2103433214
<S^2> =          0.753935728
    ==================================================
              The end of Object-Oriented SCFman       
    ==================================================
 
 --------------------------------------------------------------
 
                    Orbital Energies (a.u.)
 --------------------------------------------------------------
 
 Alpha MOs
 -- Occupied --
-24.769 -19.213 -10.379  -1.311  -1.135  -0.681  -0.554  -0.551
 -0.549  -0.433  -0.433  -0.296
 -- Virtual --
 -0.059  -0.002   0.013   0.015   0.015   0.051   0.052   0.055
  0.062   0.064   0.066   0.079   0.086   0.089   0.104   0.120
  0.127   0.137   0.144   0.145   0.166   0.184   0.189   0.190
  0.200   0.202   0.211   0.222   0.233   0.238   0.245   0.248
  0.252   0.252   0.262   0.264   0.282   0.299   0.307   0.308
  0.314   0.322   0.339   0.340   0.346   0.348   0.375   0.391
  0.407   0.407   0.420   0.421   0.431   0.440   0.443   0.450
  0.460   0.473   0.488   0.493   0.505   0.512   0.512   0.520
  0.525   0.540   0.542   0.548   0.552   0.555   0.555   0.564
  0.564   0.586   0.597   0.606   0.620   0.626   0.633   0.638
  0.645   0.665   0.680   0.686   0.691   0.717   0.726   0.738
  0.748   0.756   0.765   0.788   0.794   0.796   0.829   0.831
  0.847   0.868   0.893   0.894   0.901   0.912   0.923   0.932
  0.934   0.943   0.957   0.965   0.985   0.996   1.002   1.012
  1.032   1.033   1.039   1.044   1.063   1.074   1.081   1.088
  1.091   1.110   1.118   1.132   1.147   1.148   1.169   1.171
  1.187   1.194   1.218   1.231   1.250   1.253   1.300   1.314
  1.318   1.346   1.351   1.363   1.371   1.387   1.392   1.392
  1.400   1.436   1.503   1.515   1.523   1.545   1.546   1.560
  1.568   1.641   1.695   1.706   1.826   1.830   1.886   1.907
  1.949   1.953   2.020   2.021   2.048   2.056   2.080   2.152
  2.162   2.201   2.212   2.273   2.293   2.318   2.322   2.355
  2.410   2.438   2.454   2.504   2.520   2.529   2.568   2.569
  2.601   2.621   2.631   2.664   2.711   2.714   2.873   2.877
  3.021   3.056   3.097   3.241   3.294   3.394   3.401   3.410
  3.521   3.627   3.846   4.075   4.089   4.117   4.167   4.184
  4.234   4.286   4.382   4.424   4.457   4.465   4.527   4.611
  4.638   4.793   4.807   4.844   4.878   4.893   4.903   4.993
  5.089   5.209   5.225   5.269   5.315   5.364   5.414   5.515
  5.526   5.541   5.587   5.626   5.670   5.710   5.875   5.907
  5.918   5.986   6.012   6.022   6.075   6.078   6.211   6.223
  6.261   6.302   6.303   6.461   6.513   6.532   6.549   6.565
  6.658   6.726   7.017   7.156   7.171   7.225   7.248   7.379
  7.388   7.451   7.673   7.839   8.134   8.301   8.335   8.392
  8.392   8.736   8.944   9.186   9.406   9.515   9.720   9.974
 10.016  10.288  10.317  10.382  10.383  10.386  10.421  10.484
 10.681  10.688  10.799  10.836  10.929  11.069  11.253  11.271
 11.351  11.414  11.602  11.667  11.694  11.736  11.789  11.847
 11.868  11.871  11.984  12.104  12.105  12.150  12.156  12.224
 12.243  12.273  12.302  12.373  12.393  12.525  12.548  12.589
 12.712  12.744  12.746  12.746  12.759  12.781  12.853  12.921
 12.962  13.090  13.091  13.121  13.213  13.268  13.387  13.426
 13.494  13.732  13.733  13.797  14.008  14.174  14.184  14.332
 14.410  14.466  14.749  14.759  14.811  15.114  15.135  15.366
 15.420  15.523  15.658  15.777  15.943  15.967  16.555  16.760
 17.094  17.095  17.166  17.364  17.383  17.447  17.476  18.173
 18.220  18.434  18.700  18.708  18.965  19.019  19.033  20.218
 20.220  20.356  20.366  20.814  21.014  21.065  21.983  22.193
 22.361  23.139  23.192  23.260  24.153  24.439  26.704  30.435
 30.490  30.557  30.797  31.016  31.590  32.155  32.240  32.272
 32.474  32.946  34.167  34.432  34.827  41.978  42.049  42.337
 44.358  66.828  66.860  67.382  67.542  69.028  75.393  91.576
 91.611  91.788  91.915  92.627 143.982 203.170
 
 Beta MOs
 -- Occupied --
-24.763 -19.207 -10.366  -1.296  -1.120  -0.658  -0.541  -0.536
 -0.522  -0.429  -0.402
 -- Virtual --
 -0.149  -0.034   0.004   0.014   0.016   0.016   0.052   0.053
  0.055   0.063   0.064   0.068   0.081   0.088   0.093   0.104
  0.122   0.127   0.138   0.143   0.147   0.172   0.186   0.189
  0.194   0.201   0.203   0.211   0.223   0.236   0.240   0.246
  0.249   0.251   0.254   0.265   0.268   0.285   0.300   0.309
  0.314   0.314   0.323   0.338   0.342   0.347   0.350   0.375
  0.392   0.406   0.407   0.420   0.425   0.432   0.440   0.445
  0.451   0.467   0.476   0.489   0.495   0.506   0.511   0.513
  0.521   0.528   0.542   0.546   0.550   0.554   0.556   0.556
  0.565   0.569   0.588   0.599   0.607   0.622   0.626   0.638
  0.640   0.648   0.666   0.681   0.689   0.695   0.718   0.726
  0.741   0.750   0.757   0.767   0.789   0.796   0.796   0.830
  0.832   0.848   0.869   0.894   0.896   0.901   0.912   0.925
  0.934   0.935   0.946   0.965   0.971   0.986   0.998   1.002
  1.013   1.032   1.033   1.043   1.044   1.064   1.078   1.083
  1.089   1.096   1.121   1.125   1.135   1.148   1.149   1.172
  1.174   1.190   1.198   1.221   1.234   1.252   1.255   1.301
  1.314   1.318   1.349   1.353   1.367   1.374   1.390   1.394
  1.394   1.405   1.441   1.507   1.520   1.528   1.546   1.547
  1.561   1.571   1.651   1.697   1.711   1.836   1.840   1.890
  1.912   1.957   1.960   2.027   2.031   2.056   2.065   2.093
  2.158   2.167   2.212   2.220   2.292   2.302   2.334   2.335
  2.361   2.421   2.448   2.466   2.512   2.534   2.537   2.573
  2.581   2.608   2.624   2.638   2.675   2.718   2.724   2.883
  2.890   3.030   3.062   3.105   3.251   3.308   3.405   3.412
  3.416   3.531   3.638   3.856   4.087   4.098   4.130   4.181
  4.194   4.249   4.299   4.416   4.460   4.476   4.479   4.535
  4.631   4.663   4.817   4.824   4.877   4.910   4.913   4.925
  5.016   5.108   5.219   5.239   5.292   5.318   5.377   5.421
  5.524   5.537   5.551   5.603   5.637   5.684   5.728   5.884
  5.916   5.932   5.995   6.023   6.029   6.082   6.084   6.218
  6.228   6.284   6.315   6.315   6.469   6.537   6.541   6.555
  6.579   6.677   6.734   7.030   7.162   7.173   7.233   7.260
  7.385   7.400   7.457   7.677   7.851   8.144   8.317   8.345
  8.400   8.401   8.753   8.956   9.194   9.422   9.531   9.736
  9.987  10.022  10.310  10.347  10.391  10.415  10.418  10.451
 10.502  10.722  10.726  10.810  10.855  10.945  11.087  11.268
 11.276  11.366  11.441  11.624  11.696  11.727  11.760  11.837
 11.877  11.894  11.912  12.004  12.116  12.116  12.180  12.182
 12.246  12.257  12.288  12.327  12.400  12.403  12.543  12.580
 12.610  12.727  12.747  12.748  12.751  12.765  12.793  12.875
 12.936  12.973  13.100  13.106  13.136  13.232  13.286  13.399
 13.440  13.512  13.750  13.753  13.816  14.016  14.198  14.205
 14.347  14.420  14.484  14.758  14.784  14.820  15.121  15.141
 15.376  15.437  15.538  15.675  15.791  15.960  15.978  16.592
 16.774  17.111  17.111  17.183  17.380  17.396  17.462  17.487
 18.186  18.231  18.451  18.708  18.728  18.982  19.033  19.042
 20.224  20.225  20.365  20.374  20.829  21.026  21.076  21.997
 22.205  22.377  23.156  23.209  23.274  24.157  24.459  26.716
 30.446  30.496  30.564  30.810  31.031  31.606  32.171  32.246
 32.295  32.496  32.958  34.185  34.443  34.841  41.982  42.057
 42.346  44.371  66.840  66.871  67.385  67.557  69.037  75.407
 91.580  91.616  91.797  91.926  92.638 143.987 203.174
 --------------------------------------------------------------
 
          Ground-State Mulliken Net Atomic Charges

     Atom                 Charge (a.u.)    Spin (a.u.)
  --------------------------------------------------------
      1 F                    -0.334840       0.098321
      2 C                     0.635440       0.654061
      3 O                    -0.300600       0.247618
  --------------------------------------------------------
  Sum of atomic charges =     0.000000
  Sum of spin   charges =     1.000000

 -----------------------------------------------------------------
                    Cartesian Multipole Moments
 -----------------------------------------------------------------
    Charge (ESU x 10^10)
                 0.0000
    Dipole Moment (Debye)
         X      -0.8010      Y       0.2202      Z      -0.0000
       Tot       0.8307
    Quadrupole Moments (Debye-Ang)
        XX     -17.6914     XY      -0.3834     YY     -15.8037
        XZ       0.0000     YZ      -0.0000     ZZ     -14.7634
    Octopole Moments (Debye-Ang^2)
       XXX      -4.9670    XXY      -1.4682    XYY      -1.1522
       YYY      -4.1780    XXZ      -0.0000    XYZ      -0.0000
       YYZ      -0.0000    XZZ      -1.1705    YZZ      -1.0516
       ZZZ      -0.0000
    Hexadecapole Moments (Debye-Ang^3)
      XXXX     -87.9912   XXXY      -9.2887   XXYY     -18.6723
      XYYY      -8.5131   YYYY     -26.8608   XXXZ       0.0000
      XXYZ      -0.0000   XYYZ      -0.0000   YYYZ      -0.0000
      XXZZ     -16.3037   XYZZ      -3.0023   YYZZ      -6.4035
      XZZZ      -0.0000   YZZZ       0.0000   ZZZZ     -12.2569
 -----------------------------------------------------------------
Archival summary:
1\1\n0097.mhg0\SP\ProcedureUnspecified\BasisUnspecified\111(2)\yhljason\TueJun2309:45:492020TueJun2309:45:492020\0\\#,ProcedureUnspecified,BasisUnspecified,\\0,2\C\O,1,1.17998\F,1,1.32603,2,127.135\\\@

 Total job time:  21989.33s(wall), 174751.83s(cpu) 
 Tue Jun 23 09:45:49 2020

        *************************************************************
        *                                                           *
        *  Thank you very much for using Q-Chem.  Have a nice day.  *
        *                                                           *
        *************************************************************


