Q-Chem Developer Version!
                  Welcome to Q-Chem
     A Quantum Leap Into The Future Of Chemistry


 Q-Chem 5.1, Q-Chem, Inc., Pleasanton, CA (2018)

 Yihan Shao,  Zhengting Gan,  E. Epifanovsky,  A. T. B. Gilbert,  M. Wormit,  
 J. Kussmann,  A. W. Lange,  A. Behn,  Jia Deng,  Xintian Feng,  D. Ghosh,  
 M. Goldey,  P. R. Horn,  L. D. Jacobson,  I. Kaliman,  T. Kus,  A. Landau,  
 Jie Liu,  E. I. Proynov,  R. M. Richard,  R. P. Steele,  E. J. Sundstrom,  
 H. L. Woodcock III,  P. M. Zimmerman,  D. Zuev,  B. Albrecht,  E. Alguire,  
 S. A. Baeppler,  D. Barton,  Z. Benda,  Y. A. Bernard,  E. J. Berquist,  
 K. B. Bravaya,  H. Burton,  D. Casanova,  Chun-Min Chang,  Yunqing Chen,  
 A. Chien,  K. D. Closser,  M. P. Coons,  S. Coriani,  S. Dasgupta,  
 A. L. Dempwolff,  M. Diedenhofen,  Hainam Do,  R. G. Edgar,  Po-Tung Fang,  
 S. Faraji,  S. Fatehi,  Qingguo Feng,  K. D. Fenk,  J. Fosso-Tande,  
 Qinghui Ge,  A. Ghysels,  G. Gidofalvi,  J. Gomes,  J. Gonthier,  A. Gunina,  
 D. Hait,  M. W. D. Hanson-Heine,  P. H. P. Harbach,  A. W. Hauser,  
 J. E. Herr,  E. G. Hohenstein,  Z. C. Holden,  Kerwin Hui,  B. C. Huynh,  
 T.-C. Jagau,  Hyunjun Ji,  B. Kaduk,  K. Khistyaev,  Jaehoon Kim,  
 P. Klunzinger,  K. Koh,  D. Kosenkov,  L. Koulias,  T. Kowalczyk,  
 C. M. Krauter,  A. Kunitsa,  Ka Un Lao,  A. Laurent,  K. V. Lawler,  
 Joonho Lee,  D. Lefrancois,  S. Lehtola,  D. S. Levine,  Yi-Pei Li,  
 You-Sheng Lin,  Fenglai Liu,  E. Livshits,  A. Luenser,  P. Manohar,  
 E. Mansoor,  S. F. Manzer,  Shan-Ping Mao,  Yuezhi Mao,  N. Mardirossian,  
 A. V. Marenich,  T. Markovich,  L. A. Martinez-Martinez,  S. A. Maurer,  
 N. J. Mayhall,  S. C. McKenzie,  J.-M. Mewes,  A. F. Morrison,  
 J. W. Mullinax,  K. Nanda,  T. S. Nguyen-Beck,  R. Olivares-Amaya,  
 J. A. Parkhill,  T. M. Perrine,  F. Plasser,  P. Pokhilko,  S. Prager,  
 A. Prociuk,  E. Ramos,  D. R. Rehn,  F. Rob,  M. Schneider,  N. Sergueev,  
 S. M. Sharada,  S. Sharma,  D. W. Small,  T. Stauch,  T. Stein,  
 Yu-Chuan Su,  A. J. W. Thom,  A. Tkatchenko,  T. Tsuchimochi,  N. M. Tubman,  
 L. Vogt,  M. L. Vidal,  O. Vydrov,  M. A. Watson,  J. Wenzel,  
 M. de Wergifosse,  T. A. Wesolowski,  A. White,  J. Witte,  A. Yamada,  
 Jun Yang,  K. Yao,  S. Yeganeh,  S. R. Yost,  Zhi-Qiang You,  A. Zech,  
 Igor Ying Zhang,  Xing Zhang,  Yan Zhao,  Ying Zhu,  B. R. Brooks,  
 G. K. L. Chan,  C. J. Cramer,  M. S. Gordon,  W. J. Hehre,  A. Klamt,  
 M. W. Schmidt,  C. D. Sherrill,  D. G. Truhlar,  A. Aspuru-Guzik,  R. Baer,  
 A. T. Bell,  N. A. Besley,  Jeng-Da Chai,  A. E. DePrince, III,  
 R. A. DiStasio Jr.,  A. Dreuw,  B. D. Dunietz,  T. R. Furlani,  
 Chao-Ping Hsu,  Yousung Jung,  Jing Kong,  D. S. Lambrecht,  WanZhen Liang,  
 C. Ochsenfeld,  V. A. Rassolov,  L. V. Slipchenko,  J. E. Subotnik,  
 T. Van Voorhis,  J. M. Herbert,  A. I. Krylov,  P. M. W. Gill,  M. Head-Gordon

 Contributors to earlier versions of Q-Chem not listed above: 
 R. D. Adamson,  B. Austin,  J. Baker,  G. J. O. Beran,  K. Brandhorst,  
 S. T. Brown,  E. F. C. Byrd,  A. K. Chakraborty,  C.-L. Cheng,  
 Siu Hung Chien,  D. M. Chipman,  D. L. Crittenden,  H. Dachsel,  
 R. J. Doerksen,  A. D. Dutoi,  L. Fusti-Molnar,  W. A. Goddard III,  
 A. Golubeva-Zadorozhnaya,  S. R. Gwaltney,  G. Hawkins,  A. Heyden,  
 S. Hirata,  G. Kedziora,  F. J. Keil,  C. Kelley,  Jihan Kim,  R. A. King,  
 R. Z. Khaliullin,  P. P. Korambath,  W. Kurlancheek,  A. M. Lee,  M. S. Lee,  
 S. V. Levchenko,  Ching Yeh Lin,  D. Liotard,  R. C. Lochan,  I. Lotan,  
 P. E. Maslen,  N. Nair,  D. P. O'Neill,  D. Neuhauser,  E. Neuscamman,  
 C. M. Oana,  R. Olson,  B. Peters,  R. Peverati,  P. A. Pieniazek,  
 Y. M. Rhee,  J. Ritchie,  M. A. Rohrdanz,  E. Rosta,  N. J. Russ,  
 H. F. Schaefer III,  N. E. Schultz,  N. Shenvi,  A. C. Simmonett,  A. Sodt,  
 D. Stuck,  K. S. Thanthiriwatte,  V. Vanovschi,  Tao Wang,  A. Warshel,  
 C. F. Williams,  Q. Wu,  X. Xu,  W. Zhang

 Please cite Q-Chem as follows:
 Y. Shao et al., Mol. Phys. 113, 184-215 (2015)
 DOI: 10.1080/00268976.2014.952696

 Q-Chem 5.1.1 for Intel X86 EM64T Linux

 Parts of Q-Chem use Armadillo 8.300.2 (Tropical Shenanigans).
 http://arma.sourceforge.net/

 Q-Chem begins on Tue Jul  7 07:15:01 2020  

Host: n0075.mhg0
0

     Scratch files written to /local/scratch/users/yhljason/N2_M06-2X_aug-pc-4.inp20200707015043//
Input Ideriv = 2
Curr. Ideriv = -1
Max.  Ideriv = 2
Input Ideriv = 1
Curr. Ideriv = 2
Max.  Ideriv = 1

Checking the input file for inconsistencies... 	...done.

--------------------------------------------------------------
User input:
--------------------------------------------------------------
$molecule
0 1
N1	0.0000	0.0000	0.5488
N2	0.0000	0.0000	-0.5488
$end

$rem
jobtype sp
method M06-2X
xc_grid 000099000590
basis aug-pc-4
max_scf_cycles 200
thresh 14
scf_convergence 8
scf_algorithm gdm
symmetry false
sym_ignore true
unrestricted true
gen_scfman true
internal_stability_iter 15
internal_stability_davidson_iter 200
mem_total 64000
mem_static 1500
n_frozen_core 0
$end


--------------------------------------------------------------
 ----------------------------------------------------------------
             Standard Nuclear Orientation (Angstroms)
    I     Atom           X                Y                Z
 ----------------------------------------------------------------
    1      N       0.0000000000     0.0000000000     0.5488000000
    2      N       0.0000000000     0.0000000000    -0.5488000000
 ----------------------------------------------------------------
 Nuclear Repulsion Energy =    23.6239826250 hartrees
 There are        7 alpha and        7 beta electrons
 Requested basis set is aug-pc-4
 There are 66 shells and 290 basis functions

 Total QAlloc Memory Limit  64000 MB
 Mega-Array Size      1467 MB
 MEM_STATIC part      1500 MB

                       Distance Matrix (Angstroms)
             N (  1)
   N (  2)  1.097600
 
 A cutoff of  1.0D-14 yielded   2210 shell pairs
 There are     42986 function pairs (     83897 Cartesian)
 
 -------------------------------------------------------
 OpenMP Integral Computing Module                       
 Release: version 1.0, May 2013, Q-Chem Inc. Pittsburgh 
 -------------------------------------------------------
 Integral Job Info:
 Integral job number is                      11
 Integral operator is                         1
 short-range coefficients                     0
 long-range coefficients              100000000
 Omega coefficients                           0
 if combine SR and LR in K                    0
 Integral screening is                        0
 Integral computing path is                   2
 max size of driver memory is           6400000
 size of driver memory is               5498286
 size of scratch memory is             29792225
 max col of scratch BK array             194481
 max len of scratch array in speh3         5572
 max len of scratch index in speh4           72
 max int batch size is                      520
 min int batch size is                       52
 fixed nKL is                                25
 max L of basis functions is                  5
 order of int derivative is                   0
 number of shells is                         66
 number of basis is                         404
 number of cartesian basis is               404
 number of contracted shell pairs          2210
 number of primitive shell pairs           5721
 maxK2 (contraction) of shell pair          121
 max number of K2 of shell pair               1
 max number of CS2 of shell pair            198
 max number of PS2 of shell pair            308
 mem total for path MDJ                  956866
 -------------------------------------------------------
 Smallest overlap matrix eigenvalue = 1.26E-06

 Scale SEOQF with 1.000000e-01/1.000000e-01/1.000000e-01

 Standard Electronic Orientation quadrupole field applied
 Nucleus-field energy     =    -0.0000000005 hartrees
 Guess from superposition of atomic densities
 Warning:  Energy on first SCF cycle will be non-variational
 SAD guess density has 14.000000 electrons

 -----------------------------------------------------------------------
  General SCF calculation program by
  Eric Jon Sundstrom, Paul Horn, Yuezhi Mao, Dmitri Zuev, Alec White,
  David Stuck, Shaama M.S., Shane Yost, Joonho Lee, David Small,
  Daniel Levine, Susi Lehtola, Hugh Burton, Evgeny Epifanovsky
 -----------------------------------------------------------------------
 Exchange:     0.5400 Hartree-Fock + 1.0000 M06-2X
 Correlation:  1.0000 M06-2X
 Using Euler-Maclaurin-Lebedev (99,590) quadrature formula
Running Object-Oriented UKS (UHF)
performing a single roothaan step with Fock from read density so that orbitals are available to all algorithms
 LTot/LBra/LKet=          12           2          10

 Q-Chem warning:

 in GenH1, ket side, handled with new code

energy of the guess density (C=0) -109.689514991706
 LTot/LBra/LBra=          20          10          10

 Q-Chem warning:

 in GenH1, bra side, handled with new code

We will preform up to 15 macro iterations over saddle points until a stable solution is found
Energy prior to optimization (guess energy) = -109.541451478268
Begin Timing: Total SCF Calculation
Begin Timing: SCF Single Stationary Point Calculation
begin iterations for algorithm: GDM          
the SCF tolerance is set to 1.00e-08
    1    -109.5414514783      1.49e-02     00000  Normal BFGS step
    2    -109.5439652913      4.62e-03     00000  Normal BFGS step
    3    -109.5440486390      7.52e-04     00000  Normal BFGS step
    4    -109.5440550246      1.41e-04     00000  Normal BFGS step
    5    -109.5440552449      2.32e-05     00000  Normal BFGS step
    6    -109.5440552510      1.68e-06     00000  Normal BFGS step
    7    -109.5440552510      2.27e-07     00000  Normal BFGS step
    8    -109.5440552510      3.03e-08     00000  Normal BFGS step
    9    -109.5440552510      1.99e-09     00000 Convergence criterion met
Timing for Single Stationary Point: 1227.00s (wall), 9765.28s (cpu)
Begin Timing: Stability
===================================================
Beginning Test for Internal Stability
===================================================
generating davidson guess vectors based on koopmans excitations
    1      4.08e-01     00000 Davidson Iteration
    2      1.51e-01     00000 Davidson Iteration
    3      3.51e-02     00000 Davidson Iteration
    4      2.16e-02     00000 Davidson Iteration
    5      2.12e-02     00000 Davidson Iteration
    6      9.87e-03     00000 Davidson Iteration
    7      4.98e-03     00000 Davidson Iteration
    8      6.61e-03     00000 Davidson Iteration
    9      4.49e-03     00000 Davidson Iteration
   10      4.32e-03     00000 Davidson Iteration
   11      4.91e-03     00000 Davidson Iteration
   12      5.74e-03     00000 Davidson Iteration
   13      5.06e-03     00000 Davidson Iteration
   14      1.01e-03     00000 Davidson Iteration
   15      3.99e-04     00000 Davidson Iteration
   16      2.08e-04     00000 Davidson Iteration
   17      7.08e-05     00000 Davidson Converged
converged_eigenvalues
   0.4114
   0.5502
Threshold for negative eigenvalues: -1.0e-05
solution was a local minimum (stable)
===================================================
End Test for Internal Stability
===================================================
Our SCF solution is stable!
Timing for Total SCF: 4257.00s (wall), 33892.21s (cpu)
 Total energy in the final basis set =     -109.5440552510
<S^2> =         -0.000000000
    ==================================================
              The end of Object-Oriented SCFman       
    ==================================================
 
 --------------------------------------------------------------
 
                    Orbital Energies (a.u.)
 --------------------------------------------------------------
 
 Alpha MOs
 -- Occupied --
-14.858 -14.856  -1.242  -0.645  -0.541  -0.541  -0.513
 -- Virtual --
  0.011   0.021   0.021   0.022   0.026   0.026   0.056   0.059
  0.059   0.090   0.131   0.135   0.135   0.142   0.142   0.168
  0.168   0.171   0.176   0.176   0.185   0.185   0.189   0.238
  0.278   0.278   0.300   0.300   0.303   0.329   0.329   0.332
  0.332   0.396   0.396   0.404   0.404   0.417   0.417   0.435
  0.435   0.464   0.464   0.470   0.477   0.502   0.502   0.515
  0.515   0.548   0.548   0.576   0.609   0.609   0.614   0.614
  0.638   0.638   0.651   0.651   0.676   0.696   0.743   0.743
  0.774   0.774   0.776   0.776   0.792   0.792   0.825   0.825
  0.829   0.829   0.866   0.866   0.868   0.875   0.875   0.887
  0.887   0.900   0.902   0.902   0.908   0.908   0.925   0.925
  1.000   1.014   1.025   1.025   1.047   1.047   1.047   1.070
  1.097   1.097   1.172   1.172   1.226   1.226   1.422   1.422
  1.472   1.509   1.571   1.571   1.652   1.652   1.681   1.681
  1.804   1.850   1.850   1.939   1.939   2.064   2.077   2.077
  2.082   2.082   2.082   2.347   2.347   2.361   2.361   2.468
  2.701   2.836   2.836   2.892   2.892   2.909   2.909   3.070
  3.255   3.255   3.329   3.436   3.528   3.528   3.584   3.584
  3.916   4.142   4.142   4.159   4.352   4.352   4.472   4.472
  4.757   4.757   4.783   4.783   4.784   4.784   4.806   4.806
  4.995   5.192   5.192   5.245   5.245   5.328   5.672   5.672
  5.994   5.994   6.009   6.009   6.164   6.164   6.317   6.405
  6.644   6.644   6.809   6.809   7.022   7.097   7.097   7.368
  7.425   7.425   7.481   7.481   7.551   8.364   8.691   8.691
  8.951   8.951   9.197   9.197   9.746  10.468  10.527  10.527
 10.585  10.585  10.658  10.658  10.667  10.667  11.096  11.096
 11.129  11.129  11.177  11.195  11.195  11.363  11.363  11.501
 11.501  11.963  11.963  12.011  12.011  12.039  12.417  12.417
 12.573  13.516  13.516  13.740  13.740  13.939  13.939  13.940
 13.940  14.147  14.147  14.475  14.475  14.610  14.697  14.697
 14.738  14.738  14.787  14.787  15.195  15.670  15.670  15.903
 16.030  16.030  16.124  16.262  16.262  16.667  16.667  16.960
 16.960  17.581  17.774  17.774  19.208  19.208  20.659  24.060
 24.396  25.997  25.997  26.661  26.661  27.345  30.475  47.594
 47.594  47.801  47.801  47.838  47.838  48.353  48.353  48.404
 50.027 103.407 108.016
 
 Beta MOs
 -- Occupied --
-14.858 -14.856  -1.242  -0.645  -0.541  -0.541  -0.513
 -- Virtual --
  0.011   0.021   0.021   0.022   0.026   0.026   0.056   0.059
  0.059   0.090   0.131   0.135   0.135   0.142   0.142   0.168
  0.168   0.171   0.176   0.176   0.185   0.185   0.189   0.238
  0.278   0.278   0.300   0.300   0.303   0.329   0.329   0.332
  0.332   0.396   0.396   0.404   0.404   0.417   0.417   0.435
  0.435   0.464   0.464   0.470   0.477   0.502   0.502   0.515
  0.515   0.548   0.548   0.576   0.609   0.609   0.614   0.614
  0.638   0.638   0.651   0.651   0.676   0.696   0.743   0.743
  0.774   0.774   0.776   0.776   0.792   0.792   0.825   0.825
  0.829   0.829   0.866   0.866   0.868   0.875   0.875   0.887
  0.887   0.900   0.902   0.902   0.908   0.908   0.925   0.925
  1.000   1.014   1.025   1.025   1.047   1.047   1.047   1.070
  1.097   1.097   1.172   1.172   1.226   1.226   1.422   1.422
  1.472   1.509   1.571   1.571   1.652   1.652   1.681   1.681
  1.804   1.850   1.850   1.939   1.939   2.064   2.077   2.077
  2.082   2.082   2.082   2.347   2.347   2.361   2.361   2.468
  2.701   2.836   2.836   2.892   2.892   2.909   2.909   3.070
  3.255   3.255   3.329   3.436   3.528   3.528   3.584   3.584
  3.916   4.142   4.142   4.159   4.352   4.352   4.472   4.472
  4.757   4.757   4.783   4.783   4.784   4.784   4.806   4.806
  4.995   5.192   5.192   5.245   5.245   5.328   5.672   5.672
  5.994   5.994   6.009   6.009   6.164   6.164   6.317   6.405
  6.644   6.644   6.809   6.809   7.022   7.097   7.097   7.368
  7.425   7.425   7.481   7.481   7.551   8.364   8.691   8.691
  8.951   8.951   9.197   9.197   9.746  10.468  10.527  10.527
 10.585  10.585  10.658  10.658  10.667  10.667  11.096  11.096
 11.129  11.129  11.177  11.195  11.195  11.363  11.363  11.501
 11.501  11.963  11.963  12.011  12.011  12.039  12.417  12.417
 12.573  13.516  13.516  13.740  13.740  13.939  13.939  13.940
 13.940  14.147  14.147  14.475  14.475  14.610  14.697  14.697
 14.738  14.738  14.787  14.787  15.195  15.670  15.670  15.903
 16.030  16.030  16.124  16.262  16.262  16.667  16.667  16.960
 16.960  17.581  17.774  17.774  19.208  19.208  20.659  24.060
 24.396  25.997  25.997  26.661  26.661  27.345  30.475  47.594
 47.594  47.801  47.801  47.838  47.838  48.353  48.353  48.404
 50.027 103.407 108.016
 --------------------------------------------------------------
 
          Ground-State Mulliken Net Atomic Charges

     Atom                 Charge (a.u.)    Spin (a.u.)
  --------------------------------------------------------
      1 N                    -0.000000      -0.000000
      2 N                     0.000000       0.000000
  --------------------------------------------------------
  Sum of atomic charges =     0.000000
  Sum of spin   charges =     0.000000

 -----------------------------------------------------------------
                    Cartesian Multipole Moments
 -----------------------------------------------------------------
    Charge (ESU x 10^10)
                -0.0000
    Dipole Moment (Debye)
         X      -0.0000      Y      -0.0000      Z      -0.0000
       Tot       0.0000
    Quadrupole Moments (Debye-Ang)
        XX     -10.3247     XY       0.0000     YY     -10.3247
        XZ       0.0000     YZ       0.0000     ZZ     -11.6744
    Octopole Moments (Debye-Ang^2)
       XXX      -0.0000    XXY       0.0000    XYY      -0.0000
       YYY       0.0000    XXZ      -0.0000    XYZ       0.0000
       YYZ      -0.0000    XZZ      -0.0000    YZZ       0.0000
       ZZZ      -0.0000
    Hexadecapole Moments (Debye-Ang^3)
      XXXX      -9.0969   XXXY       0.0000   XXYY      -3.0323
      XYYY       0.0000   YYYY      -9.0969   XXXZ       0.0000
      XXYZ      -0.0000   XYYZ       0.0000   YYYZ       0.0000
      XXZZ      -6.3948   XYZZ       0.0000   YYZZ      -6.3948
      XZZZ      -0.0000   YZZZ       0.0000   ZZZZ     -31.7808
 -----------------------------------------------------------------
Archival summary:
1\1\n0075.mhg0\SP\ProcedureUnspecified\BasisUnspecified\2\yhljason\TueJul708:28:322020TueJul708:28:322020\0\\#,ProcedureUnspecified,BasisUnspecified,\\0,1\N\N,1,1.0976\\\@

 Total job time:  4411.14s(wall), 35079.20s(cpu) 
 Tue Jul  7 08:28:32 2020

        *************************************************************
        *                                                           *
        *  Thank you very much for using Q-Chem.  Have a nice day.  *
        *                                                           *
        *************************************************************


