Q-Chem Developer Version!
                  Welcome to Q-Chem
     A Quantum Leap Into The Future Of Chemistry


 Q-Chem 5.1, Q-Chem, Inc., Pleasanton, CA (2018)

 Yihan Shao,  Zhengting Gan,  E. Epifanovsky,  A. T. B. Gilbert,  M. Wormit,  
 J. Kussmann,  A. W. Lange,  A. Behn,  Jia Deng,  Xintian Feng,  D. Ghosh,  
 M. Goldey,  P. R. Horn,  L. D. Jacobson,  I. Kaliman,  T. Kus,  A. Landau,  
 Jie Liu,  E. I. Proynov,  R. M. Richard,  R. P. Steele,  E. J. Sundstrom,  
 H. L. Woodcock III,  P. M. Zimmerman,  D. Zuev,  B. Albrecht,  E. Alguire,  
 S. A. Baeppler,  D. Barton,  Z. Benda,  Y. A. Bernard,  E. J. Berquist,  
 K. B. Bravaya,  H. Burton,  D. Casanova,  Chun-Min Chang,  Yunqing Chen,  
 A. Chien,  K. D. Closser,  M. P. Coons,  S. Coriani,  S. Dasgupta,  
 A. L. Dempwolff,  M. Diedenhofen,  Hainam Do,  R. G. Edgar,  Po-Tung Fang,  
 S. Faraji,  S. Fatehi,  Qingguo Feng,  K. D. Fenk,  J. Fosso-Tande,  
 Qinghui Ge,  A. Ghysels,  G. Gidofalvi,  J. Gomes,  J. Gonthier,  A. Gunina,  
 D. Hait,  M. W. D. Hanson-Heine,  P. H. P. Harbach,  A. W. Hauser,  
 J. E. Herr,  E. G. Hohenstein,  Z. C. Holden,  Kerwin Hui,  B. C. Huynh,  
 T.-C. Jagau,  Hyunjun Ji,  B. Kaduk,  K. Khistyaev,  Jaehoon Kim,  
 P. Klunzinger,  K. Koh,  D. Kosenkov,  L. Koulias,  T. Kowalczyk,  
 C. M. Krauter,  A. Kunitsa,  Ka Un Lao,  A. Laurent,  K. V. Lawler,  
 Joonho Lee,  D. Lefrancois,  S. Lehtola,  D. S. Levine,  Yi-Pei Li,  
 You-Sheng Lin,  Fenglai Liu,  E. Livshits,  A. Luenser,  P. Manohar,  
 E. Mansoor,  S. F. Manzer,  Shan-Ping Mao,  Yuezhi Mao,  N. Mardirossian,  
 A. V. Marenich,  T. Markovich,  L. A. Martinez-Martinez,  S. A. Maurer,  
 N. J. Mayhall,  S. C. McKenzie,  J.-M. Mewes,  A. F. Morrison,  
 J. W. Mullinax,  K. Nanda,  T. S. Nguyen-Beck,  R. Olivares-Amaya,  
 J. A. Parkhill,  T. M. Perrine,  F. Plasser,  P. Pokhilko,  S. Prager,  
 A. Prociuk,  E. Ramos,  D. R. Rehn,  F. Rob,  M. Schneider,  N. Sergueev,  
 S. M. Sharada,  S. Sharma,  D. W. Small,  T. Stauch,  T. Stein,  
 Yu-Chuan Su,  A. J. W. Thom,  A. Tkatchenko,  T. Tsuchimochi,  N. M. Tubman,  
 L. Vogt,  M. L. Vidal,  O. Vydrov,  M. A. Watson,  J. Wenzel,  
 M. de Wergifosse,  T. A. Wesolowski,  A. White,  J. Witte,  A. Yamada,  
 Jun Yang,  K. Yao,  S. Yeganeh,  S. R. Yost,  Zhi-Qiang You,  A. Zech,  
 Igor Ying Zhang,  Xing Zhang,  Yan Zhao,  Ying Zhu,  B. R. Brooks,  
 G. K. L. Chan,  C. J. Cramer,  M. S. Gordon,  W. J. Hehre,  A. Klamt,  
 M. W. Schmidt,  C. D. Sherrill,  D. G. Truhlar,  A. Aspuru-Guzik,  R. Baer,  
 A. T. Bell,  N. A. Besley,  Jeng-Da Chai,  A. E. DePrince, III,  
 R. A. DiStasio Jr.,  A. Dreuw,  B. D. Dunietz,  T. R. Furlani,  
 Chao-Ping Hsu,  Yousung Jung,  Jing Kong,  D. S. Lambrecht,  WanZhen Liang,  
 C. Ochsenfeld,  V. A. Rassolov,  L. V. Slipchenko,  J. E. Subotnik,  
 T. Van Voorhis,  J. M. Herbert,  A. I. Krylov,  P. M. W. Gill,  M. Head-Gordon

 Contributors to earlier versions of Q-Chem not listed above: 
 R. D. Adamson,  B. Austin,  J. Baker,  G. J. O. Beran,  K. Brandhorst,  
 S. T. Brown,  E. F. C. Byrd,  A. K. Chakraborty,  C.-L. Cheng,  
 Siu Hung Chien,  D. M. Chipman,  D. L. Crittenden,  H. Dachsel,  
 R. J. Doerksen,  A. D. Dutoi,  L. Fusti-Molnar,  W. A. Goddard III,  
 A. Golubeva-Zadorozhnaya,  S. R. Gwaltney,  G. Hawkins,  A. Heyden,  
 S. Hirata,  G. Kedziora,  F. J. Keil,  C. Kelley,  Jihan Kim,  R. A. King,  
 R. Z. Khaliullin,  P. P. Korambath,  W. Kurlancheek,  A. M. Lee,  M. S. Lee,  
 S. V. Levchenko,  Ching Yeh Lin,  D. Liotard,  R. C. Lochan,  I. Lotan,  
 P. E. Maslen,  N. Nair,  D. P. O'Neill,  D. Neuhauser,  E. Neuscamman,  
 C. M. Oana,  R. Olson,  B. Peters,  R. Peverati,  P. A. Pieniazek,  
 Y. M. Rhee,  J. Ritchie,  M. A. Rohrdanz,  E. Rosta,  N. J. Russ,  
 H. F. Schaefer III,  N. E. Schultz,  N. Shenvi,  A. C. Simmonett,  A. Sodt,  
 D. Stuck,  K. S. Thanthiriwatte,  V. Vanovschi,  Tao Wang,  A. Warshel,  
 C. F. Williams,  Q. Wu,  X. Xu,  W. Zhang

 Please cite Q-Chem as follows:
 Y. Shao et al., Mol. Phys. 113, 184-215 (2015)
 DOI: 10.1080/00268976.2014.952696

 Q-Chem 5.1.1 for Intel X86 EM64T Linux

 Parts of Q-Chem use Armadillo 8.300.2 (Tropical Shenanigans).
 http://arma.sourceforge.net/

 Q-Chem begins on Mon Jun 29 05:06:08 2020  

Host: n0090.mhg0
0

     Scratch files written to /local/scratch/users/yhljason/NH2Cl_B3LYP5_aug-pc-4.inp20200629030252//
Input Ideriv = 2
Curr. Ideriv = -1
Max.  Ideriv = 2

Checking the input file for inconsistencies... 	...done.

--------------------------------------------------------------
User input:
--------------------------------------------------------------
$molecule
0 1
          Cl      0.0000000000     0.0000000000     0.0000000000
          N       0.0000000000     0.0000000000     1.7475500000
          H       0.9877064288     0.0000000000     1.9857191054
          H      -0.3322887804    -0.9301334032     1.9857191227
$end

$rem
jobtype sp
method B3LYP5
xc_grid 000099000590
basis aug-pc-4
max_scf_cycles 200
thresh 14
scf_convergence 8
scf_algorithm gdm
symmetry false
sym_ignore true
unrestricted true
gen_scfman true
internal_stability_iter 15
internal_stability_davidson_iter 200
mem_total 64000
mem_static 1500
n_frozen_core 0
$end


--------------------------------------------------------------
 ----------------------------------------------------------------
             Standard Nuclear Orientation (Angstroms)
    I     Atom           X                Y                Z
 ----------------------------------------------------------------
    1      Cl      0.0000000000     0.0000000000     0.0000000000
    2      N       0.0000000000     0.0000000000     1.7475500000
    3      H       0.9877064288     0.0000000000     1.9857191054
    4      H      -0.3322887804    -0.9301334032     1.9857191227
 ----------------------------------------------------------------
 Nuclear Repulsion Energy =    51.7664520764 hartrees
 There are       13 alpha and       13 beta electrons
 Requested basis set is aug-pc-4
 There are 112 shells and 462 basis functions

 Total QAlloc Memory Limit  64000 MB
 Mega-Array Size      1467 MB
 MEM_STATIC part      1500 MB

                       Distance Matrix (Angstroms)
             Cl(  1)   N (  2)   H (  3)
   N (  2)  1.747550
   H (  3)  2.217802  1.016016
   H (  4)  2.217802  1.016016  1.614787
 
 A cutoff of  1.0D-14 yielded   6258 shell pairs
 There are    107532 function pairs (    198368 Cartesian)
 
 -------------------------------------------------------
 OpenMP Integral Computing Module                       
 Release: version 1.0, May 2013, Q-Chem Inc. Pittsburgh 
 -------------------------------------------------------
 Integral Job Info:
 Integral job number is                      11
 Integral operator is                         1
 short-range coefficients                     0
 long-range coefficients              100000000
 Omega coefficients                           0
 if combine SR and LR in K                    0
 Integral screening is                        0
 Integral computing path is                   2
 max size of driver memory is           6400000
 size of driver memory is               5498286
 size of scratch memory is             27847117
 max col of scratch BK array             194481
 max len of scratch array in speh3         5572
 max len of scratch index in speh4           72
 max int batch size is                      520
 min int batch size is                       52
 fixed nKL is                                 7
 max L of basis functions is                  5
 order of int derivative is                   0
 number of shells is                        112
 number of basis is                         626
 number of cartesian basis is               626
 number of contracted shell pairs          6258
 number of primitive shell pairs          16828
 maxK2 (contraction) of shell pair          225
 max number of K2 of shell pair               1
 max number of CS2 of shell pair            687
 max number of PS2 of shell pair            781
 mem total for path MDJ                 1105572
 -------------------------------------------------------
 Smallest overlap matrix eigenvalue = 1.46E-06

 Scale SEOQF with 1.000000e-01/1.000000e-01/1.000000e-01

 Standard Electronic Orientation quadrupole field applied
 Nucleus-field energy     =    -0.0000000030 hartrees
 Guess from superposition of atomic densities
 Warning:  Energy on first SCF cycle will be non-variational
 SAD guess density has 26.000000 electrons

 -----------------------------------------------------------------------
  General SCF calculation program by
  Eric Jon Sundstrom, Paul Horn, Yuezhi Mao, Dmitri Zuev, Alec White,
  David Stuck, Shaama M.S., Shane Yost, Joonho Lee, David Small,
  Daniel Levine, Susi Lehtola, Hugh Burton, Evgeny Epifanovsky
 -----------------------------------------------------------------------
 Exchange:     0.2000 Hartree-Fock + 0.0800 Slater + 0.7200 B88
 Correlation:  0.1900 VWN5 + 0.8100 LYP
 Using Euler-Maclaurin-Lebedev (99,590) quadrature formula
Running Object-Oriented UKS (UHF)
performing a single roothaan step with Fock from read density so that orbitals are available to all algorithms
 LTot/LBra/LKet=          20          10          10
 LTot/LBra/LKet=          20          10          10
 LTot/LBra/LKet=          20          10          10

 Q-Chem warning:

 in GenH1, ket side, handled with new code


 Q-Chem warning:

 in GenH1, ket side, handled with new code

 LTot/LBra/LKet=          20          10          10

 Q-Chem warning:

 in GenH1, ket side, handled with new code


 Q-Chem warning:

 in GenH1, ket side, handled with new code

 LTot/LBra/LBra=          20          10          10

 Q-Chem warning:

 in GenH1, bra side, handled with new code

energy of the guess density (C=0) -516.213191645629
We will preform up to 15 macro iterations over saddle points until a stable solution is found
Energy prior to optimization (guess energy) = -516.066212088741
Begin Timing: Total SCF Calculation
Begin Timing: SCF Single Stationary Point Calculation
begin iterations for algorithm: GDM          
the SCF tolerance is set to 1.00e-08
    1    -516.0662120887      5.11e-02     00000  Descent step
    2    -516.0443486336      7.65e-02     00000 Line search: overstep
    3    -516.0907964400      2.19e-02     00000  Normal BFGS step
    4    -516.0913601116      2.25e-02     00000  Normal BFGS step
    5    -516.0926846728      1.34e-03     00000  Normal BFGS step
    6    -516.0926980970      5.35e-04     00000  Normal BFGS step
    7    -516.0927028700      1.75e-04     00000  Normal BFGS step
    8    -516.0927029915      1.04e-04     00000  Normal BFGS step
    9    -516.0927030725      6.21e-06     00000  Normal BFGS step
   10    -516.0927030728      4.95e-06     00000  Normal BFGS step
   11    -516.0927030731      3.06e-07     00000  Normal BFGS step
   12    -516.0927030731      9.94e-08     00000  Normal BFGS step
   13    -516.0927030731      2.78e-08     00000  Normal BFGS step
   14    -516.0927030731      4.99e-08     00000  Normal BFGS step
   15    -516.0927030731      6.61e-09     00000 Convergence criterion met
Timing for Single Stationary Point: 7036.00s (wall), 56267.79s (cpu)
Begin Timing: Stability
===================================================
Beginning Test for Internal Stability
===================================================
generating davidson guess vectors based on koopmans excitations
    1      7.41e-01     00000 Davidson Iteration
    2      3.66e-01     00000 Davidson Iteration
    3      8.66e-02     00000 Davidson Iteration
    4      1.09e-02     00000 Davidson Iteration
    5      1.02e-02     00000 Davidson Iteration
    6      2.88e-03     00000 Davidson Iteration
    7      6.73e-04     00000 Davidson Iteration
    8      3.08e-04     00000 Davidson Iteration
    9      1.33e-04     00000 Davidson Iteration
   10      3.98e-05     00000 Davidson Converged
converged_eigenvalues
   0.2338
   0.3654
Threshold for negative eigenvalues: -1.0e-05
solution was a local minimum (stable)
===================================================
End Test for Internal Stability
===================================================
Our SCF solution is stable!
Timing for Total SCF: 13989.00s (wall), 111881.92s (cpu)
 Total energy in the final basis set =     -516.0927030731
<S^2> =          0.000000000
    ==================================================
              The end of Object-Oriented SCFman       
    ==================================================
 
 --------------------------------------------------------------
 
                    Orbital Energies (a.u.)
 --------------------------------------------------------------
 
 Alpha MOs
 -- Occupied --
******* -14.370  -9.468  -7.231  -7.220  -7.220  -0.945  -0.761
 -0.521  -0.463  -0.378  -0.316  -0.268
 -- Virtual --
 -0.046  -0.011   0.010   0.022   0.022   0.043   0.045   0.046
  0.050   0.050   0.058   0.071   0.087   0.096   0.106   0.111
  0.122   0.133   0.139   0.143   0.146   0.150   0.155   0.156
  0.164   0.166   0.176   0.194   0.198   0.214   0.218   0.218
  0.224   0.228   0.235   0.236   0.240   0.246   0.246   0.254
  0.272   0.274   0.285   0.306   0.309   0.312   0.318   0.328
  0.341   0.347   0.354   0.357   0.365   0.371   0.374   0.384
  0.387   0.392   0.403   0.414   0.418   0.420   0.425   0.435
  0.443   0.454   0.454   0.455   0.469   0.473   0.485   0.493
  0.499   0.502   0.510   0.518   0.523   0.524   0.536   0.538
  0.553   0.561   0.562   0.574   0.583   0.593   0.611   0.622
  0.632   0.643   0.647   0.653   0.659   0.674   0.679   0.685
  0.696   0.697   0.698   0.701   0.705   0.723   0.726   0.743
  0.744   0.759   0.763   0.771   0.779   0.781   0.788   0.799
  0.807   0.815   0.818   0.822   0.828   0.829   0.835   0.847
  0.851   0.852   0.875   0.881   0.890   0.898   0.901   0.912
  0.923   0.929   0.935   0.943   0.944   0.959   0.963   0.981
  0.987   0.990   1.002   1.014   1.032   1.042   1.043   1.058
  1.064   1.067   1.098   1.112   1.121   1.122   1.130   1.149
  1.152   1.155   1.172   1.177   1.179   1.196   1.198   1.203
  1.220   1.243   1.270   1.271   1.382   1.394   1.413   1.441
  1.481   1.503   1.524   1.567   1.570   1.606   1.629   1.642
  1.648   1.655   1.664   1.679   1.702   1.726   1.763   1.779
  1.817   1.831   1.835   1.884   1.893   1.916   1.986   1.995
  2.017   2.032   2.062   2.093   2.116   2.223   2.243   2.324
  2.356   2.429   2.435   2.457   2.474   2.487   2.596   2.608
  2.618   2.637   2.682   2.738   2.785   2.944   2.983   2.993
  3.026   3.043   3.063   3.102   3.125   3.162   3.260   3.273
  3.325   3.368   3.408   3.443   3.469   3.475   3.536   3.609
  3.650   3.688   3.700   3.733   3.757   3.770   3.796   3.841
  3.852   3.860   3.926   3.973   3.978   4.000   4.048   4.107
  4.120   4.152   4.178   4.182   4.272   4.338   4.351   4.367
  4.487   4.515   4.599   4.742   4.832   4.850   4.921   4.948
  4.974   5.028   5.103   5.114   5.167   5.295   5.313   5.406
  5.482   5.581   5.679   5.726   5.735   5.763   5.786   5.788
  5.819   5.824   5.882   5.928   5.981   6.025   6.028   6.119
  6.180   6.227   6.281   6.282   6.331   6.373   6.413   6.478
  6.639   6.694   6.701   6.783   6.883   7.015   7.137   7.335
  7.410   7.427   7.538   7.731   7.861   7.875   8.090   8.153
  8.659   8.675   8.714   8.747   8.810   9.045   9.084   9.205
  9.221   9.239   9.254   9.297   9.329   9.514   9.582   9.655
  9.672   9.776   9.912   9.993  10.022  10.082  10.142  10.153
 10.180  10.344  10.471  11.383  11.493  11.557  11.587  11.652
 11.672  11.766  11.814  11.864  11.879  12.002  12.024  12.056
 12.104  12.416  12.542  12.630  12.667  12.747  12.813  12.921
 12.949  13.034  13.074  13.082  13.113  13.128  13.165  13.241
 13.305  13.599  13.712  13.855  14.093  14.189  14.350  14.363
 15.167  15.305  15.315  15.437  15.576  15.609  15.683  15.847
 15.881  16.040  16.260  16.399  16.632  16.779  16.804  16.841
 16.845  17.075  17.220  17.302  17.375  17.383  17.496  17.674
 17.796  17.858  17.917  17.918  18.025  18.065  18.111  18.555
 18.729  19.024  19.212  19.643  19.735  20.812  20.933  20.950
 20.976  21.299  22.099  23.675  23.709  23.769  23.875  24.435
 25.676  26.031  27.149  28.187  28.904  41.160  41.472  41.574
 48.285  48.371  48.471  48.856  49.520  66.231  66.232  66.277
 66.310  66.609  91.140  91.176  91.229  91.284  92.927  93.038
106.106
 
 Beta MOs
 -- Occupied --
******* -14.370  -9.468  -7.231  -7.220  -7.220  -0.945  -0.761
 -0.521  -0.463  -0.378  -0.316  -0.268
 -- Virtual --
 -0.046  -0.011   0.010   0.022   0.022   0.043   0.045   0.046
  0.050   0.050   0.058   0.071   0.087   0.096   0.106   0.111
  0.122   0.133   0.139   0.143   0.146   0.150   0.155   0.156
  0.164   0.166   0.176   0.194   0.198   0.214   0.218   0.218
  0.224   0.228   0.235   0.236   0.240   0.246   0.246   0.254
  0.272   0.274   0.285   0.306   0.309   0.312   0.318   0.328
  0.341   0.347   0.354   0.357   0.365   0.371   0.374   0.384
  0.387   0.392   0.403   0.414   0.418   0.420   0.425   0.435
  0.443   0.454   0.454   0.455   0.469   0.473   0.485   0.493
  0.499   0.502   0.510   0.518   0.523   0.524   0.536   0.538
  0.553   0.561   0.562   0.574   0.583   0.593   0.611   0.622
  0.632   0.643   0.647   0.653   0.659   0.674   0.679   0.685
  0.696   0.697   0.698   0.701   0.705   0.723   0.726   0.743
  0.744   0.759   0.763   0.771   0.779   0.781   0.788   0.799
  0.807   0.815   0.818   0.822   0.828   0.829   0.835   0.847
  0.851   0.852   0.875   0.881   0.890   0.898   0.901   0.912
  0.923   0.929   0.935   0.943   0.944   0.959   0.963   0.981
  0.987   0.990   1.002   1.014   1.032   1.042   1.043   1.058
  1.064   1.067   1.098   1.112   1.121   1.122   1.130   1.149
  1.152   1.155   1.172   1.177   1.179   1.196   1.198   1.203
  1.220   1.243   1.270   1.271   1.382   1.394   1.413   1.441
  1.481   1.503   1.524   1.567   1.570   1.606   1.629   1.642
  1.648   1.655   1.664   1.679   1.702   1.726   1.763   1.779
  1.817   1.831   1.835   1.884   1.893   1.916   1.986   1.995
  2.017   2.032   2.062   2.093   2.116   2.223   2.243   2.324
  2.356   2.429   2.435   2.457   2.474   2.487   2.596   2.608
  2.618   2.637   2.682   2.738   2.785   2.944   2.983   2.993
  3.026   3.043   3.063   3.102   3.125   3.162   3.260   3.273
  3.325   3.368   3.408   3.443   3.469   3.475   3.536   3.609
  3.650   3.688   3.700   3.733   3.757   3.770   3.796   3.841
  3.852   3.860   3.926   3.973   3.978   4.000   4.048   4.107
  4.120   4.152   4.178   4.182   4.272   4.338   4.351   4.367
  4.487   4.515   4.599   4.742   4.832   4.850   4.921   4.948
  4.974   5.028   5.103   5.114   5.167   5.295   5.313   5.406
  5.482   5.581   5.679   5.726   5.735   5.763   5.786   5.788
  5.819   5.824   5.882   5.928   5.981   6.025   6.028   6.119
  6.180   6.227   6.281   6.282   6.331   6.373   6.413   6.478
  6.639   6.694   6.701   6.783   6.883   7.015   7.137   7.335
  7.410   7.427   7.538   7.731   7.861   7.875   8.090   8.153
  8.659   8.675   8.714   8.747   8.810   9.045   9.084   9.205
  9.221   9.239   9.254   9.297   9.329   9.514   9.582   9.655
  9.672   9.776   9.912   9.993  10.022  10.082  10.142  10.153
 10.180  10.344  10.471  11.383  11.493  11.557  11.587  11.652
 11.672  11.766  11.814  11.864  11.879  12.002  12.024  12.056
 12.104  12.416  12.542  12.630  12.667  12.747  12.813  12.921
 12.949  13.034  13.074  13.082  13.113  13.128  13.165  13.241
 13.305  13.599  13.712  13.855  14.093  14.189  14.350  14.363
 15.167  15.305  15.315  15.437  15.576  15.609  15.683  15.847
 15.881  16.040  16.260  16.399  16.632  16.779  16.804  16.841
 16.845  17.075  17.220  17.302  17.375  17.383  17.496  17.674
 17.796  17.858  17.917  17.918  18.025  18.065  18.111  18.555
 18.729  19.024  19.212  19.643  19.735  20.812  20.933  20.950
 20.976  21.299  22.099  23.675  23.709  23.769  23.875  24.435
 25.676  26.031  27.149  28.187  28.904  41.160  41.472  41.574
 48.285  48.371  48.471  48.856  49.520  66.231  66.232  66.277
 66.310  66.609  91.140  91.176  91.229  91.284  92.927  93.038
106.106
 --------------------------------------------------------------
 
          Ground-State Mulliken Net Atomic Charges

     Atom                 Charge (a.u.)    Spin (a.u.)
  --------------------------------------------------------
      1 Cl                   -0.169081       0.000000
      2 N                    -0.278687      -0.000000
      3 H                     0.223884       0.000000
      4 H                     0.223885       0.000000
  --------------------------------------------------------
  Sum of atomic charges =     0.000000
  Sum of spin   charges =     0.000000

 -----------------------------------------------------------------
                    Cartesian Multipole Moments
 -----------------------------------------------------------------
    Charge (ESU x 10^10)
                -0.0000
    Dipole Moment (Debye)
         X       0.9011      Y      -1.2788      Z       1.1635
       Tot       1.9496
    Quadrupole Moments (Debye-Ang)
        XX     -18.7413     XY       0.8971     YY     -19.3823
        XZ       2.1657     YZ      -3.0735     ZZ     -16.4628
    Octopole Moments (Debye-Ang^2)
       XXX       0.4002    XXY       0.4120    XYY      -0.9348
       YYY       0.3467    XXZ      -9.4395    XYZ       1.6749
       YYZ     -10.6363    XZZ       4.1598    YZZ      -5.9033
       ZZZ     -33.1524
    Hexadecapole Moments (Debye-Ang^3)
      XXXX     -24.2897   XXXY       0.1507   XXYY      -8.5269
      XYYY       0.5735   YYYY     -24.8072   XXXZ       1.3416
      XXYZ       0.5578   XYYZ      -1.6709   YYYZ      -0.0903
      XXZZ     -24.8444   XYZZ       3.3241   YYZZ     -27.2194
      XZZZ       7.8857   YZZZ     -11.1909   ZZZZ    -143.6076
 -----------------------------------------------------------------
Archival summary:
1\1\n0090.mhg0\SP\ProcedureUnspecified\BasisUnspecified\l112\yhljason\MonJun2909:08:212020MonJun2909:08:212020\0\\#,ProcedureUnspecified,BasisUnspecified,\\0,1\Cl\N,1,1.74755\H,2,1.01602,1,103.557\H,2,1.01602,1,103.557,3,109.659,0\\\@

 Total job time:  14533.05s(wall), 116177.01s(cpu) 
 Mon Jun 29 09:08:21 2020

        *************************************************************
        *                                                           *
        *  Thank you very much for using Q-Chem.  Have a nice day.  *
        *                                                           *
        *************************************************************


