Q-Chem Developer Version!
                  Welcome to Q-Chem
     A Quantum Leap Into The Future Of Chemistry


 Q-Chem 5.1, Q-Chem, Inc., Pleasanton, CA (2018)

 Yihan Shao,  Zhengting Gan,  E. Epifanovsky,  A. T. B. Gilbert,  M. Wormit,  
 J. Kussmann,  A. W. Lange,  A. Behn,  Jia Deng,  Xintian Feng,  D. Ghosh,  
 M. Goldey,  P. R. Horn,  L. D. Jacobson,  I. Kaliman,  T. Kus,  A. Landau,  
 Jie Liu,  E. I. Proynov,  R. M. Richard,  R. P. Steele,  E. J. Sundstrom,  
 H. L. Woodcock III,  P. M. Zimmerman,  D. Zuev,  B. Albrecht,  E. Alguire,  
 S. A. Baeppler,  D. Barton,  Z. Benda,  Y. A. Bernard,  E. J. Berquist,  
 K. B. Bravaya,  H. Burton,  D. Casanova,  Chun-Min Chang,  Yunqing Chen,  
 A. Chien,  K. D. Closser,  M. P. Coons,  S. Coriani,  S. Dasgupta,  
 A. L. Dempwolff,  M. Diedenhofen,  Hainam Do,  R. G. Edgar,  Po-Tung Fang,  
 S. Faraji,  S. Fatehi,  Qingguo Feng,  K. D. Fenk,  J. Fosso-Tande,  
 Qinghui Ge,  A. Ghysels,  G. Gidofalvi,  J. Gomes,  J. Gonthier,  A. Gunina,  
 D. Hait,  M. W. D. Hanson-Heine,  P. H. P. Harbach,  A. W. Hauser,  
 J. E. Herr,  E. G. Hohenstein,  Z. C. Holden,  Kerwin Hui,  B. C. Huynh,  
 T.-C. Jagau,  Hyunjun Ji,  B. Kaduk,  K. Khistyaev,  Jaehoon Kim,  
 P. Klunzinger,  K. Koh,  D. Kosenkov,  L. Koulias,  T. Kowalczyk,  
 C. M. Krauter,  A. Kunitsa,  Ka Un Lao,  A. Laurent,  K. V. Lawler,  
 Joonho Lee,  D. Lefrancois,  S. Lehtola,  D. S. Levine,  Yi-Pei Li,  
 You-Sheng Lin,  Fenglai Liu,  E. Livshits,  A. Luenser,  P. Manohar,  
 E. Mansoor,  S. F. Manzer,  Shan-Ping Mao,  Yuezhi Mao,  N. Mardirossian,  
 A. V. Marenich,  T. Markovich,  L. A. Martinez-Martinez,  S. A. Maurer,  
 N. J. Mayhall,  S. C. McKenzie,  J.-M. Mewes,  A. F. Morrison,  
 J. W. Mullinax,  K. Nanda,  T. S. Nguyen-Beck,  R. Olivares-Amaya,  
 J. A. Parkhill,  T. M. Perrine,  F. Plasser,  P. Pokhilko,  S. Prager,  
 A. Prociuk,  E. Ramos,  D. R. Rehn,  F. Rob,  M. Schneider,  N. Sergueev,  
 S. M. Sharada,  S. Sharma,  D. W. Small,  T. Stauch,  T. Stein,  
 Yu-Chuan Su,  A. J. W. Thom,  A. Tkatchenko,  T. Tsuchimochi,  N. M. Tubman,  
 L. Vogt,  M. L. Vidal,  O. Vydrov,  M. A. Watson,  J. Wenzel,  
 M. de Wergifosse,  T. A. Wesolowski,  A. White,  J. Witte,  A. Yamada,  
 Jun Yang,  K. Yao,  S. Yeganeh,  S. R. Yost,  Zhi-Qiang You,  A. Zech,  
 Igor Ying Zhang,  Xing Zhang,  Yan Zhao,  Ying Zhu,  B. R. Brooks,  
 G. K. L. Chan,  C. J. Cramer,  M. S. Gordon,  W. J. Hehre,  A. Klamt,  
 M. W. Schmidt,  C. D. Sherrill,  D. G. Truhlar,  A. Aspuru-Guzik,  R. Baer,  
 A. T. Bell,  N. A. Besley,  Jeng-Da Chai,  A. E. DePrince, III,  
 R. A. DiStasio Jr.,  A. Dreuw,  B. D. Dunietz,  T. R. Furlani,  
 Chao-Ping Hsu,  Yousung Jung,  Jing Kong,  D. S. Lambrecht,  WanZhen Liang,  
 C. Ochsenfeld,  V. A. Rassolov,  L. V. Slipchenko,  J. E. Subotnik,  
 T. Van Voorhis,  J. M. Herbert,  A. I. Krylov,  P. M. W. Gill,  M. Head-Gordon

 Contributors to earlier versions of Q-Chem not listed above: 
 R. D. Adamson,  B. Austin,  J. Baker,  G. J. O. Beran,  K. Brandhorst,  
 S. T. Brown,  E. F. C. Byrd,  A. K. Chakraborty,  C.-L. Cheng,  
 Siu Hung Chien,  D. M. Chipman,  D. L. Crittenden,  H. Dachsel,  
 R. J. Doerksen,  A. D. Dutoi,  L. Fusti-Molnar,  W. A. Goddard III,  
 A. Golubeva-Zadorozhnaya,  S. R. Gwaltney,  G. Hawkins,  A. Heyden,  
 S. Hirata,  G. Kedziora,  F. J. Keil,  C. Kelley,  Jihan Kim,  R. A. King,  
 R. Z. Khaliullin,  P. P. Korambath,  W. Kurlancheek,  A. M. Lee,  M. S. Lee,  
 S. V. Levchenko,  Ching Yeh Lin,  D. Liotard,  R. C. Lochan,  I. Lotan,  
 P. E. Maslen,  N. Nair,  D. P. O'Neill,  D. Neuhauser,  E. Neuscamman,  
 C. M. Oana,  R. Olson,  B. Peters,  R. Peverati,  P. A. Pieniazek,  
 Y. M. Rhee,  J. Ritchie,  M. A. Rohrdanz,  E. Rosta,  N. J. Russ,  
 H. F. Schaefer III,  N. E. Schultz,  N. Shenvi,  A. C. Simmonett,  A. Sodt,  
 D. Stuck,  K. S. Thanthiriwatte,  V. Vanovschi,  Tao Wang,  A. Warshel,  
 C. F. Williams,  Q. Wu,  X. Xu,  W. Zhang

 Please cite Q-Chem as follows:
 Y. Shao et al., Mol. Phys. 113, 184-215 (2015)
 DOI: 10.1080/00268976.2014.952696

 Q-Chem 5.1.1 for Intel X86 EM64T Linux

 Parts of Q-Chem use Armadillo 8.300.2 (Tropical Shenanigans).
 http://arma.sourceforge.net/

 Q-Chem begins on Mon Jun 29 05:12:56 2020  

Host: n0045.mhg0
0

     Scratch files written to /local/scratch/users/yhljason/NH2OH_mBEEF_aug-pc-4.inp20200629030254//
Input Ideriv = 2
Curr. Ideriv = -1
Max.  Ideriv = 2
Input Ideriv = 1
Curr. Ideriv = 2
Max.  Ideriv = 1

Checking the input file for inconsistencies... 	...done.

--------------------------------------------------------------
User input:
--------------------------------------------------------------
$molecule
0 1
N1      -0.0094 0.7040  0.0000
O2      -0.0094 -0.7490 0.0000
H3      -0.9525 -0.9386 0.0000
H4      0.5469  1.0012  0.7965
H5      0.5469  1.0012  -0.7965
$end

$rem
jobtype sp
method mBEEF
xc_grid 000099000590
basis aug-pc-4
max_scf_cycles 200
thresh 14
scf_convergence 8
scf_algorithm gdm
symmetry false
sym_ignore true
unrestricted true
gen_scfman true
internal_stability_iter 15
internal_stability_davidson_iter 200
mem_total 64000
mem_static 1500
n_frozen_core 0
$end


--------------------------------------------------------------
 ----------------------------------------------------------------
             Standard Nuclear Orientation (Angstroms)
    I     Atom           X                Y                Z
 ----------------------------------------------------------------
    1      N      -0.0094000000     0.7040000000     0.0000000000
    2      O      -0.0094000000    -0.7490000000     0.0000000000
    3      H      -0.9525000000    -0.9386000000     0.0000000000
    4      H       0.5469000000     1.0012000000     0.7965000000
    5      H       0.5469000000     1.0012000000    -0.7965000000
 ----------------------------------------------------------------
 Nuclear Repulsion Energy =    39.0158499919 hartrees
 There are        9 alpha and        9 beta electrons
 Requested basis set is aug-pc-4
 There are 138 shells and 554 basis functions

 Total QAlloc Memory Limit  64000 MB
 Mega-Array Size      1467 MB
 MEM_STATIC part      1500 MB

                       Distance Matrix (Angstroms)
             N (  1)   O (  2)   H (  3)   H (  4)
   O (  2)  1.453000
   H (  3)  1.894089  0.961970
   H (  4)  1.015977  2.001770  2.577874
   H (  5)  1.015977  2.001770  2.577874  1.593000
 
 A cutoff of  1.0D-14 yielded   9422 shell pairs
 There are    153806 function pairs (    278081 Cartesian)
 
 -------------------------------------------------------
 OpenMP Integral Computing Module                       
 Release: version 1.0, May 2013, Q-Chem Inc. Pittsburgh 
 -------------------------------------------------------
 Integral Job Info:
 Integral job number is                      11
 Integral operator is                         1
 short-range coefficients                     0
 long-range coefficients              100000000
 Omega coefficients                           0
 if combine SR and LR in K                    0
 Integral screening is                        0
 Integral computing path is                   2
 max size of driver memory is           6400000
 size of driver memory is               5498286
 size of scratch memory is             29792225
 max col of scratch BK array             194481
 max len of scratch array in speh3         5572
 max len of scratch index in speh4           72
 max int batch size is                      520
 min int batch size is                       52
 fixed nKL is                                25
 max L of basis functions is                  5
 order of int derivative is                   0
 number of shells is                        138
 number of basis is                         743
 number of cartesian basis is               743
 number of contracted shell pairs          9422
 number of primitive shell pairs          16940
 maxK2 (contraction) of shell pair          121
 max number of K2 of shell pair               1
 max number of CS2 of shell pair           1223
 max number of PS2 of shell pair           1223
 mem total for path MDJ                 1295920
 -------------------------------------------------------
 Smallest overlap matrix eigenvalue = 3.44E-07
 Linear dependence detected in AO basis
 Number of orthogonalized atomic orbitals = 552
 Maximum deviation from orthogonality = 3.456E-10

 Scale SEOQF with 1.000000e-01/1.000000e-01/1.000000e-01

 Standard Electronic Orientation quadrupole field applied
 Nucleus-field energy     =     0.0000000007 hartrees
 Guess from superposition of atomic densities
 Warning:  Energy on first SCF cycle will be non-variational
 SAD guess density has 18.000000 electrons

 -----------------------------------------------------------------------
  General SCF calculation program by
  Eric Jon Sundstrom, Paul Horn, Yuezhi Mao, Dmitri Zuev, Alec White,
  David Stuck, Shaama M.S., Shane Yost, Joonho Lee, David Small,
  Daniel Levine, Susi Lehtola, Hugh Burton, Evgeny Epifanovsky
 -----------------------------------------------------------------------
 Exchange:  mBEEF      Correlation:  PBEsol
 Using Euler-Maclaurin-Lebedev (99,590) quadrature formula
Running Object-Oriented UKS (UHF)
performing a single roothaan step with Fock from read density so that orbitals are available to all algorithms
energy of the guess density (C=0) -132.386371476693
We will preform up to 15 macro iterations over saddle points until a stable solution is found
Energy prior to optimization (guess energy) = -132.253134368598
Begin Timing: Total SCF Calculation
Begin Timing: SCF Single Stationary Point Calculation
begin iterations for algorithm: GDM          
the SCF tolerance is set to 1.00e-08
    1    -132.2531343686      5.38e-02     00000  Descent step
    2    -132.2820767318      4.90e-02     00000  Normal BFGS step
    3    -132.3062469888      1.88e-02     00000  Normal BFGS step
    4    -132.3050136419      2.04e-02     00000 Line search: overstep
    5    -132.3077314943      4.91e-03     00000  Normal BFGS step
    6    -132.3079476463      2.28e-03     00000  Normal BFGS step
    7    -132.3080164640      3.77e-04     00000  Normal BFGS step
    8    -132.3080181946      6.54e-05     00000  Normal BFGS step
    9    -132.3080182480      9.28e-06     00000  Normal BFGS step
   10    -132.3080182492      5.03e-06     00000  Normal BFGS step
   11    -132.3080182495      4.05e-07     00000  Normal BFGS step
   12    -132.3080182495      1.71e-07     00000  Normal BFGS step
   13    -132.3080182496      1.09e-08     00000  Normal BFGS step
   14    -132.3080182495      7.04e-09     00000 Convergence criterion met
Timing for Single Stationary Point: 1074.00s (wall), 8562.49s (cpu)
Begin Timing: Stability
===================================================
Beginning Test for Internal Stability
===================================================
generating davidson guess vectors based on koopmans excitations
    1      4.91e-01     00000 Davidson Iteration
    2      2.86e-01     00000 Davidson Iteration
    3      1.07e-01     00000 Davidson Iteration
    4      5.67e-02     00000 Davidson Iteration
    5      3.68e-02     00000 Davidson Iteration
    6      1.30e-02     00000 Davidson Iteration
    7      4.27e-03     00000 Davidson Iteration
    8      1.47e-03     00000 Davidson Iteration
    9      8.35e-04     00000 Davidson Iteration
   10      2.82e-04     00000 Davidson Iteration
   11      1.05e-04     00000 Davidson Iteration
   12      3.08e-05     00000 Davidson Converged
converged_eigenvalues
   0.3615
   0.4151
Threshold for negative eigenvalues: -1.0e-05
solution was a local minimum (stable)
===================================================
End Test for Internal Stability
===================================================
Our SCF solution is stable!
Timing for Total SCF: 13304.00s (wall), 106121.53s (cpu)
 Total energy in the final basis set =     -132.3080182495
<S^2> =          0.000000000
    ==================================================
              The end of Object-Oriented SCFman       
    ==================================================
 
 --------------------------------------------------------------
 
                    Orbital Energies (a.u.)
 --------------------------------------------------------------
 
 Alpha MOs
 -- Occupied --
-18.963 -14.192  -1.026  -0.787  -0.479  -0.472  -0.416  -0.274
 -0.246
 -- Virtual --
 -0.018  -0.008   0.017   0.022   0.037   0.041   0.049   0.050
  0.054   0.058   0.065   0.066   0.072   0.106   0.114   0.116
  0.121   0.122   0.123   0.126   0.126   0.136   0.146   0.153
  0.160   0.164   0.166   0.172   0.177   0.204   0.210   0.220
  0.221   0.230   0.235   0.238   0.244   0.244   0.247   0.248
  0.254   0.258   0.261   0.270   0.273   0.279   0.289   0.295
  0.304   0.314   0.314   0.317   0.326   0.330   0.342   0.345
  0.349   0.371   0.377   0.380   0.391   0.395   0.408   0.412
  0.419   0.428   0.429   0.451   0.452   0.458   0.458   0.466
  0.473   0.477   0.480   0.485   0.489   0.490   0.492   0.493
  0.505   0.509   0.510   0.513   0.517   0.526   0.528   0.538
  0.538   0.554   0.557   0.567   0.570   0.582   0.592   0.601
  0.614   0.620   0.627   0.630   0.642   0.651   0.659   0.659
  0.679   0.684   0.687   0.688   0.692   0.714   0.723   0.728
  0.734   0.737   0.742   0.755   0.760   0.761   0.776   0.777
  0.789   0.800   0.802   0.805   0.808   0.819   0.822   0.829
  0.830   0.837   0.841   0.851   0.853   0.855   0.873   0.875
  0.882   0.891   0.895   0.909   0.912   0.919   0.921   0.922
  0.937   0.946   0.950   0.960   0.966   0.973   0.977   0.994
  1.018   1.022   1.026   1.034   1.038   1.043   1.055   1.064
  1.067   1.068   1.082   1.092   1.096   1.108   1.112   1.117
  1.129   1.134   1.155   1.172   1.194   1.211   1.241   1.249
  1.257   1.268   1.275   1.319   1.325   1.335   1.345   1.352
  1.367   1.384   1.395   1.397   1.442   1.517   1.520   1.531
  1.541   1.557   1.570   1.607   1.637   1.640   1.672   1.688
  1.694   1.703   1.738   1.748   1.753   1.776   1.790   1.821
  1.842   1.843   1.869   1.893   1.928   1.928   1.989   1.993
  2.022   2.025   2.053   2.097   2.138   2.147   2.206   2.216
  2.257   2.327   2.337   2.424   2.464   2.491   2.592   2.599
  2.617   2.649   2.723   2.748   2.761   2.824   2.833   2.903
  2.943   2.983   3.015   3.053   3.134   3.194   3.234   3.313
  3.388   3.434   3.457   3.487   3.509   3.561   3.642   3.645
  3.648   3.716   3.763   3.777   3.786   3.800   3.874   3.888
  3.906   3.921   3.990   4.003   4.032   4.060   4.119   4.134
  4.184   4.219   4.248   4.284   4.356   4.361   4.389   4.436
  4.512   4.535   4.570   4.601   4.606   4.671   4.737   4.754
  4.801   4.897   4.907   4.937   4.939   5.029   5.144   5.151
  5.171   5.209   5.276   5.294   5.318   5.359   5.453   5.546
  5.639   5.725   5.739   5.800   5.849   5.879   5.922   6.012
  6.111   6.164   6.231   6.238   6.275   6.394   6.469   6.568
  6.593   6.611   6.688   6.702   6.748   6.776   6.905   6.938
  6.988   7.079   7.139   7.145   7.307   7.397   7.436   7.735
  7.742   7.831   7.845   7.866   7.989   8.016   8.100   8.216
  8.293   8.326   8.433   8.557   8.566   8.956   9.024   9.053
  9.130   9.131   9.295   9.301   9.558   9.570   9.629   9.656
  9.689   9.694   9.797   9.868   9.930   9.951  10.169  10.206
 10.260  10.334  10.385  10.477  10.495  10.543  10.556  10.653
 10.791  10.962  11.227  11.357  11.596  11.705  11.766  11.814
 11.832  11.883  11.902  11.945  11.996  12.133  12.144  12.208
 12.265  12.272  12.328  12.461  12.533  12.543  12.605  12.659
 12.700  12.849  13.006  13.066  13.074  13.195  13.225  13.268
 13.281  13.317  13.320  13.348  13.407  13.462  13.484  13.495
 13.560  13.626  13.679  13.754  13.843  13.875  13.913  14.386
 14.523  14.523  14.660  14.727  14.758  14.790  14.862  14.938
 15.129  15.387  15.539  15.650  15.800  15.806  15.887  16.051
 16.101  16.288  16.406  16.441  16.562  16.574  16.753  17.017
 17.147  17.199  17.444  17.671  17.811  17.900  17.903  17.920
 17.964  17.971  17.979  18.065  18.133  18.166  18.183  18.191
 18.242  18.247  18.385  18.469  18.510  18.595  18.620  18.683
 18.685  18.913  19.037  19.117  19.214  19.457  19.541  19.585
 19.742  19.969  20.112  20.390  20.553  20.657  21.242  21.291
 21.452  21.674  21.714  21.861  21.922  22.037  22.045  22.471
 22.800  23.971  24.002  24.060  24.096  24.226  24.380  24.501
 24.516  24.676  24.909  25.708  25.910  26.301  27.484  27.554
 28.063  28.788  28.959  31.502  32.667  34.348  34.756  41.484
 41.775  41.778  48.851  48.898  49.088  49.622  50.078  67.685
 67.881  67.894  68.529  69.792  90.939  91.008  91.009  91.118
 91.124  91.326  92.639  92.757  93.419 105.927 144.207
 
 Beta MOs
 -- Occupied --
-18.963 -14.192  -1.026  -0.787  -0.479  -0.472  -0.416  -0.274
 -0.246
 -- Virtual --
 -0.018  -0.008   0.017   0.022   0.037   0.041   0.049   0.050
  0.054   0.058   0.065   0.066   0.072   0.106   0.114   0.116
  0.121   0.122   0.123   0.126   0.126   0.136   0.146   0.153
  0.160   0.164   0.166   0.172   0.177   0.204   0.210   0.220
  0.221   0.230   0.235   0.238   0.244   0.244   0.247   0.248
  0.254   0.258   0.261   0.270   0.273   0.279   0.289   0.295
  0.304   0.314   0.314   0.317   0.326   0.330   0.342   0.345
  0.349   0.371   0.377   0.380   0.391   0.395   0.408   0.412
  0.419   0.428   0.429   0.451   0.452   0.458   0.458   0.466
  0.473   0.477   0.480   0.485   0.489   0.490   0.492   0.493
  0.505   0.509   0.510   0.513   0.517   0.526   0.528   0.538
  0.538   0.554   0.557   0.567   0.570   0.582   0.592   0.601
  0.614   0.620   0.627   0.630   0.642   0.651   0.659   0.659
  0.679   0.684   0.687   0.688   0.692   0.714   0.723   0.728
  0.734   0.737   0.742   0.755   0.760   0.761   0.776   0.777
  0.789   0.800   0.802   0.805   0.808   0.819   0.822   0.829
  0.830   0.837   0.841   0.851   0.853   0.855   0.873   0.875
  0.882   0.891   0.895   0.909   0.912   0.919   0.921   0.922
  0.937   0.946   0.950   0.960   0.966   0.973   0.977   0.994
  1.018   1.022   1.026   1.034   1.038   1.043   1.055   1.064
  1.067   1.068   1.082   1.092   1.096   1.108   1.112   1.117
  1.129   1.134   1.155   1.172   1.194   1.211   1.241   1.249
  1.257   1.268   1.275   1.319   1.325   1.335   1.345   1.352
  1.367   1.384   1.395   1.397   1.442   1.517   1.520   1.531
  1.541   1.557   1.570   1.607   1.637   1.640   1.672   1.688
  1.694   1.703   1.738   1.748   1.753   1.776   1.790   1.821
  1.842   1.843   1.869   1.893   1.928   1.928   1.989   1.993
  2.022   2.025   2.053   2.097   2.138   2.147   2.206   2.216
  2.257   2.327   2.337   2.424   2.464   2.491   2.592   2.599
  2.617   2.649   2.723   2.748   2.761   2.824   2.833   2.903
  2.943   2.983   3.015   3.053   3.134   3.194   3.234   3.313
  3.388   3.434   3.457   3.487   3.509   3.561   3.642   3.645
  3.648   3.716   3.763   3.777   3.786   3.800   3.874   3.888
  3.906   3.921   3.990   4.003   4.032   4.060   4.119   4.134
  4.184   4.219   4.248   4.284   4.356   4.361   4.389   4.436
  4.512   4.535   4.570   4.601   4.606   4.671   4.737   4.754
  4.801   4.897   4.907   4.937   4.939   5.029   5.144   5.151
  5.171   5.209   5.276   5.294   5.318   5.359   5.453   5.546
  5.639   5.725   5.739   5.800   5.849   5.879   5.922   6.012
  6.111   6.164   6.231   6.238   6.275   6.394   6.469   6.568
  6.593   6.611   6.688   6.702   6.748   6.776   6.905   6.938
  6.988   7.079   7.139   7.145   7.307   7.397   7.436   7.735
  7.742   7.831   7.845   7.866   7.989   8.016   8.100   8.216
  8.293   8.326   8.433   8.557   8.566   8.956   9.024   9.053
  9.130   9.131   9.295   9.301   9.558   9.570   9.629   9.656
  9.689   9.694   9.797   9.868   9.930   9.951  10.169  10.206
 10.260  10.334  10.385  10.477  10.495  10.543  10.556  10.653
 10.791  10.962  11.227  11.357  11.596  11.705  11.766  11.814
 11.832  11.883  11.902  11.945  11.996  12.133  12.144  12.208
 12.265  12.272  12.328  12.461  12.533  12.543  12.605  12.659
 12.700  12.849  13.006  13.066  13.074  13.195  13.225  13.268
 13.281  13.317  13.320  13.348  13.407  13.462  13.484  13.495
 13.560  13.626  13.679  13.754  13.843  13.875  13.913  14.386
 14.523  14.523  14.660  14.727  14.758  14.790  14.862  14.938
 15.129  15.387  15.539  15.650  15.800  15.806  15.887  16.051
 16.101  16.288  16.406  16.441  16.562  16.574  16.753  17.017
 17.147  17.199  17.444  17.671  17.811  17.900  17.903  17.920
 17.964  17.971  17.979  18.065  18.133  18.166  18.183  18.191
 18.242  18.247  18.385  18.469  18.510  18.595  18.620  18.683
 18.685  18.913  19.037  19.117  19.214  19.457  19.541  19.585
 19.742  19.969  20.112  20.390  20.553  20.657  21.242  21.291
 21.452  21.674  21.714  21.861  21.922  22.037  22.045  22.471
 22.800  23.971  24.002  24.060  24.096  24.226  24.380  24.501
 24.516  24.676  24.909  25.708  25.910  26.301  27.484  27.554
 28.063  28.788  28.959  31.502  32.667  34.348  34.756  41.484
 41.775  41.778  48.851  48.898  49.088  49.622  50.078  67.685
 67.881  67.894  68.529  69.792  90.939  91.008  91.009  91.118
 91.124  91.326  92.639  92.757  93.419 105.927 144.207
 --------------------------------------------------------------
 
          Ground-State Mulliken Net Atomic Charges

     Atom                 Charge (a.u.)    Spin (a.u.)
  --------------------------------------------------------
      1 N                     0.034299      -0.000000
      2 O                    -0.183361       0.000000
      3 H                     0.033558      -0.000000
      4 H                     0.057752      -0.000000
      5 H                     0.057752       0.000000
  --------------------------------------------------------
  Sum of atomic charges =     0.000000
  Sum of spin   charges =    -0.000000

 -----------------------------------------------------------------
                    Cartesian Multipole Moments
 -----------------------------------------------------------------
    Charge (ESU x 10^10)
                 0.0000
    Dipole Moment (Debye)
         X       0.1018      Y       0.6691      Z       0.0000
       Tot       0.6768
    Quadrupole Moments (Debye-Ang)
        XX     -11.3787     XY       3.7377     YY     -12.4745
        XZ       0.0000     YZ       0.0000     ZZ     -11.8228
    Octopole Moments (Debye-Ang^2)
       XXX      -1.2129    XXY      -2.4327    XYY       0.4561
       YYY      -1.4681    XXZ      -0.0000    XYZ       0.0000
       YYZ      -0.0000    XZZ       1.1630    YZZ       1.4822
       ZZZ       0.0000
    Hexadecapole Moments (Debye-Ang^3)
      XXXX     -15.4491   XXXY      -0.2734   XXYY     -11.1948
      XYYY       1.9908   YYYY     -55.3089   XXXZ      -0.0000
      XXYZ      -0.0000   XYYZ      -0.0000   YYYZ       0.0000
      XXZZ      -5.0304   XYZZ       0.2605   YYZZ     -11.3972
      XZZZ       0.0000   YZZZ       0.0000   ZZZZ     -14.7141
 -----------------------------------------------------------------
Archival summary:
1\1\n0045.mhg0\SP\ProcedureUnspecified\BasisUnspecified\113\yhljason\MonJun2908:57:082020MonJun2908:57:082020\0\\#,ProcedureUnspecified,BasisUnspecified,\\0,1\N\H,1,1.01598\H,1,1.01598,2,103.252\O,1,1.453,2,107.009,3,-112.726,0\H,4,0.96197,1,101.367,2,-124.932,0\\\@

 Total job time:  13451.22s(wall), 107182.74s(cpu) 
 Mon Jun 29 08:57:08 2020

        *************************************************************
        *                                                           *
        *  Thank you very much for using Q-Chem.  Have a nice day.  *
        *                                                           *
        *************************************************************


