Q-Chem Developer Version!
                  Welcome to Q-Chem
     A Quantum Leap Into The Future Of Chemistry


 Q-Chem 5.1, Q-Chem, Inc., Pleasanton, CA (2018)

 Yihan Shao,  Zhengting Gan,  E. Epifanovsky,  A. T. B. Gilbert,  M. Wormit,  
 J. Kussmann,  A. W. Lange,  A. Behn,  Jia Deng,  Xintian Feng,  D. Ghosh,  
 M. Goldey,  P. R. Horn,  L. D. Jacobson,  I. Kaliman,  T. Kus,  A. Landau,  
 Jie Liu,  E. I. Proynov,  R. M. Richard,  R. P. Steele,  E. J. Sundstrom,  
 H. L. Woodcock III,  P. M. Zimmerman,  D. Zuev,  B. Albrecht,  E. Alguire,  
 S. A. Baeppler,  D. Barton,  Z. Benda,  Y. A. Bernard,  E. J. Berquist,  
 K. B. Bravaya,  H. Burton,  D. Casanova,  Chun-Min Chang,  Yunqing Chen,  
 A. Chien,  K. D. Closser,  M. P. Coons,  S. Coriani,  S. Dasgupta,  
 A. L. Dempwolff,  M. Diedenhofen,  Hainam Do,  R. G. Edgar,  Po-Tung Fang,  
 S. Faraji,  S. Fatehi,  Qingguo Feng,  K. D. Fenk,  J. Fosso-Tande,  
 Qinghui Ge,  A. Ghysels,  G. Gidofalvi,  J. Gomes,  J. Gonthier,  A. Gunina,  
 D. Hait,  M. W. D. Hanson-Heine,  P. H. P. Harbach,  A. W. Hauser,  
 J. E. Herr,  E. G. Hohenstein,  Z. C. Holden,  Kerwin Hui,  B. C. Huynh,  
 T.-C. Jagau,  Hyunjun Ji,  B. Kaduk,  K. Khistyaev,  Jaehoon Kim,  
 P. Klunzinger,  K. Koh,  D. Kosenkov,  L. Koulias,  T. Kowalczyk,  
 C. M. Krauter,  A. Kunitsa,  Ka Un Lao,  A. Laurent,  K. V. Lawler,  
 Joonho Lee,  D. Lefrancois,  S. Lehtola,  D. S. Levine,  Yi-Pei Li,  
 You-Sheng Lin,  Fenglai Liu,  E. Livshits,  A. Luenser,  P. Manohar,  
 E. Mansoor,  S. F. Manzer,  Shan-Ping Mao,  Yuezhi Mao,  N. Mardirossian,  
 A. V. Marenich,  T. Markovich,  L. A. Martinez-Martinez,  S. A. Maurer,  
 N. J. Mayhall,  S. C. McKenzie,  J.-M. Mewes,  A. F. Morrison,  
 J. W. Mullinax,  K. Nanda,  T. S. Nguyen-Beck,  R. Olivares-Amaya,  
 J. A. Parkhill,  T. M. Perrine,  F. Plasser,  P. Pokhilko,  S. Prager,  
 A. Prociuk,  E. Ramos,  D. R. Rehn,  F. Rob,  M. Schneider,  N. Sergueev,  
 S. M. Sharada,  S. Sharma,  D. W. Small,  T. Stauch,  T. Stein,  
 Yu-Chuan Su,  A. J. W. Thom,  A. Tkatchenko,  T. Tsuchimochi,  N. M. Tubman,  
 L. Vogt,  M. L. Vidal,  O. Vydrov,  M. A. Watson,  J. Wenzel,  
 M. de Wergifosse,  T. A. Wesolowski,  A. White,  J. Witte,  A. Yamada,  
 Jun Yang,  K. Yao,  S. Yeganeh,  S. R. Yost,  Zhi-Qiang You,  A. Zech,  
 Igor Ying Zhang,  Xing Zhang,  Yan Zhao,  Ying Zhu,  B. R. Brooks,  
 G. K. L. Chan,  C. J. Cramer,  M. S. Gordon,  W. J. Hehre,  A. Klamt,  
 M. W. Schmidt,  C. D. Sherrill,  D. G. Truhlar,  A. Aspuru-Guzik,  R. Baer,  
 A. T. Bell,  N. A. Besley,  Jeng-Da Chai,  A. E. DePrince, III,  
 R. A. DiStasio Jr.,  A. Dreuw,  B. D. Dunietz,  T. R. Furlani,  
 Chao-Ping Hsu,  Yousung Jung,  Jing Kong,  D. S. Lambrecht,  WanZhen Liang,  
 C. Ochsenfeld,  V. A. Rassolov,  L. V. Slipchenko,  J. E. Subotnik,  
 T. Van Voorhis,  J. M. Herbert,  A. I. Krylov,  P. M. W. Gill,  M. Head-Gordon

 Contributors to earlier versions of Q-Chem not listed above: 
 R. D. Adamson,  B. Austin,  J. Baker,  G. J. O. Beran,  K. Brandhorst,  
 S. T. Brown,  E. F. C. Byrd,  A. K. Chakraborty,  C.-L. Cheng,  
 Siu Hung Chien,  D. M. Chipman,  D. L. Crittenden,  H. Dachsel,  
 R. J. Doerksen,  A. D. Dutoi,  L. Fusti-Molnar,  W. A. Goddard III,  
 A. Golubeva-Zadorozhnaya,  S. R. Gwaltney,  G. Hawkins,  A. Heyden,  
 S. Hirata,  G. Kedziora,  F. J. Keil,  C. Kelley,  Jihan Kim,  R. A. King,  
 R. Z. Khaliullin,  P. P. Korambath,  W. Kurlancheek,  A. M. Lee,  M. S. Lee,  
 S. V. Levchenko,  Ching Yeh Lin,  D. Liotard,  R. C. Lochan,  I. Lotan,  
 P. E. Maslen,  N. Nair,  D. P. O'Neill,  D. Neuhauser,  E. Neuscamman,  
 C. M. Oana,  R. Olson,  B. Peters,  R. Peverati,  P. A. Pieniazek,  
 Y. M. Rhee,  J. Ritchie,  M. A. Rohrdanz,  E. Rosta,  N. J. Russ,  
 H. F. Schaefer III,  N. E. Schultz,  N. Shenvi,  A. C. Simmonett,  A. Sodt,  
 D. Stuck,  K. S. Thanthiriwatte,  V. Vanovschi,  Tao Wang,  A. Warshel,  
 C. F. Williams,  Q. Wu,  X. Xu,  W. Zhang

 Please cite Q-Chem as follows:
 Y. Shao et al., Mol. Phys. 113, 184-215 (2015)
 DOI: 10.1080/00268976.2014.952696

 Q-Chem 5.1.1 for Intel X86 EM64T Linux

 Parts of Q-Chem use Armadillo 8.300.2 (Tropical Shenanigans).
 http://arma.sourceforge.net/

 Q-Chem begins on Mon Jun 29 06:11:08 2020  

Host: n0057.mhg0
0

     Scratch files written to /local/scratch/users/yhljason/O2_B3LYP_aug-pc-4.inp20200629030258//
Input Ideriv = 2
Curr. Ideriv = -1
Max.  Ideriv = 2

Checking the input file for inconsistencies... 	...done.

--------------------------------------------------------------
User input:
--------------------------------------------------------------
$molecule
0 3
O1	0.0000	0.0000	0.0000
O2	0.0000	0.0000	1.2075
$end

$rem
jobtype sp
method B3LYP
xc_grid 000099000590
basis aug-pc-4
max_scf_cycles 200
thresh 14
scf_convergence 8
scf_algorithm gdm
symmetry false
sym_ignore true
unrestricted true
gen_scfman true
internal_stability_iter 15
internal_stability_davidson_iter 200
mem_total 64000
mem_static 1500
n_frozen_core 0
$end


--------------------------------------------------------------
 ----------------------------------------------------------------
             Standard Nuclear Orientation (Angstroms)
    I     Atom           X                Y                Z
 ----------------------------------------------------------------
    1      O       0.0000000000     0.0000000000     0.0000000000
    2      O       0.0000000000     0.0000000000     1.2075000000
 ----------------------------------------------------------------
 Nuclear Repulsion Energy =    28.0474877774 hartrees
 There are        9 alpha and        7 beta electrons
 Requested basis set is aug-pc-4
 There are 66 shells and 290 basis functions

 Total QAlloc Memory Limit  64000 MB
 Mega-Array Size      1467 MB
 MEM_STATIC part      1500 MB

                       Distance Matrix (Angstroms)
             O (  1)
   O (  2)  1.207500
 
 A cutoff of  1.0D-14 yielded   2205 shell pairs
 There are     42949 function pairs (     83847 Cartesian)
 
 -------------------------------------------------------
 OpenMP Integral Computing Module                       
 Release: version 1.0, May 2013, Q-Chem Inc. Pittsburgh 
 -------------------------------------------------------
 Integral Job Info:
 Integral job number is                      11
 Integral operator is                         1
 short-range coefficients                     0
 long-range coefficients              100000000
 Omega coefficients                           0
 if combine SR and LR in K                    0
 Integral screening is                        0
 Integral computing path is                   2
 max size of driver memory is           6400000
 size of driver memory is               5498286
 size of scratch memory is             29792225
 max col of scratch BK array             194481
 max len of scratch array in speh3         5572
 max len of scratch index in speh4           72
 max int batch size is                      520
 min int batch size is                       52
 fixed nKL is                                25
 max L of basis functions is                  5
 order of int derivative is                   0
 number of shells is                         66
 number of basis is                         404
 number of cartesian basis is               404
 number of contracted shell pairs          2205
 number of primitive shell pairs           5633
 maxK2 (contraction) of shell pair          121
 max number of K2 of shell pair               1
 max number of CS2 of shell pair            198
 max number of PS2 of shell pair            308
 mem total for path MDJ                  956866
 -------------------------------------------------------
 Smallest overlap matrix eigenvalue = 2.27E-06

 Scale SEOQF with 1.000000e-01/1.000000e-01/1.000000e-01

 Standard Electronic Orientation quadrupole field applied
 Nucleus-field energy     =    -0.0000000012 hartrees
 Guess from superposition of atomic densities
 Warning:  Energy on first SCF cycle will be non-variational
 SAD guess density has 16.000000 electrons

 -----------------------------------------------------------------------
  General SCF calculation program by
  Eric Jon Sundstrom, Paul Horn, Yuezhi Mao, Dmitri Zuev, Alec White,
  David Stuck, Shaama M.S., Shane Yost, Joonho Lee, David Small,
  Daniel Levine, Susi Lehtola, Hugh Burton, Evgeny Epifanovsky
 -----------------------------------------------------------------------
 Exchange:     0.2000 Hartree-Fock + 0.0800 Slater + 0.7200 B88
 Correlation:  0.1900 VWN1RPA + 0.8100 LYP
 Using Euler-Maclaurin-Lebedev (99,590) quadrature formula
Running Object-Oriented UKS (UHF)
performing a single roothaan step with Fock from read density so that orbitals are available to all algorithms
 LTot/LBra/LKet=          18           9           9
 LTot/LBra/LKet=          18           9           9
 LTot/LBra/LKet=          18           9           9

 Q-Chem warning:

 in GenH1, ket side, handled with new code

 LTot/LBra/LKet=          18           9           9

 Q-Chem warning:

 in GenH1, ket side, handled with new code


 Q-Chem warning:

 in GenH1, ket side, handled with new code


 Q-Chem warning:

 in GenH1, ket side, handled with new code

 LTot/LBra/LBra=          18           9           9

 Q-Chem warning:

 in GenH1, bra side, handled with new code

energy of the guess density (C=0) -150.539771105531
We will preform up to 15 macro iterations over saddle points until a stable solution is found
Energy prior to optimization (guess energy) = -150.385766509940
Begin Timing: Total SCF Calculation
Begin Timing: SCF Single Stationary Point Calculation
begin iterations for algorithm: GDM          
the SCF tolerance is set to 1.00e-08
    1    -150.3857665099      4.05e-02     00000  Normal BFGS step
    2    -150.3962866276      2.39e-02     00000  Normal BFGS step
    3    -150.3994185814      3.54e-03     00000  Normal BFGS step
    4    -150.3995157126      2.11e-03     00000  Normal BFGS step
    5    -150.3995526469      5.65e-05     00000  Normal BFGS step
    6    -150.3995526903      6.86e-06     00000  Normal BFGS step
    7    -150.3995526912      3.35e-07     00000  Normal BFGS step
    8    -150.3995526912      2.14e-07     00000  Normal BFGS step
    9    -150.3995526912      6.26e-07     00000  Normal BFGS step
   10    -150.3995526912      1.90e-09     00000 Convergence criterion met
Timing for Single Stationary Point: 1264.00s (wall), 10103.89s (cpu)
Begin Timing: Stability
===================================================
Beginning Test for Internal Stability
===================================================
generating davidson guess vectors based on koopmans excitations
    1      4.77e-01     00000 Davidson Iteration
    2      1.76e-01     00000 Davidson Iteration
    3      1.70e-01     00000 Davidson Iteration
    4      1.69e-01     00000 Davidson Iteration
    5      1.02e-01     00000 Davidson Iteration
    6      6.56e-02     00000 Davidson Iteration
    7      3.01e-02     00000 Davidson Iteration
    8      2.93e-02     00000 Davidson Iteration
    9      8.33e-03     00000 Davidson Iteration
   10      1.60e-03     00000 Davidson Iteration
   11      1.52e-04     00000 Davidson Iteration
   12      2.83e-05     00000 Davidson Iteration
   13      2.24e-05     00000 Davidson Converged
converged_eigenvalues
   0.3615
   0.3615
Threshold for negative eigenvalues: -1.0e-05
solution was a local minimum (stable)
===================================================
End Test for Internal Stability
===================================================
Our SCF solution is stable!
Timing for Total SCF: 3499.00s (wall), 27974.58s (cpu)
 Total energy in the final basis set =     -150.3995526912
<S^2> =          2.009581627
    ==================================================
              The end of Object-Oriented SCFman       
    ==================================================
 
 --------------------------------------------------------------
 
                    Orbital Energies (a.u.)
 --------------------------------------------------------------
 
 Alpha MOs
 -- Occupied --
-19.295 -19.295  -1.314  -0.849  -0.575  -0.575  -0.562  -0.320
 -0.320
 -- Virtual --
  0.019   0.020   0.030   0.030   0.057   0.057   0.060   0.091
  0.149   0.149   0.154   0.154   0.175   0.176   0.176   0.182
  0.207   0.207   0.219   0.219   0.226   0.275   0.294   0.327
  0.327   0.329   0.329   0.384   0.384   0.385   0.385   0.413
  0.430   0.430   0.451   0.451   0.451   0.473   0.489   0.489
  0.546   0.546   0.569   0.569   0.584   0.585   0.585   0.664
  0.664   0.675   0.681   0.681   0.689   0.689   0.713   0.713
  0.725   0.725   0.731   0.784   0.829   0.829   0.839   0.839
  0.869   0.869   0.880   0.880   0.914   0.914   0.918   0.918
  0.964   0.976   0.976   0.980   0.980   0.990   0.996   0.996
  0.999   0.999   1.030   1.030   1.036   1.036   1.113   1.179
  1.179   1.197   1.197   1.197   1.197   1.209   1.250   1.354
  1.354   1.422   1.607   1.607   1.683   1.683   1.713   1.722
  1.722   1.791   1.925   1.925   1.975   1.975   2.041   2.041
  2.041   2.055   2.055   2.258   2.258   2.351   2.407   2.407
  2.484   2.493   2.493   2.538   2.538   3.130   3.205   3.295
  3.295   3.761   3.808   3.808   3.917   3.917   3.999   4.174
  4.174   4.256   4.256   4.425   4.425   4.503   4.523   4.645
  4.645   4.845   4.845   5.023   5.189   5.189   5.250   5.250
  5.367   5.367   5.560   5.560   5.582   5.681   5.681   5.796
  5.796   5.935   6.103   6.103   6.220   6.220   6.472   6.472
  6.745   6.745   7.300   7.422   7.422   7.817   7.954   7.954
  8.716   8.716   8.892   9.176   9.176   9.324   9.324   9.456
  9.456   9.620  10.497  10.497  10.540  10.665  10.665  10.909
 11.323  11.323  11.377  11.377  11.521  11.674  11.674  11.691
 11.772  11.772  11.806  11.806  11.994  11.994  12.095  12.095
 12.421  12.456  12.456  12.705  12.705  12.722  12.722  12.737
 12.737  12.863  12.863  13.099  13.536  13.536  13.577  13.577
 14.154  14.154  15.007  15.698  15.698  16.228  16.895  16.895
 16.920  16.920  17.066  17.066  17.190  17.444  17.444  17.447
 17.447  18.158  18.158  18.208  18.208  18.545  18.545  18.871
 18.871  19.185  19.631  22.808  22.808  23.057  23.057  23.218
 23.218  24.946  24.946  25.705  27.099  29.561  31.774  31.774
 32.083  32.108  32.108  33.837  34.297  66.587  66.587  66.742
 66.742  66.799  66.799  67.654  67.654  68.311  70.119 142.436
145.016
 
 Beta MOs
 -- Occupied --
-19.265 -19.264  -1.258  -0.759  -0.523  -0.472  -0.472
 -- Virtual --
 -0.127  -0.127   0.022   0.022   0.031   0.031   0.060   0.060
  0.060   0.097   0.154   0.154   0.155   0.155   0.182   0.183
  0.183   0.183   0.208   0.208   0.220   0.220   0.247   0.280
  0.307   0.329   0.329   0.329   0.329   0.385   0.385   0.386
  0.386   0.414   0.441   0.441   0.451   0.455   0.455   0.478
  0.494   0.494   0.552   0.552   0.582   0.582   0.585   0.585
  0.591   0.666   0.666   0.678   0.682   0.682   0.691   0.691
  0.715   0.715   0.724   0.724   0.732   0.786   0.832   0.832
  0.843   0.843   0.879   0.879   0.885   0.885   0.915   0.915
  0.927   0.927   0.969   0.977   0.977   0.985   0.985   0.991
  1.001   1.001   1.013   1.013   1.033   1.033   1.035   1.035
  1.124   1.184   1.184   1.198   1.198   1.200   1.200   1.211
  1.262   1.361   1.361   1.425   1.632   1.632   1.715   1.715
  1.725   1.740   1.740   1.802   1.962   1.962   2.017   2.017
  2.053   2.053   2.054   2.069   2.069   2.283   2.283   2.368
  2.429   2.429   2.498   2.504   2.504   2.553   2.553   3.147
  3.223   3.309   3.309   3.786   3.824   3.824   3.974   3.974
  4.028   4.239   4.239   4.310   4.310   4.470   4.470   4.516
  4.554   4.696   4.696   4.868   4.868   5.052   5.229   5.229
  5.283   5.283   5.424   5.424   5.596   5.596   5.610   5.721
  5.721   5.841   5.841   5.959   6.154   6.154   6.249   6.249
  6.502   6.502   6.782   6.782   7.327   7.447   7.447   7.843
  7.988   7.988   8.757   8.757   8.928   9.269   9.269   9.371
  9.371   9.547   9.547   9.644  10.547  10.547  10.592  10.728
 10.728  10.959  11.389  11.389  11.413  11.413  11.557  11.720
 11.722  11.722  11.804  11.804  11.832  11.832  12.062  12.062
 12.164  12.164  12.454  12.507  12.507  12.791  12.791  12.804
 12.804  12.830  12.830  12.922  12.922  13.146  13.571  13.571
 13.625  13.625  14.204  14.204  15.033  15.744  15.744  16.270
 16.968  16.968  17.021  17.021  17.167  17.167  17.216  17.501
 17.501  17.517  17.517  18.204  18.204  18.261  18.261  18.586
 18.586  18.914  18.914  19.221  19.672  22.909  22.909  23.157
 23.157  23.271  23.271  24.996  24.996  25.726  27.159  29.613
 31.837  31.837  32.111  32.172  32.172  33.862  34.328  66.654
 66.654  66.810  66.810  66.837  66.837  67.692  67.692  68.338
 70.149 142.459 145.037
 --------------------------------------------------------------
 
          Ground-State Mulliken Net Atomic Charges

     Atom                 Charge (a.u.)    Spin (a.u.)
  --------------------------------------------------------
      1 O                    -0.000000       1.000000
      2 O                     0.000000       1.000000
  --------------------------------------------------------
  Sum of atomic charges =     0.000000
  Sum of spin   charges =     2.000000

 -----------------------------------------------------------------
                    Cartesian Multipole Moments
 -----------------------------------------------------------------
    Charge (ESU x 10^10)
                 0.0000
    Dipole Moment (Debye)
         X       0.0000      Y      -0.0000      Z       0.0000
       Tot       0.0000
    Quadrupole Moments (Debye-Ang)
        XX     -10.1031     XY       0.0000     YY     -10.1031
        XZ       0.0000     YZ       0.0000     ZZ     -10.5669
    Octopole Moments (Debye-Ang^2)
       XXX       0.0000    XXY      -0.0000    XYY       0.0000
       YYY      -0.0000    XXZ      -6.0997    XYZ      -0.0000
       YYZ      -6.0997    XZZ      -0.0000    YZZ      -0.0000
       ZZZ     -19.1394
    Hexadecapole Moments (Debye-Ang^3)
      XXXX      -7.6703   XXXY       0.0000   XXYY      -2.5568
      XYYY      -0.0000   YYYY      -7.6703   XXXZ       0.0000
      XXYZ       0.0000   XYYZ       0.0000   YYYZ       0.0000
      XXZZ     -10.1385   XYZZ       0.0000   YYZZ     -10.1385
      XZZZ      -0.0000   YZZZ      -0.0000   ZZZZ     -52.4447
 -----------------------------------------------------------------
Archival summary:
1\1\n0057.mhg0\SP\ProcedureUnspecified\BasisUnspecified\2(3)\yhljason\MonJun2907:12:002020MonJun2907:12:002020\0\\#,ProcedureUnspecified,BasisUnspecified,\\0,3\O\O,1,1.2075\\\@

 Total job time:  3651.80s(wall), 29156.40s(cpu) 
 Mon Jun 29 07:12:00 2020

        *************************************************************
        *                                                           *
        *  Thank you very much for using Q-Chem.  Have a nice day.  *
        *                                                           *
        *************************************************************


