Q-Chem Developer Version!
                  Welcome to Q-Chem
     A Quantum Leap Into The Future Of Chemistry


 Q-Chem 5.1, Q-Chem, Inc., Pleasanton, CA (2018)

 Yihan Shao,  Zhengting Gan,  E. Epifanovsky,  A. T. B. Gilbert,  M. Wormit,  
 J. Kussmann,  A. W. Lange,  A. Behn,  Jia Deng,  Xintian Feng,  D. Ghosh,  
 M. Goldey,  P. R. Horn,  L. D. Jacobson,  I. Kaliman,  T. Kus,  A. Landau,  
 Jie Liu,  E. I. Proynov,  R. M. Richard,  R. P. Steele,  E. J. Sundstrom,  
 H. L. Woodcock III,  P. M. Zimmerman,  D. Zuev,  B. Albrecht,  E. Alguire,  
 S. A. Baeppler,  D. Barton,  Z. Benda,  Y. A. Bernard,  E. J. Berquist,  
 K. B. Bravaya,  H. Burton,  D. Casanova,  Chun-Min Chang,  Yunqing Chen,  
 A. Chien,  K. D. Closser,  M. P. Coons,  S. Coriani,  S. Dasgupta,  
 A. L. Dempwolff,  M. Diedenhofen,  Hainam Do,  R. G. Edgar,  Po-Tung Fang,  
 S. Faraji,  S. Fatehi,  Qingguo Feng,  K. D. Fenk,  J. Fosso-Tande,  
 Qinghui Ge,  A. Ghysels,  G. Gidofalvi,  J. Gomes,  J. Gonthier,  A. Gunina,  
 D. Hait,  M. W. D. Hanson-Heine,  P. H. P. Harbach,  A. W. Hauser,  
 J. E. Herr,  E. G. Hohenstein,  Z. C. Holden,  Kerwin Hui,  B. C. Huynh,  
 T.-C. Jagau,  Hyunjun Ji,  B. Kaduk,  K. Khistyaev,  Jaehoon Kim,  
 P. Klunzinger,  K. Koh,  D. Kosenkov,  L. Koulias,  T. Kowalczyk,  
 C. M. Krauter,  A. Kunitsa,  Ka Un Lao,  A. Laurent,  K. V. Lawler,  
 Joonho Lee,  D. Lefrancois,  S. Lehtola,  D. S. Levine,  Yi-Pei Li,  
 You-Sheng Lin,  Fenglai Liu,  E. Livshits,  A. Luenser,  P. Manohar,  
 E. Mansoor,  S. F. Manzer,  Shan-Ping Mao,  Yuezhi Mao,  N. Mardirossian,  
 A. V. Marenich,  T. Markovich,  L. A. Martinez-Martinez,  S. A. Maurer,  
 N. J. Mayhall,  S. C. McKenzie,  J.-M. Mewes,  A. F. Morrison,  
 J. W. Mullinax,  K. Nanda,  T. S. Nguyen-Beck,  R. Olivares-Amaya,  
 J. A. Parkhill,  T. M. Perrine,  F. Plasser,  P. Pokhilko,  S. Prager,  
 A. Prociuk,  E. Ramos,  D. R. Rehn,  F. Rob,  M. Schneider,  N. Sergueev,  
 S. M. Sharada,  S. Sharma,  D. W. Small,  T. Stauch,  T. Stein,  
 Yu-Chuan Su,  A. J. W. Thom,  A. Tkatchenko,  T. Tsuchimochi,  N. M. Tubman,  
 L. Vogt,  M. L. Vidal,  O. Vydrov,  M. A. Watson,  J. Wenzel,  
 M. de Wergifosse,  T. A. Wesolowski,  A. White,  J. Witte,  A. Yamada,  
 Jun Yang,  K. Yao,  S. Yeganeh,  S. R. Yost,  Zhi-Qiang You,  A. Zech,  
 Igor Ying Zhang,  Xing Zhang,  Yan Zhao,  Ying Zhu,  B. R. Brooks,  
 G. K. L. Chan,  C. J. Cramer,  M. S. Gordon,  W. J. Hehre,  A. Klamt,  
 M. W. Schmidt,  C. D. Sherrill,  D. G. Truhlar,  A. Aspuru-Guzik,  R. Baer,  
 A. T. Bell,  N. A. Besley,  Jeng-Da Chai,  A. E. DePrince, III,  
 R. A. DiStasio Jr.,  A. Dreuw,  B. D. Dunietz,  T. R. Furlani,  
 Chao-Ping Hsu,  Yousung Jung,  Jing Kong,  D. S. Lambrecht,  WanZhen Liang,  
 C. Ochsenfeld,  V. A. Rassolov,  L. V. Slipchenko,  J. E. Subotnik,  
 T. Van Voorhis,  J. M. Herbert,  A. I. Krylov,  P. M. W. Gill,  M. Head-Gordon

 Contributors to earlier versions of Q-Chem not listed above: 
 R. D. Adamson,  B. Austin,  J. Baker,  G. J. O. Beran,  K. Brandhorst,  
 S. T. Brown,  E. F. C. Byrd,  A. K. Chakraborty,  C.-L. Cheng,  
 Siu Hung Chien,  D. M. Chipman,  D. L. Crittenden,  H. Dachsel,  
 R. J. Doerksen,  A. D. Dutoi,  L. Fusti-Molnar,  W. A. Goddard III,  
 A. Golubeva-Zadorozhnaya,  S. R. Gwaltney,  G. Hawkins,  A. Heyden,  
 S. Hirata,  G. Kedziora,  F. J. Keil,  C. Kelley,  Jihan Kim,  R. A. King,  
 R. Z. Khaliullin,  P. P. Korambath,  W. Kurlancheek,  A. M. Lee,  M. S. Lee,  
 S. V. Levchenko,  Ching Yeh Lin,  D. Liotard,  R. C. Lochan,  I. Lotan,  
 P. E. Maslen,  N. Nair,  D. P. O'Neill,  D. Neuhauser,  E. Neuscamman,  
 C. M. Oana,  R. Olson,  B. Peters,  R. Peverati,  P. A. Pieniazek,  
 Y. M. Rhee,  J. Ritchie,  M. A. Rohrdanz,  E. Rosta,  N. J. Russ,  
 H. F. Schaefer III,  N. E. Schultz,  N. Shenvi,  A. C. Simmonett,  A. Sodt,  
 D. Stuck,  K. S. Thanthiriwatte,  V. Vanovschi,  Tao Wang,  A. Warshel,  
 C. F. Williams,  Q. Wu,  X. Xu,  W. Zhang

 Please cite Q-Chem as follows:
 Y. Shao et al., Mol. Phys. 113, 184-215 (2015)
 DOI: 10.1080/00268976.2014.952696

 Q-Chem 5.1.1 for Intel X86 EM64T Linux

 Parts of Q-Chem use Armadillo 8.300.2 (Tropical Shenanigans).
 http://arma.sourceforge.net/

 Q-Chem begins on Mon Jun 29 06:42:13 2020  

Host: n0035.mhg0
0

     Scratch files written to /local/scratch/users/yhljason/O3_B3LYP5_aug-pc-4.inp20200629030259//
Input Ideriv = 2
Curr. Ideriv = -1
Max.  Ideriv = 2

Checking the input file for inconsistencies... 	...done.

--------------------------------------------------------------
User input:
--------------------------------------------------------------
$molecule
0 1
O1      0.0000  0.0000  0.0000
O2      0.0000  1.0885  0.6697
O3      0.0000  -1.0885 0.6697
$end

$rem
jobtype sp
method B3LYP5
xc_grid 000099000590
basis aug-pc-4
max_scf_cycles 200
thresh 14
scf_convergence 8
scf_algorithm gdm
symmetry false
sym_ignore true
unrestricted true
gen_scfman true
internal_stability_iter 15
internal_stability_davidson_iter 200
mem_total 64000
mem_static 1500
n_frozen_core 0
$end


--------------------------------------------------------------
 ----------------------------------------------------------------
             Standard Nuclear Orientation (Angstroms)
    I     Atom           X                Y                Z
 ----------------------------------------------------------------
    1      O       0.0000000000     0.0000000000     0.0000000000
    2      O       0.0000000000     1.0885000000     0.6697000000
    3      O       0.0000000000    -1.0885000000     0.6697000000
 ----------------------------------------------------------------
 Nuclear Repulsion Energy =    68.5566688653 hartrees
 There are       12 alpha and       12 beta electrons
 Requested basis set is aug-pc-4
 There are 99 shells and 435 basis functions

 Total QAlloc Memory Limit  64000 MB
 Mega-Array Size      1467 MB
 MEM_STATIC part      1500 MB

                       Distance Matrix (Angstroms)
             O (  1)   O (  2)
   O (  2)  1.278018
   O (  3)  1.278018  2.177000
 
 A cutoff of  1.0D-14 yielded   4870 shell pairs
 There are     95406 function pairs (    186207 Cartesian)
 
 -------------------------------------------------------
 OpenMP Integral Computing Module                       
 Release: version 1.0, May 2013, Q-Chem Inc. Pittsburgh 
 -------------------------------------------------------
 Integral Job Info:
 Integral job number is                      11
 Integral operator is                         1
 short-range coefficients                     0
 long-range coefficients              100000000
 Omega coefficients                           0
 if combine SR and LR in K                    0
 Integral screening is                        0
 Integral computing path is                   2
 max size of driver memory is           6400000
 size of driver memory is               5498286
 size of scratch memory is             29792225
 max col of scratch BK array             194481
 max len of scratch array in speh3         5572
 max len of scratch index in speh4           72
 max int batch size is                      520
 min int batch size is                       52
 fixed nKL is                                25
 max L of basis functions is                  5
 order of int derivative is                   0
 number of shells is                         99
 number of basis is                         606
 number of cartesian basis is               606
 number of contracted shell pairs          4870
 number of primitive shell pairs          11556
 maxK2 (contraction) of shell pair          121
 max number of K2 of shell pair               1
 max number of CS2 of shell pair            445
 max number of PS2 of shell pair            671
 mem total for path MDJ                 1213232
 -------------------------------------------------------
 Smallest overlap matrix eigenvalue = 1.82E-06

 Scale SEOQF with 1.000000e-01/1.000000e-01/1.000000e-01

 Standard Electronic Orientation quadrupole field applied
 Nucleus-field energy     =     0.0000000006 hartrees
 Guess from superposition of atomic densities
 Warning:  Energy on first SCF cycle will be non-variational
 SAD guess density has 24.000000 electrons

 -----------------------------------------------------------------------
  General SCF calculation program by
  Eric Jon Sundstrom, Paul Horn, Yuezhi Mao, Dmitri Zuev, Alec White,
  David Stuck, Shaama M.S., Shane Yost, Joonho Lee, David Small,
  Daniel Levine, Susi Lehtola, Hugh Burton, Evgeny Epifanovsky
 -----------------------------------------------------------------------
 Exchange:     0.2000 Hartree-Fock + 0.0800 Slater + 0.7200 B88
 Correlation:  0.1900 VWN5 + 0.8100 LYP
 Using Euler-Maclaurin-Lebedev (99,590) quadrature formula
Running Object-Oriented UKS (UHF)
performing a single roothaan step with Fock from read density so that orbitals are available to all algorithms
 LTot/LBra/LKet=          18           9           9
 LTot/LBra/LKet=          18           9           9
 LTot/LBra/LKet=          18           9           9
 LTot/LBra/LKet=          18           9           9

 Q-Chem warning:

 in GenH1, ket side, handled with new code


 Q-Chem warning:

 in GenH1, ket side, handled with new code


 Q-Chem warning:

 in GenH1, ket side, handled with new code


 Q-Chem warning:

 in GenH1, ket side, handled with new code

 LTot/LBra/LKet=          18           9           9

 Q-Chem warning:

 in GenH1, ket side, handled with new code

 LTot/LBra/LBra=          18           9           9

 Q-Chem warning:

 in GenH1, bra side, handled with new code

energy of the guess density (C=0) -225.802255451757
We will preform up to 15 macro iterations over saddle points until a stable solution is found
Energy prior to optimization (guess energy) = -225.289259149445
Begin Timing: Total SCF Calculation
Begin Timing: SCF Single Stationary Point Calculation
begin iterations for algorithm: GDM          
the SCF tolerance is set to 1.00e-08
    1    -225.2892591494      4.69e-01     00000  Descent step
    2    -225.4232878472      1.02e-01     00000  Normal BFGS step
    3    -225.4350921358      8.07e-03     00000  Normal BFGS step
    4    -225.4360356558      3.58e-03     00000  Normal BFGS step
    5    -225.4361618431      1.09e-03     00000  Normal BFGS step
    6    -225.4361744675      2.62e-04     00000  Normal BFGS step
    7    -225.4361756791      5.62e-05     00000  Normal BFGS step
    8    -225.4361757027      6.14e-06     00000  Normal BFGS step
    9    -225.4361757034      2.09e-06     00000  Normal BFGS step
   10    -225.4361757034      4.03e-07     00000  Normal BFGS step
   11    -225.4361757034      9.38e-07     00000  Normal BFGS step
   12    -225.4361757034      1.93e-06     00000  Normal BFGS step
   13    -225.4361757034      1.30e-07     00000  Normal BFGS step
   14    -225.4361757034      2.39e-07     00000  Normal BFGS step
   15    -225.4361757034      3.02e-09     00000 Convergence criterion met
Timing for Single Stationary Point: 7104.00s (wall), 56550.89s (cpu)
Begin Timing: Stability
===================================================
Beginning Test for Internal Stability
===================================================
generating davidson guess vectors based on koopmans excitations
    1      5.53e-01     00000 Davidson Iteration
    2      1.05e-01     00000 Davidson Iteration
    3      1.43e-02     00000 Davidson Iteration
    4      6.10e-03     00000 Davidson Iteration
    5      2.00e-03     00000 Davidson Iteration
    6      1.05e-03     00000 Davidson Iteration
    7      2.35e-04     00000 Davidson Iteration
    8      6.29e-05     00000 Davidson Iteration
    9      6.41e-04     00000 Davidson Iteration
   10      1.53e-04     00000 Davidson Iteration
   11      1.35e-04     00000 Davidson Iteration
   12      1.28e-04     00000 Davidson Iteration
   13      1.08e-04     00000 Davidson Iteration
   14      2.26e-05     00000 Davidson Converged
converged_eigenvalues
   0.0436
  -0.0670
Threshold for negative eigenvalues: -1.0e-05
solution was a saddle point (unstable)
displacing from saddle point as requested
performing a line search along the lowest hessian eigenvector after a small displacement (1E-3) to give a non-zero gradient along this direction 
===================================================
End Test for Internal Stability
===================================================
Timing for Internal Stability: 12659.00s (wall), 100787.67s (cpu)
completed scf stability macro iteration 1
beginning next scf after displacing from saddle point
Begin Timing: SCF Single Stationary Point Calculation
begin iterations for algorithm: GDM          
the SCF tolerance is set to 1.00e-08
    1    -225.4390436887      1.13e-02     00000  Normal BFGS step
    2    -225.4379667486      4.46e-02     00000 Line search: overstep
    3    -225.4394562357      1.08e-02     00000  Normal BFGS step
    4    -225.4396735726      4.07e-03     00000  Normal BFGS step
    5    -225.4397153904      2.70e-03     00000  Normal BFGS step
    6    -225.4397535681      1.07e-03     00000  Normal BFGS step
    7    -225.4397563513      1.91e-04     00000  Normal BFGS step
    8    -225.4397568198      6.00e-05     00000  Normal BFGS step
    9    -225.4397568408      4.94e-05     00000  Normal BFGS step
   10    -225.4397568359      1.28e-04     00000  Normal BFGS step
   11    -225.4397568431      4.04e-06     00000  Normal BFGS step
   12    -225.4397568432      1.93e-06     00000  Normal BFGS step
   13    -225.4397568432      2.21e-07     00000  Normal BFGS step
   14    -225.4397568432      1.26e-07     00000  Normal BFGS step
   15    -225.4397568432      8.79e-09     00000 Convergence criterion met
Timing for Single Stationary Point: 7097.00s (wall), 56516.47s (cpu)
Begin Timing: Stability
===================================================
Beginning Test for Internal Stability
===================================================
generating davidson guess vectors based on koopmans excitations
    1      5.65e-01     00000 Davidson Iteration
    2      1.18e-01     00000 Davidson Iteration
    3      2.01e-02     00000 Davidson Iteration
    4      1.75e-02     00000 Davidson Iteration
    5      1.10e-02     00000 Davidson Iteration
    6      2.83e-03     00000 Davidson Iteration
    7      1.10e-03     00000 Davidson Iteration
    8      2.18e-04     00000 Davidson Iteration
    9      3.59e-05     00000 Davidson Converged
converged_eigenvalues
   0.0718
   0.0897
Threshold for negative eigenvalues: -1.0e-05
solution was a local minimum (stable)
===================================================
End Test for Internal Stability
===================================================
Our SCF solution is stable!
Timing for Total SCF: 32872.00s (wall), 261719.55s (cpu)
 Total energy in the final basis set =     -225.4397568432
<S^2> =          0.381287124
    ==================================================
              The end of Object-Oriented SCFman       
    ==================================================
 
 --------------------------------------------------------------
 
                    Orbital Energies (a.u.)
 --------------------------------------------------------------
 
 Alpha MOs
 -- Occupied --
-19.409 -19.262 -19.247  -1.353  -1.093  -0.790  -0.598  -0.597
 -0.587  -0.385  -0.362  -0.348
 -- Virtual --
 -0.183   0.010   0.019   0.020   0.028   0.043   0.054   0.054
  0.060   0.061   0.064   0.082   0.094   0.112   0.143   0.147
  0.158   0.162   0.165   0.169   0.170   0.186   0.186   0.191
  0.192   0.212   0.222   0.227   0.230   0.249   0.260   0.263
  0.269   0.293   0.301   0.303   0.333   0.336   0.349   0.370
  0.374   0.392   0.397   0.398   0.408   0.413   0.415   0.424
  0.430   0.437   0.445   0.446   0.449   0.464   0.465   0.471
  0.493   0.521   0.528   0.532   0.544   0.556   0.561   0.590
  0.593   0.607   0.621   0.632   0.641   0.661   0.675   0.681
  0.685   0.694   0.695   0.727   0.730   0.736   0.744   0.747
  0.750   0.764   0.789   0.796   0.797   0.799   0.808   0.831
  0.854   0.858   0.861   0.868   0.878   0.886   0.889   0.900
  0.905   0.914   0.938   0.940   0.943   0.946   0.949   0.954
  0.966   0.978   0.982   0.988   1.016   1.017   1.020   1.023
  1.027   1.062   1.069   1.077   1.084   1.090   1.093   1.123
  1.127   1.187   1.189   1.212   1.216   1.223   1.229   1.236
  1.247   1.261   1.262   1.285   1.287   1.293   1.306   1.307
  1.309   1.336   1.348   1.357   1.377   1.386   1.404   1.425
  1.435   1.478   1.510   1.604   1.725   1.730   1.737   1.741
  1.796   1.817   1.832   1.849   1.884   1.925   1.944   1.955
  1.963   1.994   2.036   2.044   2.094   2.102   2.113   2.204
  2.221   2.232   2.276   2.284   2.293   2.318   2.336   2.355
  2.373   2.424   2.453   2.497   2.498   2.525   2.578   2.662
  2.855   2.882   2.886   3.100   3.124   3.196   3.245   3.258
  3.298   3.301   3.484   3.917   3.928   3.941   4.018   4.143
  4.147   4.167   4.236   4.280   4.299   4.307   4.333   4.380
  4.405   4.468   4.469   4.516   4.547   4.582   4.641   4.676
  4.677   4.786   4.933   5.003   5.025   5.096   5.121   5.167
  5.179   5.275   5.293   5.350   5.376   5.427   5.435   5.460
  5.567   5.585   5.627   5.782   5.787   5.863   5.928   5.951
  6.022   6.028   6.055   6.059   6.097   6.220   6.272   6.284
  6.343   6.418   6.507   6.560   6.916   7.054   7.115   7.183
  7.236   7.282   7.436   7.723   7.757   7.936   8.041   8.162
  8.521   8.549   8.767   8.791   9.161   9.194   9.310   9.363
  9.375   9.467   9.498   9.552   9.624   9.634   9.741  10.054
 10.163  10.303  10.346  10.735  10.821  10.944  10.967  11.080
 11.127  11.194  11.237  11.238  11.342  11.353  11.375  11.470
 11.475  11.480  11.632  11.707  11.731  11.757  11.850  12.055
 12.086  12.087  12.095  12.115  12.121  12.123  12.170  12.226
 12.253  12.522  12.581  12.620  12.696  12.736  12.742  12.750
 12.840  12.843  12.882  12.886  12.893  12.905  12.916  12.926
 12.930  13.194  13.258  13.286  13.504  13.571  13.626  13.646
 13.837  14.032  14.520  14.752  14.842  15.253  15.293  15.473
 15.689  16.927  17.006  17.060  17.063  17.108  17.111  17.197
 17.211  17.234  17.294  17.318  17.379  17.382  17.449  17.502
 17.746  17.943  18.042  18.054  18.157  18.414  18.583  18.694
 18.745  18.756  18.772  18.931  18.987  19.021  19.138  19.489
 19.628  19.785  22.982  23.076  23.085  23.111  23.136  23.159
 23.204  24.062  24.171  24.252  24.697  24.969  25.087  27.606
 28.222  29.895  30.776  31.345  31.861  32.100  32.184  32.202
 32.217  33.400  33.985  34.406  35.171  66.674  66.749  66.755
 66.771  66.787  66.829  66.859  67.259  67.280  67.287  67.488
 67.813  67.866  69.858  70.366 143.028 143.923 144.671
 
 Beta MOs
 -- Occupied --
-19.409 -19.262 -19.247  -1.353  -1.093  -0.790  -0.598  -0.597
 -0.587  -0.385  -0.362  -0.348
 -- Virtual --
 -0.183   0.010   0.019   0.020   0.028   0.043   0.054   0.054
  0.060   0.061   0.064   0.082   0.094   0.112   0.143   0.147
  0.158   0.162   0.165   0.169   0.170   0.186   0.186   0.191
  0.192   0.212   0.222   0.227   0.230   0.249   0.260   0.263
  0.269   0.293   0.301   0.303   0.333   0.336   0.349   0.370
  0.374   0.392   0.397   0.398   0.408   0.413   0.415   0.424
  0.430   0.437   0.445   0.446   0.449   0.464   0.465   0.471
  0.493   0.521   0.528   0.532   0.544   0.556   0.561   0.590
  0.593   0.607   0.621   0.632   0.641   0.661   0.675   0.681
  0.685   0.694   0.695   0.727   0.730   0.736   0.744   0.747
  0.750   0.764   0.789   0.796   0.797   0.799   0.808   0.831
  0.854   0.858   0.861   0.868   0.878   0.886   0.889   0.900
  0.905   0.914   0.938   0.940   0.943   0.946   0.949   0.954
  0.966   0.978   0.982   0.988   1.016   1.017   1.020   1.023
  1.027   1.062   1.069   1.077   1.084   1.090   1.093   1.123
  1.127   1.187   1.189   1.212   1.216   1.223   1.229   1.236
  1.247   1.261   1.262   1.285   1.287   1.293   1.306   1.307
  1.309   1.336   1.348   1.357   1.377   1.386   1.404   1.425
  1.435   1.478   1.510   1.604   1.725   1.730   1.737   1.741
  1.796   1.817   1.832   1.849   1.884   1.925   1.944   1.955
  1.963   1.994   2.036   2.044   2.094   2.102   2.113   2.204
  2.221   2.232   2.276   2.284   2.293   2.318   2.336   2.355
  2.373   2.424   2.453   2.497   2.498   2.525   2.578   2.662
  2.855   2.882   2.886   3.100   3.124   3.196   3.245   3.258
  3.298   3.301   3.484   3.917   3.928   3.941   4.018   4.143
  4.147   4.167   4.236   4.280   4.299   4.307   4.333   4.380
  4.405   4.468   4.469   4.516   4.547   4.582   4.641   4.676
  4.677   4.786   4.933   5.003   5.025   5.096   5.121   5.167
  5.179   5.275   5.293   5.350   5.376   5.427   5.435   5.460
  5.567   5.585   5.627   5.782   5.787   5.863   5.928   5.951
  6.022   6.028   6.055   6.059   6.097   6.220   6.272   6.284
  6.343   6.418   6.507   6.560   6.916   7.054   7.115   7.183
  7.236   7.282   7.436   7.723   7.757   7.936   8.041   8.162
  8.521   8.549   8.767   8.791   9.161   9.194   9.310   9.363
  9.375   9.467   9.498   9.552   9.624   9.634   9.741  10.054
 10.163  10.303  10.346  10.735  10.821  10.944  10.967  11.080
 11.127  11.194  11.237  11.238  11.342  11.353  11.375  11.470
 11.475  11.480  11.632  11.707  11.731  11.757  11.850  12.055
 12.086  12.087  12.095  12.115  12.121  12.123  12.170  12.226
 12.253  12.522  12.581  12.620  12.696  12.736  12.742  12.750
 12.840  12.843  12.882  12.886  12.893  12.905  12.916  12.926
 12.930  13.194  13.258  13.286  13.504  13.571  13.626  13.646
 13.837  14.032  14.520  14.752  14.842  15.253  15.293  15.473
 15.689  16.927  17.006  17.060  17.063  17.108  17.111  17.197
 17.211  17.234  17.294  17.318  17.379  17.382  17.449  17.502
 17.746  17.943  18.042  18.054  18.157  18.414  18.583  18.694
 18.745  18.756  18.772  18.931  18.987  19.021  19.138  19.489
 19.628  19.785  22.982  23.076  23.085  23.111  23.136  23.159
 23.204  24.062  24.171  24.252  24.697  24.969  25.087  27.606
 28.222  29.895  30.776  31.345  31.861  32.100  32.184  32.202
 32.217  33.400  33.985  34.406  35.171  66.674  66.749  66.755
 66.771  66.787  66.829  66.859  67.259  67.280  67.287  67.488
 67.813  67.866  69.858  70.366 143.028 143.923 144.671
 --------------------------------------------------------------
 
          Ground-State Mulliken Net Atomic Charges

     Atom                 Charge (a.u.)    Spin (a.u.)
  --------------------------------------------------------
      1 O                     0.227145      -0.000000
      2 O                    -0.113573      -0.539705
      3 O                    -0.113573       0.539705
  --------------------------------------------------------
  Sum of atomic charges =    -0.000000
  Sum of spin   charges =     0.000000

 -----------------------------------------------------------------
                    Cartesian Multipole Moments
 -----------------------------------------------------------------
    Charge (ESU x 10^10)
                -0.0000
    Dipole Moment (Debye)
         X      -0.0000      Y      -0.0000      Z      -0.5402
       Tot       0.5402
    Quadrupole Moments (Debye-Ang)
        XX     -14.6835     XY       0.0000     YY     -17.1363
        XZ       0.0000     YZ      -0.0000     ZZ     -16.6338
    Octopole Moments (Debye-Ang^2)
       XXX      -0.0000    XXY      -0.0000    XYY      -0.0000
       YYY      -0.0000    XXZ      -6.7533    XYZ      -0.0000
       YYZ      -7.0712    XZZ       0.0000    YZZ      -0.0000
       ZZZ     -23.1251
    Hexadecapole Moments (Debye-Ang^3)
      XXXX     -10.8898   XXXY       0.0000   XXYY     -16.0396
      XYYY       0.0000   YYYY     -88.7659   XXXZ       0.0000
      XXYZ      -0.0000   XYYZ       0.0000   YYYZ      -0.0000
      XXZZ      -8.5355   XYZZ      -0.0000   YYZZ     -21.0427
      XZZZ       0.0000   YZZZ      -0.0000   ZZZZ     -44.1621
 -----------------------------------------------------------------
Archival summary:
1\1\n0035.mhg0\SP\ProcedureUnspecified\BasisUnspecified\3\yhljason\MonJun2915:59:032020MonJun2915:59:032020\0\\#,ProcedureUnspecified,BasisUnspecified,\\0,1\O\O,1,1.27802\O,1,1.27802,2,116.796\\\@

 Total job time:  33409.48s(wall), 265944.70s(cpu) 
 Mon Jun 29 15:59:03 2020

        *************************************************************
        *                                                           *
        *  Thank you very much for using Q-Chem.  Have a nice day.  *
        *                                                           *
        *************************************************************


