Q-Chem Developer Version!
                  Welcome to Q-Chem
     A Quantum Leap Into The Future Of Chemistry


 Q-Chem 5.1, Q-Chem, Inc., Pleasanton, CA (2018)

 Yihan Shao,  Zhengting Gan,  E. Epifanovsky,  A. T. B. Gilbert,  M. Wormit,  
 J. Kussmann,  A. W. Lange,  A. Behn,  Jia Deng,  Xintian Feng,  D. Ghosh,  
 M. Goldey,  P. R. Horn,  L. D. Jacobson,  I. Kaliman,  T. Kus,  A. Landau,  
 Jie Liu,  E. I. Proynov,  R. M. Richard,  R. P. Steele,  E. J. Sundstrom,  
 H. L. Woodcock III,  P. M. Zimmerman,  D. Zuev,  B. Albrecht,  E. Alguire,  
 S. A. Baeppler,  D. Barton,  Z. Benda,  Y. A. Bernard,  E. J. Berquist,  
 K. B. Bravaya,  H. Burton,  D. Casanova,  Chun-Min Chang,  Yunqing Chen,  
 A. Chien,  K. D. Closser,  M. P. Coons,  S. Coriani,  S. Dasgupta,  
 A. L. Dempwolff,  M. Diedenhofen,  Hainam Do,  R. G. Edgar,  Po-Tung Fang,  
 S. Faraji,  S. Fatehi,  Qingguo Feng,  K. D. Fenk,  J. Fosso-Tande,  
 Qinghui Ge,  A. Ghysels,  G. Gidofalvi,  J. Gomes,  J. Gonthier,  A. Gunina,  
 D. Hait,  M. W. D. Hanson-Heine,  P. H. P. Harbach,  A. W. Hauser,  
 J. E. Herr,  E. G. Hohenstein,  Z. C. Holden,  Kerwin Hui,  B. C. Huynh,  
 T.-C. Jagau,  Hyunjun Ji,  B. Kaduk,  K. Khistyaev,  Jaehoon Kim,  
 P. Klunzinger,  K. Koh,  D. Kosenkov,  L. Koulias,  T. Kowalczyk,  
 C. M. Krauter,  A. Kunitsa,  Ka Un Lao,  A. Laurent,  K. V. Lawler,  
 Joonho Lee,  D. Lefrancois,  S. Lehtola,  D. S. Levine,  Yi-Pei Li,  
 You-Sheng Lin,  Fenglai Liu,  E. Livshits,  A. Luenser,  P. Manohar,  
 E. Mansoor,  S. F. Manzer,  Shan-Ping Mao,  Yuezhi Mao,  N. Mardirossian,  
 A. V. Marenich,  T. Markovich,  L. A. Martinez-Martinez,  S. A. Maurer,  
 N. J. Mayhall,  S. C. McKenzie,  J.-M. Mewes,  A. F. Morrison,  
 J. W. Mullinax,  K. Nanda,  T. S. Nguyen-Beck,  R. Olivares-Amaya,  
 J. A. Parkhill,  T. M. Perrine,  F. Plasser,  P. Pokhilko,  S. Prager,  
 A. Prociuk,  E. Ramos,  D. R. Rehn,  F. Rob,  M. Schneider,  N. Sergueev,  
 S. M. Sharada,  S. Sharma,  D. W. Small,  T. Stauch,  T. Stein,  
 Yu-Chuan Su,  A. J. W. Thom,  A. Tkatchenko,  T. Tsuchimochi,  N. M. Tubman,  
 L. Vogt,  M. L. Vidal,  O. Vydrov,  M. A. Watson,  J. Wenzel,  
 M. de Wergifosse,  T. A. Wesolowski,  A. White,  J. Witte,  A. Yamada,  
 Jun Yang,  K. Yao,  S. Yeganeh,  S. R. Yost,  Zhi-Qiang You,  A. Zech,  
 Igor Ying Zhang,  Xing Zhang,  Yan Zhao,  Ying Zhu,  B. R. Brooks,  
 G. K. L. Chan,  C. J. Cramer,  M. S. Gordon,  W. J. Hehre,  A. Klamt,  
 M. W. Schmidt,  C. D. Sherrill,  D. G. Truhlar,  A. Aspuru-Guzik,  R. Baer,  
 A. T. Bell,  N. A. Besley,  Jeng-Da Chai,  A. E. DePrince, III,  
 R. A. DiStasio Jr.,  A. Dreuw,  B. D. Dunietz,  T. R. Furlani,  
 Chao-Ping Hsu,  Yousung Jung,  Jing Kong,  D. S. Lambrecht,  WanZhen Liang,  
 C. Ochsenfeld,  V. A. Rassolov,  L. V. Slipchenko,  J. E. Subotnik,  
 T. Van Voorhis,  J. M. Herbert,  A. I. Krylov,  P. M. W. Gill,  M. Head-Gordon

 Contributors to earlier versions of Q-Chem not listed above: 
 R. D. Adamson,  B. Austin,  J. Baker,  G. J. O. Beran,  K. Brandhorst,  
 S. T. Brown,  E. F. C. Byrd,  A. K. Chakraborty,  C.-L. Cheng,  
 Siu Hung Chien,  D. M. Chipman,  D. L. Crittenden,  H. Dachsel,  
 R. J. Doerksen,  A. D. Dutoi,  L. Fusti-Molnar,  W. A. Goddard III,  
 A. Golubeva-Zadorozhnaya,  S. R. Gwaltney,  G. Hawkins,  A. Heyden,  
 S. Hirata,  G. Kedziora,  F. J. Keil,  C. Kelley,  Jihan Kim,  R. A. King,  
 R. Z. Khaliullin,  P. P. Korambath,  W. Kurlancheek,  A. M. Lee,  M. S. Lee,  
 S. V. Levchenko,  Ching Yeh Lin,  D. Liotard,  R. C. Lochan,  I. Lotan,  
 P. E. Maslen,  N. Nair,  D. P. O'Neill,  D. Neuhauser,  E. Neuscamman,  
 C. M. Oana,  R. Olson,  B. Peters,  R. Peverati,  P. A. Pieniazek,  
 Y. M. Rhee,  J. Ritchie,  M. A. Rohrdanz,  E. Rosta,  N. J. Russ,  
 H. F. Schaefer III,  N. E. Schultz,  N. Shenvi,  A. C. Simmonett,  A. Sodt,  
 D. Stuck,  K. S. Thanthiriwatte,  V. Vanovschi,  Tao Wang,  A. Warshel,  
 C. F. Williams,  Q. Wu,  X. Xu,  W. Zhang

 Please cite Q-Chem as follows:
 Y. Shao et al., Mol. Phys. 113, 184-215 (2015)
 DOI: 10.1080/00268976.2014.952696

 Q-Chem 5.1.1 for Intel X86 EM64T Linux

 Parts of Q-Chem use Armadillo 8.300.2 (Tropical Shenanigans).
 http://arma.sourceforge.net/

 Q-Chem begins on Fri Jun 19 09:15:22 2020  

Host: n0094.mhg0
0

     Scratch files written to /local/scratch/users/yhljason/OH_mPW91_aug-pc-4.inp20200619030856//
Input Ideriv = 2
Curr. Ideriv = -1
Max.  Ideriv = 2

Checking the input file for inconsistencies... 	...done.

--------------------------------------------------------------
User input:
--------------------------------------------------------------
$molecule
0 2
H 0 0 0
O 0 0 0.9697
$end

$rem
jobtype sp
method mPW91
xc_grid 000099000590
basis aug-pc-4
max_scf_cycles 200
thresh 14
scf_convergence 8
scf_algorithm gdm
symmetry false
sym_ignore true
unrestricted true
gen_scfman true
internal_stability_iter 15
internal_stability_davidson_iter 200
mem_total 64000
mem_static 1500
n_frozen_core 0
$end


--------------------------------------------------------------
 ----------------------------------------------------------------
             Standard Nuclear Orientation (Angstroms)
    I     Atom           X                Y                Z
 ----------------------------------------------------------------
    1      H       0.0000000000     0.0000000000     0.0000000000
    2      O       0.0000000000     0.0000000000     0.9697000000
 ----------------------------------------------------------------
 Nuclear Repulsion Energy =     4.3656983463 hartrees
 There are        5 alpha and        4 beta electrons
 Requested basis set is aug-pc-4
 There are 57 shells and 233 basis functions

 Total QAlloc Memory Limit  64000 MB
 Mega-Array Size      1467 MB
 MEM_STATIC part      1500 MB

                       Distance Matrix (Angstroms)
             H (  1)
   O (  2)  0.969700
 
 A cutoff of  1.0D-14 yielded   1652 shell pairs
 There are     27850 function pairs (     51237 Cartesian)
 
 -------------------------------------------------------
 OpenMP Integral Computing Module                       
 Release: version 1.0, May 2013, Q-Chem Inc. Pittsburgh 
 -------------------------------------------------------
 Integral Job Info:
 Integral job number is                      11
 Integral operator is                         1
 short-range coefficients                     0
 long-range coefficients              100000000
 Omega coefficients                           0
 if combine SR and LR in K                    0
 Integral screening is                        0
 Integral computing path is                   2
 max size of driver memory is           6400000
 size of driver memory is               5498286
 size of scratch memory is             29792225
 max col of scratch BK array             194481
 max len of scratch array in speh3         5572
 max len of scratch index in speh4           72
 max int batch size is                      520
 min int batch size is                       52
 fixed nKL is                                25
 max L of basis functions is                  5
 order of int derivative is                   0
 number of shells is                         57
 number of basis is                         315
 number of cartesian basis is               315
 number of contracted shell pairs          1652
 number of primitive shell pairs           3469
 maxK2 (contraction) of shell pair          121
 max number of K2 of shell pair               1
 max number of CS2 of shell pair            197
 max number of PS2 of shell pair            197
 mem total for path MDJ                  836120
 -------------------------------------------------------
 Smallest overlap matrix eigenvalue = 2.89E-06

 Scale SEOQF with 1.000000e-01/1.000000e-01/1.000000e-01

 Standard Electronic Orientation quadrupole field applied
 Nucleus-field energy     =    -0.0000000008 hartrees
 Guess from superposition of atomic densities
 Warning:  Energy on first SCF cycle will be non-variational
 SAD guess density has 9.000000 electrons

 -----------------------------------------------------------------------
  General SCF calculation program by
  Eric Jon Sundstrom, Paul Horn, Yuezhi Mao, Dmitri Zuev, Alec White,
  David Stuck, Shaama M.S., Shane Yost, Joonho Lee, David Small,
  Daniel Levine, Susi Lehtola, Hugh Burton, Evgeny Epifanovsky
 -----------------------------------------------------------------------
 Exchange:  mPW91      Correlation:  PW91
 Using Euler-Maclaurin-Lebedev (99,590) quadrature formula
Running Object-Oriented UKS (UHF)
performing a single roothaan step with Fock from read density so that orbitals are available to all algorithms
energy of the guess density (C=0) -75.706123549429
We will preform up to 15 macro iterations over saddle points until a stable solution is found
Energy prior to optimization (guess energy) = -75.744395324581
Begin Timing: Total SCF Calculation
Begin Timing: SCF Single Stationary Point Calculation
begin iterations for algorithm: GDM          
the SCF tolerance is set to 1.00e-08
    1     -75.7443953246      7.20e-02     00000  Normal BFGS step
    2     -75.7118660846      1.12e-01     00000 Line search: overstep
    3     -75.7622452461      1.50e-02     00000  Normal BFGS step
    4     -75.7638017209      2.60e-03     00000  Normal BFGS step
    5     -75.7638515710      8.81e-04     00000  Normal BFGS step
    6     -75.7638588334      1.09e-04     00000  Normal BFGS step
    7     -75.7638589469      3.42e-05     00000  Normal BFGS step
    8     -75.7638589528      2.62e-06     00000  Normal BFGS step
    9     -75.7638589529      3.55e-07     00000  Normal BFGS step
   10     -75.7638589529      6.69e-08     00000  Normal BFGS step
   11     -75.7638589529      1.85e-08     00000  Normal BFGS step
   12     -75.7638589529      2.37e-08     00000  Normal BFGS step
   13     -75.7638589529      3.67e-10     00000 Convergence criterion met
Timing for Single Stationary Point: 56.00s (wall), 436.10s (cpu)
Begin Timing: Stability
===================================================
Beginning Test for Internal Stability
===================================================
generating davidson guess vectors based on koopmans excitations
    1      6.39e-01     00000 Davidson Iteration
    2      6.11e-02     00000 Davidson Iteration
    3      6.08e-03     00000 Davidson Iteration
    4      1.70e-03     00000 Davidson Iteration
    5      2.75e-04     00000 Davidson Iteration
    6      3.32e-05     00000 Davidson Converged
converged_eigenvalues
  -8.3792e-07
   2.9055e-01
Threshold for negative eigenvalues: -1.0e-05
solution was a local minimum (stable)
===================================================
End Test for Internal Stability
===================================================
Our SCF solution is stable!
Timing for Total SCF: 351.00s (wall), 2783.56s (cpu)
 Total energy in the final basis set =      -75.7638589529
<S^2> =          0.752349364
    ==================================================
              The end of Object-Oriented SCFman       
    ==================================================
 
 --------------------------------------------------------------
 
                    Orbital Energies (a.u.)
 --------------------------------------------------------------
 
 Alpha MOs
 -- Occupied --
-18.844  -0.936  -0.432  -0.369  -0.296
 -- Virtual --
 -0.032   0.027   0.029   0.031   0.043   0.090   0.091   0.092
  0.122   0.139   0.139   0.151   0.156   0.163   0.201   0.203
  0.204   0.216   0.216   0.246   0.251   0.266   0.266   0.266
  0.307   0.352   0.366   0.368   0.376   0.376   0.427   0.453
  0.453   0.456   0.456   0.457   0.457   0.466   0.474   0.478
  0.538   0.541   0.544   0.554   0.559   0.560   0.584   0.591
  0.591   0.601   0.619   0.624   0.663   0.663   0.676   0.720
  0.720   0.738   0.738   0.802   0.823   0.832   0.857   0.857
  0.892   0.892   0.902   0.955   0.962   0.973   0.996   1.000
  1.000   1.006   1.036   1.036   1.044   1.044   1.146   1.212
  1.212   1.259   1.294   1.304   1.369   1.518   1.539   1.701
  1.702   1.746   1.765   1.774   1.792   1.833   1.834   2.098
  2.126   2.204   2.226   2.231   2.470   2.643   2.663   2.913
  3.031   3.032   3.253   3.269   3.271   3.458   3.474   3.638
  3.675   3.675   3.935   3.935   3.947   4.091   4.137   4.287
  4.288   4.434   4.440   4.491   4.888   5.041   5.041   5.297
  5.326   5.394   5.410   5.438   5.895   5.895   6.024   6.179
  6.180   6.209   6.241   6.738   7.133   7.136   7.308   7.358
  7.394   8.276   8.291   8.717   8.717   9.170   9.184   9.186
  9.216   9.604   9.828  10.343  10.385  10.612  10.989  11.062
 11.258  11.646  11.646  11.713  11.713  11.953  11.953  11.966
 11.977  11.977  12.392  12.473  12.473  12.553  12.589  12.599
 12.600  12.733  12.736  13.691  13.733  13.735  14.315  14.316
 15.388  16.670  16.670  16.940  16.940  16.949  16.949  16.963
 16.999  17.036  17.372  17.416  17.619  17.619  17.648  17.648
 18.869  19.664  19.664  20.551  20.858  20.890  22.765  22.766
 23.423  23.448  23.603  23.644  26.557  26.956  30.344  31.756
 31.816  33.938  40.995  66.393  66.393  66.796  66.839  68.553
 90.875  90.877  93.364 142.790
 
 Beta MOs
 -- Occupied --
-18.820  -0.879  -0.409  -0.273
 -- Virtual --
 -0.236  -0.028   0.028   0.031   0.037   0.045   0.090   0.094
  0.094   0.124   0.143   0.146   0.155   0.164   0.168   0.201
  0.202   0.208   0.218   0.221   0.251   0.252   0.269   0.271
  0.273   0.310   0.354   0.367   0.373   0.377   0.380   0.433
  0.457   0.458   0.462   0.462   0.462   0.463   0.474   0.478
  0.479   0.543   0.549   0.557   0.565   0.567   0.567   0.588
  0.593   0.594   0.602   0.625   0.630   0.669   0.672   0.682
  0.725   0.726   0.742   0.742   0.805   0.833   0.838   0.866
  0.868   0.899   0.900   0.906   0.962   0.965   0.976   1.003
  1.004   1.007   1.010   1.038   1.039   1.047   1.048   1.155
  1.221   1.223   1.277   1.303   1.306   1.372   1.543   1.554
  1.740   1.747   1.776   1.781   1.794   1.803   1.869   1.872
  2.131   2.143   2.225   2.247   2.252   2.477   2.665   2.672
  2.933   3.038   3.040   3.267   3.271   3.281   3.474   3.481
  3.655   3.684   3.684   3.974   3.997   4.013   4.146   4.162
  4.300   4.303   4.452   4.506   4.533   4.906   5.110   5.114
  5.328   5.336   5.446   5.451   5.461   5.965   5.966   6.041
  6.229   6.230   6.243   6.252   6.748   7.169   7.175   7.332
  7.397   7.405   8.285   8.286   8.719   8.720   9.222   9.243
  9.278   9.300   9.636   9.843  10.391  10.407  10.662  11.086
 11.123  11.278  11.664  11.668  11.745  11.746  11.980  12.021
 12.022  12.066  12.067  12.430  12.541  12.543  12.589  12.600
 12.660  12.668  12.798  12.811  13.739  13.758  13.759  14.336
 14.341  15.406  16.681  16.681  16.990  17.022  17.024  17.039
 17.043  17.047  17.050  17.419  17.434  17.660  17.661  17.676
 17.688  18.899  19.670  19.673  20.570  20.888  20.899  22.876
 22.893  23.444  23.451  23.650  23.683  26.579  26.981  30.386
 31.837  31.875  33.969  40.987  66.463  66.473  66.849  66.870
 68.587  90.864  90.864  93.353 142.816
 --------------------------------------------------------------
 
          Ground-State Mulliken Net Atomic Charges

     Atom                 Charge (a.u.)    Spin (a.u.)
  --------------------------------------------------------
      1 H                     0.264565      -0.009686
      2 O                    -0.264565       1.009686
  --------------------------------------------------------
  Sum of atomic charges =    -0.000000
  Sum of spin   charges =     1.000000

 -----------------------------------------------------------------
                    Cartesian Multipole Moments
 -----------------------------------------------------------------
    Charge (ESU x 10^10)
                -0.0000
    Dipole Moment (Debye)
         X      -0.0000      Y       0.0000      Z      -1.5970
       Tot       1.5970
    Quadrupole Moments (Debye-Ang)
        XX      -5.6165     XY      -0.0000     YY      -6.9617
        XZ       0.0000     YZ       0.0000     ZZ      -7.5422
    Octopole Moments (Debye-Ang^2)
       XXX      -0.0000    XXY       0.0000    XYY      -0.0000
       YYY       0.0000    XXZ      -4.9765    XYZ      -0.0000
       YYZ      -6.1721    XZZ       0.0000    YZZ       0.0000
       ZZZ     -17.6912
    Hexadecapole Moments (Debye-Ang^3)
      XXXX      -4.4364   XXXY      -0.0000   XXYY      -1.9006
      XYYY      -0.0000   YYYY      -6.9607   XXXZ       0.0000
      XXYZ       0.0000   XYYZ      -0.0000   YYYZ       0.0000
      XXZZ      -6.4100   XYZZ      -0.0000   YYZZ      -7.9260
      XZZZ       0.0000   YZZZ       0.0000   ZZZZ     -37.7420
 -----------------------------------------------------------------
Archival summary:
1\1\n0094.mhg0\SP\ProcedureUnspecified\BasisUnspecified\11(2)\yhljason\FriJun1909:21:222020FriJun1909:21:222020\0\\#,ProcedureUnspecified,BasisUnspecified,\\0,2\H\O,1,0.9697\\\@

 Total job time:  360.83s(wall), 2845.67s(cpu) 
 Fri Jun 19 09:21:22 2020

        *************************************************************
        *                                                           *
        *  Thank you very much for using Q-Chem.  Have a nice day.  *
        *                                                           *
        *************************************************************


