Q-Chem Developer Version!
                  Welcome to Q-Chem
     A Quantum Leap Into The Future Of Chemistry


 Q-Chem 5.1, Q-Chem, Inc., Pleasanton, CA (2018)

 Yihan Shao,  Zhengting Gan,  E. Epifanovsky,  A. T. B. Gilbert,  M. Wormit,  
 J. Kussmann,  A. W. Lange,  A. Behn,  Jia Deng,  Xintian Feng,  D. Ghosh,  
 M. Goldey,  P. R. Horn,  L. D. Jacobson,  I. Kaliman,  T. Kus,  A. Landau,  
 Jie Liu,  E. I. Proynov,  R. M. Richard,  R. P. Steele,  E. J. Sundstrom,  
 H. L. Woodcock III,  P. M. Zimmerman,  D. Zuev,  B. Albrecht,  E. Alguire,  
 S. A. Baeppler,  D. Barton,  Z. Benda,  Y. A. Bernard,  E. J. Berquist,  
 K. B. Bravaya,  H. Burton,  D. Casanova,  Chun-Min Chang,  Yunqing Chen,  
 A. Chien,  K. D. Closser,  M. P. Coons,  S. Coriani,  S. Dasgupta,  
 A. L. Dempwolff,  M. Diedenhofen,  Hainam Do,  R. G. Edgar,  Po-Tung Fang,  
 S. Faraji,  S. Fatehi,  Qingguo Feng,  K. D. Fenk,  J. Fosso-Tande,  
 Qinghui Ge,  A. Ghysels,  G. Gidofalvi,  J. Gomes,  J. Gonthier,  A. Gunina,  
 D. Hait,  M. W. D. Hanson-Heine,  P. H. P. Harbach,  A. W. Hauser,  
 J. E. Herr,  E. G. Hohenstein,  Z. C. Holden,  Kerwin Hui,  B. C. Huynh,  
 T.-C. Jagau,  Hyunjun Ji,  B. Kaduk,  K. Khistyaev,  Jaehoon Kim,  
 P. Klunzinger,  K. Koh,  D. Kosenkov,  L. Koulias,  T. Kowalczyk,  
 C. M. Krauter,  A. Kunitsa,  Ka Un Lao,  A. Laurent,  K. V. Lawler,  
 Joonho Lee,  D. Lefrancois,  S. Lehtola,  D. S. Levine,  Yi-Pei Li,  
 You-Sheng Lin,  Fenglai Liu,  E. Livshits,  A. Luenser,  P. Manohar,  
 E. Mansoor,  S. F. Manzer,  Shan-Ping Mao,  Yuezhi Mao,  N. Mardirossian,  
 A. V. Marenich,  T. Markovich,  L. A. Martinez-Martinez,  S. A. Maurer,  
 N. J. Mayhall,  S. C. McKenzie,  J.-M. Mewes,  A. F. Morrison,  
 J. W. Mullinax,  K. Nanda,  T. S. Nguyen-Beck,  R. Olivares-Amaya,  
 J. A. Parkhill,  T. M. Perrine,  F. Plasser,  P. Pokhilko,  S. Prager,  
 A. Prociuk,  E. Ramos,  D. R. Rehn,  F. Rob,  M. Schneider,  N. Sergueev,  
 S. M. Sharada,  S. Sharma,  D. W. Small,  T. Stauch,  T. Stein,  
 Yu-Chuan Su,  A. J. W. Thom,  A. Tkatchenko,  T. Tsuchimochi,  N. M. Tubman,  
 L. Vogt,  M. L. Vidal,  O. Vydrov,  M. A. Watson,  J. Wenzel,  
 M. de Wergifosse,  T. A. Wesolowski,  A. White,  J. Witte,  A. Yamada,  
 Jun Yang,  K. Yao,  S. Yeganeh,  S. R. Yost,  Zhi-Qiang You,  A. Zech,  
 Igor Ying Zhang,  Xing Zhang,  Yan Zhao,  Ying Zhu,  B. R. Brooks,  
 G. K. L. Chan,  C. J. Cramer,  M. S. Gordon,  W. J. Hehre,  A. Klamt,  
 M. W. Schmidt,  C. D. Sherrill,  D. G. Truhlar,  A. Aspuru-Guzik,  R. Baer,  
 A. T. Bell,  N. A. Besley,  Jeng-Da Chai,  A. E. DePrince, III,  
 R. A. DiStasio Jr.,  A. Dreuw,  B. D. Dunietz,  T. R. Furlani,  
 Chao-Ping Hsu,  Yousung Jung,  Jing Kong,  D. S. Lambrecht,  WanZhen Liang,  
 C. Ochsenfeld,  V. A. Rassolov,  L. V. Slipchenko,  J. E. Subotnik,  
 T. Van Voorhis,  J. M. Herbert,  A. I. Krylov,  P. M. W. Gill,  M. Head-Gordon

 Contributors to earlier versions of Q-Chem not listed above: 
 R. D. Adamson,  B. Austin,  J. Baker,  G. J. O. Beran,  K. Brandhorst,  
 S. T. Brown,  E. F. C. Byrd,  A. K. Chakraborty,  C.-L. Cheng,  
 Siu Hung Chien,  D. M. Chipman,  D. L. Crittenden,  H. Dachsel,  
 R. J. Doerksen,  A. D. Dutoi,  L. Fusti-Molnar,  W. A. Goddard III,  
 A. Golubeva-Zadorozhnaya,  S. R. Gwaltney,  G. Hawkins,  A. Heyden,  
 S. Hirata,  G. Kedziora,  F. J. Keil,  C. Kelley,  Jihan Kim,  R. A. King,  
 R. Z. Khaliullin,  P. P. Korambath,  W. Kurlancheek,  A. M. Lee,  M. S. Lee,  
 S. V. Levchenko,  Ching Yeh Lin,  D. Liotard,  R. C. Lochan,  I. Lotan,  
 P. E. Maslen,  N. Nair,  D. P. O'Neill,  D. Neuhauser,  E. Neuscamman,  
 C. M. Oana,  R. Olson,  B. Peters,  R. Peverati,  P. A. Pieniazek,  
 Y. M. Rhee,  J. Ritchie,  M. A. Rohrdanz,  E. Rosta,  N. J. Russ,  
 H. F. Schaefer III,  N. E. Schultz,  N. Shenvi,  A. C. Simmonett,  A. Sodt,  
 D. Stuck,  K. S. Thanthiriwatte,  V. Vanovschi,  Tao Wang,  A. Warshel,  
 C. F. Williams,  Q. Wu,  X. Xu,  W. Zhang

 Please cite Q-Chem as follows:
 Y. Shao et al., Mol. Phys. 113, 184-215 (2015)
 DOI: 10.1080/00268976.2014.952696

 Q-Chem 5.1.1 for Intel X86 EM64T Linux

 Parts of Q-Chem use Armadillo 8.300.2 (Tropical Shenanigans).
 http://arma.sourceforge.net/

 Q-Chem begins on Sat Jun 27 09:38:14 2020  

Host: n0101.mhg0
0

     Scratch files written to /local/scratch/users/yhljason/S2H2_B3LYP_aug-pc-4.inp20200627013305//
Input Ideriv = 2
Curr. Ideriv = -1
Max.  Ideriv = 2

Checking the input file for inconsistencies... 	...done.

--------------------------------------------------------------
User input:
--------------------------------------------------------------
$molecule
0 1
S1      0.0000  1.0282  -0.0552
S2      0.0000  -1.0282 -0.0552
H3      0.9425  1.2122  0.8824
H4      -0.9425 -1.2122 0.8824
$end

$rem
jobtype sp
method B3LYP
xc_grid 000099000590
basis aug-pc-4
max_scf_cycles 200
thresh 14
scf_convergence 8
scf_algorithm gdm
symmetry false
sym_ignore true
unrestricted true
gen_scfman true
internal_stability_iter 15
internal_stability_davidson_iter 200
mem_total 64000
mem_static 1500
n_frozen_core 0
$end


--------------------------------------------------------------
 ----------------------------------------------------------------
             Standard Nuclear Orientation (Angstroms)
    I     Atom           X                Y                Z
 ----------------------------------------------------------------
    1      S       0.0000000000     1.0282000000    -0.0552000000
    2      S       0.0000000000    -1.0282000000    -0.0552000000
    3      H       0.9425000000     1.2122000000     0.8824000000
    4      H      -0.9425000000    -1.2122000000     0.8824000000
 ----------------------------------------------------------------
 Nuclear Repulsion Energy =    85.1665618322 hartrees
 There are       17 alpha and       17 beta electrons
 Requested basis set is aug-pc-4
 There are 110 shells and 458 basis functions

 Total QAlloc Memory Limit  64000 MB
 Mega-Array Size      1467 MB
 MEM_STATIC part      1500 MB

                       Distance Matrix (Angstroms)
             S (  1)   S (  2)   H (  3)
   S (  2)  2.056400
   H (  3)  1.342109  2.605147
   H (  4)  2.605147  1.342109  3.070984
 
 A cutoff of  1.0D-14 yielded   5921 shell pairs
 There are    103829 function pairs (    192694 Cartesian)
 
 -------------------------------------------------------
 OpenMP Integral Computing Module                       
 Release: version 1.0, May 2013, Q-Chem Inc. Pittsburgh 
 -------------------------------------------------------
 Integral Job Info:
 Integral job number is                      11
 Integral operator is                         1
 short-range coefficients                     0
 long-range coefficients              100000000
 Omega coefficients                           0
 if combine SR and LR in K                    0
 Integral screening is                        0
 Integral computing path is                   2
 max size of driver memory is           6400000
 size of driver memory is               5498286
 size of scratch memory is             27847117
 max col of scratch BK array             194481
 max len of scratch array in speh3         5572
 max len of scratch index in speh4           72
 max int batch size is                      520
 min int batch size is                       52
 fixed nKL is                                 7
 max L of basis functions is                  5
 order of int derivative is                   0
 number of shells is                        110
 number of basis is                         622
 number of cartesian basis is               622
 number of contracted shell pairs          5921
 number of primitive shell pairs          21175
 maxK2 (contraction) of shell pair          225
 max number of K2 of shell pair               1
 max number of CS2 of shell pair            574
 max number of PS2 of shell pair           1056
 mem total for path MDJ                 1098228
 -------------------------------------------------------
 Smallest overlap matrix eigenvalue = 1.44E-06

 Scale SEOQF with 1.000000e-01/1.000000e-01/1.000000e-01

 Standard Electronic Orientation quadrupole field applied
 Nucleus-field energy     =     0.0000000025 hartrees
 Guess from superposition of atomic densities
 Warning:  Energy on first SCF cycle will be non-variational
 SAD guess density has 34.000000 electrons

 -----------------------------------------------------------------------
  General SCF calculation program by
  Eric Jon Sundstrom, Paul Horn, Yuezhi Mao, Dmitri Zuev, Alec White,
  David Stuck, Shaama M.S., Shane Yost, Joonho Lee, David Small,
  Daniel Levine, Susi Lehtola, Hugh Burton, Evgeny Epifanovsky
 -----------------------------------------------------------------------
 Exchange:     0.2000 Hartree-Fock + 0.0800 Slater + 0.7200 B88
 Correlation:  0.1900 VWN1RPA + 0.8100 LYP
 Using Euler-Maclaurin-Lebedev (99,590) quadrature formula
Running Object-Oriented UKS (UHF)
performing a single roothaan step with Fock from read density so that orbitals are available to all algorithms
 LTot/LBra/LKet=          20          10          10

 Q-Chem warning:

 in GenH1, ket side, handled with new code

 LTot/LBra/LKet=          20          10          10
 LTot/LBra/LKet=          20          10          10

 Q-Chem warning:

 in GenH1, ket side, handled with new code


 Q-Chem warning:

 in GenH1, ket side, handled with new code

 LTot/LBra/LBra=          20          10          10

 Q-Chem warning:

 in GenH1, bra side, handled with new code

energy of the guess density (C=0) -797.826575196592
We will preform up to 15 macro iterations over saddle points until a stable solution is found
Energy prior to optimization (guess energy) = -797.672329610108
Begin Timing: Total SCF Calculation
Begin Timing: SCF Single Stationary Point Calculation
begin iterations for algorithm: GDM          
the SCF tolerance is set to 1.00e-08
    1    -797.6723296101      2.10e-02     00000  Normal BFGS step
    2    -797.6748508397      2.01e-02     00000  Normal BFGS step
    3    -797.6776533292      3.47e-03     00000  Normal BFGS step
    4    -797.6776850681      2.74e-03     00000  Normal BFGS step
    5    -797.6777584794      1.78e-04     00000  Normal BFGS step
    6    -797.6777586937      1.03e-04     00000  Normal BFGS step
    7    -797.6777587804      1.28e-05     00000  Normal BFGS step
    8    -797.6777587855      4.48e-06     00000  Normal BFGS step
    9    -797.6777587866      7.99e-07     00000  Normal BFGS step
   10    -797.6777587866      3.57e-07     00000  Normal BFGS step
   11    -797.6777587866      1.08e-08     00000  Normal BFGS step
   12    -797.6777587866      4.18e-09     00000 Convergence criterion met
Timing for Single Stationary Point: 6568.00s (wall), 51490.54s (cpu)
Begin Timing: Stability
===================================================
Beginning Test for Internal Stability
===================================================
generating davidson guess vectors based on koopmans excitations
    1      7.69e-01     00000 Davidson Iteration
    2      3.01e-01     00000 Davidson Iteration
    3      5.70e-02     00000 Davidson Iteration
    4      1.15e-02     00000 Davidson Iteration
    5      1.30e-02     00000 Davidson Iteration
    6      3.50e-03     00000 Davidson Iteration
    7      1.85e-03     00000 Davidson Iteration
    8      8.03e-04     00000 Davidson Iteration
    9      3.05e-04     00000 Davidson Iteration
   10      1.86e-04     00000 Davidson Iteration
   11      7.22e-05     00000 Davidson Iteration
   12      3.72e-04     00000 Davidson Iteration
   13      5.22e-05     00000 Davidson Converged
converged_eigenvalues
   0.2543
   0.3602
Threshold for negative eigenvalues: -1.0e-05
solution was a local minimum (stable)
===================================================
End Test for Internal Stability
===================================================
Our SCF solution is stable!
Timing for Total SCF: 16413.00s (wall), 129267.13s (cpu)
 Total energy in the final basis set =     -797.6777587866
<S^2> =         -0.000000000
    ==================================================
              The end of Object-Oriented SCFman       
    ==================================================
 
 --------------------------------------------------------------
 
                    Orbital Energies (a.u.)
 --------------------------------------------------------------
 
 Alpha MOs
 -- Occupied --
-88.873 -88.873  -7.963  -7.963  -5.927  -5.926  -5.923  -5.923
 -5.917  -5.917  -0.812  -0.675  -0.460  -0.414  -0.364  -0.271
 -0.270
 -- Virtual --
 -0.053  -0.026  -0.004   0.014   0.017   0.019   0.023   0.034
  0.034   0.043   0.044   0.052   0.069   0.074   0.086   0.088
  0.094   0.096   0.104   0.104   0.115   0.116   0.121   0.128
  0.134   0.136   0.140   0.155   0.165   0.167   0.169   0.176
  0.183   0.184   0.188   0.188   0.198   0.206   0.221   0.224
  0.238   0.247   0.248   0.259   0.261   0.270   0.271   0.276
  0.280   0.290   0.292   0.297   0.301   0.302   0.307   0.316
  0.320   0.322   0.332   0.333   0.336   0.342   0.345   0.351
  0.354   0.375   0.380   0.383   0.408   0.409   0.415   0.415
  0.433   0.436   0.443   0.452   0.459   0.461   0.468   0.472
  0.478   0.481   0.489   0.505   0.507   0.523   0.528   0.536
  0.543   0.544   0.544   0.550   0.551   0.566   0.568   0.570
  0.575   0.579   0.588   0.596   0.599   0.601   0.608   0.611
  0.625   0.634   0.639   0.642   0.647   0.651   0.656   0.666
  0.669   0.678   0.688   0.689   0.695   0.704   0.706   0.713
  0.718   0.729   0.741   0.743   0.745   0.764   0.767   0.771
  0.781   0.783   0.791   0.802   0.804   0.811   0.834   0.837
  0.842   0.847   0.863   0.864   0.872   0.878   0.883   0.886
  0.892   0.892   0.907   0.910   0.911   0.914   0.920   0.922
  0.922   0.929   0.955   0.958   0.982   0.984   0.989   1.034
  1.034   1.054   1.072   1.086   1.092   1.140   1.140   1.187
  1.210   1.249   1.250   1.293   1.309   1.317   1.329   1.367
  1.379   1.383   1.392   1.405   1.455   1.476   1.485   1.504
  1.520   1.526   1.544   1.553   1.560   1.564   1.568   1.603
  1.625   1.649   1.655   1.665   1.678   1.780   1.781   1.794
  1.857   1.859   1.873   1.896   1.928   1.942   2.055   2.281
  2.291   2.312   2.319   2.333   2.342   2.411   2.426   2.440
  2.459   2.473   2.487   2.583   2.622   2.654   2.739   2.750
  2.765   2.784   2.865   2.870   2.893   2.928   2.990   3.004
  3.155   3.161   3.189   3.243   3.264   3.300   3.307   3.327
  3.338   3.356   3.370   3.402   3.419   3.466   3.486   3.487
  3.499   3.510   3.528   3.555   3.564   3.591   3.609   3.678
  3.691   3.695   3.725   3.744   3.760   3.764   3.799   3.824
  3.837   3.883   3.890   3.983   3.994   4.013   4.021   4.061
  4.098   4.107   4.143   4.178   4.253   4.349   4.404   4.435
  4.489   4.506   4.865   5.055   5.127   5.128   5.178   5.182
  5.194   5.210   5.262   5.345   5.360   5.387   5.453   5.490
  5.544   5.563   5.712   5.725   5.757   5.796   5.863   5.878
  5.939   5.977   6.053   6.106   6.156   6.170   6.175   6.262
  6.307   6.353   6.498   6.586   6.635   6.720   6.722   6.827
  6.971   7.520   7.601   8.272   8.326   8.354   8.363   8.366
  8.378   8.465   8.472   8.522   8.565   8.611   8.667   8.701
  8.702   8.734   8.742   8.772   8.789   8.895   8.973   8.989
  9.015   9.030   9.165   9.228   9.238   9.277   9.287   9.385
  9.403   9.597   9.619   9.982  10.019  11.782  11.798  11.799
 11.811  11.837  11.845  11.863  11.881  11.935  11.994  12.221
 12.223  12.269  12.296  12.345  12.358  12.371  12.394  12.402
 12.423  12.625  12.644  12.671  12.711  13.102  13.113  13.167
 13.182  14.057  14.062  16.778  16.778  16.778  16.779  16.837
 16.843  16.844  16.850  16.959  16.965  17.028  17.031  17.158
 17.161  17.220  17.244  17.341  17.342  17.452  17.497  17.679
 17.734  18.328  18.344  18.406  18.406  19.504  19.507  23.326
 23.351  23.437  23.444  24.210  24.211  31.219  32.493  39.973
 39.981  62.811  62.815  62.846  62.850  62.894  62.908  62.970
 63.015  63.526  63.565  90.940  90.958  91.021  91.027  91.581
 91.591
 
 Beta MOs
 -- Occupied --
-88.873 -88.873  -7.963  -7.963  -5.927  -5.926  -5.923  -5.923
 -5.917  -5.917  -0.812  -0.675  -0.460  -0.414  -0.364  -0.271
 -0.270
 -- Virtual --
 -0.053  -0.026  -0.004   0.014   0.017   0.019   0.023   0.034
  0.034   0.043   0.044   0.052   0.069   0.074   0.086   0.088
  0.094   0.096   0.104   0.104   0.115   0.116   0.121   0.128
  0.134   0.136   0.140   0.155   0.165   0.167   0.169   0.176
  0.183   0.184   0.188   0.188   0.198   0.206   0.221   0.224
  0.238   0.247   0.248   0.259   0.261   0.270   0.271   0.276
  0.280   0.290   0.292   0.297   0.301   0.302   0.307   0.316
  0.320   0.322   0.332   0.333   0.336   0.342   0.345   0.351
  0.354   0.375   0.380   0.383   0.408   0.409   0.415   0.415
  0.433   0.436   0.443   0.452   0.459   0.461   0.468   0.472
  0.478   0.481   0.489   0.505   0.507   0.523   0.528   0.536
  0.543   0.544   0.544   0.550   0.551   0.566   0.568   0.570
  0.575   0.579   0.588   0.596   0.599   0.601   0.608   0.611
  0.625   0.634   0.639   0.642   0.647   0.651   0.656   0.666
  0.669   0.678   0.688   0.689   0.695   0.704   0.706   0.713
  0.718   0.729   0.741   0.743   0.745   0.764   0.767   0.771
  0.781   0.783   0.791   0.802   0.804   0.811   0.834   0.837
  0.842   0.847   0.863   0.864   0.872   0.878   0.883   0.886
  0.892   0.892   0.907   0.910   0.911   0.914   0.920   0.922
  0.922   0.929   0.955   0.958   0.982   0.984   0.989   1.034
  1.034   1.054   1.072   1.086   1.092   1.140   1.140   1.187
  1.210   1.249   1.250   1.293   1.309   1.317   1.329   1.367
  1.379   1.383   1.392   1.405   1.455   1.476   1.485   1.504
  1.520   1.526   1.544   1.553   1.560   1.564   1.568   1.603
  1.625   1.649   1.655   1.665   1.678   1.780   1.781   1.794
  1.857   1.859   1.873   1.896   1.928   1.942   2.055   2.281
  2.291   2.312   2.319   2.333   2.342   2.411   2.426   2.440
  2.459   2.473   2.487   2.583   2.622   2.654   2.739   2.750
  2.765   2.784   2.865   2.870   2.893   2.928   2.990   3.004
  3.155   3.161   3.189   3.243   3.264   3.300   3.307   3.327
  3.338   3.356   3.370   3.402   3.419   3.466   3.486   3.487
  3.499   3.510   3.528   3.555   3.564   3.591   3.609   3.678
  3.691   3.695   3.725   3.744   3.760   3.764   3.799   3.824
  3.837   3.883   3.890   3.983   3.994   4.013   4.021   4.061
  4.098   4.107   4.143   4.178   4.253   4.349   4.404   4.435
  4.489   4.506   4.865   5.055   5.127   5.128   5.178   5.182
  5.194   5.210   5.262   5.345   5.360   5.387   5.453   5.490
  5.544   5.563   5.712   5.725   5.757   5.796   5.863   5.878
  5.939   5.977   6.053   6.106   6.156   6.170   6.175   6.262
  6.307   6.353   6.498   6.586   6.635   6.720   6.722   6.827
  6.971   7.520   7.601   8.272   8.326   8.354   8.363   8.366
  8.378   8.465   8.472   8.522   8.565   8.611   8.667   8.701
  8.702   8.734   8.742   8.772   8.789   8.895   8.973   8.989
  9.015   9.030   9.165   9.228   9.238   9.277   9.287   9.385
  9.403   9.597   9.619   9.982  10.019  11.782  11.798  11.799
 11.811  11.837  11.845  11.863  11.881  11.935  11.994  12.221
 12.223  12.269  12.296  12.345  12.358  12.371  12.394  12.402
 12.423  12.625  12.644  12.671  12.711  13.102  13.113  13.167
 13.182  14.057  14.062  16.778  16.778  16.778  16.779  16.837
 16.843  16.844  16.850  16.959  16.965  17.028  17.031  17.158
 17.161  17.220  17.244  17.341  17.342  17.452  17.497  17.679
 17.734  18.328  18.344  18.406  18.406  19.504  19.507  23.326
 23.351  23.437  23.444  24.210  24.211  31.219  32.493  39.973
 39.981  62.811  62.815  62.846  62.850  62.894  62.908  62.970
 63.015  63.526  63.565  90.940  90.958  91.021  91.027  91.581
 91.591
 --------------------------------------------------------------
 
          Ground-State Mulliken Net Atomic Charges

     Atom                 Charge (a.u.)    Spin (a.u.)
  --------------------------------------------------------
      1 S                    -0.240937       0.000000
      2 S                    -0.240937      -0.000000
      3 H                     0.240937       0.000000
      4 H                     0.240937      -0.000000
  --------------------------------------------------------
  Sum of atomic charges =    -0.000000
  Sum of spin   charges =     0.000000

 -----------------------------------------------------------------
                    Cartesian Multipole Moments
 -----------------------------------------------------------------
    Charge (ESU x 10^10)
                -0.0000
    Dipole Moment (Debye)
         X       0.0000      Y       0.0000      Z       1.0973
       Tot       1.0973
    Quadrupole Moments (Debye-Ang)
        XX     -27.0354     XY       1.8950     YY     -26.3645
        XZ      -0.0000     YZ       0.0000     ZZ     -27.1914
    Octopole Moments (Debye-Ang^2)
       XXX       0.0000    XXY      -0.0000    XYY       0.0000
       YYY       0.0000    XXZ       1.4151    XYZ       3.5518
       YYZ       2.5996    XZZ      -0.0000    YZZ      -0.0000
       ZZZ       1.3280
    Hexadecapole Moments (Debye-Ang^3)
      XXXX     -45.0300   XXXY      -3.2736   XXYY     -43.4335
      XYYY       0.1080   YYYY    -200.9996   XXXZ      -0.0000
      XXYZ       0.0000   XYYZ      -0.0000   YYYZ       0.0000
      XXZZ     -13.7158   XYZZ      -0.4658   YYZZ     -43.7233
      XZZZ      -0.0000   YZZZ      -0.0000   ZZZZ     -44.8473
 -----------------------------------------------------------------
Archival summary:
1\1\n0101.mhg0\SP\ProcedureUnspecified\BasisUnspecified\22\yhljason\SatJun2714:23:512020SatJun2714:23:512020\0\\#,ProcedureUnspecified,BasisUnspecified,\\0,1\S\H,1,1.34211\S,1,2.0564,2,97.8799\H,3,1.34211,1,97.8799,2,90.2987,0\\\@

 Total job time:  17137.25s(wall), 134909.09s(cpu) 
 Sat Jun 27 14:23:51 2020

        *************************************************************
        *                                                           *
        *  Thank you very much for using Q-Chem.  Have a nice day.  *
        *                                                           *
        *************************************************************


