Q-Chem Developer Version!
                  Welcome to Q-Chem
     A Quantum Leap Into The Future Of Chemistry


 Q-Chem 5.1, Q-Chem, Inc., Pleasanton, CA (2018)

 Yihan Shao,  Zhengting Gan,  E. Epifanovsky,  A. T. B. Gilbert,  M. Wormit,  
 J. Kussmann,  A. W. Lange,  A. Behn,  Jia Deng,  Xintian Feng,  D. Ghosh,  
 M. Goldey,  P. R. Horn,  L. D. Jacobson,  I. Kaliman,  T. Kus,  A. Landau,  
 Jie Liu,  E. I. Proynov,  R. M. Richard,  R. P. Steele,  E. J. Sundstrom,  
 H. L. Woodcock III,  P. M. Zimmerman,  D. Zuev,  B. Albrecht,  E. Alguire,  
 S. A. Baeppler,  D. Barton,  Z. Benda,  Y. A. Bernard,  E. J. Berquist,  
 K. B. Bravaya,  H. Burton,  D. Casanova,  Chun-Min Chang,  Yunqing Chen,  
 A. Chien,  K. D. Closser,  M. P. Coons,  S. Coriani,  S. Dasgupta,  
 A. L. Dempwolff,  M. Diedenhofen,  Hainam Do,  R. G. Edgar,  Po-Tung Fang,  
 S. Faraji,  S. Fatehi,  Qingguo Feng,  K. D. Fenk,  J. Fosso-Tande,  
 Qinghui Ge,  A. Ghysels,  G. Gidofalvi,  J. Gomes,  J. Gonthier,  A. Gunina,  
 D. Hait,  M. W. D. Hanson-Heine,  P. H. P. Harbach,  A. W. Hauser,  
 J. E. Herr,  E. G. Hohenstein,  Z. C. Holden,  Kerwin Hui,  B. C. Huynh,  
 T.-C. Jagau,  Hyunjun Ji,  B. Kaduk,  K. Khistyaev,  Jaehoon Kim,  
 P. Klunzinger,  K. Koh,  D. Kosenkov,  L. Koulias,  T. Kowalczyk,  
 C. M. Krauter,  A. Kunitsa,  Ka Un Lao,  A. Laurent,  K. V. Lawler,  
 Joonho Lee,  D. Lefrancois,  S. Lehtola,  D. S. Levine,  Yi-Pei Li,  
 You-Sheng Lin,  Fenglai Liu,  E. Livshits,  A. Luenser,  P. Manohar,  
 E. Mansoor,  S. F. Manzer,  Shan-Ping Mao,  Yuezhi Mao,  N. Mardirossian,  
 A. V. Marenich,  T. Markovich,  L. A. Martinez-Martinez,  S. A. Maurer,  
 N. J. Mayhall,  S. C. McKenzie,  J.-M. Mewes,  A. F. Morrison,  
 J. W. Mullinax,  K. Nanda,  T. S. Nguyen-Beck,  R. Olivares-Amaya,  
 J. A. Parkhill,  T. M. Perrine,  F. Plasser,  P. Pokhilko,  S. Prager,  
 A. Prociuk,  E. Ramos,  D. R. Rehn,  F. Rob,  M. Schneider,  N. Sergueev,  
 S. M. Sharada,  S. Sharma,  D. W. Small,  T. Stauch,  T. Stein,  
 Yu-Chuan Su,  A. J. W. Thom,  A. Tkatchenko,  T. Tsuchimochi,  N. M. Tubman,  
 L. Vogt,  M. L. Vidal,  O. Vydrov,  M. A. Watson,  J. Wenzel,  
 M. de Wergifosse,  T. A. Wesolowski,  A. White,  J. Witte,  A. Yamada,  
 Jun Yang,  K. Yao,  S. Yeganeh,  S. R. Yost,  Zhi-Qiang You,  A. Zech,  
 Igor Ying Zhang,  Xing Zhang,  Yan Zhao,  Ying Zhu,  B. R. Brooks,  
 G. K. L. Chan,  C. J. Cramer,  M. S. Gordon,  W. J. Hehre,  A. Klamt,  
 M. W. Schmidt,  C. D. Sherrill,  D. G. Truhlar,  A. Aspuru-Guzik,  R. Baer,  
 A. T. Bell,  N. A. Besley,  Jeng-Da Chai,  A. E. DePrince, III,  
 R. A. DiStasio Jr.,  A. Dreuw,  B. D. Dunietz,  T. R. Furlani,  
 Chao-Ping Hsu,  Yousung Jung,  Jing Kong,  D. S. Lambrecht,  WanZhen Liang,  
 C. Ochsenfeld,  V. A. Rassolov,  L. V. Slipchenko,  J. E. Subotnik,  
 T. Van Voorhis,  J. M. Herbert,  A. I. Krylov,  P. M. W. Gill,  M. Head-Gordon

 Contributors to earlier versions of Q-Chem not listed above: 
 R. D. Adamson,  B. Austin,  J. Baker,  G. J. O. Beran,  K. Brandhorst,  
 S. T. Brown,  E. F. C. Byrd,  A. K. Chakraborty,  C.-L. Cheng,  
 Siu Hung Chien,  D. M. Chipman,  D. L. Crittenden,  H. Dachsel,  
 R. J. Doerksen,  A. D. Dutoi,  L. Fusti-Molnar,  W. A. Goddard III,  
 A. Golubeva-Zadorozhnaya,  S. R. Gwaltney,  G. Hawkins,  A. Heyden,  
 S. Hirata,  G. Kedziora,  F. J. Keil,  C. Kelley,  Jihan Kim,  R. A. King,  
 R. Z. Khaliullin,  P. P. Korambath,  W. Kurlancheek,  A. M. Lee,  M. S. Lee,  
 S. V. Levchenko,  Ching Yeh Lin,  D. Liotard,  R. C. Lochan,  I. Lotan,  
 P. E. Maslen,  N. Nair,  D. P. O'Neill,  D. Neuhauser,  E. Neuscamman,  
 C. M. Oana,  R. Olson,  B. Peters,  R. Peverati,  P. A. Pieniazek,  
 Y. M. Rhee,  J. Ritchie,  M. A. Rohrdanz,  E. Rosta,  N. J. Russ,  
 H. F. Schaefer III,  N. E. Schultz,  N. Shenvi,  A. C. Simmonett,  A. Sodt,  
 D. Stuck,  K. S. Thanthiriwatte,  V. Vanovschi,  Tao Wang,  A. Warshel,  
 C. F. Williams,  Q. Wu,  X. Xu,  W. Zhang

 Please cite Q-Chem as follows:
 Y. Shao et al., Mol. Phys. 113, 184-215 (2015)
 DOI: 10.1080/00268976.2014.952696

 Q-Chem 5.1.1 for Intel X86 EM64T Linux

 Parts of Q-Chem use Armadillo 8.300.2 (Tropical Shenanigans).
 http://arma.sourceforge.net/

 Q-Chem begins on Sun Nov  1 19:47:21 2020  

Host: n0048.mhg0
0

     Scratch files written to /local/scratch/users/yhljason/HCP_PW6B95_aug-pc-4.inp20201101194717//
Input Ideriv = 2
Curr. Ideriv = -1
Max.  Ideriv = 2
Input Ideriv = 1
Curr. Ideriv = 2
Max.  Ideriv = 1

Checking the input file for inconsistencies... 	...done.

--------------------------------------------------------------
User input:
--------------------------------------------------------------
$molecule
0 1
C1      0.0000  0.0000  0.0000
H2      0.0000  0.0000  1.0670
P3      0.0000  0.0000  -1.5420
$end

$rem
jobtype sp
method PW6B95
xc_grid 000099000590
basis aug-pc-4
max_scf_cycles 200
thresh 14
scf_convergence 8
scf_algorithm gdm
symmetry false
sym_ignore true
unrestricted True
gen_scfman true
internal_stability_iter 15
internal_stability_davidson_iter 200
mem_total 64000
mem_static 1500
n_frozen_core 0
$end



--------------------------------------------------------------
 ----------------------------------------------------------------
             Standard Nuclear Orientation (Angstroms)
    I     Atom           X                Y                Z
 ----------------------------------------------------------------
    1      C       0.0000000000     0.0000000000     0.0000000000
    2      H       0.0000000000     0.0000000000     1.0670000000
    3      P       0.0000000000     0.0000000000    -1.5420000000
 ----------------------------------------------------------------
 Nuclear Repulsion Energy =    36.9039353450 hartrees
 There are       11 alpha and       11 beta electrons
 Requested basis set is aug-pc-4
 There are 88 shells and 374 basis functions

 Total QAlloc Memory Limit  64000 MB
 Mega-Array Size      1467 MB
 MEM_STATIC part      1500 MB

                       Distance Matrix (Angstroms)
             C (  1)   H (  2)
   H (  2)  1.067000
   P (  3)  1.542000  2.609000
 
 A cutoff of  1.0D-14 yielded   3877 shell pairs
 There are     70619 function pairs (    133618 Cartesian)
 
 -------------------------------------------------------
 OpenMP Integral Computing Module                       
 Release: version 1.0, May 2013, Q-Chem Inc. Pittsburgh 
 -------------------------------------------------------
 Integral Job Info:
 Integral job number is                      11
 Integral operator is                         1
 short-range coefficients                     0
 long-range coefficients              100000000
 Omega coefficients                           0
 if combine SR and LR in K                    0
 Integral screening is                        0
 Integral computing path is                   2
 max size of driver memory is           6400000
 size of driver memory is               5498286
 size of scratch memory is             27847117
 max col of scratch BK array             194481
 max len of scratch array in speh3         5572
 max len of scratch index in speh4           72
 max int batch size is                      520
 min int batch size is                       52
 fixed nKL is                                 7
 max L of basis functions is                  5
 order of int derivative is                   0
 number of shells is                         88
 number of basis is                         513
 number of cartesian basis is               513
 number of contracted shell pairs          3877
 number of primitive shell pairs          12840
 maxK2 (contraction) of shell pair          225
 max number of K2 of shell pair               1
 max number of CS2 of shell pair            367
 max number of PS2 of shell pair            572
 mem total for path MDJ                  998666
 -------------------------------------------------------
 Smallest overlap matrix eigenvalue = 1.02E-06

 Scale SEOQF with 1.000000e-01/1.000000e-01/1.000000e-01

 Standard Electronic Orientation quadrupole field applied
 Nucleus-field energy     =    -0.0000000039 hartrees
 Guess from superposition of atomic densities
 Warning:  Energy on first SCF cycle will be non-variational
 SAD guess density has 22.000000 electrons

 -----------------------------------------------------------------------
  General SCF calculation program by
  Eric Jon Sundstrom, Paul Horn, Yuezhi Mao, Dmitri Zuev, Alec White,
  David Stuck, Shaama M.S., Shane Yost, Joonho Lee, David Small,
  Daniel Levine, Susi Lehtola, Hugh Burton, Evgeny Epifanovsky
 -----------------------------------------------------------------------
 Exchange:     0.2800 Hartree-Fock + 1.0000 PW6B95
 Correlation:  1.0000 PW6B95
 Using Euler-Maclaurin-Lebedev (99,590) quadrature formula
Running Object-Oriented UKS (UHF)
performing a single roothaan step with Fock from read density so that orbitals are available to all algorithms
 LTot/LBra/LKet=          18           9           9
 LTot/LBra/LKet=          18           9           9
 LTot/LBra/LKet=          18           9           9

 Q-Chem warning:

 in GenH1, ket side, handled with new code

 LTot/LBra/LKet=          18           9           9

 Q-Chem warning:

 in GenH1, ket side, handled with new code

 LTot/LBra/LKet=          18           9           9

 Q-Chem warning:

 in GenH1, ket side, handled with new code


 Q-Chem warning:

 in GenH1, ket side, handled with new code


 Q-Chem warning:

 in GenH1, ket side, handled with new code

 LTot/LBra/LBra=          18           9           9

 Q-Chem warning:

 in GenH1, bra side, handled with new code

energy of the guess density (C=0) -380.518571966801
We will preform up to 15 macro iterations over saddle points until a stable solution is found
Energy prior to optimization (guess energy) = -380.282236657850
Begin Timing: Total SCF Calculation
Begin Timing: SCF Single Stationary Point Calculation
begin iterations for algorithm: GDM          
the SCF tolerance is set to 1.00e-08
    1    -380.2822366579      3.31e-01     00000  Descent step
    2    -380.3148167802      3.11e-01     00000  Normal BFGS step
    3    -380.3705407182      3.24e-02     00000  Normal BFGS step
    4    -380.3742280997      8.75e-03     00000  Normal BFGS step
    5    -380.3751300778      1.83e-03     00000  Normal BFGS step
    6    -380.3751460189      2.95e-04     00000  Normal BFGS step
    7    -380.3751477771      1.07e-04     00000  Normal BFGS step
    8    -380.3751477941      1.45e-05     00000  Normal BFGS step
    9    -380.3751477947      1.19e-06     00000  Normal BFGS step
   10    -380.3751477947      1.52e-06     00000  Normal BFGS step
   11    -380.3751477947      5.89e-07     00000  Normal BFGS step
   12    -380.3751477947      7.44e-08     00000  Normal BFGS step
   13    -380.3751477947      1.82e-08     00000  Normal BFGS step
   14    -380.3751477947      5.04e-10     00000 Convergence criterion met
Timing for Single Stationary Point: 3389.00s (wall), 26943.70s (cpu)
Begin Timing: Stability
===================================================
Beginning Test for Internal Stability
===================================================
generating davidson guess vectors based on koopmans excitations
    1      5.93e-01     00000 Davidson Iteration
    2      9.06e-02     00000 Davidson Iteration
    3      4.41e-02     00000 Davidson Iteration
    4      4.51e-02     00000 Davidson Iteration
    5      3.70e-03     00000 Davidson Iteration
    6      7.92e-04     00000 Davidson Iteration
    7      2.04e-04     00000 Davidson Iteration
    8      1.63e-04     00000 Davidson Iteration
    9      1.11e-04     00000 Davidson Iteration
   10      2.58e-05     00000 Davidson Iteration
   11      9.43e-04     00000 Davidson Iteration
   12      9.38e-04     00000 Davidson Iteration
   13      1.04e-03     00000 Davidson Iteration
   14      4.41e-04     00000 Davidson Iteration
   15      1.23e-04     00000 Davidson Iteration
   16      3.64e-05     00000 Davidson Converged
converged_eigenvalues
   0.2068
   0.1362
   0.2068
Threshold for negative eigenvalues: -1.0e-05
solution was a local minimum (stable)
===================================================
End Test for Internal Stability
===================================================
Our SCF solution is stable!
Timing for Total SCF: 8914.00s (wall), 70857.83s (cpu)
 Total energy in the final basis set =     -380.3751477947
<S^2> =         -0.000000000
    ==================================================
              The end of Object-Oriented SCFman       
    ==================================================
 
 --------------------------------------------------------------
 
                    Orbital Energies (a.u.)
 --------------------------------------------------------------
 
 Alpha MOs
 -- Occupied --
-77.393 -10.333  -6.646  -4.780  -4.780  -4.777  -0.738  -0.563
 -0.378  -0.300  -0.300
 -- Virtual --
 -0.053  -0.053  -0.001   0.010   0.022   0.022   0.033   0.042
  0.042   0.049   0.056   0.074   0.074   0.079   0.087   0.087
  0.094   0.114   0.114   0.118   0.118   0.127   0.127   0.147
  0.155   0.160   0.175   0.175   0.175   0.189   0.189   0.198
  0.198   0.204   0.227   0.227   0.233   0.233   0.243   0.243
  0.253   0.253   0.275   0.282   0.282   0.283   0.283   0.296
  0.301   0.301   0.314   0.315   0.315   0.337   0.358   0.369
  0.369   0.387   0.387   0.389   0.389   0.412   0.412   0.423
  0.427   0.427   0.427   0.427   0.457   0.458   0.458   0.464
  0.464   0.465   0.465   0.500   0.500   0.506   0.506   0.512
  0.512   0.527   0.542   0.547   0.547   0.555   0.556   0.556
  0.584   0.584   0.604   0.604   0.605   0.605   0.615   0.615
  0.621   0.631   0.649   0.649   0.665   0.665   0.679   0.679
  0.687   0.725   0.725   0.729   0.729   0.733   0.733   0.745
  0.745   0.781   0.781   0.784   0.784   0.801   0.801   0.815
  0.824   0.824   0.843   0.861   0.861   0.895   0.930   0.930
  0.949   0.962   1.007   1.007   1.041   1.045   1.045   1.123
  1.123   1.140   1.143   1.143   1.182   1.182   1.209   1.253
  1.253   1.298   1.298   1.338   1.364   1.364   1.389   1.389
  1.496   1.559   1.559   1.585   1.594   1.594   1.656   1.691
  1.691   1.729   1.939   1.939   1.940   1.940   2.006   2.128
  2.128   2.147   2.147   2.221   2.275   2.275   2.325   2.325
  2.335   2.335   2.394   2.394   2.501   2.516   2.556   2.556
  2.694   2.819   2.819   2.830   2.830   2.888   2.888   2.890
  2.932   2.932   3.038   3.172   3.172   3.247   3.247   3.248
  3.309   3.309   3.369   3.574   3.574   3.578   3.665   3.665
  3.839   3.839   4.063   4.063   4.066   4.070   4.070   4.178
  4.178   4.216   4.216   4.368   4.368   4.435   4.444   4.444
  4.554   4.554   4.724   4.729   4.729   4.782   4.782   4.788
  4.788   4.882   4.882   4.948   5.095   5.336   5.336   5.395
  5.395   5.442   5.442   5.557   5.570   5.570   5.715   6.026
  6.026   6.257   6.268   6.268   6.473   6.473   6.574   6.574
  6.967   6.967   7.021   7.275   7.340   7.340   7.352   7.352
  7.364   7.615   7.615   8.352   8.358   8.358   8.726   8.799
  8.799   8.807   8.807   9.586   9.762   9.762  10.234  10.234
 10.402  10.402  10.447  10.447  10.490  10.490  10.737  10.737
 10.749  10.749  10.799  10.799  10.851  10.923  10.923  11.229
 11.395  11.395  11.469  11.469  11.596  11.596  11.694  11.694
 11.790  11.843  11.843  11.864  11.864  12.157  12.395  12.395
 12.500  12.500  12.547  12.547  12.551  13.466  13.466  13.484
 13.531  13.531  14.720  15.637  15.637  16.365  16.382  16.382
 16.711  16.711  16.930  16.930  17.000  17.118  17.118  17.932
 18.342  18.342  18.627  18.627  20.230  20.420  20.420  21.542
 23.549  23.549  25.299  25.626  32.063  32.063  32.401  32.401
 34.179  40.931  59.294  59.294  59.539  59.539  60.127  75.371
 90.399  90.399  91.663
 
 Beta MOs
 -- Occupied --
-77.393 -10.333  -6.646  -4.780  -4.780  -4.777  -0.738  -0.563
 -0.378  -0.300  -0.300
 -- Virtual --
 -0.053  -0.053  -0.001   0.010   0.022   0.022   0.033   0.042
  0.042   0.049   0.056   0.074   0.074   0.079   0.087   0.087
  0.094   0.114   0.114   0.118   0.118   0.127   0.127   0.147
  0.155   0.160   0.175   0.175   0.175   0.189   0.189   0.198
  0.198   0.204   0.227   0.227   0.233   0.233   0.243   0.243
  0.253   0.253   0.275   0.282   0.282   0.283   0.283   0.296
  0.301   0.301   0.314   0.315   0.315   0.337   0.358   0.369
  0.369   0.387   0.387   0.389   0.389   0.412   0.412   0.423
  0.427   0.427   0.427   0.427   0.457   0.458   0.458   0.464
  0.464   0.465   0.465   0.500   0.500   0.506   0.506   0.512
  0.512   0.527   0.542   0.547   0.547   0.555   0.556   0.556
  0.584   0.584   0.604   0.604   0.605   0.605   0.615   0.615
  0.621   0.631   0.649   0.649   0.665   0.665   0.679   0.679
  0.687   0.725   0.725   0.729   0.729   0.733   0.733   0.745
  0.745   0.781   0.781   0.784   0.784   0.801   0.801   0.815
  0.824   0.824   0.843   0.861   0.861   0.895   0.930   0.930
  0.949   0.962   1.007   1.007   1.041   1.045   1.045   1.123
  1.123   1.140   1.143   1.143   1.182   1.182   1.209   1.253
  1.253   1.298   1.298   1.338   1.364   1.364   1.389   1.389
  1.496   1.559   1.559   1.585   1.594   1.594   1.656   1.691
  1.691   1.729   1.939   1.939   1.940   1.940   2.006   2.128
  2.128   2.147   2.147   2.221   2.275   2.275   2.325   2.325
  2.335   2.335   2.394   2.394   2.501   2.516   2.556   2.556
  2.694   2.819   2.819   2.830   2.830   2.888   2.888   2.890
  2.932   2.932   3.038   3.172   3.172   3.247   3.247   3.248
  3.309   3.309   3.369   3.574   3.574   3.578   3.665   3.665
  3.839   3.839   4.063   4.063   4.066   4.070   4.070   4.178
  4.178   4.216   4.216   4.368   4.368   4.435   4.444   4.444
  4.554   4.554   4.724   4.729   4.729   4.782   4.782   4.788
  4.788   4.882   4.882   4.948   5.095   5.336   5.336   5.395
  5.395   5.442   5.442   5.557   5.570   5.570   5.715   6.026
  6.026   6.257   6.268   6.268   6.473   6.473   6.574   6.574
  6.967   6.967   7.021   7.275   7.340   7.340   7.352   7.352
  7.364   7.615   7.615   8.352   8.358   8.358   8.726   8.799
  8.799   8.807   8.807   9.586   9.762   9.762  10.234  10.234
 10.402  10.402  10.447  10.447  10.490  10.490  10.737  10.737
 10.749  10.749  10.799  10.799  10.851  10.923  10.923  11.229
 11.395  11.395  11.469  11.469  11.596  11.596  11.694  11.694
 11.790  11.843  11.843  11.864  11.864  12.157  12.395  12.395
 12.500  12.500  12.547  12.547  12.551  13.466  13.466  13.484
 13.531  13.531  14.720  15.637  15.637  16.365  16.382  16.382
 16.711  16.711  16.930  16.930  17.000  17.118  17.118  17.932
 18.342  18.342  18.627  18.627  20.230  20.420  20.420  21.542
 23.549  23.549  25.299  25.626  32.063  32.063  32.401  32.401
 34.179  40.931  59.294  59.294  59.539  59.539  60.127  75.371
 90.399  90.399  91.663
 --------------------------------------------------------------
 
          Ground-State Mulliken Net Atomic Charges

     Atom                 Charge (a.u.)    Spin (a.u.)
  --------------------------------------------------------
      1 C                    -0.406248      -0.000000
      2 H                     0.667920       0.000000
      3 P                    -0.261672       0.000000
  --------------------------------------------------------
  Sum of atomic charges =    -0.000000
  Sum of spin   charges =    -0.000000

 -----------------------------------------------------------------
                    Cartesian Multipole Moments
 -----------------------------------------------------------------
    Charge (ESU x 10^10)
                -0.0000
    Dipole Moment (Debye)
         X      -0.0000      Y       0.0000      Z       0.3136
       Tot       0.3136
    Quadrupole Moments (Debye-Ang)
        XX     -19.8766     XY       0.0000     YY     -19.8766
        XZ       0.0000     YZ      -0.0000     ZZ     -16.0272
    Octopole Moments (Debye-Ang^2)
       XXX       0.0000    XXY       0.0000    XYY       0.0000
       YYY       0.0000    XXZ      18.6158    XYZ      -0.0000
       YYZ      18.6158    XZZ      -0.0000    YZZ       0.0000
       ZZZ      54.5267
    Hexadecapole Moments (Debye-Ang^3)
      XXXX     -29.4327   XXXY       0.0000   XXYY      -9.8109
      XYYY       0.0000   YYYY     -29.4327   XXXZ       0.0000
      XXYZ      -0.0000   XYYZ       0.0000   YYYZ      -0.0000
      XXZZ     -38.9003   XYZZ       0.0000   YYZZ     -38.9003
      XZZZ       0.0000   YZZZ      -0.0000   ZZZZ    -202.5459
 -----------------------------------------------------------------
Archival summary:
1\1\n0048.mhg0\SP\ProcedureUnspecified\BasisUnspecified\111\yhljason\SunNov122:20:372020SunNov122:20:372020\0\\#,ProcedureUnspecified,BasisUnspecified,\\0,1\P\C,1,1.542\H,2,1.067,1,180\\\@

 Total job time:  9196.67s(wall), 73063.62s(cpu) 
 Sun Nov  1 22:20:37 2020

        *************************************************************
        *                                                           *
        *  Thank you very much for using Q-Chem.  Have a nice day.  *
        *                                                           *
        *************************************************************


