Q-Chem Developer Version!
                  Welcome to Q-Chem
     A Quantum Leap Into The Future Of Chemistry


 Q-Chem 5.1, Q-Chem, Inc., Pleasanton, CA (2018)

 Yihan Shao,  Zhengting Gan,  E. Epifanovsky,  A. T. B. Gilbert,  M. Wormit,  
 J. Kussmann,  A. W. Lange,  A. Behn,  Jia Deng,  Xintian Feng,  D. Ghosh,  
 M. Goldey,  P. R. Horn,  L. D. Jacobson,  I. Kaliman,  T. Kus,  A. Landau,  
 Jie Liu,  E. I. Proynov,  R. M. Richard,  R. P. Steele,  E. J. Sundstrom,  
 H. L. Woodcock III,  P. M. Zimmerman,  D. Zuev,  B. Albrecht,  E. Alguire,  
 S. A. Baeppler,  D. Barton,  Z. Benda,  Y. A. Bernard,  E. J. Berquist,  
 K. B. Bravaya,  H. Burton,  D. Casanova,  Chun-Min Chang,  Yunqing Chen,  
 A. Chien,  K. D. Closser,  M. P. Coons,  S. Coriani,  S. Dasgupta,  
 A. L. Dempwolff,  M. Diedenhofen,  Hainam Do,  R. G. Edgar,  Po-Tung Fang,  
 S. Faraji,  S. Fatehi,  Qingguo Feng,  K. D. Fenk,  J. Fosso-Tande,  
 Qinghui Ge,  A. Ghysels,  G. Gidofalvi,  J. Gomes,  J. Gonthier,  A. Gunina,  
 D. Hait,  M. W. D. Hanson-Heine,  P. H. P. Harbach,  A. W. Hauser,  
 J. E. Herr,  E. G. Hohenstein,  Z. C. Holden,  Kerwin Hui,  B. C. Huynh,  
 T.-C. Jagau,  Hyunjun Ji,  B. Kaduk,  K. Khistyaev,  Jaehoon Kim,  
 P. Klunzinger,  K. Koh,  D. Kosenkov,  L. Koulias,  T. Kowalczyk,  
 C. M. Krauter,  A. Kunitsa,  Ka Un Lao,  A. Laurent,  K. V. Lawler,  
 Joonho Lee,  D. Lefrancois,  S. Lehtola,  D. S. Levine,  Yi-Pei Li,  
 You-Sheng Lin,  Fenglai Liu,  E. Livshits,  A. Luenser,  P. Manohar,  
 E. Mansoor,  S. F. Manzer,  Shan-Ping Mao,  Yuezhi Mao,  N. Mardirossian,  
 A. V. Marenich,  T. Markovich,  L. A. Martinez-Martinez,  S. A. Maurer,  
 N. J. Mayhall,  S. C. McKenzie,  J.-M. Mewes,  A. F. Morrison,  
 J. W. Mullinax,  K. Nanda,  T. S. Nguyen-Beck,  R. Olivares-Amaya,  
 J. A. Parkhill,  T. M. Perrine,  F. Plasser,  P. Pokhilko,  S. Prager,  
 A. Prociuk,  E. Ramos,  D. R. Rehn,  F. Rob,  M. Schneider,  N. Sergueev,  
 S. M. Sharada,  S. Sharma,  D. W. Small,  T. Stauch,  T. Stein,  
 Yu-Chuan Su,  A. J. W. Thom,  A. Tkatchenko,  T. Tsuchimochi,  N. M. Tubman,  
 L. Vogt,  M. L. Vidal,  O. Vydrov,  M. A. Watson,  J. Wenzel,  
 M. de Wergifosse,  T. A. Wesolowski,  A. White,  J. Witte,  A. Yamada,  
 Jun Yang,  K. Yao,  S. Yeganeh,  S. R. Yost,  Zhi-Qiang You,  A. Zech,  
 Igor Ying Zhang,  Xing Zhang,  Yan Zhao,  Ying Zhu,  B. R. Brooks,  
 G. K. L. Chan,  C. J. Cramer,  M. S. Gordon,  W. J. Hehre,  A. Klamt,  
 M. W. Schmidt,  C. D. Sherrill,  D. G. Truhlar,  A. Aspuru-Guzik,  R. Baer,  
 A. T. Bell,  N. A. Besley,  Jeng-Da Chai,  A. E. DePrince, III,  
 R. A. DiStasio Jr.,  A. Dreuw,  B. D. Dunietz,  T. R. Furlani,  
 Chao-Ping Hsu,  Yousung Jung,  Jing Kong,  D. S. Lambrecht,  WanZhen Liang,  
 C. Ochsenfeld,  V. A. Rassolov,  L. V. Slipchenko,  J. E. Subotnik,  
 T. Van Voorhis,  J. M. Herbert,  A. I. Krylov,  P. M. W. Gill,  M. Head-Gordon

 Contributors to earlier versions of Q-Chem not listed above: 
 R. D. Adamson,  B. Austin,  J. Baker,  G. J. O. Beran,  K. Brandhorst,  
 S. T. Brown,  E. F. C. Byrd,  A. K. Chakraborty,  C.-L. Cheng,  
 Siu Hung Chien,  D. M. Chipman,  D. L. Crittenden,  H. Dachsel,  
 R. J. Doerksen,  A. D. Dutoi,  L. Fusti-Molnar,  W. A. Goddard III,  
 A. Golubeva-Zadorozhnaya,  S. R. Gwaltney,  G. Hawkins,  A. Heyden,  
 S. Hirata,  G. Kedziora,  F. J. Keil,  C. Kelley,  Jihan Kim,  R. A. King,  
 R. Z. Khaliullin,  P. P. Korambath,  W. Kurlancheek,  A. M. Lee,  M. S. Lee,  
 S. V. Levchenko,  Ching Yeh Lin,  D. Liotard,  R. C. Lochan,  I. Lotan,  
 P. E. Maslen,  N. Nair,  D. P. O'Neill,  D. Neuhauser,  E. Neuscamman,  
 C. M. Oana,  R. Olson,  B. Peters,  R. Peverati,  P. A. Pieniazek,  
 Y. M. Rhee,  J. Ritchie,  M. A. Rohrdanz,  E. Rosta,  N. J. Russ,  
 H. F. Schaefer III,  N. E. Schultz,  N. Shenvi,  A. C. Simmonett,  A. Sodt,  
 D. Stuck,  K. S. Thanthiriwatte,  V. Vanovschi,  Tao Wang,  A. Warshel,  
 C. F. Williams,  Q. Wu,  X. Xu,  W. Zhang

 Please cite Q-Chem as follows:
 Y. Shao et al., Mol. Phys. 113, 184-215 (2015)
 DOI: 10.1080/00268976.2014.952696

 Q-Chem 5.1.1 for Intel X86 EM64T Linux

 Parts of Q-Chem use Armadillo 8.300.2 (Tropical Shenanigans).
 http://arma.sourceforge.net/

 Q-Chem begins on Sun Nov  1 19:47:21 2020  

Host: n0053.mhg0
0

     Scratch files written to /local/scratch/users/yhljason/LiH_PW6B95_aug-pc-4.inp20201101194718//
Input Ideriv = 2
Curr. Ideriv = -1
Max.  Ideriv = 2
Input Ideriv = 1
Curr. Ideriv = 2
Max.  Ideriv = 1

Checking the input file for inconsistencies... 	...done.

--------------------------------------------------------------
User input:
--------------------------------------------------------------
$molecule
0 1
Li       0.0000  0.0000  0.0000
H       0.0000  0.0000  1.5949
$end

$rem
jobtype sp
method PW6B95
xc_grid 000099000590
basis aug-pc-4
max_scf_cycles 200
thresh 14
scf_convergence 8
scf_algorithm gdm
symmetry false
sym_ignore true
unrestricted True
gen_scfman true
internal_stability_iter 15
internal_stability_davidson_iter 200
mem_total 64000
mem_static 1500
n_frozen_core 0
$end



--------------------------------------------------------------
 ----------------------------------------------------------------
             Standard Nuclear Orientation (Angstroms)
    I     Atom           X                Y                Z
 ----------------------------------------------------------------
    1      Li      0.0000000000     0.0000000000     0.0000000000
    2      H       0.0000000000     0.0000000000     1.5949000000
 ----------------------------------------------------------------
 Nuclear Repulsion Energy =     0.9953800441 hartrees
 There are        2 alpha and        2 beta electrons
 Requested basis set is aug-pc-4
 There are 47 shells and 171 basis functions

 Total QAlloc Memory Limit  64000 MB
 Mega-Array Size      1467 MB
 MEM_STATIC part      1500 MB

                       Distance Matrix (Angstroms)
             Li(  1)
   H (  2)  1.594900
 
 A cutoff of  1.0D-14 yielded   1128 shell pairs
 There are     15092 function pairs (     25377 Cartesian)
 
 -------------------------------------------------------
 OpenMP Integral Computing Module                       
 Release: version 1.0, May 2013, Q-Chem Inc. Pittsburgh 
 -------------------------------------------------------
 Integral Job Info:
 Integral job number is                      11
 Integral operator is                         1
 short-range coefficients                     0
 long-range coefficients              100000000
 Omega coefficients                           0
 if combine SR and LR in K                    0
 Integral screening is                        0
 Integral computing path is                   2
 max size of driver memory is           3200000
 size of driver memory is               1704330
 size of scratch memory is             29509040
 max col of scratch BK array              50625
 max len of scratch array in speh3         2114
 max len of scratch index in speh4           50
 max int batch size is                      520
 min int batch size is                       52
 fixed nKL is                                40
 max L of basis functions is                  4
 order of int derivative is                   0
 number of shells is                         47
 number of basis is                         221
 number of cartesian basis is               221
 number of contracted shell pairs          1128
 number of primitive shell pairs           3008
 maxK2 (contraction) of shell pair          144
 max number of K2 of shell pair               1
 max number of CS2 of shell pair            154
 max number of PS2 of shell pair            432
 mem total for path MDJ                  660646
 -------------------------------------------------------
 Smallest overlap matrix eigenvalue = 1.23E-05

 Scale SEOQF with 1.000000e-01/1.000000e-01/1.000000e-01

 Standard Electronic Orientation quadrupole field applied
 Nucleus-field energy     =    -0.0000000003 hartrees
 Guess from superposition of atomic densities
 Warning:  Energy on first SCF cycle will be non-variational
 SAD guess density has 4.000000 electrons

 -----------------------------------------------------------------------
  General SCF calculation program by
  Eric Jon Sundstrom, Paul Horn, Yuezhi Mao, Dmitri Zuev, Alec White,
  David Stuck, Shaama M.S., Shane Yost, Joonho Lee, David Small,
  Daniel Levine, Susi Lehtola, Hugh Burton, Evgeny Epifanovsky
 -----------------------------------------------------------------------
 Exchange:     0.2800 Hartree-Fock + 1.0000 PW6B95
 Correlation:  1.0000 PW6B95
 Using Euler-Maclaurin-Lebedev (99,590) quadrature formula
Running Object-Oriented UKS (UHF)
performing a single roothaan step with Fock from read density so that orbitals are available to all algorithms
energy of the guess density (C=0) -7.964262918040
We will preform up to 15 macro iterations over saddle points until a stable solution is found
Energy prior to optimization (guess energy) = -8.074222376688
Begin Timing: Total SCF Calculation
Begin Timing: SCF Single Stationary Point Calculation
begin iterations for algorithm: GDM          
the SCF tolerance is set to 1.00e-08
    1      -8.0742223767      8.55e-02     00000  Normal BFGS step
    2      -8.0828626798      1.09e-01     00000  Normal BFGS step
    3      -8.0971580822      9.05e-03     00000  Normal BFGS step
    4      -8.0973625366      1.79e-03     00000  Normal BFGS step
    5      -8.0973674391      1.51e-04     00000  Normal BFGS step
    6      -8.0973675148      2.44e-05     00000  Normal BFGS step
    7      -8.0973675179      1.66e-06     00000  Normal BFGS step
    8      -8.0973675179      2.29e-07     00000  Normal BFGS step
    9      -8.0973675179      2.24e-08     00000  Normal BFGS step
   10      -8.0973675179      2.61e-09     00000 Convergence criterion met
Timing for Single Stationary Point: 61.00s (wall), 487.42s (cpu)
Begin Timing: Stability
===================================================
Beginning Test for Internal Stability
===================================================
generating davidson guess vectors based on koopmans excitations
    1      3.22e-01     00000 Davidson Iteration
    2      1.03e-01     00000 Davidson Iteration
    3      1.16e-02     00000 Davidson Iteration
    4      9.23e-04     00000 Davidson Iteration
    5      1.90e-04     00000 Davidson Iteration
    6      3.97e-05     00000 Davidson Converged
converged_eigenvalues
   0.1816
   0.2602
Threshold for negative eigenvalues: -1.0e-05
solution was a local minimum (stable)
===================================================
End Test for Internal Stability
===================================================
Our SCF solution is stable!
Timing for Total SCF: 130.00s (wall), 1036.73s (cpu)
 Total energy in the final basis set =       -8.0973675179
<S^2> =          0.000000000
    ==================================================
              The end of Object-Oriented SCFman       
    ==================================================
 
 --------------------------------------------------------------
 
                    Orbital Energies (a.u.)
 --------------------------------------------------------------
 
 Alpha MOs
 -- Occupied --
 -2.050  -0.203
 -- Virtual --
 -0.047  -0.004  -0.004   0.006   0.015   0.027   0.027   0.040
  0.046   0.051   0.052   0.052   0.053   0.053   0.093   0.103
  0.103   0.105   0.105   0.107   0.107   0.111   0.111   0.121
  0.127   0.139   0.157   0.157   0.164   0.165   0.165   0.167
  0.167   0.169   0.169   0.171   0.171   0.226   0.227   0.227
  0.278   0.292   0.292   0.294   0.332   0.360   0.360   0.368
  0.368   0.390   0.390   0.404   0.404   0.429   0.458   0.458
  0.462   0.462   0.476   0.535   0.535   0.562   0.564   0.564
  0.601   0.601   0.614   0.614   0.615   0.638   0.652   0.652
  0.779   0.799   0.799   0.852   0.890   0.890   0.993   0.993
  1.048   1.078   1.078   1.101   1.101   1.190   1.229   1.229
  1.277   1.277   1.451   1.474   1.474   1.532   1.589   1.589
  1.715   1.936   2.260   2.354   2.354   2.417   2.417   2.457
  2.457   2.688   2.695   2.695   2.713   2.713   2.777   2.777
  3.042   3.042   3.097   3.118   3.118   3.380   3.473   3.473
  3.646   3.646   3.717   3.717   3.812   4.013   4.209   4.209
  4.553   4.889   4.889   5.331   5.331   5.529   5.529   5.991
  8.383   8.383   8.754   8.883   8.883   9.126   9.126   9.271
 10.339  10.834  12.371  12.371  12.561  12.561  12.828  12.916
 12.916  16.831  16.831  16.838  16.838  16.858  16.858  16.872
 16.931  16.931  23.146  23.146  23.523  38.365  90.158  90.158
 90.425
 
 Beta MOs
 -- Occupied --
 -2.050  -0.203
 -- Virtual --
 -0.047  -0.004  -0.004   0.006   0.015   0.027   0.027   0.040
  0.046   0.051   0.052   0.052   0.053   0.053   0.093   0.103
  0.103   0.105   0.105   0.107   0.107   0.111   0.111   0.121
  0.127   0.139   0.157   0.157   0.164   0.165   0.165   0.167
  0.167   0.169   0.169   0.171   0.171   0.226   0.227   0.227
  0.278   0.292   0.292   0.294   0.332   0.360   0.360   0.368
  0.368   0.390   0.390   0.404   0.404   0.429   0.458   0.458
  0.462   0.462   0.476   0.535   0.535   0.562   0.564   0.564
  0.601   0.601   0.614   0.614   0.615   0.638   0.652   0.652
  0.779   0.799   0.799   0.852   0.890   0.890   0.993   0.993
  1.048   1.078   1.078   1.101   1.101   1.190   1.229   1.229
  1.277   1.277   1.451   1.474   1.474   1.532   1.589   1.589
  1.715   1.936   2.260   2.354   2.354   2.417   2.417   2.457
  2.457   2.688   2.695   2.695   2.713   2.713   2.777   2.777
  3.042   3.042   3.097   3.118   3.118   3.380   3.473   3.473
  3.646   3.646   3.717   3.717   3.812   4.013   4.209   4.209
  4.553   4.889   4.889   5.331   5.331   5.529   5.529   5.991
  8.383   8.383   8.754   8.883   8.883   9.126   9.126   9.271
 10.339  10.834  12.371  12.371  12.561  12.561  12.828  12.916
 12.916  16.831  16.831  16.838  16.838  16.858  16.858  16.872
 16.931  16.931  23.146  23.146  23.523  38.365  90.158  90.158
 90.425
 --------------------------------------------------------------
 
          Ground-State Mulliken Net Atomic Charges

     Atom                 Charge (a.u.)    Spin (a.u.)
  --------------------------------------------------------
      1 Li                    0.608621      -0.000000
      2 H                    -0.608621       0.000000
  --------------------------------------------------------
  Sum of atomic charges =     0.000000
  Sum of spin   charges =    -0.000000

 -----------------------------------------------------------------
                    Cartesian Multipole Moments
 -----------------------------------------------------------------
    Charge (ESU x 10^10)
                 0.0000
    Dipole Moment (Debye)
         X      -0.0000      Y       0.0000      Z      -5.7332
       Tot       5.7332
    Quadrupole Moments (Debye-Ang)
        XX      -5.4538     XY      -0.0000     YY      -5.4538
        XZ       0.0000     YZ       0.0000     ZZ     -11.7951
    Octopole Moments (Debye-Ang^2)
       XXX      -0.0000    XXY       0.0000    XYY      -0.0000
       YYY       0.0000    XXZ      -6.2787    XYZ       0.0000
       YYZ      -6.2787    XZZ      -0.0000    YZZ       0.0000
       ZZZ     -25.9805
    Hexadecapole Moments (Debye-Ang^3)
      XXXX     -13.2700   XXXY       0.0000   XXYY      -4.4233
      XYYY      -0.0000   YYYY     -13.2700   XXXZ      -0.0000
      XXYZ       0.0000   XYYZ      -0.0000   YYYZ       0.0000
      XXZZ     -12.2761   XYZZ       0.0000   YYZZ     -12.2761
      XZZZ      -0.0000   YZZZ       0.0000   ZZZZ     -68.7710
 -----------------------------------------------------------------
Archival summary:
1\1\n0053.mhg0\SP\ProcedureUnspecified\BasisUnspecified\i11\yhljason\SunNov119:49:402020SunNov119:49:402020\0\\#,ProcedureUnspecified,BasisUnspecified,\\0,1\Li\H,1,1.5949\\\@

 Total job time:  139.32s(wall), 1105.45s(cpu) 
 Sun Nov  1 19:49:40 2020

        *************************************************************
        *                                                           *
        *  Thank you very much for using Q-Chem.  Have a nice day.  *
        *                                                           *
        *************************************************************


