                  Welcome to Q-Chem
     A Quantum Leap Into The Future Of Chemistry


 Q-Chem 5.3 (devel), Q-Chem, Inc., Pleasanton, CA (2020)

 Yihan Shao,  Zhengting Gan,  E. Epifanovsky,  A. T. B. Gilbert,  M. Wormit,  
 J. Kussmann,  A. W. Lange,  A. Behn,  Jia Deng,  Xintian Feng,  D. Ghosh,  
 M. Goldey,  P. R. Horn,  L. D. Jacobson,  I. Kaliman,  T. Kus,  A. Landau,  
 Jie Liu,  E. I. Proynov,  R. M. Richard,  R. P. Steele,  E. J. Sundstrom,  
 H. L. Woodcock III,  P. M. Zimmerman,  D. Zuev,  B. Alam,  B. Albrecht,  
 E. Alguire,  S. A. Baeppler,  D. Barton,  Z. Benda,  Y. A. Bernard,  
 E. J. Berquist,  K. B. Bravaya,  H. Burton,  K. Carter-Fenk,  D. Casanova,  
 Chun-Min Chang,  Yunqing Chen,  A. Chien,  K. D. Closser,  M. P. Coons,  
 S. Coriani,  S. Dasgupta,  A. L. Dempwolff,  M. Diedenhofen,  Hainam Do,  
 R. G. Edgar,  Po-Tung Fang,  S. Faraji,  S. Fatehi,  Qingguo Feng,  
 J. Fosso-Tande,  J. Gayvert,  Qinghui Ge,  A. Ghysels,  G. Gidofalvi,  
 J. Gomes,  J. Gonthier,  A. Gunina,  D. Hait,  M. W. D. Hanson-Heine,  
 P. H. P. Harbach,  A. W. Hauser,  M. F. Herbst,  J. E. Herr,  
 E. G. Hohenstein,  Z. C. Holden,  Kerwin Hui,  B. C. Huynh,  T.-C. Jagau,  
 Hyunjun Ji,  B. Kaduk,  K. Khistyaev,  Jaehoon Kim,  P. Klunzinger,  K. Koh,  
 D. Kosenkov,  L. Koulias,  T. Kowalczyk,  C. M. Krauter,  A. Kunitsa,  
 Ka Un Lao,  A. Laurent,  K. V. Lawler,  Joonho Lee,  D. Lefrancois,  
 S. Lehtola,  D. S. Levine,  Yi-Pei Li,  You-Sheng Lin,  Fenglai Liu,  
 Kuan-Yu Liu,  E. Livshits,  M. Loipersberger,  A. Luenser,  P. Manohar,  
 E. Mansoor,  S. F. Manzer,  Shan-Ping Mao,  Yuezhi Mao,  N. Mardirossian,  
 A. V. Marenich,  T. Markovich,  L. A. Martinez-Martinez,  S. A. Maurer,  
 N. J. Mayhall,  S. C. McKenzie,  J.-M. Mewes,  P. Morgante,  A. F. Morrison,  
 J. W. Mullinax,  K. Nanda,  T. S. Nguyen-Beck,  R. Olivares-Amaya,  
 K. J. Oosterbaan,  J. A. Parkhill,  S. K. Paul,  F. Pavosevic,  Zheng Pei,  
 T. M. Perrine,  F. Plasser,  P. Pokhilko,  S. Prager,  A. Prociuk,  
 E. Ramos,  B. Rana,  D. R. Rehn,  F. Rob,  M. Scheurer,  M. Schneider,  
 N. Sergueev,  S. M. Sharada,  S. Sharma,  D. W. Small,  T. Stauch,  
 C. J. Stein,  T. Stein,  Yu-Chuan Su,  S. P. Veccham,  Zhen Tao,  
 A. J. W. Thom,  A. Tkatchenko,  T. Tsuchimochi,  N. M. Tubman,  L. Vogt,  
 M. L. Vidal,  O. Vydrov,  M. A. Watson,  J. Wenzel,  M. de Wergifosse,  
 T. A. Wesolowski,  A. White,  J. Witte,  A. Yamada,  Jun Yang,  K. Yao,  
 S. Yeganeh,  S. R. Yost,  Zhi-Qiang You,  A. Zech,  Igor Ying Zhang,  
 Xing Zhang,  Yan Zhao,  Ying Zhu,  B. R. Brooks,  G. K. L. Chan,  
 C. J. Cramer,  M. S. Gordon,  W. J. Hehre,  A. Klamt,  M. W. Schmidt,  
 C. D. Sherrill,  D. G. Truhlar,  A. Aspuru-Guzik,  R. Baer,  A. T. Bell,  
 N. A. Besley,  Jeng-Da Chai,  A. E. DePrince, III,  R. A. DiStasio Jr.,  
 A. Dreuw,  B. D. Dunietz,  T. R. Furlani,  Chao-Ping Hsu,  Yousung Jung,  
 Jing Kong,  D. S. Lambrecht,  WanZhen Liang,  C. Ochsenfeld,  
 V. A. Rassolov,  L. V. Slipchenko,  J. E. Subotnik,  T. Van Voorhis,  
 J. M. Herbert,  A. I. Krylov,  P. M. W. Gill,  M. Head-Gordon

 Contributors to earlier versions of Q-Chem not listed above: 
 R. D. Adamson,  B. Austin,  J. Baker,  G. J. O. Beran,  K. Brandhorst,  
 S. T. Brown,  E. F. C. Byrd,  A. K. Chakraborty,  C.-L. Cheng,  
 Siu Hung Chien,  D. M. Chipman,  D. L. Crittenden,  H. Dachsel,  
 R. J. Doerksen,  A. D. Dutoi,  L. Fusti-Molnar,  W. A. Goddard III,  
 A. Golubeva-Zadorozhnaya,  S. R. Gwaltney,  G. Hawkins,  A. Heyden,  
 S. Hirata,  G. Kedziora,  F. J. Keil,  C. Kelley,  Jihan Kim,  R. A. King,  
 R. Z. Khaliullin,  P. P. Korambath,  W. Kurlancheek,  A. M. Lee,  M. S. Lee,  
 S. V. Levchenko,  Ching Yeh Lin,  D. Liotard,  R. C. Lochan,  I. Lotan,  
 P. E. Maslen,  N. Nair,  D. P. O'Neill,  D. Neuhauser,  E. Neuscamman,  
 C. M. Oana,  R. Olson,  B. Peters,  R. Peverati,  P. A. Pieniazek,  
 Y. M. Rhee,  J. Ritchie,  M. A. Rohrdanz,  E. Rosta,  N. J. Russ,  
 H. F. Schaefer III,  N. E. Schultz,  N. Shenvi,  A. C. Simmonett,  A. Sodt,  
 D. Stuck,  K. S. Thanthiriwatte,  V. Vanovschi,  Tao Wang,  A. Warshel,  
 C. F. Williams,  Q. Wu,  X. Xu,  W. Zhang

 Please cite Q-Chem as follows:
 Y. Shao et al., Mol. Phys. 113, 184-215 (2015)
 DOI: 10.1080/00268976.2014.952696

 Q-Chem 5.3.0 for Intel X86 EM64T Linux

 Parts of Q-Chem use Armadillo 9.800.1 (Horizon Scraper).
 http://arma.sourceforge.net/

 Q-Chem begins on Sun Aug 23 15:59:13 2020  

n0032.mhg0
Host: 0

     Scratch files written to /local/scratch/users/yhljason/BHF2_B97-D3_aug-pc-4.inp20200823155858//
Processing $rem in /clusterfs/mhg/diptarka/qchem_transmom//config/preferences:
Processing $rem in /global/home/users/yhljason/.qchemrc:

Checking the input file for inconsistencies... 	...done.

--------------------------------------------------------------
User input:
--------------------------------------------------------------
$molecule
0 1
B1      0.0000  0.0000  0.4547
H2      0.0000  0.0000  1.6437
F3      0.0000  1.1255  -0.2176
F4      0.0000  -1.1255 -0.2176
$end

$rem
jobtype sp
method B97-D3
xc_grid 000099000590
basis aug-pc-4
max_scf_cycles 200
thresh 14
scf_convergence 8
scf_algorithm gdm
symmetry false
sym_ignore true
unrestricted true
gen_scfman true
internal_stability_iter 15
internal_stability_davidson_iter 200
mem_total 64000
mem_static 1500
n_frozen_core 0
$end


--------------------------------------------------------------
 Adding empirical dispersion correction 
 ----------------------------------------------------------------
 Doing -D3(0) with
 s6  =   1.00000
 s8  =   0.90900
 rs6 =   0.89200
 rs8 =   1.00000
 -D3 energy without 3body term =     -0.0020966804 hartrees
 ----------------------------------------------------------------
             Standard Nuclear Orientation (Angstroms)
    I     Atom           X                Y                Z
 ----------------------------------------------------------------
    1      B       0.0000000000     0.0000000000     0.4547000000
    2      H       0.0000000000     0.0000000000     1.6437000000
    3      F       0.0000000000     1.1255000000    -0.2176000000
    4      F       0.0000000000    -1.1255000000    -0.2176000000
 ----------------------------------------------------------------
 Nuclear Repulsion Energy =          61.97204073 hartrees
 There are       12 alpha and       12 beta electrons
 Requested basis set is aug-pc-4
 There are 123 shells and 523 basis functions

 Total QAlloc Memory Limit  64000 MB
 Mega-Array Size      1467 MB
 MEM_STATIC part      1500 MB

                       Distance Matrix (Angstroms)
             B (  1)   H (  2)   F (  3)
   H (  2)  1.189000
   F (  3)  1.311006  2.175129
   F (  4)  1.311006  2.175129  2.251000

 A cutoff of  1.0D-14 yielded   7423 shell pairs
 There are    136521 function pairs (    259637 Cartesian)
 Smallest overlap matrix eigenvalue = 1.95E-07
 Linear dependence detected in AO basis
 Tighter screening thresholds may be required for diffuse basis sets
 Use S2THRESH > 14 and THRESH = 14 in case of SCF convergence issues
 Number of orthogonalized atomic orbitals = 521
 Maximum deviation from orthogonality = 1.287E-10

 Scale SEOQF with 1.000000e-01/1.000000e-01/1.000000e-01

 Standard Electronic Orientation quadrupole field applied
 Nucleus-field energy     =     0.0000000011 hartrees
 Guess from superposition of atomic densities
 Warning:  Energy on first SCF cycle will be non-variational
 SAD guess density has 24.000000 electrons

 -----------------------------------------------------------------------
  General SCF calculation program by
  Eric Jon Sundstrom, Paul Horn, Yuezhi Mao, Dmitri Zuev, Alec White,
  David Stuck, Shaama M.S., Shane Yost, Joonho Lee, David Small,
  Daniel Levine, Susi Lehtola, Hugh Burton, Evgeny Epifanovsky,
  Bang C. Huynh
 -----------------------------------------------------------------------
 Exchange:  B97-D      Correlation:  B97-D
 Using Euler-Maclaurin-Lebedev (99,590) quadrature formula
 Dispersion:   Grimme D3
Running Object-Oriented UKS (UHF)
performing a single roothaan step with Fock from read density so that orbitals are available to all algorithms
energy of the guess density (C=0) -225.410097998476
We will preform up to 15 macro iterations over saddle points until a stable solution is found
Energy prior to optimization (guess energy) = -225.207699708608
Begin Timing: Total SCF Calculation
Begin Timing: SCF Single Stationary Point Calculation
begin iterations for algorithm: GDM          
the SCF tolerance is set to 1.00e-08
    1    -225.2076997086      1.22e-01     00000  Descent step
    2    -225.2135144242      1.55e-01     00000  Normal BFGS step
    3    -225.2516790573      1.48e-02     00000  Normal BFGS step
    4    -225.2522072262      3.62e-03     00000  Normal BFGS step
    5    -225.2523935804      7.08e-04     00000  Normal BFGS step
    6    -225.2523966751      3.72e-04     00000  Normal BFGS step
    7    -225.2523978441      7.00e-06     00000  Normal BFGS step
    8    -225.2523978455      2.92e-06     00000  Normal BFGS step
    9    -225.2523978458      1.62e-07     00000  Normal BFGS step
   10    -225.2523978458      2.14e-07     00000  Normal BFGS step
   11    -225.2523978458      1.62e-07     00000  Normal BFGS step
   12    -225.2523978458      1.59e-08     00000  Normal BFGS step
   13    -225.2523978458      4.80e-09     00000 Convergence criterion met
Timing for Single Stationary Point: 4632.00s (wall), 35432.26s (cpu)
Begin Timing: Stability
===================================================
Beginning Test for Internal Stability
===================================================
generating davidson guess vectors based on koopmans excitations
 Warning: Hessian-vector products not implemented
 Finite difference Hessian-vector products will be used.
computing hessian-vector products by finite difference
    1      5.78e-01     00000 Davidson Iteration
computing hessian-vector products by finite difference
    2      1.51e-01     00000 Davidson Iteration
computing hessian-vector products by finite difference
    3      5.78e-02     00000 Davidson Iteration
computing hessian-vector products by finite difference
    4      2.97e-02     00000 Davidson Iteration
computing hessian-vector products by finite difference
    5      3.57e-03     00000 Davidson Iteration
computing hessian-vector products by finite difference
    6      5.46e-04     00000 Davidson Iteration
computing hessian-vector products by finite difference
    7      2.99e-04     00000 Davidson Iteration
computing hessian-vector products by finite difference
    8      4.81e-05     00000 Davidson Iteration
computing hessian-vector products by finite difference
    9      4.75e-05     00000 Davidson Converged
converged_eigenvalues
   0.6226
   0.4919
Threshold for negative eigenvalues: -1.0e-05
solution was a local minimum (stable)
===================================================
End Test for Internal Stability
===================================================
Timing for Internal Stability: 15412.00s (wall), 121803.76s (cpu)
Our SCF solution is stable!
Timing for Total SCF: 20044.00s (wall), 157236.31s (cpu)
 Total energy in the final basis set =     -225.2523978458
<S^2> =         -0.000000000
    ==================================================
              The end of Object-Oriented SCFman       
    ==================================================

 --------------------------------------------------------------

                    Orbital Energies (a.u.)
 --------------------------------------------------------------

 Alpha MOs
 -- Occupied --
-24.2736 -24.2736  -6.6329  -1.1554  -1.1280  -0.5320  -0.4869  -0.4636
 -0.4467  -0.3969  -0.3773  -0.3385
 -- Virtual --
 -0.0467  -0.0059   0.0087   0.0113   0.0169   0.0312   0.0426   0.0460
  0.0579   0.0579   0.0588   0.0592   0.0630   0.0639   0.0917   0.0921
  0.0929   0.0966   0.0984   0.1011   0.1107   0.1163   0.1232   0.1391
  0.1443   0.1455   0.1669   0.1681   0.1686   0.1713   0.1755   0.1773
  0.1843   0.1892   0.1941   0.2032   0.2076   0.2104   0.2104   0.2198
  0.2232   0.2270   0.2312   0.2353   0.2403   0.2407   0.2460   0.2699
  0.2830   0.2883   0.3023   0.3089   0.3152   0.3169   0.3267   0.3294
  0.3299   0.3351   0.3367   0.3431   0.3480   0.3496   0.3555   0.3559
  0.3659   0.3678   0.3792   0.3813   0.3837   0.3918   0.4070   0.4104
  0.4162   0.4320   0.4428   0.4520   0.4620   0.4736   0.4796   0.4797
  0.4815   0.4834   0.5029   0.5090   0.5115   0.5301   0.5303   0.5662
  0.5680   0.5681   0.5866   0.5877   0.6247   0.6281   0.6286   0.6522
  0.6707   0.6743   0.6760   0.6766   0.6810   0.6828   0.6919   0.7114
  0.7130   0.7149   0.7187   0.7202   0.7230   0.7391   0.7502   0.7512
  0.7739   0.7779   0.7790   0.7923   0.7949   0.8000   0.8219   0.8267
  0.8346   0.8499   0.8518   0.8891   0.8977   0.9114   0.9317   0.9366
  0.9453   0.9578   0.9664   0.9720   0.9733   0.9810   0.9934   1.0074
  1.0244   1.0324   1.0419   1.0463   1.0659   1.0663   1.0751   1.0886
  1.1357   1.1719   1.1739   1.1844   1.1975   1.2016   1.2092   1.2188
  1.2262   1.2489   1.2523   1.2543   1.2859   1.2908   1.3098   1.3282
  1.3295   1.3332   1.3395   1.3655   1.3682   1.3867   1.3980   1.4142
  1.4159   1.4173   1.4512   1.4544   1.4571   1.4670   1.4742   1.5103
  1.5278   1.5390   1.5535   1.5591   1.5776   1.5884   1.5953   1.5986
  1.6290   1.6470   1.6479   1.6570   1.6864   1.6889   1.6947   1.7075
  1.7424   1.7681   1.8063   1.8542   1.8654   1.9146   1.9533   1.9645
  1.9878   1.9916   2.0361   2.0556   2.0982   2.1649   2.1831   2.2793
  2.2808   2.3192   2.3232   2.3938   2.4086   2.4449   2.4556   2.5022
  2.5049   2.5237   2.5270   2.5720   2.5725   2.6403   2.6483   2.6990
  2.7168   2.7845   2.7940   2.8596   2.8789   2.9229   2.9381   3.0647
  3.0697   3.0841   3.1292   3.1316   3.1535   3.1730   3.2712   3.3058
  3.3400   3.3915   3.4254   3.4307   3.4508   3.5264   3.5722   3.5773
  3.6133   3.6362   3.8407   3.8585   3.8688   3.8982   3.9045   3.9300
  3.9454   3.9727   4.0257   4.0506   4.1409   4.1708   4.1954   4.2398
  4.2636   4.4352   4.5445   4.6369   4.6520   4.7144   4.7837   4.8622
  4.9382   4.9796   4.9833   5.1033   5.2592   5.2748   5.3495   5.4117
  5.4261   5.4817   5.4915   5.5458   5.6153   5.7068   5.7821   5.7905
  5.7997   5.8397   5.8431   5.9514   5.9736   6.0284   6.0932   6.2162
  6.2244   6.2572   6.2709   6.3026   6.4053   6.5002   6.5057   6.6091
  6.6894   6.7715   6.8675   6.9064   7.0141   7.0884   7.1122   7.1157
  7.1167   7.1310   7.2567   7.2682   7.2775   7.5034   7.5063   7.6564
  7.6770   7.7026   7.7040   7.7146   7.7811   8.0598   8.2176   8.3658
  8.4990   8.5904   8.6451   8.6842   8.7449   8.7842   8.8696   8.8803
  8.9117   8.9771   9.0039   9.0758   9.2696   9.3267   9.3637   9.5916
  9.6287   9.6745   9.7338   9.7353   9.7555   9.7961   9.8435   9.9267
  9.9396   9.9694  10.1867  10.3060  10.3394  10.4549  10.5873  10.6844
 10.7988  10.8785  11.0434  11.1504  11.1947  11.3007  11.5433  11.6727
 11.8387  11.8622  12.0035  12.1947  12.2147  12.2589  12.3229  12.3538
 12.3910  12.4709  12.4829  12.5455  12.6040  12.6430  12.6433  12.6440
 12.6477  12.6609  12.6639  12.6849  12.6893  12.7112  12.7402  12.7997
 12.8456  12.9338  12.9501  12.9785  13.1457  13.1483  13.1552  13.2965
 13.3930  13.6233  13.7975  13.8518  14.0010  14.0238  14.0291  14.1512
 14.2021  14.2697  14.3797  14.3993  14.6225  14.6717  14.6963  14.7064
 14.8188  14.9963  14.9971  15.0353  15.0492  15.0582  15.1306  15.1594
 15.3357  15.4496  15.4849  15.5734  15.7730  16.0263  16.2888  16.3113
 16.7448  16.7483  16.7483  16.9211  16.9698  17.0019  17.1470  17.4796
 17.8726  18.1185  18.6174  19.3452  19.4132  19.4942  19.8967  20.0814
 20.0956  20.0966  20.1039  20.2122  20.3624  20.3661  20.3691  20.4250
 20.6106  20.6798  20.9323  21.1002  21.1380  21.1632  21.9500  21.9735
 22.1289  22.1534  22.1899  22.2478  22.5007  23.0284  23.1474  23.4289
 23.8502  24.9230  30.4129  30.4770  30.5018  30.5190  30.7717  30.8130
 31.0627  31.1191  32.0195  32.0836  40.7894  41.7051  41.7079  41.8540
 42.0828  42.0934  42.1404  44.3218  44.4849  80.2599  90.9817  91.2606
 91.3255  91.3653  91.3791  91.3917  91.5514  91.5792  91.7554  91.7778
 92.0079  92.4739  92.4964 202.8126 202.8631

 Beta MOs
 -- Occupied --
-24.2736 -24.2736  -6.6329  -1.1554  -1.1280  -0.5320  -0.4869  -0.4636
 -0.4467  -0.3969  -0.3773  -0.3385
 -- Virtual --
 -0.0467  -0.0059   0.0087   0.0113   0.0169   0.0312   0.0426   0.0460
  0.0579   0.0579   0.0588   0.0592   0.0630   0.0639   0.0917   0.0921
  0.0929   0.0966   0.0984   0.1011   0.1107   0.1163   0.1232   0.1391
  0.1443   0.1455   0.1669   0.1681   0.1686   0.1713   0.1755   0.1773
  0.1843   0.1892   0.1941   0.2032   0.2076   0.2104   0.2104   0.2198
  0.2232   0.2270   0.2312   0.2353   0.2403   0.2407   0.2460   0.2699
  0.2830   0.2883   0.3023   0.3089   0.3152   0.3169   0.3267   0.3294
  0.3299   0.3351   0.3367   0.3431   0.3480   0.3496   0.3555   0.3559
  0.3659   0.3678   0.3792   0.3813   0.3837   0.3918   0.4070   0.4104
  0.4162   0.4320   0.4428   0.4520   0.4620   0.4736   0.4796   0.4797
  0.4815   0.4834   0.5029   0.5090   0.5115   0.5301   0.5303   0.5662
  0.5680   0.5681   0.5866   0.5877   0.6247   0.6281   0.6286   0.6522
  0.6707   0.6743   0.6760   0.6766   0.6810   0.6828   0.6919   0.7114
  0.7130   0.7149   0.7187   0.7202   0.7230   0.7391   0.7502   0.7512
  0.7739   0.7779   0.7790   0.7923   0.7949   0.8000   0.8219   0.8267
  0.8346   0.8499   0.8518   0.8891   0.8977   0.9114   0.9317   0.9366
  0.9453   0.9578   0.9664   0.9720   0.9733   0.9810   0.9934   1.0074
  1.0244   1.0324   1.0419   1.0463   1.0659   1.0663   1.0751   1.0886
  1.1357   1.1719   1.1739   1.1844   1.1975   1.2016   1.2092   1.2188
  1.2262   1.2489   1.2523   1.2543   1.2859   1.2908   1.3098   1.3282
  1.3295   1.3332   1.3395   1.3655   1.3682   1.3867   1.3980   1.4142
  1.4159   1.4173   1.4512   1.4544   1.4571   1.4670   1.4742   1.5103
  1.5278   1.5390   1.5535   1.5591   1.5776   1.5884   1.5953   1.5986
  1.6290   1.6470   1.6479   1.6570   1.6864   1.6889   1.6947   1.7075
  1.7424   1.7681   1.8063   1.8542   1.8654   1.9146   1.9533   1.9645
  1.9878   1.9916   2.0361   2.0556   2.0982   2.1649   2.1831   2.2793
  2.2808   2.3192   2.3232   2.3938   2.4086   2.4449   2.4556   2.5022
  2.5049   2.5237   2.5270   2.5720   2.5725   2.6403   2.6483   2.6990
  2.7168   2.7845   2.7940   2.8596   2.8789   2.9229   2.9381   3.0647
  3.0697   3.0841   3.1292   3.1316   3.1535   3.1730   3.2712   3.3058
  3.3400   3.3915   3.4254   3.4307   3.4508   3.5264   3.5722   3.5773
  3.6133   3.6362   3.8407   3.8585   3.8688   3.8982   3.9045   3.9300
  3.9454   3.9727   4.0257   4.0506   4.1409   4.1708   4.1954   4.2398
  4.2636   4.4352   4.5445   4.6369   4.6520   4.7144   4.7837   4.8622
  4.9382   4.9796   4.9833   5.1033   5.2592   5.2748   5.3495   5.4117
  5.4261   5.4817   5.4915   5.5458   5.6153   5.7068   5.7821   5.7905
  5.7997   5.8397   5.8431   5.9514   5.9736   6.0284   6.0932   6.2162
  6.2244   6.2572   6.2709   6.3026   6.4053   6.5002   6.5057   6.6091
  6.6894   6.7715   6.8675   6.9064   7.0141   7.0884   7.1122   7.1157
  7.1167   7.1310   7.2567   7.2682   7.2775   7.5034   7.5063   7.6564
  7.6770   7.7026   7.7040   7.7146   7.7811   8.0598   8.2176   8.3658
  8.4990   8.5904   8.6451   8.6842   8.7449   8.7842   8.8696   8.8803
  8.9117   8.9771   9.0039   9.0758   9.2696   9.3267   9.3637   9.5916
  9.6287   9.6745   9.7338   9.7353   9.7555   9.7961   9.8435   9.9267
  9.9396   9.9694  10.1867  10.3060  10.3394  10.4549  10.5873  10.6844
 10.7988  10.8785  11.0434  11.1504  11.1947  11.3007  11.5433  11.6727
 11.8387  11.8622  12.0035  12.1947  12.2147  12.2589  12.3229  12.3538
 12.3910  12.4709  12.4829  12.5455  12.6040  12.6430  12.6433  12.6440
 12.6477  12.6609  12.6639  12.6849  12.6893  12.7112  12.7402  12.7997
 12.8456  12.9338  12.9501  12.9785  13.1457  13.1483  13.1552  13.2965
 13.3930  13.6233  13.7975  13.8518  14.0010  14.0238  14.0291  14.1512
 14.2021  14.2697  14.3797  14.3993  14.6225  14.6717  14.6963  14.7064
 14.8188  14.9963  14.9971  15.0353  15.0492  15.0582  15.1306  15.1594
 15.3357  15.4496  15.4849  15.5734  15.7730  16.0263  16.2888  16.3113
 16.7448  16.7483  16.7483  16.9211  16.9698  17.0019  17.1470  17.4796
 17.8726  18.1185  18.6174  19.3452  19.4132  19.4942  19.8967  20.0814
 20.0956  20.0966  20.1039  20.2122  20.3624  20.3661  20.3691  20.4250
 20.6106  20.6798  20.9323  21.1002  21.1380  21.1632  21.9500  21.9735
 22.1289  22.1534  22.1899  22.2478  22.5007  23.0284  23.1474  23.4289
 23.8502  24.9230  30.4129  30.4770  30.5018  30.5190  30.7717  30.8130
 31.0627  31.1191  32.0195  32.0836  40.7894  41.7051  41.7079  41.8540
 42.0828  42.0934  42.1404  44.3218  44.4849  80.2599  90.9817  91.2606
 91.3255  91.3653  91.3791  91.3917  91.5514  91.5792  91.7554  91.7778
 92.0079  92.4739  92.4964 202.8126 202.8631
 --------------------------------------------------------------

          Ground-State Mulliken Net Atomic Charges

     Atom                 Charge (a.u.)    Spin (a.u.)
  --------------------------------------------------------
      1 B                     0.370549       0.000000
      2 H                     0.235554       0.000000
      3 F                    -0.303051       0.000000
      4 F                    -0.303051       0.000000
  --------------------------------------------------------
  Sum of atomic charges =    -0.000000
  Sum of spin   charges =     0.000000

 -----------------------------------------------------------------
                    Cartesian Multipole Moments
 -----------------------------------------------------------------
    Charge (ESU x 10^10)
                -0.0000
    Dipole Moment (Debye)
         X      -0.0000      Y       0.0000      Z       0.7927
       Tot       0.7927
    Quadrupole Moments (Debye-Ang)
        XX     -14.5504     XY       0.0000     YY     -18.2612
        XZ       0.0000     YZ      -0.0000     ZZ     -16.0408
    Octopole Moments (Debye-Ang^2)
       XXX      -0.0000    XXY      -0.0000    XYY      -0.0000
       YYY       0.0000    XXZ      -1.4967    XYZ       0.0000
       YYZ      -1.3189    XZZ       0.0000    YZZ      -0.0000
       ZZZ      -5.8931
    Hexadecapole Moments (Debye-Ang^3)
      XXXX     -11.6427   XXXY       0.0000   XXYY     -16.6732
      XYYY       0.0000   YYYY     -90.4905   XXXZ       0.0000
      XXYZ       0.0000   XYYZ       0.0000   YYYZ      -0.0000
      XXZZ      -8.6403   XYZZ       0.0000   YYZZ     -21.0510
      XZZZ       0.0000   YZZZ       0.0000   ZZZZ     -39.5239
 -----------------------------------------------------------------
Archival summary:
1\1\n0032.mhg0\SP\ProcedureUnspecified\BasisUnspecified\211\yhljason\SunAug2321:45:152020SunAug2321:45:152020\0\\#,ProcedureUnspecified,BasisUnspecified,\\0,1\F\B,1,1.31101\H,2,1.189,1,120.851\F,2,1.31101,1,118.297,3,-180,0\\\@

 Total job time:  20761.70s(wall), 162886.85s(cpu) 
 Sun Aug 23 21:45:15 2020

        *************************************************************
        *                                                           *
        *  Thank you very much for using Q-Chem.  Have a nice day.  *
        *                                                           *
        *************************************************************


