                  Welcome to Q-Chem
     A Quantum Leap Into The Future Of Chemistry


 Q-Chem 5.3 (devel), Q-Chem, Inc., Pleasanton, CA (2020)

 Yihan Shao,  Zhengting Gan,  E. Epifanovsky,  A. T. B. Gilbert,  M. Wormit,  
 J. Kussmann,  A. W. Lange,  A. Behn,  Jia Deng,  Xintian Feng,  D. Ghosh,  
 M. Goldey,  P. R. Horn,  L. D. Jacobson,  I. Kaliman,  T. Kus,  A. Landau,  
 Jie Liu,  E. I. Proynov,  R. M. Richard,  R. P. Steele,  E. J. Sundstrom,  
 H. L. Woodcock III,  P. M. Zimmerman,  D. Zuev,  B. Alam,  B. Albrecht,  
 E. Alguire,  S. A. Baeppler,  D. Barton,  Z. Benda,  Y. A. Bernard,  
 E. J. Berquist,  K. B. Bravaya,  H. Burton,  K. Carter-Fenk,  D. Casanova,  
 Chun-Min Chang,  Yunqing Chen,  A. Chien,  K. D. Closser,  M. P. Coons,  
 S. Coriani,  S. Dasgupta,  A. L. Dempwolff,  M. Diedenhofen,  Hainam Do,  
 R. G. Edgar,  Po-Tung Fang,  S. Faraji,  S. Fatehi,  Qingguo Feng,  
 J. Fosso-Tande,  J. Gayvert,  Qinghui Ge,  A. Ghysels,  G. Gidofalvi,  
 J. Gomes,  J. Gonthier,  A. Gunina,  D. Hait,  M. W. D. Hanson-Heine,  
 P. H. P. Harbach,  A. W. Hauser,  M. F. Herbst,  J. E. Herr,  
 E. G. Hohenstein,  Z. C. Holden,  Kerwin Hui,  B. C. Huynh,  T.-C. Jagau,  
 Hyunjun Ji,  B. Kaduk,  K. Khistyaev,  Jaehoon Kim,  P. Klunzinger,  K. Koh,  
 D. Kosenkov,  L. Koulias,  T. Kowalczyk,  C. M. Krauter,  A. Kunitsa,  
 Ka Un Lao,  A. Laurent,  K. V. Lawler,  Joonho Lee,  D. Lefrancois,  
 S. Lehtola,  D. S. Levine,  Yi-Pei Li,  You-Sheng Lin,  Fenglai Liu,  
 Kuan-Yu Liu,  E. Livshits,  M. Loipersberger,  A. Luenser,  P. Manohar,  
 E. Mansoor,  S. F. Manzer,  Shan-Ping Mao,  Yuezhi Mao,  N. Mardirossian,  
 A. V. Marenich,  T. Markovich,  L. A. Martinez-Martinez,  S. A. Maurer,  
 N. J. Mayhall,  S. C. McKenzie,  J.-M. Mewes,  P. Morgante,  A. F. Morrison,  
 J. W. Mullinax,  K. Nanda,  T. S. Nguyen-Beck,  R. Olivares-Amaya,  
 K. J. Oosterbaan,  J. A. Parkhill,  S. K. Paul,  F. Pavosevic,  Zheng Pei,  
 T. M. Perrine,  F. Plasser,  P. Pokhilko,  S. Prager,  A. Prociuk,  
 E. Ramos,  B. Rana,  D. R. Rehn,  F. Rob,  M. Scheurer,  M. Schneider,  
 N. Sergueev,  S. M. Sharada,  S. Sharma,  D. W. Small,  T. Stauch,  
 C. J. Stein,  T. Stein,  Yu-Chuan Su,  S. P. Veccham,  Zhen Tao,  
 A. J. W. Thom,  A. Tkatchenko,  T. Tsuchimochi,  N. M. Tubman,  L. Vogt,  
 M. L. Vidal,  O. Vydrov,  M. A. Watson,  J. Wenzel,  M. de Wergifosse,  
 T. A. Wesolowski,  A. White,  J. Witte,  A. Yamada,  Jun Yang,  K. Yao,  
 S. Yeganeh,  S. R. Yost,  Zhi-Qiang You,  A. Zech,  Igor Ying Zhang,  
 Xing Zhang,  Yan Zhao,  Ying Zhu,  B. R. Brooks,  G. K. L. Chan,  
 C. J. Cramer,  M. S. Gordon,  W. J. Hehre,  A. Klamt,  M. W. Schmidt,  
 C. D. Sherrill,  D. G. Truhlar,  A. Aspuru-Guzik,  R. Baer,  A. T. Bell,  
 N. A. Besley,  Jeng-Da Chai,  A. E. DePrince, III,  R. A. DiStasio Jr.,  
 A. Dreuw,  B. D. Dunietz,  T. R. Furlani,  Chao-Ping Hsu,  Yousung Jung,  
 Jing Kong,  D. S. Lambrecht,  WanZhen Liang,  C. Ochsenfeld,  
 V. A. Rassolov,  L. V. Slipchenko,  J. E. Subotnik,  T. Van Voorhis,  
 J. M. Herbert,  A. I. Krylov,  P. M. W. Gill,  M. Head-Gordon

 Contributors to earlier versions of Q-Chem not listed above: 
 R. D. Adamson,  B. Austin,  J. Baker,  G. J. O. Beran,  K. Brandhorst,  
 S. T. Brown,  E. F. C. Byrd,  A. K. Chakraborty,  C.-L. Cheng,  
 Siu Hung Chien,  D. M. Chipman,  D. L. Crittenden,  H. Dachsel,  
 R. J. Doerksen,  A. D. Dutoi,  L. Fusti-Molnar,  W. A. Goddard III,  
 A. Golubeva-Zadorozhnaya,  S. R. Gwaltney,  G. Hawkins,  A. Heyden,  
 S. Hirata,  G. Kedziora,  F. J. Keil,  C. Kelley,  Jihan Kim,  R. A. King,  
 R. Z. Khaliullin,  P. P. Korambath,  W. Kurlancheek,  A. M. Lee,  M. S. Lee,  
 S. V. Levchenko,  Ching Yeh Lin,  D. Liotard,  R. C. Lochan,  I. Lotan,  
 P. E. Maslen,  N. Nair,  D. P. O'Neill,  D. Neuhauser,  E. Neuscamman,  
 C. M. Oana,  R. Olson,  B. Peters,  R. Peverati,  P. A. Pieniazek,  
 Y. M. Rhee,  J. Ritchie,  M. A. Rohrdanz,  E. Rosta,  N. J. Russ,  
 H. F. Schaefer III,  N. E. Schultz,  N. Shenvi,  A. C. Simmonett,  A. Sodt,  
 D. Stuck,  K. S. Thanthiriwatte,  V. Vanovschi,  Tao Wang,  A. Warshel,  
 C. F. Williams,  Q. Wu,  X. Xu,  W. Zhang

 Please cite Q-Chem as follows:
 Y. Shao et al., Mol. Phys. 113, 184-215 (2015)
 DOI: 10.1080/00268976.2014.952696

 Q-Chem 5.3.0 for Intel X86 EM64T Linux

 Parts of Q-Chem use Armadillo 9.800.1 (Horizon Scraper).
 http://arma.sourceforge.net/

 Q-Chem begins on Sun Aug 23 16:41:48 2020  

n0091.mhg0
Host: 0

     Scratch files written to /local/scratch/users/yhljason/CH3Cl_BPBE_aug-pc-4.inp20200823155903//
Processing $rem in /clusterfs/mhg/diptarka/qchem_transmom//config/preferences:
Processing $rem in /global/home/users/yhljason/.qchemrc:

Checking the input file for inconsistencies... 	...done.

--------------------------------------------------------------
User input:
--------------------------------------------------------------
$molecule
0 1
C1      0.0000  0.0000  0.0000
Cl2     0.0000  0.0000  1.7810
H3      1.0424  0.0000  -0.3901
H4      -0.5212 0.9027  -0.3901
H5      -0.5212 -0.9027 -0.3901
$end

$rem
jobtype sp
method BPBE
xc_grid 000099000590
basis aug-pc-4
max_scf_cycles 200
thresh 14
scf_convergence 8
scf_algorithm gdm
symmetry false
sym_ignore true
unrestricted true
gen_scfman true
internal_stability_iter 15
internal_stability_davidson_iter 200
mem_total 64000
mem_static 1500
n_frozen_core 0
$end


--------------------------------------------------------------
 ----------------------------------------------------------------
             Standard Nuclear Orientation (Angstroms)
    I     Atom           X                Y                Z
 ----------------------------------------------------------------
    1      C       0.0000000000     0.0000000000     0.0000000000
    2      Cl      0.0000000000     0.0000000000     1.7810000000
    3      H       1.0424000000     0.0000000000    -0.3901000000
    4      H      -0.5212000000     0.9027000000    -0.3901000000
    5      H      -0.5212000000    -0.9027000000    -0.3901000000
 ----------------------------------------------------------------
 Nuclear Repulsion Energy =          50.95016037 hartrees
 There are       13 alpha and       13 beta electrons
 Requested basis set is aug-pc-4
 There are 136 shells and 550 basis functions

 Total QAlloc Memory Limit  64000 MB
 Mega-Array Size      1467 MB
 MEM_STATIC part      1500 MB

                       Distance Matrix (Angstroms)
             C (  1)   Cl(  2)   H (  3)   H (  4)
   Cl(  2)  1.781000
   H (  3)  1.113003  2.408376
   H (  4)  1.112967  2.408359  1.805467
   H (  5)  1.112967  2.408359  1.805467  1.805400

 A cutoff of  1.0D-14 yielded   9170 shell pairs
 There are    151554 function pairs (    274882 Cartesian)
 Smallest overlap matrix eigenvalue = 1.85E-07
 Linear dependence detected in AO basis
 Tighter screening thresholds may be required for diffuse basis sets
 Use S2THRESH > 14 and THRESH = 14 in case of SCF convergence issues
 Number of orthogonalized atomic orbitals = 545
 Maximum deviation from orthogonality = 1.270E-10

 Scale SEOQF with 1.000000e-01/1.000000e-01/1.000000e-01

 Standard Electronic Orientation quadrupole field applied
 Nucleus-field energy     =    -0.0000000057 hartrees
 Guess from superposition of atomic densities
 Warning:  Energy on first SCF cycle will be non-variational
 SAD guess density has 26.000000 electrons

 -----------------------------------------------------------------------
  General SCF calculation program by
  Eric Jon Sundstrom, Paul Horn, Yuezhi Mao, Dmitri Zuev, Alec White,
  David Stuck, Shaama M.S., Shane Yost, Joonho Lee, David Small,
  Daniel Levine, Susi Lehtola, Hugh Burton, Evgeny Epifanovsky,
  Bang C. Huynh
 -----------------------------------------------------------------------
 Exchange:  B88      Correlation:  PBE
 Using Euler-Maclaurin-Lebedev (99,590) quadrature formula
Running Object-Oriented UKS (UHF)
performing a single roothaan step with Fock from read density so that orbitals are available to all algorithms
energy of the guess density (C=0) -500.117623475705
We will preform up to 15 macro iterations over saddle points until a stable solution is found
Energy prior to optimization (guess energy) = -500.044354007737
Begin Timing: Total SCF Calculation
Begin Timing: SCF Single Stationary Point Calculation
begin iterations for algorithm: GDM          
the SCF tolerance is set to 1.00e-08
    1    -500.0443540077      7.59e-02     00000  Descent step
    2    -500.0572485517      1.41e-01     00000  Normal BFGS step
    3    -500.0878506134      2.28e-02     00000  Normal BFGS step
    4    -500.0880617527      1.54e-02     00000  Normal BFGS step
    5    -500.0896774096      1.03e-03     00000  Normal BFGS step
    6    -500.0896788971      1.04e-03     00000  Normal BFGS step
    7    -500.0896894685      1.49e-04     00000  Normal BFGS step
    8    -500.0896895534      8.21e-05     00000  Normal BFGS step
    9    -500.0896896172      1.06e-06     00000  Normal BFGS step
   10    -500.0896896173      3.48e-07     00000  Normal BFGS step
   11    -500.0896896173      7.16e-08     00000  Normal BFGS step
   12    -500.0896896173      1.66e-07     00000  Normal BFGS step
   13    -500.0896896173      6.27e-09     00000 Convergence criterion met
Timing for Single Stationary Point: 5938.00s (wall), 46782.26s (cpu)
Begin Timing: Stability
===================================================
Beginning Test for Internal Stability
===================================================
generating davidson guess vectors based on koopmans excitations
 Warning: Hessian-vector products not implemented
 Finite difference Hessian-vector products will be used.
computing hessian-vector products by finite difference
    1      7.08e-01     00000 Davidson Iteration
computing hessian-vector products by finite difference
    2      3.14e-01     00000 Davidson Iteration
computing hessian-vector products by finite difference
    3      1.16e-02     00000 Davidson Iteration
computing hessian-vector products by finite difference
    4      9.25e-03     00000 Davidson Iteration
computing hessian-vector products by finite difference
    5      2.53e-03     00000 Davidson Iteration
computing hessian-vector products by finite difference
    6      1.35e-03     00000 Davidson Iteration
computing hessian-vector products by finite difference
    7      6.31e-04     00000 Davidson Iteration
computing hessian-vector products by finite difference
    8      1.65e-04     00000 Davidson Iteration
computing hessian-vector products by finite difference
    9      6.45e-05     00000 Davidson Converged
converged_eigenvalues
   0.4072
   0.4785
Threshold for negative eigenvalues: -1.0e-05
solution was a local minimum (stable)
===================================================
End Test for Internal Stability
===================================================
Timing for Internal Stability: 21242.00s (wall), 167282.52s (cpu)
Our SCF solution is stable!
Timing for Total SCF: 27180.00s (wall), 214065.15s (cpu)
 Total energy in the final basis set =     -500.0896896173
<S^2> =         -0.000000000
    ==================================================
              The end of Object-Oriented SCFman       
    ==================================================

 --------------------------------------------------------------

                    Orbital Energies (a.u.)
 --------------------------------------------------------------

 Alpha MOs
 -- Occupied --
********  -9.9546  -9.1698  -6.9955  -6.9847  -6.9847  -0.7783  -0.6109
 -0.3968  -0.3968  -0.3816  -0.2605  -0.2605
 -- Virtual --
 -0.0286  -0.0090   0.0104   0.0104   0.0182   0.0318   0.0318   0.0373
  0.0381   0.0443   0.0443   0.0669   0.0669   0.0739   0.0793   0.0793
  0.0927   0.1022   0.1022   0.1163   0.1163   0.1177   0.1193   0.1284
  0.1303   0.1403   0.1403   0.1617   0.1617   0.1682   0.1682   0.1775
  0.1903   0.1903   0.1948   0.1966   0.1966   0.2125   0.2125   0.2172
  0.2182   0.2204   0.2204   0.2263   0.2479   0.2479   0.2640   0.2720
  0.2817   0.2840   0.2840   0.2895   0.2895   0.2994   0.2995   0.3029
  0.3143   0.3191   0.3407   0.3407   0.3434   0.3434   0.3483   0.3483
  0.3585   0.3585   0.3622   0.3786   0.3832   0.3832   0.4119   0.4209
  0.4249   0.4249   0.4291   0.4291   0.4318   0.4376   0.4376   0.4376
  0.4464   0.4464   0.4542   0.4564   0.4566   0.4566   0.4742   0.4742
  0.4817   0.4848   0.4848   0.4880   0.4986   0.5073   0.5073   0.5113
  0.5313   0.5476   0.5476   0.5683   0.5720   0.5720   0.5799   0.5799
  0.5811   0.5929   0.5942   0.6110   0.6110   0.6250   0.6250   0.6300
  0.6729   0.6729   0.6836   0.6836   0.6881   0.6901   0.6956   0.6956
  0.6978   0.7095   0.7095   0.7228   0.7228   0.7328   0.7541   0.7541
  0.7690   0.7732   0.7732   0.7900   0.7900   0.7900   0.8031   0.8087
  0.8087   0.8093   0.8197   0.8197   0.8285   0.8391   0.8427   0.8427
  0.8441   0.8441   0.8662   0.8666   0.8779   0.8779   0.8897   0.8897
  0.8931   0.8949   0.8988   0.8988   0.9186   0.9222   0.9223   0.9299
  0.9299   0.9306   0.9372   0.9493   0.9546   0.9546   0.9618   0.9637
  0.9637   0.9843   0.9843   0.9917   1.0004   1.0004   1.0334   1.0334
  1.0636   1.0858   1.0858   1.0888   1.1055   1.1234   1.1234   1.1424
  1.1424   1.1586   1.1743   1.1743   1.2025   1.2025   1.2025   1.2398
  1.2398   1.2591   1.2591   1.2714   1.4087   1.4087   1.4401   1.4401
  1.4478   1.4627   1.4841   1.4842   1.4953   1.5241   1.5538   1.5538
  1.5538   1.5817   1.5817   1.5972   1.6198   1.6198   1.6247   1.6838
  1.6926   1.6926   1.7333   1.8366   1.8457   1.8457   1.8600   1.9136
  1.9354   1.9354   1.9538   1.9539   1.9815   2.0611   2.0611   2.1178
  2.1178   2.1212   2.2161   2.2161   2.2189   2.2416   2.2657   2.3026
  2.3105   2.3105   2.3461   2.3461   2.4148   2.4148   2.5364   2.5364
  2.5734   2.6441   2.6441   2.6822   2.6895   2.6895   2.8036   2.9226
  2.9226   2.9671   3.0084   3.0462   3.0462   3.1165   3.1165   3.1384
  3.1384   3.1845   3.1845   3.1911   3.2528   3.3760   3.4747   3.4747
  3.5044   3.5328   3.5328   3.6201   3.6370   3.6370   3.6771   3.7079
  3.7454   3.7627   3.8092   3.8092   3.8134   3.8171   3.8171   3.8697
  3.8698   3.9756   3.9756   4.0439   4.0447   4.1035   4.1359   4.1360
  4.2037   4.2362   4.2362   4.2819   4.2820   4.3379   4.4307   4.4307
  4.4809   4.5748   4.5940   4.5941   4.6284   4.6285   4.7668   4.7941
  4.7941   4.9634   4.9832   4.9832   5.0551   5.0924   5.0924   5.0951
  5.1821   5.1821   5.2622   5.3064   5.3513   5.3683   5.3683   5.4407
  5.4407   5.5467   5.6189   5.6220   5.6220   5.6981   5.6981   5.7065
  5.7065   5.8237   5.8237   5.8969   5.9416   5.9417   6.0273   6.0424
  6.0459   6.0459   6.1686   6.1686   6.2876   6.4569   6.4569   6.5987
  6.5987   6.7337   6.7337   6.7343   6.8040   6.8137   6.8138   6.8433
  7.0106   7.0106   7.0160   7.6227   7.6937   7.6937   7.8666   8.4506
  8.6004   8.6004   8.8442   8.8442   8.9535   8.9535   8.9594   9.0187
  9.0627   9.0627   9.0739   9.1389   9.1389   9.1912   9.1912   9.2243
  9.3022   9.3550   9.3550   9.4698   9.5264   9.5265   9.6052   9.6052
  9.7279   9.8025  10.0641  10.0641  10.1691  10.7089  10.7089  10.8528
 10.9666  10.9666  11.0034  11.0080  11.0080  11.0664  11.1542  11.1637
 11.1638  11.3916  11.3916  11.5521  11.8003  11.8004  11.8093  11.9470
 12.0647  12.0647  12.1520  12.1520  12.2097  12.4384  12.4384  12.4653
 12.4662  12.6175  12.6175  12.7258  12.7259  12.7944  12.7945  12.8030
 12.8699  12.8879  12.8880  12.9216  12.9234  13.0149  13.0149  13.1873
 13.2380  13.2381  13.3011  13.3012  13.3523  13.4859  13.4860  13.6450
 13.6451  13.8043  13.9292  14.3676  14.4478  14.5961  14.5961  14.8115
 14.8117  15.3332  15.6130  15.6131  15.6837  15.9501  15.9502  16.7197
 16.7308  16.7308  16.7624  16.7690  16.7690  16.8145  17.1334  17.1334
 17.2176  17.2701  17.2702  17.4051  17.7564  17.7564  17.9655  17.9656
 18.1496  18.3596  18.3598  18.5378  18.5943  18.5946  18.8332  19.4348
 19.5974  19.6176  19.6178  19.8544  19.8546  20.4706  20.5284  20.5285
 20.9245  21.5819  21.5821  23.3645  23.5154  23.5154  23.7594  23.9831
 23.9832  25.3065  25.3860  25.3861  32.4430  32.4430  32.9742  33.7622
 33.7623  40.9870  40.9872  41.2831  41.4819  65.8795  65.8795  66.0009
 66.0009  66.3116  76.9453  90.9594  91.0570  91.0570  91.2063  91.3675
 91.3676  92.2233  92.3314  92.3314

 Beta MOs
 -- Occupied --
********  -9.9546  -9.1698  -6.9955  -6.9847  -6.9847  -0.7783  -0.6109
 -0.3968  -0.3968  -0.3816  -0.2605  -0.2605
 -- Virtual --
 -0.0286  -0.0090   0.0104   0.0104   0.0182   0.0318   0.0318   0.0373
  0.0381   0.0443   0.0443   0.0669   0.0669   0.0739   0.0793   0.0793
  0.0927   0.1022   0.1022   0.1163   0.1163   0.1177   0.1193   0.1284
  0.1303   0.1403   0.1403   0.1617   0.1617   0.1682   0.1682   0.1775
  0.1903   0.1903   0.1948   0.1966   0.1966   0.2125   0.2125   0.2172
  0.2182   0.2204   0.2204   0.2263   0.2479   0.2479   0.2640   0.2720
  0.2817   0.2840   0.2840   0.2895   0.2895   0.2994   0.2995   0.3029
  0.3143   0.3191   0.3407   0.3407   0.3434   0.3434   0.3483   0.3483
  0.3585   0.3585   0.3622   0.3786   0.3832   0.3832   0.4119   0.4209
  0.4249   0.4249   0.4291   0.4291   0.4318   0.4376   0.4376   0.4376
  0.4464   0.4464   0.4542   0.4564   0.4566   0.4566   0.4742   0.4742
  0.4817   0.4848   0.4848   0.4880   0.4986   0.5073   0.5073   0.5113
  0.5313   0.5476   0.5476   0.5683   0.5720   0.5720   0.5799   0.5799
  0.5811   0.5929   0.5942   0.6110   0.6110   0.6250   0.6250   0.6300
  0.6729   0.6729   0.6836   0.6836   0.6881   0.6901   0.6956   0.6956
  0.6978   0.7095   0.7095   0.7228   0.7228   0.7328   0.7541   0.7541
  0.7690   0.7732   0.7732   0.7900   0.7900   0.7900   0.8031   0.8087
  0.8087   0.8093   0.8197   0.8197   0.8285   0.8391   0.8427   0.8427
  0.8441   0.8441   0.8662   0.8666   0.8779   0.8779   0.8897   0.8897
  0.8931   0.8949   0.8988   0.8988   0.9186   0.9222   0.9223   0.9299
  0.9299   0.9306   0.9372   0.9493   0.9546   0.9546   0.9618   0.9637
  0.9637   0.9843   0.9843   0.9917   1.0004   1.0004   1.0334   1.0334
  1.0636   1.0858   1.0858   1.0888   1.1055   1.1234   1.1234   1.1424
  1.1424   1.1586   1.1743   1.1743   1.2025   1.2025   1.2025   1.2398
  1.2398   1.2591   1.2591   1.2714   1.4087   1.4087   1.4401   1.4401
  1.4478   1.4627   1.4841   1.4842   1.4953   1.5241   1.5538   1.5538
  1.5538   1.5817   1.5817   1.5972   1.6198   1.6198   1.6247   1.6838
  1.6926   1.6926   1.7333   1.8366   1.8457   1.8457   1.8600   1.9136
  1.9354   1.9354   1.9538   1.9539   1.9815   2.0611   2.0611   2.1178
  2.1178   2.1212   2.2161   2.2161   2.2189   2.2416   2.2657   2.3026
  2.3105   2.3105   2.3461   2.3461   2.4148   2.4148   2.5364   2.5364
  2.5734   2.6441   2.6441   2.6822   2.6895   2.6895   2.8036   2.9226
  2.9226   2.9671   3.0084   3.0462   3.0462   3.1165   3.1165   3.1384
  3.1384   3.1845   3.1845   3.1911   3.2528   3.3760   3.4747   3.4747
  3.5044   3.5328   3.5328   3.6201   3.6370   3.6370   3.6771   3.7079
  3.7454   3.7627   3.8092   3.8092   3.8134   3.8171   3.8171   3.8697
  3.8698   3.9756   3.9756   4.0439   4.0447   4.1035   4.1359   4.1360
  4.2037   4.2362   4.2362   4.2819   4.2820   4.3379   4.4307   4.4307
  4.4809   4.5748   4.5940   4.5941   4.6284   4.6285   4.7668   4.7941
  4.7941   4.9634   4.9832   4.9832   5.0551   5.0924   5.0924   5.0951
  5.1821   5.1821   5.2622   5.3064   5.3513   5.3683   5.3683   5.4407
  5.4407   5.5467   5.6189   5.6220   5.6220   5.6981   5.6981   5.7065
  5.7065   5.8237   5.8237   5.8969   5.9416   5.9417   6.0273   6.0424
  6.0459   6.0459   6.1686   6.1686   6.2876   6.4569   6.4569   6.5987
  6.5987   6.7337   6.7337   6.7343   6.8040   6.8137   6.8138   6.8433
  7.0106   7.0106   7.0160   7.6227   7.6937   7.6937   7.8666   8.4506
  8.6004   8.6004   8.8442   8.8442   8.9535   8.9535   8.9594   9.0187
  9.0627   9.0627   9.0739   9.1389   9.1389   9.1912   9.1912   9.2243
  9.3022   9.3550   9.3550   9.4698   9.5264   9.5265   9.6052   9.6052
  9.7279   9.8025  10.0641  10.0641  10.1691  10.7089  10.7089  10.8528
 10.9666  10.9666  11.0034  11.0080  11.0080  11.0664  11.1542  11.1637
 11.1638  11.3916  11.3916  11.5521  11.8003  11.8004  11.8093  11.9470
 12.0647  12.0647  12.1520  12.1520  12.2097  12.4384  12.4384  12.4653
 12.4662  12.6175  12.6175  12.7258  12.7259  12.7944  12.7945  12.8030
 12.8699  12.8879  12.8880  12.9216  12.9234  13.0149  13.0149  13.1873
 13.2380  13.2381  13.3011  13.3012  13.3523  13.4859  13.4860  13.6450
 13.6451  13.8043  13.9292  14.3676  14.4478  14.5961  14.5961  14.8115
 14.8117  15.3332  15.6130  15.6131  15.6837  15.9501  15.9502  16.7197
 16.7308  16.7308  16.7624  16.7690  16.7690  16.8145  17.1334  17.1334
 17.2176  17.2701  17.2702  17.4051  17.7564  17.7564  17.9655  17.9656
 18.1496  18.3596  18.3598  18.5378  18.5943  18.5946  18.8332  19.4348
 19.5974  19.6176  19.6178  19.8544  19.8546  20.4706  20.5284  20.5285
 20.9245  21.5819  21.5821  23.3645  23.5154  23.5154  23.7594  23.9831
 23.9832  25.3065  25.3860  25.3861  32.4430  32.4430  32.9742  33.7622
 33.7623  40.9870  40.9872  41.2831  41.4819  65.8795  65.8795  66.0009
 66.0009  66.3116  76.9453  90.9594  91.0570  91.0570  91.2063  91.3675
 91.3676  92.2233  92.3314  92.3314
 --------------------------------------------------------------

          Ground-State Mulliken Net Atomic Charges

     Atom                 Charge (a.u.)    Spin (a.u.)
  --------------------------------------------------------
      1 C                    -0.054239       0.000000
      2 Cl                   -0.431006      -0.000000
      3 H                     0.161753       0.000000
      4 H                     0.161746       0.000000
      5 H                     0.161746       0.000000
  --------------------------------------------------------
  Sum of atomic charges =    -0.000000
  Sum of spin   charges =     0.000000

 -----------------------------------------------------------------
                    Cartesian Multipole Moments
 -----------------------------------------------------------------
    Charge (ESU x 10^10)
                -0.0000
    Dipole Moment (Debye)
         X      -0.0000      Y       0.0000      Z      -1.8199
       Tot       1.8199
    Quadrupole Moments (Debye-Ang)
        XX     -20.0056     XY      -0.0000     YY     -20.0058
        XZ       0.0000     YZ       0.0000     ZZ     -22.2138
    Octopole Moments (Debye-Ang^2)
       XXX       0.8085    XXY       0.0000    XYY      -0.8086
       YYY       0.0000    XXZ     -23.1753    XYZ      -0.0000
       YYZ     -23.1752    XZZ      -0.0000    YZZ       0.0000
       ZZZ     -65.4418
    Hexadecapole Moments (Debye-Ang^3)
      XXXX     -29.7415   XXXY      -0.0000   XXYY      -9.9138
      XYYY      -0.0000   YYYY     -29.7411   XXXZ      -0.3215
      XXYZ       0.0000   XYYZ       0.3216   YYYZ       0.0000
      XXZZ     -51.6443   XYZZ      -0.0000   YYZZ     -51.6442
      XZZZ       0.0001   YZZZ       0.0000   ZZZZ    -255.4550
 -----------------------------------------------------------------
Archival summary:
1\1\n0091.mhg0\SP\ProcedureUnspecified\BasisUnspecified\l113\yhljason\MonAug2400:30:152020MonAug2400:30:152020\0\\#,ProcedureUnspecified,BasisUnspecified,\\0,1\Cl\C,1,1.781\H,2,1.11297,1,110.518\H,2,1.11297,1,110.518,3,119.998,0\H,2,1.113,1,110.517,3,-120.001,0\\\@

 Total job time:  28107.25s(wall), 221345.86s(cpu) 
 Mon Aug 24 00:30:15 2020

        *************************************************************
        *                                                           *
        *  Thank you very much for using Q-Chem.  Have a nice day.  *
        *                                                           *
        *************************************************************


