                  Welcome to Q-Chem
     A Quantum Leap Into The Future Of Chemistry


 Q-Chem 5.3 (devel), Q-Chem, Inc., Pleasanton, CA (2020)

 Yihan Shao,  Zhengting Gan,  E. Epifanovsky,  A. T. B. Gilbert,  M. Wormit,  
 J. Kussmann,  A. W. Lange,  A. Behn,  Jia Deng,  Xintian Feng,  D. Ghosh,  
 M. Goldey,  P. R. Horn,  L. D. Jacobson,  I. Kaliman,  T. Kus,  A. Landau,  
 Jie Liu,  E. I. Proynov,  R. M. Richard,  R. P. Steele,  E. J. Sundstrom,  
 H. L. Woodcock III,  P. M. Zimmerman,  D. Zuev,  B. Alam,  B. Albrecht,  
 E. Alguire,  S. A. Baeppler,  D. Barton,  Z. Benda,  Y. A. Bernard,  
 E. J. Berquist,  K. B. Bravaya,  H. Burton,  K. Carter-Fenk,  D. Casanova,  
 Chun-Min Chang,  Yunqing Chen,  A. Chien,  K. D. Closser,  M. P. Coons,  
 S. Coriani,  S. Dasgupta,  A. L. Dempwolff,  M. Diedenhofen,  Hainam Do,  
 R. G. Edgar,  Po-Tung Fang,  S. Faraji,  S. Fatehi,  Qingguo Feng,  
 J. Fosso-Tande,  J. Gayvert,  Qinghui Ge,  A. Ghysels,  G. Gidofalvi,  
 J. Gomes,  J. Gonthier,  A. Gunina,  D. Hait,  M. W. D. Hanson-Heine,  
 P. H. P. Harbach,  A. W. Hauser,  M. F. Herbst,  J. E. Herr,  
 E. G. Hohenstein,  Z. C. Holden,  Kerwin Hui,  B. C. Huynh,  T.-C. Jagau,  
 Hyunjun Ji,  B. Kaduk,  K. Khistyaev,  Jaehoon Kim,  P. Klunzinger,  K. Koh,  
 D. Kosenkov,  L. Koulias,  T. Kowalczyk,  C. M. Krauter,  A. Kunitsa,  
 Ka Un Lao,  A. Laurent,  K. V. Lawler,  Joonho Lee,  D. Lefrancois,  
 S. Lehtola,  D. S. Levine,  Yi-Pei Li,  You-Sheng Lin,  Fenglai Liu,  
 Kuan-Yu Liu,  E. Livshits,  M. Loipersberger,  A. Luenser,  P. Manohar,  
 E. Mansoor,  S. F. Manzer,  Shan-Ping Mao,  Yuezhi Mao,  N. Mardirossian,  
 A. V. Marenich,  T. Markovich,  L. A. Martinez-Martinez,  S. A. Maurer,  
 N. J. Mayhall,  S. C. McKenzie,  J.-M. Mewes,  P. Morgante,  A. F. Morrison,  
 J. W. Mullinax,  K. Nanda,  T. S. Nguyen-Beck,  R. Olivares-Amaya,  
 K. J. Oosterbaan,  J. A. Parkhill,  S. K. Paul,  F. Pavosevic,  Zheng Pei,  
 T. M. Perrine,  F. Plasser,  P. Pokhilko,  S. Prager,  A. Prociuk,  
 E. Ramos,  B. Rana,  D. R. Rehn,  F. Rob,  M. Scheurer,  M. Schneider,  
 N. Sergueev,  S. M. Sharada,  S. Sharma,  D. W. Small,  T. Stauch,  
 C. J. Stein,  T. Stein,  Yu-Chuan Su,  S. P. Veccham,  Zhen Tao,  
 A. J. W. Thom,  A. Tkatchenko,  T. Tsuchimochi,  N. M. Tubman,  L. Vogt,  
 M. L. Vidal,  O. Vydrov,  M. A. Watson,  J. Wenzel,  M. de Wergifosse,  
 T. A. Wesolowski,  A. White,  J. Witte,  A. Yamada,  Jun Yang,  K. Yao,  
 S. Yeganeh,  S. R. Yost,  Zhi-Qiang You,  A. Zech,  Igor Ying Zhang,  
 Xing Zhang,  Yan Zhao,  Ying Zhu,  B. R. Brooks,  G. K. L. Chan,  
 C. J. Cramer,  M. S. Gordon,  W. J. Hehre,  A. Klamt,  M. W. Schmidt,  
 C. D. Sherrill,  D. G. Truhlar,  A. Aspuru-Guzik,  R. Baer,  A. T. Bell,  
 N. A. Besley,  Jeng-Da Chai,  A. E. DePrince, III,  R. A. DiStasio Jr.,  
 A. Dreuw,  B. D. Dunietz,  T. R. Furlani,  Chao-Ping Hsu,  Yousung Jung,  
 Jing Kong,  D. S. Lambrecht,  WanZhen Liang,  C. Ochsenfeld,  
 V. A. Rassolov,  L. V. Slipchenko,  J. E. Subotnik,  T. Van Voorhis,  
 J. M. Herbert,  A. I. Krylov,  P. M. W. Gill,  M. Head-Gordon

 Contributors to earlier versions of Q-Chem not listed above: 
 R. D. Adamson,  B. Austin,  J. Baker,  G. J. O. Beran,  K. Brandhorst,  
 S. T. Brown,  E. F. C. Byrd,  A. K. Chakraborty,  C.-L. Cheng,  
 Siu Hung Chien,  D. M. Chipman,  D. L. Crittenden,  H. Dachsel,  
 R. J. Doerksen,  A. D. Dutoi,  L. Fusti-Molnar,  W. A. Goddard III,  
 A. Golubeva-Zadorozhnaya,  S. R. Gwaltney,  G. Hawkins,  A. Heyden,  
 S. Hirata,  G. Kedziora,  F. J. Keil,  C. Kelley,  Jihan Kim,  R. A. King,  
 R. Z. Khaliullin,  P. P. Korambath,  W. Kurlancheek,  A. M. Lee,  M. S. Lee,  
 S. V. Levchenko,  Ching Yeh Lin,  D. Liotard,  R. C. Lochan,  I. Lotan,  
 P. E. Maslen,  N. Nair,  D. P. O'Neill,  D. Neuhauser,  E. Neuscamman,  
 C. M. Oana,  R. Olson,  B. Peters,  R. Peverati,  P. A. Pieniazek,  
 Y. M. Rhee,  J. Ritchie,  M. A. Rohrdanz,  E. Rosta,  N. J. Russ,  
 H. F. Schaefer III,  N. E. Schultz,  N. Shenvi,  A. C. Simmonett,  A. Sodt,  
 D. Stuck,  K. S. Thanthiriwatte,  V. Vanovschi,  Tao Wang,  A. Warshel,  
 C. F. Williams,  Q. Wu,  X. Xu,  W. Zhang

 Please cite Q-Chem as follows:
 Y. Shao et al., Mol. Phys. 113, 184-215 (2015)
 DOI: 10.1080/00268976.2014.952696

 Q-Chem 5.3.0 for Intel X86 EM64T Linux

 Parts of Q-Chem use Armadillo 9.800.1 (Horizon Scraper).
 http://arma.sourceforge.net/

 Q-Chem begins on Sun Aug 23 21:15:49 2020  

n0032.mhg0
Host: 0

     Scratch files written to /local/scratch/users/yhljason/LiH_HFLYP_aug-pc-4.inp20200823155907//
Processing $rem in /clusterfs/mhg/diptarka/qchem_transmom//config/preferences:
Processing $rem in /global/home/users/yhljason/.qchemrc:

Checking the input file for inconsistencies... 	...done.

--------------------------------------------------------------
User input:
--------------------------------------------------------------
$molecule
0 1
Li       0.0000  0.0000  0.0000
H       0.0000  0.0000  1.5949
$end

$rem
jobtype sp
method HFLYP
xc_grid 000099000590
basis aug-pc-4
max_scf_cycles 200
thresh 14
scf_convergence 8
scf_algorithm gdm
symmetry false
sym_ignore true
unrestricted true
gen_scfman true
internal_stability_iter 15
internal_stability_davidson_iter 200
mem_total 64000
mem_static 1500
n_frozen_core 0
$end


--------------------------------------------------------------
 ----------------------------------------------------------------
             Standard Nuclear Orientation (Angstroms)
    I     Atom           X                Y                Z
 ----------------------------------------------------------------
    1      Li      0.0000000000     0.0000000000     0.0000000000
    2      H       0.0000000000     0.0000000000     1.5949000000
 ----------------------------------------------------------------
 Nuclear Repulsion Energy =           0.99538004 hartrees
 There are        2 alpha and        2 beta electrons
 Requested basis set is aug-pc-4
 There are 47 shells and 171 basis functions

 Total QAlloc Memory Limit  64000 MB
 Mega-Array Size      1467 MB
 MEM_STATIC part      1500 MB

                       Distance Matrix (Angstroms)
             Li(  1)
   H (  2)  1.594900

 A cutoff of  1.0D-14 yielded   1128 shell pairs
 There are     15092 function pairs (     25377 Cartesian)
 Smallest overlap matrix eigenvalue = 1.23E-05

 Scale SEOQF with 1.000000e-01/1.000000e-01/1.000000e-01

 Standard Electronic Orientation quadrupole field applied
 Nucleus-field energy     =    -0.0000000003 hartrees
 Guess from superposition of atomic densities
 Warning:  Energy on first SCF cycle will be non-variational
 SAD guess density has 4.000000 electrons

 -----------------------------------------------------------------------
  General SCF calculation program by
  Eric Jon Sundstrom, Paul Horn, Yuezhi Mao, Dmitri Zuev, Alec White,
  David Stuck, Shaama M.S., Shane Yost, Joonho Lee, David Small,
  Daniel Levine, Susi Lehtola, Hugh Burton, Evgeny Epifanovsky,
  Bang C. Huynh
 -----------------------------------------------------------------------
 Exchange:     1.0000 Hartree-Fock
 Correlation:  1.0000 LYP
 Using Euler-Maclaurin-Lebedev (99,590) quadrature formula
Running Object-Oriented UKS (UHF)
performing a single roothaan step with Fock from read density so that orbitals are available to all algorithms
 using 8 threads for integral computing
 -------------------------------------------------------
 OpenMP Integral computing Module                
 Release: version 2.0, May 2017, Q-Chem Inc. Pleasanton 
 -------------------------------------------------------
energy of the guess density (C=0) -7.863473316101
 using 8 threads for integral computing
 -------------------------------------------------------
 OpenMP Integral computing Module                
 Release: version 2.0, May 2017, Q-Chem Inc. Pleasanton 
 -------------------------------------------------------
We will preform up to 15 macro iterations over saddle points until a stable solution is found
Energy prior to optimization (guess energy) = -8.069313064782
Begin Timing: Total SCF Calculation
Begin Timing: SCF Single Stationary Point Calculation
begin iterations for algorithm: GDM          
the SCF tolerance is set to 1.00e-08
    1      -8.0693130648      4.09e-02     00000  Normal BFGS step
    2      -8.0757510617      9.72e-03     00000  Normal BFGS step
    3      -8.0762055229      3.80e-03     00000  Normal BFGS step
    4      -8.0762503150      1.01e-03     00000  Normal BFGS step
    5      -8.0762561161      1.46e-04     00000  Normal BFGS step
    6      -8.0762562391      3.81e-05     00000  Normal BFGS step
    7      -8.0762562457      5.52e-06     00000  Normal BFGS step
    8      -8.0762562459      9.54e-07     00000  Normal BFGS step
    9      -8.0762562459      1.67e-07     00000  Normal BFGS step
   10      -8.0762562459      3.44e-08     00000  Normal BFGS step
   11      -8.0762562459      4.13e-09     00000 Convergence criterion met
Timing for Single Stationary Point: 73.00s (wall), 412.02s (cpu)
Begin Timing: Stability
===================================================
Beginning Test for Internal Stability
===================================================
generating davidson guess vectors based on koopmans excitations
    1      3.35e-01     00000 Davidson Iteration
    2      3.13e-01     00000 Davidson Iteration
    3      8.91e-02     00000 Davidson Iteration
    4      1.37e-02     00000 Davidson Iteration
    5      4.15e-03     00000 Davidson Iteration
    6      6.69e-04     00000 Davidson Iteration
    7      1.23e-04     00000 Davidson Iteration
    8      4.56e-05     00000 Davidson Iteration
    9      4.07e-05     00000 Davidson Converged
converged_eigenvalues
   0.3309
   0.2062
Threshold for negative eigenvalues: -1.0e-05
solution was a local minimum (stable)
===================================================
End Test for Internal Stability
===================================================
Timing for Internal Stability: 83.00s (wall), 628.08s (cpu)
Our SCF solution is stable!
Timing for Total SCF: 156.00s (wall), 1040.11s (cpu)
 Total energy in the final basis set =       -8.0762562459
<S^2> =          0.000000000
    ==================================================
              The end of Object-Oriented SCFman       
    ==================================================

 --------------------------------------------------------------

                    Orbital Energies (a.u.)
 --------------------------------------------------------------

 Alpha MOs
 -- Occupied --
 -2.4800  -0.3251
 -- Virtual --
 -0.0130   0.0109   0.0134   0.0134   0.0187   0.0481   0.0481   0.0515
  0.0592   0.0652   0.0679   0.0679   0.0697   0.0697   0.1021   0.1193
  0.1193   0.1205   0.1205   0.1223   0.1223   0.1443   0.1521   0.1523
  0.1523   0.1742   0.1769   0.1775   0.1775   0.1813   0.1813   0.1846
  0.1846   0.1863   0.1863   0.1927   0.1927   0.2575   0.2737   0.2737
  0.3191   0.3370   0.3370   0.3548   0.3802   0.4148   0.4148   0.4318
  0.4318   0.4506   0.4506   0.4557   0.4557   0.4778   0.5018   0.5018
  0.5084   0.5084   0.5219   0.5841   0.5841   0.6139   0.6139   0.6327
  0.6542   0.6542   0.6603   0.6603   0.6711   0.7374   0.7374   0.7399
  0.8475   0.8937   0.8937   0.9384   0.9535   0.9535   1.0934   1.0934
  1.1081   1.1633   1.1633   1.1848   1.1848   1.3248   1.3476   1.3476
  1.4556   1.4556   1.6016   1.6358   1.6358   1.6829   1.7159   1.7159
  1.8574   2.1017   2.4369   2.4979   2.4979   2.5265   2.5265   2.6083
  2.6083   2.8136   2.8136   2.8155   2.8155   2.8370   2.9167   2.9167
  3.2024   3.2024   3.2724   3.3450   3.3450   3.6209   3.7347   3.7347
  3.8624   3.8624   3.9621   3.9621   4.0865   4.2891   4.4526   4.4526
  4.8329   5.1546   5.1546   5.6465   5.6465   5.8397   5.8397   6.3279
  8.8001   8.8001   9.1903   9.2996   9.2996   9.5463   9.5463   9.6931
 10.8685  11.4831  12.8304  12.8304  13.0277  13.0277  13.3056  13.3933
 13.3933  17.3539  17.3539  17.3557  17.3557  17.3842  17.3842  17.4021
 17.4579  17.4579  23.8437  23.8437  24.2321  39.4272  91.7213  91.7213
 91.9972

 Beta MOs
 -- Occupied --
 -2.4800  -0.3251
 -- Virtual --
 -0.0130   0.0109   0.0134   0.0134   0.0187   0.0481   0.0481   0.0515
  0.0592   0.0652   0.0679   0.0679   0.0697   0.0697   0.1021   0.1193
  0.1193   0.1205   0.1205   0.1223   0.1223   0.1443   0.1521   0.1523
  0.1523   0.1742   0.1769   0.1775   0.1775   0.1813   0.1813   0.1846
  0.1846   0.1863   0.1863   0.1927   0.1927   0.2575   0.2737   0.2737
  0.3191   0.3370   0.3370   0.3548   0.3802   0.4148   0.4148   0.4318
  0.4318   0.4506   0.4506   0.4557   0.4557   0.4778   0.5018   0.5018
  0.5084   0.5084   0.5219   0.5841   0.5841   0.6139   0.6139   0.6327
  0.6542   0.6542   0.6603   0.6603   0.6711   0.7374   0.7374   0.7399
  0.8475   0.8937   0.8937   0.9384   0.9535   0.9535   1.0934   1.0934
  1.1081   1.1633   1.1633   1.1848   1.1848   1.3248   1.3476   1.3476
  1.4556   1.4556   1.6016   1.6358   1.6358   1.6829   1.7159   1.7159
  1.8574   2.1017   2.4369   2.4979   2.4979   2.5265   2.5265   2.6083
  2.6083   2.8136   2.8136   2.8155   2.8155   2.8370   2.9167   2.9167
  3.2024   3.2024   3.2724   3.3450   3.3450   3.6209   3.7347   3.7347
  3.8624   3.8624   3.9621   3.9621   4.0865   4.2891   4.4526   4.4526
  4.8329   5.1546   5.1546   5.6465   5.6465   5.8397   5.8397   6.3279
  8.8001   8.8001   9.1903   9.2996   9.2996   9.5463   9.5463   9.6931
 10.8685  11.4831  12.8304  12.8304  13.0277  13.0277  13.3056  13.3933
 13.3933  17.3539  17.3539  17.3557  17.3557  17.3842  17.3842  17.4021
 17.4579  17.4579  23.8437  23.8437  24.2321  39.4272  91.7213  91.7213
 91.9972
 --------------------------------------------------------------

          Ground-State Mulliken Net Atomic Charges

     Atom                 Charge (a.u.)    Spin (a.u.)
  --------------------------------------------------------
      1 Li                    0.669443       0.000000
      2 H                    -0.669443      -0.000000
  --------------------------------------------------------
  Sum of atomic charges =     0.000000
  Sum of spin   charges =     0.000000

 -----------------------------------------------------------------
                    Cartesian Multipole Moments
 -----------------------------------------------------------------
    Charge (ESU x 10^10)
                 0.0000
    Dipole Moment (Debye)
         X      -0.0000      Y      -0.0000      Z      -5.9694
       Tot       5.9694
    Quadrupole Moments (Debye-Ang)
        XX      -5.0712     XY       0.0000     YY      -5.0712
        XZ      -0.0000     YZ      -0.0000     ZZ     -11.9747
    Octopole Moments (Debye-Ang^2)
       XXX      -0.0000    XXY      -0.0000    XYY      -0.0000
       YYY      -0.0000    XXZ      -6.1517    XYZ       0.0000
       YYZ      -6.1517    XZZ      -0.0000    YZZ       0.0000
       ZZZ     -26.3701
    Hexadecapole Moments (Debye-Ang^3)
      XXXX     -10.5503   XXXY       0.0000   XXYY      -3.5168
      XYYY       0.0000   YYYY     -10.5503   XXXZ      -0.0000
      XXYZ      -0.0000   XYYZ      -0.0000   YYYZ      -0.0000
      XXZZ     -11.5212   XYZZ       0.0000   YYZZ     -11.5212
      XZZZ      -0.0000   YZZZ       0.0000   ZZZZ     -67.8566
 -----------------------------------------------------------------
Archival summary:
1\1\n0032.mhg0\SP\ProcedureUnspecified\BasisUnspecified\i11\yhljason\SunAug2321:18:332020SunAug2321:18:332020\0\\#,ProcedureUnspecified,BasisUnspecified,\\0,1\Li\H,1,1.5949\\HF=-8.07625625\\@

 Total job time:  163.83s(wall), 1092.12s(cpu) 
 Sun Aug 23 21:18:33 2020

        *************************************************************
        *                                                           *
        *  Thank you very much for using Q-Chem.  Have a nice day.  *
        *                                                           *
        *************************************************************


