Q-Chem Developer Version!
                  Welcome to Q-Chem
     A Quantum Leap Into The Future Of Chemistry


 Q-Chem 5.1, Q-Chem, Inc., Pleasanton, CA (2018)

 Yihan Shao,  Zhengting Gan,  E. Epifanovsky,  A. T. B. Gilbert,  M. Wormit,  
 J. Kussmann,  A. W. Lange,  A. Behn,  Jia Deng,  Xintian Feng,  D. Ghosh,  
 M. Goldey,  P. R. Horn,  L. D. Jacobson,  I. Kaliman,  T. Kus,  A. Landau,  
 Jie Liu,  E. I. Proynov,  R. M. Richard,  R. P. Steele,  E. J. Sundstrom,  
 H. L. Woodcock III,  P. M. Zimmerman,  D. Zuev,  B. Albrecht,  E. Alguire,  
 S. A. Baeppler,  D. Barton,  Z. Benda,  Y. A. Bernard,  E. J. Berquist,  
 K. B. Bravaya,  H. Burton,  D. Casanova,  Chun-Min Chang,  Yunqing Chen,  
 A. Chien,  K. D. Closser,  M. P. Coons,  S. Coriani,  S. Dasgupta,  
 A. L. Dempwolff,  M. Diedenhofen,  Hainam Do,  R. G. Edgar,  Po-Tung Fang,  
 S. Faraji,  S. Fatehi,  Qingguo Feng,  K. D. Fenk,  J. Fosso-Tande,  
 Qinghui Ge,  A. Ghysels,  G. Gidofalvi,  J. Gomes,  J. Gonthier,  A. Gunina,  
 D. Hait,  M. W. D. Hanson-Heine,  P. H. P. Harbach,  A. W. Hauser,  
 J. E. Herr,  E. G. Hohenstein,  Z. C. Holden,  Kerwin Hui,  B. C. Huynh,  
 T.-C. Jagau,  Hyunjun Ji,  B. Kaduk,  K. Khistyaev,  Jaehoon Kim,  
 P. Klunzinger,  K. Koh,  D. Kosenkov,  L. Koulias,  T. Kowalczyk,  
 C. M. Krauter,  A. Kunitsa,  Ka Un Lao,  A. Laurent,  K. V. Lawler,  
 Joonho Lee,  D. Lefrancois,  S. Lehtola,  D. S. Levine,  Yi-Pei Li,  
 You-Sheng Lin,  Fenglai Liu,  E. Livshits,  A. Luenser,  P. Manohar,  
 E. Mansoor,  S. F. Manzer,  Shan-Ping Mao,  Yuezhi Mao,  N. Mardirossian,  
 A. V. Marenich,  T. Markovich,  L. A. Martinez-Martinez,  S. A. Maurer,  
 N. J. Mayhall,  S. C. McKenzie,  J.-M. Mewes,  A. F. Morrison,  
 J. W. Mullinax,  K. Nanda,  T. S. Nguyen-Beck,  R. Olivares-Amaya,  
 J. A. Parkhill,  T. M. Perrine,  F. Plasser,  P. Pokhilko,  S. Prager,  
 A. Prociuk,  E. Ramos,  D. R. Rehn,  F. Rob,  M. Schneider,  N. Sergueev,  
 S. M. Sharada,  S. Sharma,  D. W. Small,  T. Stauch,  T. Stein,  
 Yu-Chuan Su,  A. J. W. Thom,  A. Tkatchenko,  T. Tsuchimochi,  N. M. Tubman,  
 L. Vogt,  M. L. Vidal,  O. Vydrov,  M. A. Watson,  J. Wenzel,  
 M. de Wergifosse,  T. A. Wesolowski,  A. White,  J. Witte,  A. Yamada,  
 Jun Yang,  K. Yao,  S. Yeganeh,  S. R. Yost,  Zhi-Qiang You,  A. Zech,  
 Igor Ying Zhang,  Xing Zhang,  Yan Zhao,  Ying Zhu,  B. R. Brooks,  
 G. K. L. Chan,  C. J. Cramer,  M. S. Gordon,  W. J. Hehre,  A. Klamt,  
 M. W. Schmidt,  C. D. Sherrill,  D. G. Truhlar,  A. Aspuru-Guzik,  R. Baer,  
 A. T. Bell,  N. A. Besley,  Jeng-Da Chai,  A. E. DePrince, III,  
 R. A. DiStasio Jr.,  A. Dreuw,  B. D. Dunietz,  T. R. Furlani,  
 Chao-Ping Hsu,  Yousung Jung,  Jing Kong,  D. S. Lambrecht,  WanZhen Liang,  
 C. Ochsenfeld,  V. A. Rassolov,  L. V. Slipchenko,  J. E. Subotnik,  
 T. Van Voorhis,  J. M. Herbert,  A. I. Krylov,  P. M. W. Gill,  M. Head-Gordon

 Contributors to earlier versions of Q-Chem not listed above: 
 R. D. Adamson,  B. Austin,  J. Baker,  G. J. O. Beran,  K. Brandhorst,  
 S. T. Brown,  E. F. C. Byrd,  A. K. Chakraborty,  C.-L. Cheng,  
 Siu Hung Chien,  D. M. Chipman,  D. L. Crittenden,  H. Dachsel,  
 R. J. Doerksen,  A. D. Dutoi,  L. Fusti-Molnar,  W. A. Goddard III,  
 A. Golubeva-Zadorozhnaya,  S. R. Gwaltney,  G. Hawkins,  A. Heyden,  
 S. Hirata,  G. Kedziora,  F. J. Keil,  C. Kelley,  Jihan Kim,  R. A. King,  
 R. Z. Khaliullin,  P. P. Korambath,  W. Kurlancheek,  A. M. Lee,  M. S. Lee,  
 S. V. Levchenko,  Ching Yeh Lin,  D. Liotard,  R. C. Lochan,  I. Lotan,  
 P. E. Maslen,  N. Nair,  D. P. O'Neill,  D. Neuhauser,  E. Neuscamman,  
 C. M. Oana,  R. Olson,  B. Peters,  R. Peverati,  P. A. Pieniazek,  
 Y. M. Rhee,  J. Ritchie,  M. A. Rohrdanz,  E. Rosta,  N. J. Russ,  
 H. F. Schaefer III,  N. E. Schultz,  N. Shenvi,  A. C. Simmonett,  A. Sodt,  
 D. Stuck,  K. S. Thanthiriwatte,  V. Vanovschi,  Tao Wang,  A. Warshel,  
 C. F. Williams,  Q. Wu,  X. Xu,  W. Zhang

 Please cite Q-Chem as follows:
 Y. Shao et al., Mol. Phys. 113, 184-215 (2015)
 DOI: 10.1080/00268976.2014.952696

 Q-Chem 5.1.1 for Intel X86 EM64T Linux

 Parts of Q-Chem use Armadillo 8.300.2 (Tropical Shenanigans).
 http://arma.sourceforge.net/

 Q-Chem begins on Sun Sep 20 01:00:56 2020  

Host: n0096.mhg0
0

     Scratch files written to /local/scratch/users/yhljason/CN_B2GPPLYP_aug-cc-pcV5Z.inp20200920010053//
Input Ideriv = 0
Curr. Ideriv = -1
Max.  Ideriv = 0
Input Ideriv = 1
Curr. Ideriv = 0
Max.  Ideriv = 0

Checking the input file for inconsistencies... 	...done.

--------------------------------------------------------------
User input:
--------------------------------------------------------------
$molecule
0 2
N1	0.0000	0.0000	0.0000
C2	0.0000	0.0000	1.1718
$end

$rem
jobtype sp
method B2GPPLYP
xc_grid 000099000590
basis aug-cc-pcV5Z
max_scf_cycles 200
thresh 14
scf_convergence 8
scf_algorithm gdm
symmetry false
sym_ignore true
unrestricted false
gen_scfman true
internal_stability_iter 15
internal_stability_davidson_iter 200
mem_total 128000
cc_memory 96000
cc_backend xm
mem_static 1500
n_frozen_core 0
$end


--------------------------------------------------------------
 ----------------------------------------------------------------
             Standard Nuclear Orientation (Angstroms)
    I     Atom           X                Y                Z
 ----------------------------------------------------------------
    1      N       0.0000000000     0.0000000000     0.0000000000
    2      C       0.0000000000     0.0000000000     1.1718000000
 ----------------------------------------------------------------
 Nuclear Repulsion Energy =    18.9669251183 hartrees
 There are        7 alpha and        6 beta electrons
 Requested basis set is aug-cc-pCV5Z
 There are 82 shells and 362 basis functions

 Total QAlloc Memory Limit 128000 MB
 Mega-Array Size      1467 MB
 MEM_STATIC part      1500 MB

                       Distance Matrix (Angstroms)
             N (  1)
   C (  2)  1.171800
 
 A cutoff of  1.0D-14 yielded   3257 shell pairs
 There are     64599 function pairs (    125342 Cartesian)
 
 -------------------------------------------------------
 OpenMP Integral Computing Module                       
 Release: version 1.0, May 2013, Q-Chem Inc. Pittsburgh 
 -------------------------------------------------------
 Integral Job Info:
 Integral job number is                      11
 Integral operator is                         1
 short-range coefficients                     0
 long-range coefficients              100000000
 Omega coefficients                           0
 if combine SR and LR in K                    0
 Integral screening is                        0
 Integral computing path is                   2
 max size of driver memory is           6400000
 size of driver memory is               5498286
 size of scratch memory is             29551430
 max col of scratch BK array             194481
 max len of scratch array in speh3         5572
 max len of scratch index in speh4           72
 max int batch size is                      520
 min int batch size is                       52
 fixed nKL is                                30
 max L of basis functions is                  5
 order of int derivative is                   0
 number of shells is                         82
 number of basis is                         502
 number of cartesian basis is               502
 number of contracted shell pairs          3257
 number of primitive shell pairs           6867
 maxK2 (contraction) of shell pair          100
 max number of K2 of shell pair               1
 max number of CS2 of shell pair            306
 max number of PS2 of shell pair            600
 mem total for path MDJ                  998666
 -------------------------------------------------------
 Smallest overlap matrix eigenvalue = 7.48E-06

 Scale SEOQF with 1.000000e-01/1.000000e-01/1.000000e-01

 Standard Electronic Orientation quadrupole field applied
 Nucleus-field energy     =    -0.0000000009 hartrees
 Guess from superposition of atomic densities
 Warning:  Energy on first SCF cycle will be non-variational
 SAD guess density has 13.000000 electrons

 -----------------------------------------------------------------------
  General SCF calculation program by
  Eric Jon Sundstrom, Paul Horn, Yuezhi Mao, Dmitri Zuev, Alec White,
  David Stuck, Shaama M.S., Shane Yost, Joonho Lee, David Small,
  Daniel Levine, Susi Lehtola, Hugh Burton, Evgeny Epifanovsky
 -----------------------------------------------------------------------
 Exchange:     0.6500 Hartree-Fock + 0.3500 B88
 Correlation:  0.6400 LYP
 Using Euler-Maclaurin-Lebedev (99,590) quadrature formula
Running Object-Oriented ROKS (ROHF)
ROHF occupied orbitals are orthonormal
ROHF occupied orbitals are orthogonal to virtual orbitals
ROHF virtual orbitals are orthonormal
 LTot/LBra/LKet=          16           7           9
 LTot/LBra/LKet=          16           7           9

 Q-Chem warning:

 in GenH1, ket side, handled with new code


 Q-Chem warning:

 in GenH1, ket side, handled with new code

We will preform up to 15 macro iterations over saddle points until a stable solution is found
Energy prior to optimization (guess energy) = -92.119160003309
Begin Timing: Total SCF Calculation
Begin Timing: SCF Single Stationary Point Calculation
begin iterations for algorithm: GDM          
the SCF tolerance is set to 1.00e-08
 LTot/LBra/LBra=          18           9           9

 Q-Chem warning:

 in GenH1, bra side, handled with new code

    1     -92.1191600033      7.28e-01     00000  Descent step
    2     -92.3764911179      2.11e-01     00000  Descent step
    3     -92.4757408215      1.42e-01     00000  Normal BFGS step
    4     -92.5042006138      1.01e-01     00000  Normal BFGS step
    5     -92.5140796817      5.43e-02     00000  Dog-leg BFGS step
    6     -92.4983315583      2.96e-01     00000 Line search: overstep
    7     -92.5203144184      1.74e-02     00000  Normal BFGS step
    8     -92.5216940945      5.05e-02     00000  Normal BFGS step
    9     -92.5227093815      6.17e-03     00000  Normal BFGS step
   10     -92.5228516249      1.83e-03     00000  Normal BFGS step
   11     -92.5228703436      4.78e-04     00000  Normal BFGS step
   12     -92.5228707726      8.93e-05     00000  Normal BFGS step
   13     -92.5228707884      3.18e-05     00000  Normal BFGS step
   14     -92.5228707890      7.04e-06     00000  Normal BFGS step
   15     -92.5228707891      1.75e-07     00000  Normal BFGS step
   16     -92.5228707891      3.24e-07     00000  Normal BFGS step
   17     -92.5228707891      8.10e-07     00000  Normal BFGS step
   18     -92.5228707891      5.38e-09     00000 Convergence criterion met
The disked orbital energies are calculated using alpha and beta Focks
Timing for Single Stationary Point: 2101.00s (wall), 33375.61s (cpu)
Begin Timing: Stability
===================================================
Beginning Test for Internal Stability
===================================================
generating davidson guess vectors based on koopmans-like excitations
    1      3.46e-01     00000 Davidson Iteration
    2      1.64e-01     00000 Davidson Iteration
    3      5.72e-02     00000 Davidson Iteration
    4      1.60e-02     00000 Davidson Iteration
    5      2.52e-03     00000 Davidson Iteration
    6      3.97e-04     00000 Davidson Iteration
    7      7.11e-05     00000 Davidson Iteration
    8      4.03e-04     00000 Davidson Iteration
    9      8.91e-05     00000 Davidson Converged
converged_eigenvalues
   0.0652
   0.0652
Threshold for negative eigenvalues: -1.0e-05
solution was a local minimum (stable)
===================================================
End Test for Internal Stability
===================================================
Our SCF solution is stable!
The disked orbital energies are calculated using alpha and beta Focks
Timing for Total SCF: 3688.00s (wall), 56892.62s (cpu)
 Total energy in the final basis set =      -92.5228707891
<S^2> =          0.750000000
    ==================================================
              The end of Object-Oriented SCFman       
    ==================================================
 
 Components of the MP2 correlation energy:
        aaaa  correlation energy =        -0.0223545405 au
        abab  correlation energy =        -0.1509123933 au
        bbbb  correlation energy =        -0.0202006820 au
        non-Brillouin singles    =        -0.0022615828 au

 Total  MP2   correlation energy =                    -0.19572920 au
        MP2         total energy =                   -92.71859999 au
 
 --------------------------------------------------------------
 
                    Orbital Energies (a.u.)
 --------------------------------------------------------------
 
 Alpha MOs
 -- Occupied --
-15.096 -10.910  -1.139  -0.588  -0.471  -0.471  -0.559
 -- Virtual --
  0.034   0.040   0.040   0.043   0.069   0.069   0.093   0.103
  0.103   0.160   0.177   0.177   0.211   0.232   0.232   0.244
  0.244   0.244   0.312   0.321   0.321   0.360   0.360   0.437
  0.511   0.511   0.525   0.548   0.548   0.570   0.572   0.572
  0.580   0.580   0.618   0.618   0.625   0.744   0.744   0.790
  0.837   0.837   0.868   0.868   0.893   0.893   0.964   0.967
  1.059   1.059   1.139   1.139   1.152   1.242   1.242   1.246
  1.489   1.489   1.534   1.534   1.539   1.539   1.550   1.550
  1.565   1.570   1.570   1.606   1.606   1.658   1.658   1.800
  1.889   1.893   1.893   1.875   1.983   1.983   2.216   2.216
  2.258   2.289   2.289   2.318   2.318   2.347   2.347   2.398
  2.398   2.513   2.590   2.590   2.601   2.601   2.690   2.690
  2.700   3.044   3.044   3.229   3.229   3.224   3.377   3.377
  3.517   3.532   3.532   3.608   3.608   3.775   3.836   3.836
  3.875   3.875   3.869   3.869   3.912   3.912   3.932   3.932
  3.986   3.986   3.985   4.126   4.126   4.296   4.329   4.329
  4.358   4.358   4.372   4.372   4.586   4.727   4.727   4.872
  5.064   5.064   5.098   5.098   5.289   5.289   5.404   5.404
  5.570   5.570   5.605   5.605   5.624   5.624   5.617   5.809
  5.809   5.882   5.882   5.941   6.214   6.214   6.262   6.262
  6.409   6.563   6.563   6.661   6.661   6.952   7.427   7.513
  7.513   7.779   7.779   7.933   7.933   7.997   8.383   8.383
  8.766   8.766   8.848   8.848   8.825   9.318   9.318   9.347
  9.347   9.357   9.357   9.867  10.015  10.015  10.173  10.173
 10.192  10.192  10.287  10.287  10.431  10.684  10.697  10.697
 10.981  10.981  11.197  11.234  11.234  11.622  11.622  12.072
 12.072  12.242  12.242  12.509  12.509  12.831  13.116  13.116
 13.298  13.298  13.509  13.509  13.667  13.999  13.999  14.099
 14.447  14.447  14.466  14.466  14.749  14.749  14.965  14.965
 15.598  15.598  15.616  15.616  15.696  17.178  17.735  17.735
 17.780  17.780  18.707  18.707  19.505  20.209  20.943  20.943
 22.655  25.771  29.417  29.417  31.307  35.109  35.109  36.202
 36.202  36.740  46.409  46.409  46.648  46.648  47.121  47.121
 47.373  49.845  50.252  50.252  50.830  50.830  51.536  58.123
 58.123  58.438  58.438  58.610  58.610  59.161  59.161  59.228
 60.603  65.945  82.361  82.361  83.964 106.947 106.947 107.699
107.699 108.042 129.139 149.974 149.974 150.400 150.400 150.804
164.355 164.355 165.909 166.837 166.837 166.837 166.837 166.842
166.842 166.855 166.855 166.859 171.884 187.421 187.421 187.534
187.534 187.722 187.722 187.985 208.317 208.317 208.322 208.322
208.325 208.325 208.332 208.332 208.340 228.929 228.929 230.254
235.379 235.379 235.510 235.510 235.775 235.775 235.912 328.397
328.397 328.922 328.922 329.131 336.338 448.977 455.742 455.742
456.040 456.040 456.355 463.903 463.903 465.384 642.648 642.648
643.7921172.1281574.975
 
 Beta MOs
 -- Occupied --
-15.091 -10.887  -1.105  -0.530  -0.456  -0.456
 -- Virtual --
 -0.136   0.037   0.042   0.042   0.044   0.081   0.081   0.094
  0.115   0.115   0.162   0.177   0.177   0.216   0.235   0.235
  0.247   0.247   0.253   0.313   0.320   0.320   0.366   0.366
  0.447   0.511   0.511   0.539   0.549   0.549   0.577   0.577
  0.577   0.584   0.584   0.618   0.618   0.641   0.752   0.752
  0.799   0.837   0.837   0.868   0.868   0.897   0.897   0.970
  0.998   1.065   1.065   1.140   1.140   1.163   1.252   1.252
  1.280   1.489   1.489   1.540   1.540   1.553   1.553   1.569
  1.569   1.583   1.588   1.588   1.611   1.611   1.660   1.660
  1.808   1.893   1.902   1.902   1.902   1.984   1.984   2.217
  2.217   2.277   2.290   2.290   2.326   2.326   2.349   2.349
  2.406   2.406   2.520   2.599   2.599   2.603   2.603   2.691
  2.691   2.725   3.060   3.060   3.240   3.240   3.244   3.380
  3.380   3.535   3.555   3.555   3.614   3.614   3.806   3.859
  3.859   3.881   3.881   3.885   3.885   3.935   3.935   3.939
  3.939   4.003   4.003   4.009   4.141   4.141   4.317   4.336
  4.336   4.363   4.363   4.381   4.381   4.610   4.727   4.727
  4.902   5.087   5.087   5.110   5.110   5.291   5.291   5.417
  5.417   5.573   5.573   5.606   5.606   5.629   5.629   5.629
  5.814   5.814   5.883   5.883   5.950   6.220   6.220   6.282
  6.282   6.427   6.565   6.565   6.666   6.666   6.969   7.461
  7.525   7.525   7.796   7.796   7.944   7.944   8.006   8.405
  8.405   8.773   8.773   8.862   8.862   8.864   9.338   9.338
  9.380   9.380   9.395   9.395   9.899  10.026  10.026  10.183
 10.183  10.213  10.213  10.302  10.302  10.450  10.714  10.715
 10.715  10.986  10.986  11.225  11.262  11.262  11.660  11.660
 12.077  12.077  12.242  12.242  12.512  12.512  12.852  13.121
 13.121  13.317  13.317  13.517  13.517  13.680  14.012  14.012
 14.123  14.447  14.447  14.466  14.466  14.754  14.754  14.973
 14.973  15.612  15.612  15.623  15.623  15.714  17.194  17.747
 17.747  17.781  17.781  18.716  18.716  19.521  20.225  20.950
 20.950  22.674  25.777  29.419  29.419  31.318  35.113  35.113
 36.218  36.218  36.763  46.410  46.410  46.657  46.657  47.136
 47.136  47.389  49.855  50.253  50.253  50.836  50.836  51.545
 58.123  58.123  58.441  58.441  58.616  58.616  59.167  59.167
 59.234  60.618  65.947  82.362  82.362  83.969 106.950 106.950
107.708 107.708 108.053 129.147 149.974 149.974 150.403 150.403
150.807 164.361 164.361 165.919 166.838 166.838 166.842 166.842
166.848 166.848 166.863 166.863 166.867 171.885 187.424 187.424
187.539 187.539 187.728 187.728 187.992 208.317 208.317 208.323
208.323 208.328 208.328 208.335 208.335 208.343 228.929 228.929
230.256 235.379 235.379 235.511 235.511 235.777 235.777 235.913
328.401 328.401 328.929 328.929 329.138 336.345 448.978 455.742
455.742 456.041 456.041 456.356 463.909 463.909 465.392 642.648
642.648 643.7931172.1351574.975
 --------------------------------------------------------------
 
          Ground-State Mulliken Net Atomic Charges

     Atom                 Charge (a.u.)
  ----------------------------------------
      1 N                    -0.343808
      2 C                     0.343808
  ----------------------------------------
  Sum of atomic charges =    -0.000000

 -----------------------------------------------------------------
                    Cartesian Multipole Moments
 -----------------------------------------------------------------
    Charge (ESU x 10^10)
                -0.0000
    Dipole Moment (Debye)
         X      -0.0000      Y       0.0000      Z       1.9933
       Tot       1.9933
    Quadrupole Moments (Debye-Ang)
        XX     -11.1310     XY       0.0000     YY     -11.1310
        XZ      -0.0000     YZ       0.0000     ZZ      -8.0849
    Octopole Moments (Debye-Ang^2)
       XXX      -0.0000    XXY       0.0000    XYY      -0.0000
       YYY       0.0000    XXZ      -5.9848    XYZ      -0.0000
       YYZ      -5.9848    XZZ      -0.0000    YZZ       0.0000
       ZZZ     -13.3877
    Hexadecapole Moments (Debye-Ang^3)
      XXXX     -11.6467   XXXY       0.0000   XXYY      -3.8822
      XYYY       0.0000   YYYY     -11.6467   XXXZ      -0.0000
      XXYZ       0.0000   XYYZ      -0.0000   YYYZ       0.0000
      XXZZ     -10.4593   XYZZ       0.0000   YYZZ     -10.4593
      XZZZ      -0.0000   YZZZ       0.0000   ZZZZ     -46.5670
 -----------------------------------------------------------------
Archival summary:
1\1\n0096.mhg0\SP\ROProcedureUnspecified\BasisUnspecified\11(2)\yhljason\SunSep2003:46:132020SunSep2003:46:132020\0\\#,ROProcedureUnspecified,BasisUnspecified,\\0,2\N\C,1,1.1718\\\@

 Total job time:  9917.46s(wall), 124934.79s(cpu) 
 Sun Sep 20 03:46:13 2020

        *************************************************************
        *                                                           *
        *  Thank you very much for using Q-Chem.  Have a nice day.  *
        *                                                           *
        *************************************************************


 
User input: 2 of 7 
 
Q-Chem Developer Version!
                  Welcome to Q-Chem
     A Quantum Leap Into The Future Of Chemistry


 Q-Chem 5.1, Q-Chem, Inc., Pleasanton, CA (2018)

 Yihan Shao,  Zhengting Gan,  E. Epifanovsky,  A. T. B. Gilbert,  M. Wormit,  
 J. Kussmann,  A. W. Lange,  A. Behn,  Jia Deng,  Xintian Feng,  D. Ghosh,  
 M. Goldey,  P. R. Horn,  L. D. Jacobson,  I. Kaliman,  T. Kus,  A. Landau,  
 Jie Liu,  E. I. Proynov,  R. M. Richard,  R. P. Steele,  E. J. Sundstrom,  
 H. L. Woodcock III,  P. M. Zimmerman,  D. Zuev,  B. Albrecht,  E. Alguire,  
 S. A. Baeppler,  D. Barton,  Z. Benda,  Y. A. Bernard,  E. J. Berquist,  
 K. B. Bravaya,  H. Burton,  D. Casanova,  Chun-Min Chang,  Yunqing Chen,  
 A. Chien,  K. D. Closser,  M. P. Coons,  S. Coriani,  S. Dasgupta,  
 A. L. Dempwolff,  M. Diedenhofen,  Hainam Do,  R. G. Edgar,  Po-Tung Fang,  
 S. Faraji,  S. Fatehi,  Qingguo Feng,  K. D. Fenk,  J. Fosso-Tande,  
 Qinghui Ge,  A. Ghysels,  G. Gidofalvi,  J. Gomes,  J. Gonthier,  A. Gunina,  
 D. Hait,  M. W. D. Hanson-Heine,  P. H. P. Harbach,  A. W. Hauser,  
 J. E. Herr,  E. G. Hohenstein,  Z. C. Holden,  Kerwin Hui,  B. C. Huynh,  
 T.-C. Jagau,  Hyunjun Ji,  B. Kaduk,  K. Khistyaev,  Jaehoon Kim,  
 P. Klunzinger,  K. Koh,  D. Kosenkov,  L. Koulias,  T. Kowalczyk,  
 C. M. Krauter,  A. Kunitsa,  Ka Un Lao,  A. Laurent,  K. V. Lawler,  
 Joonho Lee,  D. Lefrancois,  S. Lehtola,  D. S. Levine,  Yi-Pei Li,  
 You-Sheng Lin,  Fenglai Liu,  E. Livshits,  A. Luenser,  P. Manohar,  
 E. Mansoor,  S. F. Manzer,  Shan-Ping Mao,  Yuezhi Mao,  N. Mardirossian,  
 A. V. Marenich,  T. Markovich,  L. A. Martinez-Martinez,  S. A. Maurer,  
 N. J. Mayhall,  S. C. McKenzie,  J.-M. Mewes,  A. F. Morrison,  
 J. W. Mullinax,  K. Nanda,  T. S. Nguyen-Beck,  R. Olivares-Amaya,  
 J. A. Parkhill,  T. M. Perrine,  F. Plasser,  P. Pokhilko,  S. Prager,  
 A. Prociuk,  E. Ramos,  D. R. Rehn,  F. Rob,  M. Schneider,  N. Sergueev,  
 S. M. Sharada,  S. Sharma,  D. W. Small,  T. Stauch,  T. Stein,  
 Yu-Chuan Su,  A. J. W. Thom,  A. Tkatchenko,  T. Tsuchimochi,  N. M. Tubman,  
 L. Vogt,  M. L. Vidal,  O. Vydrov,  M. A. Watson,  J. Wenzel,  
 M. de Wergifosse,  T. A. Wesolowski,  A. White,  J. Witte,  A. Yamada,  
 Jun Yang,  K. Yao,  S. Yeganeh,  S. R. Yost,  Zhi-Qiang You,  A. Zech,  
 Igor Ying Zhang,  Xing Zhang,  Yan Zhao,  Ying Zhu,  B. R. Brooks,  
 G. K. L. Chan,  C. J. Cramer,  M. S. Gordon,  W. J. Hehre,  A. Klamt,  
 M. W. Schmidt,  C. D. Sherrill,  D. G. Truhlar,  A. Aspuru-Guzik,  R. Baer,  
 A. T. Bell,  N. A. Besley,  Jeng-Da Chai,  A. E. DePrince, III,  
 R. A. DiStasio Jr.,  A. Dreuw,  B. D. Dunietz,  T. R. Furlani,  
 Chao-Ping Hsu,  Yousung Jung,  Jing Kong,  D. S. Lambrecht,  WanZhen Liang,  
 C. Ochsenfeld,  V. A. Rassolov,  L. V. Slipchenko,  J. E. Subotnik,  
 T. Van Voorhis,  J. M. Herbert,  A. I. Krylov,  P. M. W. Gill,  M. Head-Gordon

 Contributors to earlier versions of Q-Chem not listed above: 
 R. D. Adamson,  B. Austin,  J. Baker,  G. J. O. Beran,  K. Brandhorst,  
 S. T. Brown,  E. F. C. Byrd,  A. K. Chakraborty,  C.-L. Cheng,  
 Siu Hung Chien,  D. M. Chipman,  D. L. Crittenden,  H. Dachsel,  
 R. J. Doerksen,  A. D. Dutoi,  L. Fusti-Molnar,  W. A. Goddard III,  
 A. Golubeva-Zadorozhnaya,  S. R. Gwaltney,  G. Hawkins,  A. Heyden,  
 S. Hirata,  G. Kedziora,  F. J. Keil,  C. Kelley,  Jihan Kim,  R. A. King,  
 R. Z. Khaliullin,  P. P. Korambath,  W. Kurlancheek,  A. M. Lee,  M. S. Lee,  
 S. V. Levchenko,  Ching Yeh Lin,  D. Liotard,  R. C. Lochan,  I. Lotan,  
 P. E. Maslen,  N. Nair,  D. P. O'Neill,  D. Neuhauser,  E. Neuscamman,  
 C. M. Oana,  R. Olson,  B. Peters,  R. Peverati,  P. A. Pieniazek,  
 Y. M. Rhee,  J. Ritchie,  M. A. Rohrdanz,  E. Rosta,  N. J. Russ,  
 H. F. Schaefer III,  N. E. Schultz,  N. Shenvi,  A. C. Simmonett,  A. Sodt,  
 D. Stuck,  K. S. Thanthiriwatte,  V. Vanovschi,  Tao Wang,  A. Warshel,  
 C. F. Williams,  Q. Wu,  X. Xu,  W. Zhang

 Please cite Q-Chem as follows:
 Y. Shao et al., Mol. Phys. 113, 184-215 (2015)
 DOI: 10.1080/00268976.2014.952696

 Q-Chem 5.1.1 for Intel X86 EM64T Linux

 Parts of Q-Chem use Armadillo 8.300.2 (Tropical Shenanigans).
 http://arma.sourceforge.net/

 Q-Chem begins on Sun Sep 20 03:46:14 2020  

Host: n0096.mhg0
0

     Scratch files written to /local/scratch/users/yhljason/CN_B2GPPLYP_aug-cc-pcV5Z.inp20200920010053//
The previous job contains 0 fragments, simply inherited here
Input Ideriv = 0
Curr. Ideriv = -1
Max.  Ideriv = 0
Input Ideriv = 1
Curr. Ideriv = 0
Max.  Ideriv = 0

Checking the input file for inconsistencies... 	...done.

--------------------------------------------------------------
User input:
--------------------------------------------------------------
$molecule
read
$end

$rem

jobtype sp
method B2GPPLYP
xc_grid 000099000590
basis aug-cc-pcV5Z
max_scf_cycles 200
thresh 14
scf_convergence 8
mem_total 128000
cc_memory 96000
cc_backend xm
mem_static 1500
symmetry false
sym_ignore true
scf_guess read
unrestricted false
scf_algorithm gdm
n_frozen_core 0
$end

$multipole_field
XX 0.0001
$end


--------------------------------------------------------------
 ----------------------------------------------------------------
             Standard Nuclear Orientation (Angstroms)
    I     Atom           X                Y                Z
 ----------------------------------------------------------------
    1      N       0.0000000000     0.0000000000     0.0000000000
    2      C       0.0000000000     0.0000000000     1.1718000000
 ----------------------------------------------------------------
 Nuclear Repulsion Energy =    18.9669251183 hartrees
 There are        7 alpha and        6 beta electrons
 Requested basis set is aug-cc-pCV5Z
 There are 82 shells and 362 basis functions

 Total QAlloc Memory Limit 128000 MB
 Mega-Array Size      1467 MB
 MEM_STATIC part      1500 MB

                       Distance Matrix (Angstroms)
             N (  1)
   C (  2)  1.171800
 
 Applying Cartesian multipole field
    Component          Value
    ---------          -----
     (2,0,0)        1.00000E-04
 A cutoff of  1.0D-14 yielded   3257 shell pairs
 There are     64599 function pairs (    125342 Cartesian)
 
 -------------------------------------------------------
 OpenMP Integral Computing Module                       
 Release: version 1.0, May 2013, Q-Chem Inc. Pittsburgh 
 -------------------------------------------------------
 Integral Job Info:
 Integral job number is                      11
 Integral operator is                         1
 short-range coefficients                     0
 long-range coefficients              100000000
 Omega coefficients                           0
 if combine SR and LR in K                    0
 Integral screening is                        0
 Integral computing path is                   2
 max size of driver memory is           6400000
 size of driver memory is               5498286
 size of scratch memory is             29551430
 max col of scratch BK array             194481
 max len of scratch array in speh3         5572
 max len of scratch index in speh4           72
 max int batch size is                      520
 min int batch size is                       52
 fixed nKL is                                30
 max L of basis functions is                  5
 order of int derivative is                   0
 number of shells is                         82
 number of basis is                         502
 number of cartesian basis is               502
 number of contracted shell pairs          3257
 number of primitive shell pairs           6867
 maxK2 (contraction) of shell pair          100
 max number of K2 of shell pair               1
 max number of CS2 of shell pair            306
 max number of PS2 of shell pair            600
 mem total for path MDJ                  998666
 -------------------------------------------------------
 Smallest overlap matrix eigenvalue = 7.48E-06
 Guess MOs from SCF MO coefficient file
 Reading MOs from coefficient file
 Reading MOs from coefficient file
 A restricted hybrid HF-DFT SCF calculation will be
 performed using Geometric Direct Minimization
 Exchange:     0.6500 Hartree-Fock + 0.3500 B88
 Correlation:  0.6400 LYP
 Using Euler-Maclaurin-Lebedev (99,590) quadrature formula
 SCF converges when RMS gradient is below 1.0E-08
Using Q-Chem read-in guess as SCF_GUESS READ specified.

 using 16 threads for integral computing
 -------------------------------------------------------
 OpenMP Integral computing Module                
 Release: version 2.0, May 2017, Q-Chem Inc. Pleasanton 
 -------------------------------------------------------
 LTot/LBra/LKet=          20          10          10
 LTot/LBra/LKet=          20          10          10
 LTot/LBra/LKet=          18           9           9
 LTot/LBra/LKet=          18           9           9

 Q-Chem warning:

 in GenH1, ket side, handled with new code

 LTot/LBra/LKet=          18           8          10

 Q-Chem warning:

 in GenH1, ket side, handled with new code

 LTot/LBra/LKet=          18           9           9
 LTot/LBra/LKet=          19           9          10

 Q-Chem warning:

 in GenH1, ket side, handled with new code


 Q-Chem warning:

 in GenH1, ket side, handled with new code


 Q-Chem warning:

 in GenH1, ket side, handled with new code


 Q-Chem warning:

 in GenH1, ket side, handled with new code


 Q-Chem warning:

 in GenH1, ket side, handled with new code

 LTot/LBra/LKet=          19           9          10

 Q-Chem warning:

 in GenH1, ket side, handled with new code

 LTot/LBra/LBra=          18           9           9

 Q-Chem warning:

 in GenH1, bra side, handled with new code

TIMEINFO->: J/JK contribution 1830.97 sec.
 -------------------------------------------------------
 OpenMP BLAS3 based DFT computing Module                
 Release: version 1.0, May 2013, Q-Chem Inc. Pittsburgh 
 -------------------------------------------------------
 ---------------------------------------
  Cycle       Energy        RMS Gradient
 ---------------------------------------
    1     -92.5236983542      3.32E-04 Normal BFGS step
TIMEINFO->: J/JK contribution 1821.33 sec.
    2     -92.5236985911      1.49E-04 Normal BFGS step
TIMEINFO->: J/JK contribution 1791.53 sec.
    3     -92.5236986162      7.91E-05 Normal BFGS step
TIMEINFO->: J/JK contribution 1783.51 sec.
    4     -92.5236986210      4.83E-05 Normal BFGS step
TIMEINFO->: J/JK contribution 1781.08 sec.
    5     -92.5236986249      3.09E-05 Normal BFGS step
TIMEINFO->: J/JK contribution 1767.32 sec.
    6     -92.5236986252      1.08E-05 Normal BFGS step
TIMEINFO->: J/JK contribution 1760.40 sec.
    7     -92.5236986253      1.39E-06 Normal BFGS step
TIMEINFO->: J/JK contribution 1721.68 sec.
    8     -92.5236986253      5.92E-07 Normal BFGS step
TIMEINFO->: J/JK contribution 1689.89 sec.
    9     -92.5236986253      2.40E-07 Normal BFGS step
TIMEINFO->: J/JK contribution 1678.76 sec.
   10     -92.5236986253      1.98E-07 Normal BFGS step
TIMEINFO->: J/JK contribution 1597.78 sec.
   11     -92.5236986253      4.84E-08 Normal BFGS step
TIMEINFO->: J/JK contribution 1565.31 sec.
   GDM::WARNING energy changes are now smaller than effective accuracy.
   GDM::        calculation will continue, but THRESH should be increased
   GDM::        or SCF_CONVERGENCE decreased.
   GDM::        effective_thresh =   6.999999999999999E-011
   12     -92.5236986253      3.40E-08 Normal BFGS step
TIMEINFO->: J/JK contribution 1523.45 sec.
   GDM::WARNING energy changes are now smaller than effective accuracy.
   GDM::        calculation will continue, but THRESH should be increased
   GDM::        or SCF_CONVERGENCE decreased.
   GDM::        effective_thresh =   6.999999999999999E-011
   13     -92.5236986253      9.61E-09 Convergence criterion met
 ---------------------------------------
 SCF time:  CPU 22601.66 s  wall 1424.99 s
 SCF   energy in the final basis set = -92.52369863
 Total energy in the final basis set = -92.52369863
 
 Components of the MP2 correlation energy:
        aaaa  correlation energy =        -0.0223540637 au
        abab  correlation energy =        -0.1509059488 au
        bbbb  correlation energy =        -0.0201996019 au
        non-Brillouin singles    =        -0.0022616444 au

 Total  MP2   correlation energy =                    -0.19572126 au
        MP2         total energy =                   -92.71941988 au
 
 --------------------------------------------------------------
 
                    Orbital Energies (a.u.)
 --------------------------------------------------------------
 
 Alpha MOs
 -- Occupied --
-15.096 -10.910  -1.139  -0.588  -0.472  -0.472  -0.560
 -- Virtual --
  0.032   0.036   0.037   0.041   0.064   0.065   0.092   0.103
  0.105   0.158   0.176   0.176   0.209   0.230   0.231   0.243
  0.244   0.243   0.311   0.319   0.319   0.359   0.360   0.434
  0.510   0.510   0.522   0.546   0.547   0.569   0.571   0.571
  0.579   0.579   0.617   0.617   0.625   0.744   0.744   0.788
  0.837   0.837   0.867   0.867   0.892   0.892   0.959   0.970
  1.057   1.058   1.139   1.139   1.152   1.241   1.242   1.249
  1.488   1.488   1.534   1.534   1.537   1.537   1.549   1.549
  1.564   1.572   1.572   1.606   1.606   1.658   1.658   1.799
  1.874   1.889   1.893   1.893   1.982   1.982   2.216   2.216
  2.258   2.289   2.289   2.317   2.317   2.347   2.347   2.398
  2.398   2.513   2.589   2.590   2.600   2.600   2.690   2.690
  2.700   3.043   3.044   3.223   3.228   3.228   3.377   3.377
  3.517   3.531   3.532   3.608   3.608   3.775   3.836   3.836
  3.869   3.869   3.874   3.874   3.912   3.912   3.932   3.932
  3.986   3.986   3.984   4.126   4.126   4.295   4.329   4.329
  4.358   4.358   4.372   4.372   4.587   4.726   4.726   4.872
  5.063   5.063   5.098   5.098   5.289   5.289   5.403   5.404
  5.570   5.570   5.605   5.605   5.617   5.624   5.624   5.809
  5.809   5.882   5.882   5.941   6.214   6.214   6.262   6.262
  6.408   6.562   6.562   6.661   6.661   6.951   7.426   7.512
  7.512   7.778   7.778   7.933   7.933   7.997   8.383   8.383
  8.766   8.766   8.825   8.848   8.848   9.318   9.318   9.347
  9.347   9.357   9.357   9.867  10.015  10.015  10.173  10.173
 10.192  10.192  10.287  10.287  10.431  10.684  10.697  10.697
 10.980  10.980  11.197  11.234  11.234  11.622  11.622  12.072
 12.072  12.242  12.242  12.509  12.509  12.831  13.116  13.116
 13.298  13.298  13.509  13.509  13.667  13.999  13.999  14.099
 14.447  14.447  14.466  14.466  14.749  14.749  14.964  14.964
 15.598  15.598  15.616  15.616  15.696  17.178  17.734  17.734
 17.780  17.780  18.706  18.706  19.505  20.208  20.942  20.942
 22.655  25.770  29.417  29.417  31.307  35.109  35.109  36.201
 36.201  36.739  46.409  46.409  46.648  46.648  47.120  47.120
 47.372  49.845  50.252  50.252  50.830  50.830  51.536  58.123
 58.123  58.437  58.437  58.610  58.610  59.161  59.161  59.227
 60.603  65.944  82.361  82.361  83.963 106.947 106.947 107.699
107.699 108.042 129.139 149.973 149.973 150.400 150.400 150.803
164.355 164.355 165.909 166.837 166.837 166.837 166.837 166.841
166.841 166.854 166.854 166.858 171.884 187.421 187.421 187.534
187.534 187.721 187.721 187.984 208.317 208.317 208.321 208.321
208.325 208.325 208.332 208.332 208.340 228.929 228.929 230.254
235.379 235.379 235.509 235.509 235.775 235.775 235.911 328.396
328.396 328.922 328.922 329.131 336.338 448.977 455.741 455.741
456.039 456.039 456.355 463.903 463.903 465.384 642.648 642.648
643.7921172.1281574.974
 
 Beta MOs
 -- Occupied --
-15.091 -10.888  -1.106  -0.530  -0.456  -0.456
 -- Virtual --
 -0.136   0.036   0.040   0.042   0.042   0.081   0.082   0.093
  0.111   0.112   0.161   0.176   0.176   0.215   0.232   0.234
  0.245   0.246   0.252   0.312   0.319   0.319   0.364   0.365
  0.446   0.510   0.510   0.539   0.547   0.548   0.576   0.576
  0.576   0.583   0.584   0.618   0.618   0.640   0.751   0.752
  0.799   0.836   0.836   0.868   0.868   0.896   0.897   0.973
  0.994   1.064   1.065   1.139   1.139   1.163   1.251   1.251
  1.278   1.489   1.489   1.539   1.539   1.553   1.553   1.569
  1.569   1.583   1.586   1.587   1.610   1.610   1.659   1.659
  1.807   1.902   1.893   1.901   1.902   1.984   1.984   2.216
  2.216   2.277   2.290   2.290   2.325   2.326   2.349   2.349
  2.405   2.406   2.520   2.598   2.599   2.602   2.602   2.690
  2.690   2.725   3.059   3.059   3.244   3.240   3.240   3.380
  3.380   3.535   3.555   3.555   3.613   3.613   3.805   3.859
  3.859   3.885   3.885   3.881   3.881   3.934   3.934   3.939
  3.939   4.003   4.003   4.009   4.140   4.140   4.316   4.336
  4.336   4.363   4.363   4.381   4.381   4.609   4.727   4.727
  4.902   5.086   5.086   5.110   5.110   5.290   5.290   5.416
  5.417   5.573   5.573   5.606   5.606   5.629   5.629   5.629
  5.814   5.814   5.883   5.883   5.950   6.220   6.220   6.281
  6.281   6.427   6.565   6.565   6.666   6.666   6.969   7.461
  7.524   7.524   7.796   7.796   7.944   7.944   8.006   8.405
  8.405   8.773   8.773   8.864   8.862   8.862   9.338   9.338
  9.379   9.380   9.395   9.395   9.899  10.026  10.026  10.183
 10.183  10.213  10.213  10.302  10.302  10.449  10.714  10.715
 10.715  10.985  10.986  11.225  11.262  11.262  11.659  11.660
 12.076  12.076  12.242  12.242  12.512  12.512  12.851  13.121
 13.121  13.317  13.317  13.517  13.517  13.679  14.011  14.012
 14.123  14.447  14.447  14.466  14.466  14.754  14.754  14.973
 14.973  15.612  15.612  15.623  15.623  15.714  17.194  17.747
 17.747  17.781  17.781  18.716  18.716  19.521  20.225  20.949
 20.949  22.674  25.777  29.418  29.418  31.317  35.113  35.113
 36.218  36.218  36.763  46.410  46.410  46.657  46.657  47.135
 47.135  47.389  49.855  50.252  50.252  50.835  50.835  51.545
 58.123  58.123  58.441  58.441  58.615  58.615  59.167  59.167
 59.234  60.618  65.947  82.362  82.362  83.968 106.950 106.950
107.707 107.707 108.052 129.147 149.974 149.974 150.402 150.402
150.806 164.360 164.360 165.919 166.838 166.838 166.841 166.841
166.848 166.848 166.862 166.862 166.867 171.885 187.423 187.423
187.539 187.539 187.728 187.728 187.991 208.317 208.317 208.323
208.323 208.328 208.328 208.335 208.335 208.343 228.929 228.929
230.256 235.379 235.379 235.511 235.511 235.776 235.776 235.913
328.401 328.401 328.928 328.928 329.138 336.345 448.977 455.741
455.741 456.040 456.040 456.356 463.909 463.909 465.391 642.648
642.648 643.7921172.1341574.975
 --------------------------------------------------------------
 
          Ground-State Mulliken Net Atomic Charges

     Atom                 Charge (a.u.)
  ----------------------------------------
      1 N                    -0.342964
      2 C                     0.342964
  ----------------------------------------
  Sum of atomic charges =     0.000000

 -----------------------------------------------------------------
                    Cartesian Multipole Moments
 -----------------------------------------------------------------
    Charge (ESU x 10^10)
                 0.0000
    Dipole Moment (Debye)
         X      -0.0000      Y       0.0000      Z       1.9931
       Tot       1.9931
    Quadrupole Moments (Debye-Ang)
        XX     -11.1383     XY       0.0000     YY     -11.1323
        XZ      -0.0000     YZ       0.0000     ZZ      -8.0857
    Octopole Moments (Debye-Ang^2)
       XXX      -0.0000    XXY       0.0000    XYY      -0.0000
       YYY       0.0000    XXZ      -5.9895    XYZ      -0.0000
       YYZ      -5.9855    XZZ      -0.0000    YZZ       0.0000
       ZZZ     -13.3891
    Hexadecapole Moments (Debye-Ang^3)
      XXXX     -11.6746   XXXY      -0.0000   XXYY      -3.8877
      XYYY      -0.0000   YYYY     -11.6514   XXXZ      -0.0000
      XXYZ       0.0000   XYYZ      -0.0000   YYYZ       0.0000
      XXZZ     -10.4692   XYZZ      -0.0000   YYZZ     -10.4610
      XZZZ      -0.0000   YZZZ       0.0000   ZZZZ     -46.5723
 -----------------------------------------------------------------
Archival summary:
1\1\n0096.mhg0\SP\ROProcedureUnspecified\BasisUnspecified\11(2)\yhljason\SunSep2005:54:202020SunSep2005:54:202020\0\\#,ROProcedureUnspecified,BasisUnspecified,\\0,2\N\C,1,1.1718\\\@

 Total job time:  7686.15s(wall), 90581.98s(cpu) 
 Sun Sep 20 05:54:20 2020

        *************************************************************
        *                                                           *
        *  Thank you very much for using Q-Chem.  Have a nice day.  *
        *                                                           *
        *************************************************************


 
User input: 3 of 7 
 
Q-Chem Developer Version!
                  Welcome to Q-Chem
     A Quantum Leap Into The Future Of Chemistry


 Q-Chem 5.1, Q-Chem, Inc., Pleasanton, CA (2018)

 Yihan Shao,  Zhengting Gan,  E. Epifanovsky,  A. T. B. Gilbert,  M. Wormit,  
 J. Kussmann,  A. W. Lange,  A. Behn,  Jia Deng,  Xintian Feng,  D. Ghosh,  
 M. Goldey,  P. R. Horn,  L. D. Jacobson,  I. Kaliman,  T. Kus,  A. Landau,  
 Jie Liu,  E. I. Proynov,  R. M. Richard,  R. P. Steele,  E. J. Sundstrom,  
 H. L. Woodcock III,  P. M. Zimmerman,  D. Zuev,  B. Albrecht,  E. Alguire,  
 S. A. Baeppler,  D. Barton,  Z. Benda,  Y. A. Bernard,  E. J. Berquist,  
 K. B. Bravaya,  H. Burton,  D. Casanova,  Chun-Min Chang,  Yunqing Chen,  
 A. Chien,  K. D. Closser,  M. P. Coons,  S. Coriani,  S. Dasgupta,  
 A. L. Dempwolff,  M. Diedenhofen,  Hainam Do,  R. G. Edgar,  Po-Tung Fang,  
 S. Faraji,  S. Fatehi,  Qingguo Feng,  K. D. Fenk,  J. Fosso-Tande,  
 Qinghui Ge,  A. Ghysels,  G. Gidofalvi,  J. Gomes,  J. Gonthier,  A. Gunina,  
 D. Hait,  M. W. D. Hanson-Heine,  P. H. P. Harbach,  A. W. Hauser,  
 J. E. Herr,  E. G. Hohenstein,  Z. C. Holden,  Kerwin Hui,  B. C. Huynh,  
 T.-C. Jagau,  Hyunjun Ji,  B. Kaduk,  K. Khistyaev,  Jaehoon Kim,  
 P. Klunzinger,  K. Koh,  D. Kosenkov,  L. Koulias,  T. Kowalczyk,  
 C. M. Krauter,  A. Kunitsa,  Ka Un Lao,  A. Laurent,  K. V. Lawler,  
 Joonho Lee,  D. Lefrancois,  S. Lehtola,  D. S. Levine,  Yi-Pei Li,  
 You-Sheng Lin,  Fenglai Liu,  E. Livshits,  A. Luenser,  P. Manohar,  
 E. Mansoor,  S. F. Manzer,  Shan-Ping Mao,  Yuezhi Mao,  N. Mardirossian,  
 A. V. Marenich,  T. Markovich,  L. A. Martinez-Martinez,  S. A. Maurer,  
 N. J. Mayhall,  S. C. McKenzie,  J.-M. Mewes,  A. F. Morrison,  
 J. W. Mullinax,  K. Nanda,  T. S. Nguyen-Beck,  R. Olivares-Amaya,  
 J. A. Parkhill,  T. M. Perrine,  F. Plasser,  P. Pokhilko,  S. Prager,  
 A. Prociuk,  E. Ramos,  D. R. Rehn,  F. Rob,  M. Schneider,  N. Sergueev,  
 S. M. Sharada,  S. Sharma,  D. W. Small,  T. Stauch,  T. Stein,  
 Yu-Chuan Su,  A. J. W. Thom,  A. Tkatchenko,  T. Tsuchimochi,  N. M. Tubman,  
 L. Vogt,  M. L. Vidal,  O. Vydrov,  M. A. Watson,  J. Wenzel,  
 M. de Wergifosse,  T. A. Wesolowski,  A. White,  J. Witte,  A. Yamada,  
 Jun Yang,  K. Yao,  S. Yeganeh,  S. R. Yost,  Zhi-Qiang You,  A. Zech,  
 Igor Ying Zhang,  Xing Zhang,  Yan Zhao,  Ying Zhu,  B. R. Brooks,  
 G. K. L. Chan,  C. J. Cramer,  M. S. Gordon,  W. J. Hehre,  A. Klamt,  
 M. W. Schmidt,  C. D. Sherrill,  D. G. Truhlar,  A. Aspuru-Guzik,  R. Baer,  
 A. T. Bell,  N. A. Besley,  Jeng-Da Chai,  A. E. DePrince, III,  
 R. A. DiStasio Jr.,  A. Dreuw,  B. D. Dunietz,  T. R. Furlani,  
 Chao-Ping Hsu,  Yousung Jung,  Jing Kong,  D. S. Lambrecht,  WanZhen Liang,  
 C. Ochsenfeld,  V. A. Rassolov,  L. V. Slipchenko,  J. E. Subotnik,  
 T. Van Voorhis,  J. M. Herbert,  A. I. Krylov,  P. M. W. Gill,  M. Head-Gordon

 Contributors to earlier versions of Q-Chem not listed above: 
 R. D. Adamson,  B. Austin,  J. Baker,  G. J. O. Beran,  K. Brandhorst,  
 S. T. Brown,  E. F. C. Byrd,  A. K. Chakraborty,  C.-L. Cheng,  
 Siu Hung Chien,  D. M. Chipman,  D. L. Crittenden,  H. Dachsel,  
 R. J. Doerksen,  A. D. Dutoi,  L. Fusti-Molnar,  W. A. Goddard III,  
 A. Golubeva-Zadorozhnaya,  S. R. Gwaltney,  G. Hawkins,  A. Heyden,  
 S. Hirata,  G. Kedziora,  F. J. Keil,  C. Kelley,  Jihan Kim,  R. A. King,  
 R. Z. Khaliullin,  P. P. Korambath,  W. Kurlancheek,  A. M. Lee,  M. S. Lee,  
 S. V. Levchenko,  Ching Yeh Lin,  D. Liotard,  R. C. Lochan,  I. Lotan,  
 P. E. Maslen,  N. Nair,  D. P. O'Neill,  D. Neuhauser,  E. Neuscamman,  
 C. M. Oana,  R. Olson,  B. Peters,  R. Peverati,  P. A. Pieniazek,  
 Y. M. Rhee,  J. Ritchie,  M. A. Rohrdanz,  E. Rosta,  N. J. Russ,  
 H. F. Schaefer III,  N. E. Schultz,  N. Shenvi,  A. C. Simmonett,  A. Sodt,  
 D. Stuck,  K. S. Thanthiriwatte,  V. Vanovschi,  Tao Wang,  A. Warshel,  
 C. F. Williams,  Q. Wu,  X. Xu,  W. Zhang

 Please cite Q-Chem as follows:
 Y. Shao et al., Mol. Phys. 113, 184-215 (2015)
 DOI: 10.1080/00268976.2014.952696

 Q-Chem 5.1.1 for Intel X86 EM64T Linux

 Parts of Q-Chem use Armadillo 8.300.2 (Tropical Shenanigans).
 http://arma.sourceforge.net/

 Q-Chem begins on Sun Sep 20 05:54:20 2020  

Host: n0096.mhg0
0

     Scratch files written to /local/scratch/users/yhljason/CN_B2GPPLYP_aug-cc-pcV5Z.inp20200920010053//
The previous job contains 0 fragments, simply inherited here
Input Ideriv = 0
Curr. Ideriv = -1
Max.  Ideriv = 0
Input Ideriv = 1
Curr. Ideriv = 0
Max.  Ideriv = 0

Checking the input file for inconsistencies... 	...done.

--------------------------------------------------------------
User input:
--------------------------------------------------------------
$molecule
read
$end

$rem

jobtype sp
method B2GPPLYP
xc_grid 000099000590
basis aug-cc-pcV5Z
max_scf_cycles 200
thresh 14
scf_convergence 8
mem_total 128000
cc_memory 96000
cc_backend xm
mem_static 1500
symmetry false
sym_ignore true
scf_guess read
unrestricted false
scf_algorithm gdm
n_frozen_core 0
$end

$multipole_field
XX -0.0001
$end


--------------------------------------------------------------
 ----------------------------------------------------------------
             Standard Nuclear Orientation (Angstroms)
    I     Atom           X                Y                Z
 ----------------------------------------------------------------
    1      N       0.0000000000     0.0000000000     0.0000000000
    2      C       0.0000000000     0.0000000000     1.1718000000
 ----------------------------------------------------------------
 Nuclear Repulsion Energy =    18.9669251183 hartrees
 There are        7 alpha and        6 beta electrons
 Requested basis set is aug-cc-pCV5Z
 There are 82 shells and 362 basis functions

 Total QAlloc Memory Limit 128000 MB
 Mega-Array Size      1467 MB
 MEM_STATIC part      1500 MB

                       Distance Matrix (Angstroms)
             N (  1)
   C (  2)  1.171800
 
 Applying Cartesian multipole field
    Component          Value
    ---------          -----
     (2,0,0)       -1.00000E-04
 A cutoff of  1.0D-14 yielded   3257 shell pairs
 There are     64599 function pairs (    125342 Cartesian)
 
 -------------------------------------------------------
 OpenMP Integral Computing Module                       
 Release: version 1.0, May 2013, Q-Chem Inc. Pittsburgh 
 -------------------------------------------------------
 Integral Job Info:
 Integral job number is                      11
 Integral operator is                         1
 short-range coefficients                     0
 long-range coefficients              100000000
 Omega coefficients                           0
 if combine SR and LR in K                    0
 Integral screening is                        0
 Integral computing path is                   2
 max size of driver memory is           6400000
 size of driver memory is               5498286
 size of scratch memory is             29551430
 max col of scratch BK array             194481
 max len of scratch array in speh3         5572
 max len of scratch index in speh4           72
 max int batch size is                      520
 min int batch size is                       52
 fixed nKL is                                30
 max L of basis functions is                  5
 order of int derivative is                   0
 number of shells is                         82
 number of basis is                         502
 number of cartesian basis is               502
 number of contracted shell pairs          3257
 number of primitive shell pairs           6867
 maxK2 (contraction) of shell pair          100
 max number of K2 of shell pair               1
 max number of CS2 of shell pair            306
 max number of PS2 of shell pair            600
 mem total for path MDJ                  998666
 -------------------------------------------------------
 Smallest overlap matrix eigenvalue = 7.48E-06
 Guess MOs from SCF MO coefficient file
 Reading MOs from coefficient file
 Reading MOs from coefficient file
 A restricted hybrid HF-DFT SCF calculation will be
 performed using Geometric Direct Minimization
 Exchange:     0.6500 Hartree-Fock + 0.3500 B88
 Correlation:  0.6400 LYP
 Using Euler-Maclaurin-Lebedev (99,590) quadrature formula
 SCF converges when RMS gradient is below 1.0E-08
Using Q-Chem read-in guess as SCF_GUESS READ specified.

 using 16 threads for integral computing
 -------------------------------------------------------
 OpenMP Integral computing Module                
 Release: version 2.0, May 2017, Q-Chem Inc. Pleasanton 
 -------------------------------------------------------
 LTot/LBra/LKet=          18           9           9
 LTot/LBra/LKet=          18           9           9

 Q-Chem warning:

 in GenH1, ket side, handled with new code

 LTot/LBra/LKet=          18           9           9
 LTot/LBra/LKet=          18           8          10

 Q-Chem warning:

 in GenH1, ket side, handled with new code

 LTot/LBra/LKet=          19           9          10

 Q-Chem warning:

 in GenH1, ket side, handled with new code

 LTot/LBra/LKet=          18           9           9

 Q-Chem warning:

 in GenH1, ket side, handled with new code


 Q-Chem warning:

 in GenH1, ket side, handled with new code

 LTot/LBra/LKet=          19           9          10

 Q-Chem warning:

 in GenH1, ket side, handled with new code


 Q-Chem warning:

 in GenH1, ket side, handled with new code

 LTot/LBra/LKet=          18           9           9

 Q-Chem warning:

 in GenH1, ket side, handled with new code

 LTot/LBra/LBra=          18           9           9

 Q-Chem warning:

 in GenH1, bra side, handled with new code

TIMEINFO->: J/JK contribution 1839.08 sec.
 -------------------------------------------------------
 OpenMP BLAS3 based DFT computing Module                
 Release: version 1.0, May 2013, Q-Chem Inc. Pittsburgh 
 -------------------------------------------------------
 ---------------------------------------
  Cycle       Energy        RMS Gradient
 ---------------------------------------
    1     -92.5220424094      6.55E-04 Normal BFGS step
TIMEINFO->: J/JK contribution 1821.60 sec.
    2     -92.5220433581      2.92E-04 Normal BFGS step
TIMEINFO->: J/JK contribution 1803.45 sec.
    3     -92.5220434571      1.56E-04 Normal BFGS step
TIMEINFO->: J/JK contribution 1791.48 sec.
    4     -92.5220434764      9.74E-05 Normal BFGS step
TIMEINFO->: J/JK contribution 1796.07 sec.
    5     -92.5220434924      6.03E-05 Normal BFGS step
TIMEINFO->: J/JK contribution 1779.96 sec.
    6     -92.5220434936      2.08E-05 Normal BFGS step
TIMEINFO->: J/JK contribution 1757.95 sec.
    7     -92.5220434938      2.73E-06 Normal BFGS step
TIMEINFO->: J/JK contribution 1745.63 sec.
    8     -92.5220434938      1.17E-06 Normal BFGS step
TIMEINFO->: J/JK contribution 1719.20 sec.
    9     -92.5220434938      4.65E-07 Normal BFGS step
TIMEINFO->: J/JK contribution 1711.04 sec.
   10     -92.5220434938      3.92E-07 Normal BFGS step
TIMEINFO->: J/JK contribution 1641.21 sec.
   11     -92.5220434938      9.10E-08 Normal BFGS step
TIMEINFO->: J/JK contribution 1601.04 sec.
   12     -92.5220434938      6.53E-08 Normal BFGS step
TIMEINFO->: J/JK contribution 1568.60 sec.
   GDM::WARNING energy changes are now smaller than effective accuracy.
   GDM::        calculation will continue, but THRESH should be increased
   GDM::        or SCF_CONVERGENCE decreased.
   GDM::        effective_thresh =   6.999999999999999E-011
   13     -92.5220434938      1.79E-08 Normal BFGS step
TIMEINFO->: J/JK contribution 1514.61 sec.
   14     -92.5220434938      7.24E-09 Convergence criterion met
 ---------------------------------------
 SCF time:  CPU 24405.12 s  wall 1537.76 s
 SCF   energy in the final basis set = -92.52204349
 Total energy in the final basis set = -92.52204349
 
 Components of the MP2 correlation energy:
        aaaa  correlation energy =        -0.0223550186 au
        abab  correlation energy =        -0.1509188255 au
        bbbb  correlation energy =        -0.0202017592 au
        non-Brillouin singles    =        -0.0022615209 au

 Total  MP2   correlation energy =                    -0.19573712 au
        MP2         total energy =                   -92.71778062 au
 
 --------------------------------------------------------------
 
                    Orbital Energies (a.u.)
 --------------------------------------------------------------
 
 Alpha MOs
 -- Occupied --
-15.096 -10.910  -1.139  -0.588  -0.471  -0.471  -0.559
 -- Virtual --
  0.034   0.039   0.041   0.045   0.066   0.067   0.094   0.107
  0.109   0.162   0.178   0.179   0.211   0.233   0.234   0.245
  0.247   0.245   0.313   0.322   0.322   0.361   0.362   0.437
  0.512   0.512   0.523   0.548   0.549   0.570   0.572   0.572
  0.580   0.581   0.619   0.619   0.627   0.745   0.745   0.789
  0.838   0.838   0.868   0.868   0.893   0.893   0.960   0.971
  1.059   1.059   1.140   1.140   1.153   1.242   1.243   1.249
  1.489   1.489   1.535   1.535   1.538   1.538   1.550   1.550
  1.565   1.572   1.573   1.606   1.606   1.659   1.659   1.800
  1.875   1.889   1.893   1.894   1.983   1.983   2.217   2.217
  2.258   2.289   2.289   2.318   2.318   2.347   2.347   2.398
  2.398   2.513   2.590   2.590   2.601   2.601   2.691   2.691
  2.701   3.044   3.044   3.224   3.229   3.229   3.378   3.378
  3.518   3.532   3.532   3.609   3.609   3.776   3.836   3.836
  3.869   3.870   3.875   3.875   3.913   3.913   3.933   3.933
  3.986   3.986   3.985   4.127   4.127   4.296   4.329   4.329
  4.359   4.359   4.372   4.372   4.588   4.727   4.727   4.873
  5.064   5.064   5.099   5.099   5.289   5.289   5.404   5.404
  5.571   5.571   5.606   5.606   5.618   5.625   5.625   5.809
  5.809   5.882   5.882   5.941   6.214   6.214   6.262   6.262
  6.409   6.563   6.563   6.661   6.661   6.952   7.427   7.513
  7.513   7.779   7.779   7.933   7.933   7.997   8.384   8.384
  8.766   8.766   8.825   8.848   8.848   9.318   9.318   9.348
  9.348   9.357   9.357   9.867  10.015  10.015  10.173  10.173
 10.193  10.193  10.287  10.287  10.431  10.684  10.698  10.698
 10.981  10.981  11.198  11.235  11.235  11.622  11.622  12.072
 12.072  12.242  12.242  12.509  12.509  12.831  13.117  13.117
 13.298  13.298  13.509  13.509  13.667  13.999  13.999  14.100
 14.447  14.447  14.466  14.466  14.749  14.749  14.965  14.965
 15.599  15.599  15.616  15.616  15.696  17.178  17.735  17.735
 17.780  17.780  18.707  18.707  19.505  20.209  20.943  20.943
 22.656  25.771  29.417  29.417  31.307  35.110  35.110  36.202
 36.202  36.740  46.410  46.410  46.648  46.648  47.121  47.121
 47.373  49.845  50.252  50.252  50.830  50.830  51.537  58.124
 58.124  58.438  58.438  58.610  58.610  59.162  59.162  59.228
 60.603  65.945  82.362  82.362  83.964 106.947 106.947 107.700
107.700 108.042 129.139 149.974 149.974 150.401 150.401 150.804
164.355 164.355 165.910 166.838 166.838 166.838 166.838 166.842
166.842 166.855 166.855 166.859 171.884 187.421 187.421 187.534
187.534 187.722 187.722 187.985 208.318 208.318 208.322 208.322
208.326 208.326 208.332 208.332 208.340 228.929 228.929 230.254
235.379 235.379 235.510 235.510 235.775 235.775 235.912 328.397
328.397 328.922 328.922 329.131 336.339 448.977 455.742 455.742
456.040 456.040 456.355 463.903 463.903 465.384 642.649 642.649
643.7921172.1291574.975
 
 Beta MOs
 -- Occupied --
-15.091 -10.887  -1.105  -0.529  -0.455  -0.455
 -- Virtual --
 -0.136   0.039   0.045   0.047   0.045   0.083   0.084   0.096
  0.114   0.116   0.164   0.179   0.179   0.217   0.236   0.237
  0.247   0.248   0.255   0.314   0.321   0.322   0.366   0.367
  0.448   0.512   0.512   0.540   0.549   0.550   0.577   0.578
  0.578   0.585   0.585   0.619   0.619   0.641   0.752   0.753
  0.800   0.838   0.838   0.869   0.869   0.897   0.898   0.974
  0.995   1.066   1.066   1.140   1.140   1.164   1.252   1.253
  1.279   1.490   1.490   1.540   1.540   1.554   1.554   1.569
  1.569   1.584   1.587   1.587   1.611   1.611   1.660   1.660
  1.808   1.902   1.894   1.902   1.902   1.984   1.984   2.217
  2.217   2.278   2.290   2.290   2.326   2.326   2.349   2.349
  2.406   2.406   2.520   2.599   2.599   2.603   2.603   2.691
  2.691   2.725   3.060   3.060   3.245   3.241   3.241   3.380
  3.380   3.536   3.555   3.556   3.614   3.614   3.806   3.859
  3.859   3.885   3.885   3.882   3.882   3.935   3.935   3.940
  3.940   4.003   4.004   4.009   4.141   4.141   4.317   4.336
  4.336   4.363   4.363   4.381   4.381   4.609   4.727   4.727
  4.902   5.087   5.087   5.111   5.111   5.291   5.291   5.417
  5.417   5.573   5.573   5.606   5.606   5.629   5.629   5.629
  5.814   5.814   5.884   5.884   5.951   6.220   6.220   6.282
  6.282   6.427   6.565   6.565   6.666   6.666   6.970   7.461
  7.525   7.525   7.796   7.796   7.944   7.944   8.006   8.405
  8.406   8.774   8.774   8.865   8.862   8.862   9.339   9.339
  9.380   9.380   9.395   9.395   9.899  10.027  10.027  10.183
 10.183  10.213  10.213  10.302  10.302  10.450  10.715  10.716
 10.716  10.986  10.986  11.225  11.262  11.262  11.660  11.660
 12.077  12.077  12.242  12.242  12.512  12.512  12.852  13.122
 13.122  13.317  13.317  13.518  13.518  13.680  14.012  14.012
 14.123  14.447  14.447  14.466  14.466  14.754  14.754  14.974
 14.974  15.613  15.613  15.623  15.623  15.715  17.194  17.747
 17.747  17.781  17.781  18.716  18.716  19.521  20.225  20.950
 20.950  22.675  25.777  29.419  29.419  31.318  35.114  35.114
 36.219  36.219  36.764  46.410  46.410  46.658  46.658  47.136
 47.136  47.389  49.855  50.253  50.253  50.836  50.836  51.545
 58.123  58.123  58.441  58.441  58.616  58.616  59.167  59.167
 59.235  60.618  65.948  82.362  82.362  83.969 106.950 106.950
107.708 107.708 108.053 129.147 149.974 149.974 150.403 150.403
150.807 164.361 164.361 165.919 166.839 166.839 166.842 166.842
166.848 166.848 166.863 166.863 166.867 171.886 187.424 187.424
187.539 187.539 187.728 187.728 187.992 208.318 208.318 208.323
208.323 208.328 208.328 208.335 208.335 208.343 228.930 228.930
230.257 235.379 235.379 235.511 235.511 235.777 235.777 235.914
328.402 328.402 328.929 328.929 329.138 336.345 448.978 455.742
455.742 456.041 456.041 456.356 463.909 463.909 465.392 642.649
642.649 643.7931172.1351574.975
 --------------------------------------------------------------
 
          Ground-State Mulliken Net Atomic Charges

     Atom                 Charge (a.u.)
  ----------------------------------------
      1 N                    -0.344646
      2 C                     0.344646
  ----------------------------------------
  Sum of atomic charges =    -0.000000

 -----------------------------------------------------------------
                    Cartesian Multipole Moments
 -----------------------------------------------------------------
    Charge (ESU x 10^10)
                -0.0000
    Dipole Moment (Debye)
         X       0.0000      Y      -0.0000      Z       1.9935
       Tot       1.9935
    Quadrupole Moments (Debye-Ang)
        XX     -11.1238     XY       0.0000     YY     -11.1298
        XZ       0.0000     YZ      -0.0000     ZZ      -8.0842
    Octopole Moments (Debye-Ang^2)
       XXX       0.0000    XXY      -0.0000    XYY       0.0000
       YYY      -0.0000    XXZ      -5.9802    XYZ       0.0000
       YYZ      -5.9842    XZZ       0.0000    YZZ      -0.0000
       ZZZ     -13.3864
    Hexadecapole Moments (Debye-Ang^3)
      XXXX     -11.6190   XXXY      -0.0000   XXYY      -3.8768
      XYYY       0.0000   YYYY     -11.6420   XXXZ      -0.0000
      XXYZ      -0.0000   XYYZ       0.0000   YYYZ      -0.0000
      XXZZ     -10.4494   XYZZ       0.0000   YYZZ     -10.4575
      XZZZ       0.0000   YZZZ      -0.0000   ZZZZ     -46.5618
 -----------------------------------------------------------------
Archival summary:
1\1\n0096.mhg0\SP\ROProcedureUnspecified\BasisUnspecified\11(2)\yhljason\SunSep2008:04:332020SunSep2008:04:332020\0\\#,ROProcedureUnspecified,BasisUnspecified,\\0,2\N\C,1,1.1718\\\@

 Total job time:  7813.38s(wall), 92639.89s(cpu) 
 Sun Sep 20 08:04:33 2020

        *************************************************************
        *                                                           *
        *  Thank you very much for using Q-Chem.  Have a nice day.  *
        *                                                           *
        *************************************************************


 
User input: 4 of 7 
 
Q-Chem Developer Version!
                  Welcome to Q-Chem
     A Quantum Leap Into The Future Of Chemistry


 Q-Chem 5.1, Q-Chem, Inc., Pleasanton, CA (2018)

 Yihan Shao,  Zhengting Gan,  E. Epifanovsky,  A. T. B. Gilbert,  M. Wormit,  
 J. Kussmann,  A. W. Lange,  A. Behn,  Jia Deng,  Xintian Feng,  D. Ghosh,  
 M. Goldey,  P. R. Horn,  L. D. Jacobson,  I. Kaliman,  T. Kus,  A. Landau,  
 Jie Liu,  E. I. Proynov,  R. M. Richard,  R. P. Steele,  E. J. Sundstrom,  
 H. L. Woodcock III,  P. M. Zimmerman,  D. Zuev,  B. Albrecht,  E. Alguire,  
 S. A. Baeppler,  D. Barton,  Z. Benda,  Y. A. Bernard,  E. J. Berquist,  
 K. B. Bravaya,  H. Burton,  D. Casanova,  Chun-Min Chang,  Yunqing Chen,  
 A. Chien,  K. D. Closser,  M. P. Coons,  S. Coriani,  S. Dasgupta,  
 A. L. Dempwolff,  M. Diedenhofen,  Hainam Do,  R. G. Edgar,  Po-Tung Fang,  
 S. Faraji,  S. Fatehi,  Qingguo Feng,  K. D. Fenk,  J. Fosso-Tande,  
 Qinghui Ge,  A. Ghysels,  G. Gidofalvi,  J. Gomes,  J. Gonthier,  A. Gunina,  
 D. Hait,  M. W. D. Hanson-Heine,  P. H. P. Harbach,  A. W. Hauser,  
 J. E. Herr,  E. G. Hohenstein,  Z. C. Holden,  Kerwin Hui,  B. C. Huynh,  
 T.-C. Jagau,  Hyunjun Ji,  B. Kaduk,  K. Khistyaev,  Jaehoon Kim,  
 P. Klunzinger,  K. Koh,  D. Kosenkov,  L. Koulias,  T. Kowalczyk,  
 C. M. Krauter,  A. Kunitsa,  Ka Un Lao,  A. Laurent,  K. V. Lawler,  
 Joonho Lee,  D. Lefrancois,  S. Lehtola,  D. S. Levine,  Yi-Pei Li,  
 You-Sheng Lin,  Fenglai Liu,  E. Livshits,  A. Luenser,  P. Manohar,  
 E. Mansoor,  S. F. Manzer,  Shan-Ping Mao,  Yuezhi Mao,  N. Mardirossian,  
 A. V. Marenich,  T. Markovich,  L. A. Martinez-Martinez,  S. A. Maurer,  
 N. J. Mayhall,  S. C. McKenzie,  J.-M. Mewes,  A. F. Morrison,  
 J. W. Mullinax,  K. Nanda,  T. S. Nguyen-Beck,  R. Olivares-Amaya,  
 J. A. Parkhill,  T. M. Perrine,  F. Plasser,  P. Pokhilko,  S. Prager,  
 A. Prociuk,  E. Ramos,  D. R. Rehn,  F. Rob,  M. Schneider,  N. Sergueev,  
 S. M. Sharada,  S. Sharma,  D. W. Small,  T. Stauch,  T. Stein,  
 Yu-Chuan Su,  A. J. W. Thom,  A. Tkatchenko,  T. Tsuchimochi,  N. M. Tubman,  
 L. Vogt,  M. L. Vidal,  O. Vydrov,  M. A. Watson,  J. Wenzel,  
 M. de Wergifosse,  T. A. Wesolowski,  A. White,  J. Witte,  A. Yamada,  
 Jun Yang,  K. Yao,  S. Yeganeh,  S. R. Yost,  Zhi-Qiang You,  A. Zech,  
 Igor Ying Zhang,  Xing Zhang,  Yan Zhao,  Ying Zhu,  B. R. Brooks,  
 G. K. L. Chan,  C. J. Cramer,  M. S. Gordon,  W. J. Hehre,  A. Klamt,  
 M. W. Schmidt,  C. D. Sherrill,  D. G. Truhlar,  A. Aspuru-Guzik,  R. Baer,  
 A. T. Bell,  N. A. Besley,  Jeng-Da Chai,  A. E. DePrince, III,  
 R. A. DiStasio Jr.,  A. Dreuw,  B. D. Dunietz,  T. R. Furlani,  
 Chao-Ping Hsu,  Yousung Jung,  Jing Kong,  D. S. Lambrecht,  WanZhen Liang,  
 C. Ochsenfeld,  V. A. Rassolov,  L. V. Slipchenko,  J. E. Subotnik,  
 T. Van Voorhis,  J. M. Herbert,  A. I. Krylov,  P. M. W. Gill,  M. Head-Gordon

 Contributors to earlier versions of Q-Chem not listed above: 
 R. D. Adamson,  B. Austin,  J. Baker,  G. J. O. Beran,  K. Brandhorst,  
 S. T. Brown,  E. F. C. Byrd,  A. K. Chakraborty,  C.-L. Cheng,  
 Siu Hung Chien,  D. M. Chipman,  D. L. Crittenden,  H. Dachsel,  
 R. J. Doerksen,  A. D. Dutoi,  L. Fusti-Molnar,  W. A. Goddard III,  
 A. Golubeva-Zadorozhnaya,  S. R. Gwaltney,  G. Hawkins,  A. Heyden,  
 S. Hirata,  G. Kedziora,  F. J. Keil,  C. Kelley,  Jihan Kim,  R. A. King,  
 R. Z. Khaliullin,  P. P. Korambath,  W. Kurlancheek,  A. M. Lee,  M. S. Lee,  
 S. V. Levchenko,  Ching Yeh Lin,  D. Liotard,  R. C. Lochan,  I. Lotan,  
 P. E. Maslen,  N. Nair,  D. P. O'Neill,  D. Neuhauser,  E. Neuscamman,  
 C. M. Oana,  R. Olson,  B. Peters,  R. Peverati,  P. A. Pieniazek,  
 Y. M. Rhee,  J. Ritchie,  M. A. Rohrdanz,  E. Rosta,  N. J. Russ,  
 H. F. Schaefer III,  N. E. Schultz,  N. Shenvi,  A. C. Simmonett,  A. Sodt,  
 D. Stuck,  K. S. Thanthiriwatte,  V. Vanovschi,  Tao Wang,  A. Warshel,  
 C. F. Williams,  Q. Wu,  X. Xu,  W. Zhang

 Please cite Q-Chem as follows:
 Y. Shao et al., Mol. Phys. 113, 184-215 (2015)
 DOI: 10.1080/00268976.2014.952696

 Q-Chem 5.1.1 for Intel X86 EM64T Linux

 Parts of Q-Chem use Armadillo 8.300.2 (Tropical Shenanigans).
 http://arma.sourceforge.net/

 Q-Chem begins on Sun Sep 20 08:04:34 2020  

Host: n0096.mhg0
0

     Scratch files written to /local/scratch/users/yhljason/CN_B2GPPLYP_aug-cc-pcV5Z.inp20200920010053//
The previous job contains 0 fragments, simply inherited here
Input Ideriv = 0
Curr. Ideriv = -1
Max.  Ideriv = 0
Input Ideriv = 1
Curr. Ideriv = 0
Max.  Ideriv = 0

Checking the input file for inconsistencies... 	...done.

--------------------------------------------------------------
User input:
--------------------------------------------------------------
$molecule
read
$end

$rem

jobtype sp
method B2GPPLYP
xc_grid 000099000590
basis aug-cc-pcV5Z
max_scf_cycles 200
thresh 14
scf_convergence 8
mem_total 128000
cc_memory 96000
cc_backend xm
mem_static 1500
symmetry false
sym_ignore true
scf_guess read
unrestricted false
scf_algorithm gdm
n_frozen_core 0
$end

$multipole_field
YY 0.0001
$end


--------------------------------------------------------------
 ----------------------------------------------------------------
             Standard Nuclear Orientation (Angstroms)
    I     Atom           X                Y                Z
 ----------------------------------------------------------------
    1      N       0.0000000000     0.0000000000     0.0000000000
    2      C       0.0000000000     0.0000000000     1.1718000000
 ----------------------------------------------------------------
 Nuclear Repulsion Energy =    18.9669251183 hartrees
 There are        7 alpha and        6 beta electrons
 Requested basis set is aug-cc-pCV5Z
 There are 82 shells and 362 basis functions

 Total QAlloc Memory Limit 128000 MB
 Mega-Array Size      1467 MB
 MEM_STATIC part      1500 MB

                       Distance Matrix (Angstroms)
             N (  1)
   C (  2)  1.171800
 
 Applying Cartesian multipole field
    Component          Value
    ---------          -----
     (0,2,0)        1.00000E-04
 A cutoff of  1.0D-14 yielded   3257 shell pairs
 There are     64599 function pairs (    125342 Cartesian)
 
 -------------------------------------------------------
 OpenMP Integral Computing Module                       
 Release: version 1.0, May 2013, Q-Chem Inc. Pittsburgh 
 -------------------------------------------------------
 Integral Job Info:
 Integral job number is                      11
 Integral operator is                         1
 short-range coefficients                     0
 long-range coefficients              100000000
 Omega coefficients                           0
 if combine SR and LR in K                    0
 Integral screening is                        0
 Integral computing path is                   2
 max size of driver memory is           6400000
 size of driver memory is               5498286
 size of scratch memory is             29551430
 max col of scratch BK array             194481
 max len of scratch array in speh3         5572
 max len of scratch index in speh4           72
 max int batch size is                      520
 min int batch size is                       52
 fixed nKL is                                30
 max L of basis functions is                  5
 order of int derivative is                   0
 number of shells is                         82
 number of basis is                         502
 number of cartesian basis is               502
 number of contracted shell pairs          3257
 number of primitive shell pairs           6867
 maxK2 (contraction) of shell pair          100
 max number of K2 of shell pair               1
 max number of CS2 of shell pair            306
 max number of PS2 of shell pair            600
 mem total for path MDJ                  998666
 -------------------------------------------------------
 Smallest overlap matrix eigenvalue = 7.48E-06
 Guess MOs from SCF MO coefficient file
 Reading MOs from coefficient file
 Reading MOs from coefficient file
 A restricted hybrid HF-DFT SCF calculation will be
 performed using Geometric Direct Minimization
 Exchange:     0.6500 Hartree-Fock + 0.3500 B88
 Correlation:  0.6400 LYP
 Using Euler-Maclaurin-Lebedev (99,590) quadrature formula
 SCF converges when RMS gradient is below 1.0E-08
Using Q-Chem read-in guess as SCF_GUESS READ specified.

 using 16 threads for integral computing
 -------------------------------------------------------
 OpenMP Integral computing Module                
 Release: version 2.0, May 2017, Q-Chem Inc. Pleasanton 
 -------------------------------------------------------
 LTot/LBra/LKet=          20          10          10
 LTot/LBra/LKet=          20          10          10
 LTot/LBra/LKet=          18           9           9

 Q-Chem warning:

 in GenH1, ket side, handled with new code

 LTot/LBra/LKet=          20          10          10
 LTot/LBra/LKet=          19           9          10
 LTot/LBra/LKet=          18           9           9

 Q-Chem warning:

 in GenH1, ket side, handled with new code


 Q-Chem warning:

 in GenH1, ket side, handled with new code

 LTot/LBra/LKet=          18           8          10

 Q-Chem warning:

 in GenH1, ket side, handled with new code

 LTot/LBra/LKet=          18           9           9

 Q-Chem warning:

 in GenH1, ket side, handled with new code


 Q-Chem warning:

 in GenH1, ket side, handled with new code


 Q-Chem warning:

 in GenH1, ket side, handled with new code


 Q-Chem warning:

 in GenH1, ket side, handled with new code

 LTot/LBra/LBra=          18           9           9

 Q-Chem warning:

 in GenH1, bra side, handled with new code

TIMEINFO->: J/JK contribution 1840.81 sec.
 -------------------------------------------------------
 OpenMP BLAS3 based DFT computing Module                
 Release: version 1.0, May 2013, Q-Chem Inc. Pittsburgh 
 -------------------------------------------------------
 ---------------------------------------
  Cycle       Energy        RMS Gradient
 ---------------------------------------
    1     -92.5236979922      4.42E-04 Normal BFGS step
TIMEINFO->: J/JK contribution 1822.96 sec.
    2     -92.5236985163      2.97E-04 Normal BFGS step
TIMEINFO->: J/JK contribution 1797.74 sec.
    3     -92.5236986031      1.19E-04 Normal BFGS step
TIMEINFO->: J/JK contribution 1780.94 sec.
    4     -92.5236986105      9.98E-05 Normal BFGS step
TIMEINFO->: J/JK contribution 1777.50 sec.
    5     -92.5236986248      4.06E-05 Normal BFGS step
TIMEINFO->: J/JK contribution 1772.90 sec.
    6     -92.5236986251      1.82E-05 Normal BFGS step
TIMEINFO->: J/JK contribution 1762.01 sec.
    7     -92.5236986253      1.48E-06 Normal BFGS step
TIMEINFO->: J/JK contribution 1705.22 sec.
    8     -92.5236986253      8.54E-07 Normal BFGS step
TIMEINFO->: J/JK contribution 1696.96 sec.
    9     -92.5236986253      5.15E-07 Normal BFGS step
TIMEINFO->: J/JK contribution 1641.73 sec.
   10     -92.5236986253      1.44E-07 Normal BFGS step
TIMEINFO->: J/JK contribution 1602.56 sec.
   11     -92.5236986253      1.29E-07 Normal BFGS step
TIMEINFO->: J/JK contribution 1521.30 sec.
   GDM::WARNING energy changes are now smaller than effective accuracy.
   GDM::        calculation will continue, but THRESH should be increased
   GDM::        or SCF_CONVERGENCE decreased.
   GDM::        effective_thresh =   6.999999999999999E-011
   12     -92.5236986253      2.84E-08 Normal BFGS step
TIMEINFO->: J/JK contribution 1537.88 sec.
   GDM::WARNING energy changes are now smaller than effective accuracy.
   GDM::        calculation will continue, but THRESH should be increased
   GDM::        or SCF_CONVERGENCE decreased.
   GDM::        effective_thresh =   6.999999999999999E-011
   13     -92.5236986253      7.93E-09 Convergence criterion met
 ---------------------------------------
 SCF time:  CPU 22550.33 s  wall 1421.57 s
 SCF   energy in the final basis set = -92.52369863
 Total energy in the final basis set = -92.52369863
 
 Components of the MP2 correlation energy:
        aaaa  correlation energy =        -0.0223540637 au
        abab  correlation energy =        -0.1509059489 au
        bbbb  correlation energy =        -0.0201996019 au
        non-Brillouin singles    =        -0.0022616443 au

 Total  MP2   correlation energy =                    -0.19572126 au
        MP2         total energy =                   -92.71941988 au
 
 --------------------------------------------------------------
 
                    Orbital Energies (a.u.)
 --------------------------------------------------------------
 
 Alpha MOs
 -- Occupied --
-15.096 -10.910  -1.139  -0.588  -0.472  -0.472  -0.560
 -- Virtual --
  0.032   0.036   0.037   0.041   0.064   0.065   0.092   0.103
  0.105   0.158   0.176   0.176   0.209   0.230   0.231   0.243
  0.244   0.243   0.311   0.319   0.319   0.359   0.360   0.434
  0.510   0.510   0.522   0.546   0.547   0.569   0.571   0.571
  0.579   0.579   0.617   0.617   0.625   0.744   0.744   0.788
  0.837   0.837   0.867   0.867   0.892   0.892   0.959   0.970
  1.057   1.058   1.139   1.139   1.152   1.241   1.242   1.249
  1.488   1.488   1.534   1.534   1.537   1.537   1.549   1.549
  1.564   1.572   1.572   1.606   1.606   1.658   1.658   1.799
  1.874   1.889   1.893   1.893   1.982   1.982   2.216   2.216
  2.258   2.289   2.289   2.317   2.317   2.347   2.347   2.398
  2.398   2.513   2.589   2.590   2.600   2.600   2.690   2.690
  2.700   3.043   3.044   3.223   3.228   3.228   3.377   3.377
  3.517   3.531   3.532   3.608   3.608   3.775   3.836   3.836
  3.869   3.869   3.874   3.874   3.912   3.912   3.932   3.932
  3.986   3.986   3.984   4.126   4.126   4.295   4.329   4.329
  4.358   4.358   4.372   4.372   4.587   4.726   4.726   4.872
  5.063   5.063   5.098   5.098   5.289   5.289   5.403   5.404
  5.570   5.570   5.605   5.605   5.617   5.624   5.624   5.809
  5.809   5.882   5.882   5.941   6.214   6.214   6.262   6.262
  6.408   6.562   6.562   6.661   6.661   6.951   7.426   7.512
  7.512   7.778   7.778   7.933   7.933   7.997   8.383   8.383
  8.766   8.766   8.825   8.848   8.848   9.318   9.318   9.347
  9.347   9.357   9.357   9.867  10.015  10.015  10.173  10.173
 10.192  10.192  10.287  10.287  10.431  10.684  10.697  10.697
 10.980  10.980  11.197  11.234  11.234  11.622  11.622  12.072
 12.072  12.242  12.242  12.509  12.509  12.831  13.116  13.116
 13.298  13.298  13.509  13.509  13.667  13.999  13.999  14.099
 14.447  14.447  14.466  14.466  14.749  14.749  14.964  14.964
 15.598  15.598  15.616  15.616  15.696  17.178  17.734  17.734
 17.780  17.780  18.706  18.706  19.505  20.208  20.942  20.942
 22.655  25.770  29.417  29.417  31.307  35.109  35.109  36.201
 36.201  36.739  46.409  46.409  46.648  46.648  47.120  47.120
 47.372  49.845  50.252  50.252  50.830  50.830  51.536  58.123
 58.123  58.437  58.437  58.610  58.610  59.161  59.161  59.227
 60.603  65.944  82.361  82.361  83.963 106.947 106.947 107.699
107.699 108.042 129.139 149.973 149.973 150.400 150.400 150.803
164.355 164.355 165.909 166.837 166.837 166.837 166.837 166.841
166.841 166.854 166.854 166.858 171.884 187.421 187.421 187.534
187.534 187.721 187.721 187.984 208.317 208.317 208.321 208.321
208.325 208.325 208.332 208.332 208.340 228.929 228.929 230.254
235.379 235.379 235.509 235.509 235.775 235.775 235.911 328.396
328.396 328.922 328.922 329.131 336.338 448.977 455.741 455.741
456.039 456.039 456.355 463.903 463.903 465.384 642.648 642.648
643.7921172.1281574.974
 
 Beta MOs
 -- Occupied --
-15.091 -10.888  -1.106  -0.530  -0.456  -0.456
 -- Virtual --
 -0.136   0.036   0.040   0.042   0.042   0.081   0.082   0.093
  0.111   0.112   0.161   0.176   0.176   0.215   0.232   0.234
  0.245   0.246   0.252   0.312   0.319   0.319   0.364   0.365
  0.446   0.510   0.510   0.539   0.547   0.548   0.576   0.576
  0.576   0.583   0.584   0.618   0.618   0.640   0.751   0.752
  0.799   0.836   0.836   0.868   0.868   0.896   0.897   0.973
  0.994   1.064   1.065   1.139   1.139   1.163   1.251   1.251
  1.278   1.489   1.489   1.539   1.539   1.553   1.553   1.569
  1.569   1.583   1.586   1.587   1.610   1.610   1.659   1.659
  1.807   1.902   1.893   1.901   1.902   1.984   1.984   2.216
  2.216   2.277   2.290   2.290   2.325   2.326   2.349   2.349
  2.405   2.406   2.520   2.598   2.599   2.602   2.602   2.690
  2.690   2.725   3.059   3.059   3.244   3.240   3.240   3.380
  3.380   3.535   3.555   3.555   3.613   3.613   3.805   3.859
  3.859   3.885   3.885   3.881   3.881   3.934   3.934   3.939
  3.939   4.003   4.003   4.009   4.140   4.140   4.316   4.336
  4.336   4.363   4.363   4.381   4.381   4.609   4.727   4.727
  4.902   5.086   5.086   5.110   5.110   5.290   5.290   5.416
  5.417   5.573   5.573   5.606   5.606   5.629   5.629   5.629
  5.814   5.814   5.883   5.883   5.950   6.220   6.220   6.281
  6.281   6.427   6.565   6.565   6.666   6.666   6.969   7.461
  7.524   7.524   7.796   7.796   7.944   7.944   8.006   8.405
  8.405   8.773   8.773   8.864   8.862   8.862   9.338   9.338
  9.379   9.380   9.395   9.395   9.899  10.026  10.026  10.183
 10.183  10.213  10.213  10.302  10.302  10.449  10.714  10.715
 10.715  10.985  10.986  11.225  11.262  11.262  11.659  11.660
 12.076  12.076  12.242  12.242  12.512  12.512  12.851  13.121
 13.121  13.317  13.317  13.517  13.517  13.679  14.011  14.012
 14.123  14.447  14.447  14.466  14.466  14.754  14.754  14.973
 14.973  15.612  15.612  15.623  15.623  15.714  17.194  17.747
 17.747  17.781  17.781  18.716  18.716  19.521  20.225  20.949
 20.949  22.674  25.777  29.418  29.418  31.317  35.113  35.113
 36.218  36.218  36.763  46.410  46.410  46.657  46.657  47.135
 47.135  47.389  49.855  50.252  50.252  50.835  50.835  51.545
[...]
 S. Faraji,  S. Fatehi,  Qingguo Feng,  K. D. Fenk,  J. Fosso-Tande,  
 Qinghui Ge,  A. Ghysels,  G. Gidofalvi,  J. Gomes,  J. Gonthier,  A. Gunina,  
 D. Hait,  M. W. D. Hanson-Heine,  P. H. P. Harbach,  A. W. Hauser,  
 J. E. Herr,  E. G. Hohenstein,  Z. C. Holden,  Kerwin Hui,  B. C. Huynh,  
 T.-C. Jagau,  Hyunjun Ji,  B. Kaduk,  K. Khistyaev,  Jaehoon Kim,  
 P. Klunzinger,  K. Koh,  D. Kosenkov,  L. Koulias,  T. Kowalczyk,  
 C. M. Krauter,  A. Kunitsa,  Ka Un Lao,  A. Laurent,  K. V. Lawler,  
 Joonho Lee,  D. Lefrancois,  S. Lehtola,  D. S. Levine,  Yi-Pei Li,  
 You-Sheng Lin,  Fenglai Liu,  E. Livshits,  A. Luenser,  P. Manohar,  
 E. Mansoor,  S. F. Manzer,  Shan-Ping Mao,  Yuezhi Mao,  N. Mardirossian,  
 A. V. Marenich,  T. Markovich,  L. A. Martinez-Martinez,  S. A. Maurer,  
 N. J. Mayhall,  S. C. McKenzie,  J.-M. Mewes,  A. F. Morrison,  
 J. W. Mullinax,  K. Nanda,  T. S. Nguyen-Beck,  R. Olivares-Amaya,  
 J. A. Parkhill,  T. M. Perrine,  F. Plasser,  P. Pokhilko,  S. Prager,  
 A. Prociuk,  E. Ramos,  D. R. Rehn,  F. Rob,  M. Schneider,  N. Sergueev,  
 S. M. Sharada,  S. Sharma,  D. W. Small,  T. Stauch,  T. Stein,  
 Yu-Chuan Su,  A. J. W. Thom,  A. Tkatchenko,  T. Tsuchimochi,  N. M. Tubman,  
 L. Vogt,  M. L. Vidal,  O. Vydrov,  M. A. Watson,  J. Wenzel,  
 M. de Wergifosse,  T. A. Wesolowski,  A. White,  J. Witte,  A. Yamada,  
 Jun Yang,  K. Yao,  S. Yeganeh,  S. R. Yost,  Zhi-Qiang You,  A. Zech,  
 Igor Ying Zhang,  Xing Zhang,  Yan Zhao,  Ying Zhu,  B. R. Brooks,  
 G. K. L. Chan,  C. J. Cramer,  M. S. Gordon,  W. J. Hehre,  A. Klamt,  
 M. W. Schmidt,  C. D. Sherrill,  D. G. Truhlar,  A. Aspuru-Guzik,  R. Baer,  
 A. T. Bell,  N. A. Besley,  Jeng-Da Chai,  A. E. DePrince, III,  
 R. A. DiStasio Jr.,  A. Dreuw,  B. D. Dunietz,  T. R. Furlani,  
 Chao-Ping Hsu,  Yousung Jung,  Jing Kong,  D. S. Lambrecht,  WanZhen Liang,  
 C. Ochsenfeld,  V. A. Rassolov,  L. V. Slipchenko,  J. E. Subotnik,  
 T. Van Voorhis,  J. M. Herbert,  A. I. Krylov,  P. M. W. Gill,  M. Head-Gordon

 Contributors to earlier versions of Q-Chem not listed above: 
 R. D. Adamson,  B. Austin,  J. Baker,  G. J. O. Beran,  K. Brandhorst,  
 S. T. Brown,  E. F. C. Byrd,  A. K. Chakraborty,  C.-L. Cheng,  
 Siu Hung Chien,  D. M. Chipman,  D. L. Crittenden,  H. Dachsel,  
 R. J. Doerksen,  A. D. Dutoi,  L. Fusti-Molnar,  W. A. Goddard III,  
 A. Golubeva-Zadorozhnaya,  S. R. Gwaltney,  G. Hawkins,  A. Heyden,  
 S. Hirata,  G. Kedziora,  F. J. Keil,  C. Kelley,  Jihan Kim,  R. A. King,  
 R. Z. Khaliullin,  P. P. Korambath,  W. Kurlancheek,  A. M. Lee,  M. S. Lee,  
 S. V. Levchenko,  Ching Yeh Lin,  D. Liotard,  R. C. Lochan,  I. Lotan,  
 P. E. Maslen,  N. Nair,  D. P. O'Neill,  D. Neuhauser,  E. Neuscamman,  
 C. M. Oana,  R. Olson,  B. Peters,  R. Peverati,  P. A. Pieniazek,  
 Y. M. Rhee,  J. Ritchie,  M. A. Rohrdanz,  E. Rosta,  N. J. Russ,  
 H. F. Schaefer III,  N. E. Schultz,  N. Shenvi,  A. C. Simmonett,  A. Sodt,  
 D. Stuck,  K. S. Thanthiriwatte,  V. Vanovschi,  Tao Wang,  A. Warshel,  
 C. F. Williams,  Q. Wu,  X. Xu,  W. Zhang

 Please cite Q-Chem as follows:
 Y. Shao et al., Mol. Phys. 113, 184-215 (2015)
 DOI: 10.1080/00268976.2014.952696

 Q-Chem 5.1.1 for Intel X86 EM64T Linux

 Parts of Q-Chem use Armadillo 8.300.2 (Tropical Shenanigans).
 http://arma.sourceforge.net/

 Q-Chem begins on Sun Sep 20 14:32:43 2020  

Host: n0096.mhg0
0

     Scratch files written to /local/scratch/users/yhljason/CN_B2GPPLYP_aug-cc-pcV5Z.inp20200920010053//
The previous job contains 0 fragments, simply inherited here
Input Ideriv = 0
Curr. Ideriv = -1
Max.  Ideriv = 0
Input Ideriv = 1
Curr. Ideriv = 0
Max.  Ideriv = 0

Checking the input file for inconsistencies... 	...done.

--------------------------------------------------------------
User input:
--------------------------------------------------------------
$molecule
read
$end

$rem

jobtype sp
method B2GPPLYP
xc_grid 000099000590
basis aug-cc-pcV5Z
max_scf_cycles 200
thresh 14
scf_convergence 8
mem_total 128000
cc_memory 96000
cc_backend xm
mem_static 1500
symmetry false
sym_ignore true
scf_guess read
unrestricted false
scf_algorithm gdm
n_frozen_core 0
$end

$multipole_field
ZZ -0.0001
$end

--------------------------------------------------------------
 ----------------------------------------------------------------
             Standard Nuclear Orientation (Angstroms)
    I     Atom           X                Y                Z
 ----------------------------------------------------------------
    1      N       0.0000000000     0.0000000000     0.0000000000
    2      C       0.0000000000     0.0000000000     1.1718000000
 ----------------------------------------------------------------
 Nuclear Repulsion Energy =    18.9669251183 hartrees
 There are        7 alpha and        6 beta electrons
 Requested basis set is aug-cc-pCV5Z
 There are 82 shells and 362 basis functions

 Total QAlloc Memory Limit 128000 MB
 Mega-Array Size      1467 MB
 MEM_STATIC part      1500 MB

                       Distance Matrix (Angstroms)
             N (  1)
   C (  2)  1.171800
 
 Applying Cartesian multipole field
    Component          Value
    ---------          -----
     (0,0,2)       -1.00000E-04
 Nucleus-field energy     =    -0.0029420901 hartrees
 A cutoff of  1.0D-14 yielded   3257 shell pairs
 There are     64599 function pairs (    125342 Cartesian)
 
 -------------------------------------------------------
 OpenMP Integral Computing Module                       
 Release: version 1.0, May 2013, Q-Chem Inc. Pittsburgh 
 -------------------------------------------------------
 Integral Job Info:
 Integral job number is                      11
 Integral operator is                         1
 short-range coefficients                     0
 long-range coefficients              100000000
 Omega coefficients                           0
 if combine SR and LR in K                    0
 Integral screening is                        0
 Integral computing path is                   2
 max size of driver memory is           6400000
 size of driver memory is               5498286
 size of scratch memory is             29551430
 max col of scratch BK array             194481
 max len of scratch array in speh3         5572
 max len of scratch index in speh4           72
 max int batch size is                      520
 min int batch size is                       52
 fixed nKL is                                30
 max L of basis functions is                  5
 order of int derivative is                   0
 number of shells is                         82
 number of basis is                         502
 number of cartesian basis is               502
 number of contracted shell pairs          3257
 number of primitive shell pairs           6867
 maxK2 (contraction) of shell pair          100
 max number of K2 of shell pair               1
 max number of CS2 of shell pair            306
 max number of PS2 of shell pair            600
 mem total for path MDJ                  998666
 -------------------------------------------------------
 Smallest overlap matrix eigenvalue = 7.48E-06
 Guess MOs from SCF MO coefficient file
 Reading MOs from coefficient file
 Reading MOs from coefficient file
 A restricted hybrid HF-DFT SCF calculation will be
 performed using Geometric Direct Minimization
 Exchange:     0.6500 Hartree-Fock + 0.3500 B88
 Correlation:  0.6400 LYP
 Using Euler-Maclaurin-Lebedev (99,590) quadrature formula
 SCF converges when RMS gradient is below 1.0E-08
Using Q-Chem read-in guess as SCF_GUESS READ specified.

 using 16 threads for integral computing
 -------------------------------------------------------
 OpenMP Integral computing Module                
 Release: version 2.0, May 2017, Q-Chem Inc. Pleasanton 
 -------------------------------------------------------
 LTot/LBra/LKet=          18           9           9
 LTot/LBra/LKet=          20          10          10
 LTot/LBra/LKet=          20          10          10

 Q-Chem warning:

 in GenH1, ket side, handled with new code


 Q-Chem warning:

 in GenH1, ket side, handled with new code

 LTot/LBra/LKet=          18           8          10
 LTot/LBra/LKet=          18           9           9
 LTot/LBra/LKet=          18           9           9

 Q-Chem warning:

 in GenH1, ket side, handled with new code

 LTot/LBra/LKet=          18           9           9
 LTot/LBra/LKet=          18           9           9

 Q-Chem warning:

 in GenH1, ket side, handled with new code


 Q-Chem warning:

 in GenH1, ket side, handled with new code


 Q-Chem warning:

 in GenH1, ket side, handled with new code


 Q-Chem warning:

 in GenH1, ket side, handled with new code


 Q-Chem warning:

 in GenH1, ket side, handled with new code

 LTot/LBra/LBra=          18           9           9

 Q-Chem warning:

 in GenH1, bra side, handled with new code

TIMEINFO->: J/JK contribution 1841.82 sec.
 -------------------------------------------------------
 OpenMP BLAS3 based DFT computing Module                
 Release: version 1.0, May 2013, Q-Chem Inc. Pittsburgh 
 -------------------------------------------------------
 ---------------------------------------
  Cycle       Energy        RMS Gradient
 ---------------------------------------
    1     -92.5222665273      1.32E-03 Normal BFGS step
TIMEINFO->: J/JK contribution 1822.40 sec.
    2     -92.5222676612      1.19E-03 Normal BFGS step
TIMEINFO->: J/JK contribution 1792.06 sec.
    3     -92.5222703352      4.19E-04 Normal BFGS step
TIMEINFO->: J/JK contribution 1798.96 sec.
    4     -92.5222706246      2.84E-04 Normal BFGS step
TIMEINFO->: J/JK contribution 1781.13 sec.
    5     -92.5222707271      7.69E-05 Normal BFGS step
TIMEINFO->: J/JK contribution 1782.19 sec.
    6     -92.5222707381      4.91E-05 Normal BFGS step
TIMEINFO->: J/JK contribution 1781.66 sec.
    7     -92.5222707443      1.43E-05 Normal BFGS step
TIMEINFO->: J/JK contribution 1761.84 sec.
    8     -92.5222707447      3.28E-06 Normal BFGS step
TIMEINFO->: J/JK contribution 1733.32 sec.
    9     -92.5222707448      1.79E-06 Normal BFGS step
TIMEINFO->: J/JK contribution 1710.23 sec.
   10     -92.5222707448      5.32E-07 Normal BFGS step
TIMEINFO->: J/JK contribution 1627.24 sec.
   11     -92.5222707448      1.43E-07 Normal BFGS step
TIMEINFO->: J/JK contribution 1605.26 sec.
   GDM::WARNING energy changes are now smaller than effective accuracy.
   GDM::        calculation will continue, but THRESH should be increased
   GDM::        or SCF_CONVERGENCE decreased.
   GDM::        effective_thresh =   3.065374509780838E-009
   12     -92.5222707448      4.64E-08 Normal BFGS step
TIMEINFO->: J/JK contribution 1538.55 sec.
   GDM::WARNING energy changes are now smaller than effective accuracy.
   GDM::        calculation will continue, but THRESH should be increased
   GDM::        or SCF_CONVERGENCE decreased.
   GDM::        effective_thresh =   3.065374509780838E-009
   13     -92.5222707448      1.33E-08 Normal BFGS step
TIMEINFO->: J/JK contribution 1399.66 sec.
   14     -92.5222707448      2.35E-09 Convergence criterion met
 ---------------------------------------
 SCF time:  CPU 24290.44 s  wall 1531.95 s
 SCF   energy in the final basis set = -92.52227074
 Total energy in the final basis set = -92.52227074
 
 Components of the MP2 correlation energy:
        aaaa  correlation energy =        -0.0223520913 au
        abab  correlation energy =        -0.1508671216 au
        bbbb  correlation energy =        -0.0201841861 au
        non-Brillouin singles    =        -0.0022590111 au

 Total  MP2   correlation energy =                    -0.19566241 au
        MP2         total energy =                   -92.71793315 au
 
 --------------------------------------------------------------
 
                    Orbital Energies (a.u.)
 --------------------------------------------------------------
 
 Alpha MOs
 -- Occupied --
-15.095 -10.910  -1.139  -0.587  -0.471  -0.471  -0.559
 -- Virtual --
  0.036   0.040   0.040   0.047   0.066   0.066   0.097   0.109
  0.109   0.162   0.178   0.178   0.214   0.233   0.233   0.247
  0.247   0.247   0.313   0.321   0.321   0.362   0.362   0.437
  0.512   0.512   0.524   0.549   0.549   0.572   0.573   0.573
  0.581   0.581   0.619   0.619   0.628   0.746   0.746   0.790
  0.838   0.838   0.868   0.868   0.894   0.894   0.961   0.972
  1.059   1.059   1.140   1.140   1.154   1.243   1.243   1.250
  1.489   1.489   1.535   1.535   1.538   1.538   1.550   1.550
  1.566   1.574   1.574   1.607   1.607   1.659   1.659   1.800
  1.876   1.890   1.894   1.894   1.983   1.983   2.217   2.217
  2.259   2.289   2.289   2.319   2.319   2.347   2.347   2.399
  2.399   2.514   2.590   2.590   2.601   2.601   2.691   2.691
  2.701   3.045   3.045   3.224   3.229   3.229   3.378   3.378
  3.518   3.533   3.533   3.609   3.609   3.776   3.837   3.837
  3.870   3.870   3.875   3.875   3.913   3.913   3.933   3.933
  3.987   3.987   3.986   4.127   4.127   4.296   4.329   4.329
  4.359   4.359   4.373   4.373   4.588   4.727   4.727   4.873
  5.064   5.064   5.099   5.099   5.289   5.289   5.404   5.404
  5.571   5.571   5.606   5.606   5.618   5.625   5.625   5.810
  5.810   5.883   5.883   5.941   6.214   6.214   6.263   6.263
  6.409   6.563   6.563   6.662   6.662   6.952   7.427   7.513
  7.513   7.779   7.779   7.934   7.934   7.997   8.384   8.384
  8.766   8.766   8.826   8.848   8.848   9.318   9.318   9.348
  9.348   9.358   9.358   9.868  10.015  10.015  10.174  10.174
 10.193  10.193  10.288  10.288  10.432  10.685  10.698  10.698
 10.981  10.981  11.198  11.235  11.235  11.623  11.623  12.072
 12.072  12.242  12.242  12.510  12.510  12.832  13.117  13.117
 13.299  13.299  13.510  13.510  13.668  13.999  13.999  14.100
 14.447  14.447  14.466  14.466  14.750  14.750  14.965  14.965
 15.599  15.599  15.616  15.616  15.697  17.179  17.735  17.735
 17.780  17.780  18.707  18.707  19.506  20.209  20.943  20.943
 22.656  25.771  29.418  29.418  31.308  35.110  35.110  36.202
 36.202  36.740  46.410  46.410  46.649  46.649  47.121  47.121
 47.373  49.846  50.252  50.252  50.831  50.831  51.537  58.124
 58.124  58.438  58.438  58.610  58.610  59.162  59.162  59.228
 60.604  65.945  82.362  82.362  83.964 106.947 106.947 107.700
107.700 108.042 129.140 149.974 149.974 150.401 150.401 150.804
164.356 164.356 165.910 166.838 166.838 166.838 166.838 166.842
166.842 166.855 166.855 166.859 171.885 187.422 187.422 187.534
187.535 187.722 187.722 187.985 208.318 208.318 208.322 208.322
208.326 208.326 208.333 208.333 208.340 228.930 228.930 230.255
235.380 235.380 235.510 235.510 235.776 235.776 235.912 328.397
328.397 328.923 328.923 329.131 336.339 448.978 455.742 455.742
456.040 456.040 456.356 463.903 463.903 465.385 642.649 642.649
643.7921172.1291574.975
 
 Beta MOs
 -- Occupied --
-15.091 -10.887  -1.105  -0.529  -0.455  -0.455
 -- Virtual --
 -0.135   0.041   0.046   0.046   0.048   0.083   0.083   0.098
  0.116   0.116   0.165   0.178   0.178   0.220   0.236   0.236
  0.249   0.249   0.257   0.314   0.321   0.321   0.367   0.367
  0.449   0.512   0.512   0.541   0.550   0.550   0.578   0.578
  0.578   0.586   0.586   0.619   0.619   0.643   0.753   0.753
  0.800   0.838   0.838   0.869   0.869   0.898   0.898   0.975
  0.996   1.066   1.066   1.141   1.141   1.165   1.253   1.253
  1.280   1.490   1.490   1.540   1.540   1.554   1.554   1.570
  1.570   1.585   1.588   1.588   1.612   1.612   1.660   1.660
  1.809   1.903   1.894   1.903   1.903   1.985   1.985   2.217
  2.217   2.278   2.290   2.290   2.327   2.327   2.349   2.349
  2.406   2.406   2.521   2.599   2.599   2.603   2.603   2.691
  2.691   2.726   3.060   3.060   3.245   3.241   3.241   3.380
  3.380   3.536   3.556   3.556   3.614   3.614   3.806   3.860
  3.860   3.886   3.886   3.882   3.882   3.935   3.935   3.940
  3.940   4.004   4.004   4.010   4.141   4.141   4.317   4.336
  4.336   4.364   4.364   4.382   4.382   4.610   4.727   4.727
  4.903   5.087   5.087   5.111   5.111   5.291   5.291   5.417
  5.417   5.573   5.573   5.606   5.606   5.630   5.629   5.629
  5.814   5.814   5.884   5.884   5.951   6.221   6.221   6.282
  6.282   6.428   6.566   6.566   6.667   6.667   6.970   7.462
  7.525   7.525   7.796   7.796   7.944   7.944   8.007   8.406
  8.406   8.774   8.774   8.865   8.863   8.863   9.339   9.339
  9.380   9.380   9.396   9.396   9.900  10.027  10.027  10.184
 10.184  10.213  10.213  10.302  10.302  10.450  10.715  10.716
 10.716  10.986  10.986  11.225  11.262  11.262  11.660  11.660
 12.077  12.077  12.242  12.242  12.512  12.512  12.852  13.122
 13.122  13.318  13.318  13.518  13.518  13.680  14.012  14.012
 14.123  14.448  14.448  14.467  14.467  14.754  14.754  14.974
 14.974  15.613  15.613  15.623  15.623  15.715  17.195  17.747
 17.747  17.782  17.782  18.717  18.717  19.522  20.226  20.950
 20.950  22.675  25.778  29.419  29.419  31.318  35.114  35.114
 36.219  36.219  36.764  46.410  46.410  46.658  46.658  47.136
 47.136  47.390  49.855  50.253  50.253  50.836  50.836  51.545
 58.124  58.124  58.442  58.442  58.616  58.616  59.168  59.168
 59.235  60.619  65.948  82.363  82.363  83.969 106.951 106.951
107.708 107.708 108.053 129.147 149.975 149.975 150.403 150.403
150.807 164.361 164.361 165.920 166.839 166.839 166.842 166.842
166.849 166.849 166.863 166.863 166.867 171.886 187.424 187.424
187.539 187.539 187.728 187.728 187.992 208.318 208.318 208.324
208.324 208.328 208.328 208.336 208.336 208.344 228.930 228.930
230.257 235.380 235.380 235.512 235.512 235.777 235.777 235.914
328.402 328.402 328.929 328.929 329.139 336.345 448.978 455.742
455.742 456.041 456.041 456.356 463.909 463.909 465.392 642.649
642.649 643.7931172.1351574.976
 --------------------------------------------------------------
 
          Ground-State Mulliken Net Atomic Charges

     Atom                 Charge (a.u.)
  ----------------------------------------
      1 N                    -0.344415
      2 C                     0.344415
  ----------------------------------------
  Sum of atomic charges =     0.000000

 -----------------------------------------------------------------
                    Cartesian Multipole Moments
 -----------------------------------------------------------------
    Charge (ESU x 10^10)
                 0.0000
    Dipole Moment (Debye)
         X      -0.0000      Y       0.0000      Z       2.0058
       Tot       2.0058
    Quadrupole Moments (Debye-Ang)
        XX     -11.1303     XY      -0.0000     YY     -11.1303
        XZ      -0.0000     YZ      -0.0000     ZZ      -8.0567
    Octopole Moments (Debye-Ang^2)
       XXX      -0.0000    XXY      -0.0000    XYY      -0.0000
       YYY       0.0000    XXZ      -5.9774    XYZ       0.0000
       YYZ      -5.9774    XZZ      -0.0000    YZZ       0.0000
       ZZZ     -13.3223
    Hexadecapole Moments (Debye-Ang^3)
      XXXX     -11.6448   XXXY      -0.0000   XXYY      -3.8816
      XYYY      -0.0000   YYYY     -11.6448   XXXZ      -0.0000
      XXYZ      -0.0000   XYYZ      -0.0000   YYYZ       0.0000
      XXZZ     -10.4421   XYZZ       0.0000   YYZZ     -10.4421
      XZZZ      -0.0000   YZZZ       0.0000   ZZZZ     -46.3965
 -----------------------------------------------------------------
Archival summary:
1\1\n0096.mhg0\SP\ROProcedureUnspecified\BasisUnspecified\11(2)\yhljason\SunSep2016:42:382020SunSep2016:42:382020\0\\#,ROProcedureUnspecified,BasisUnspecified,\\0,2\N\C,1,1.1718\\\@

 Total job time:  7794.94s(wall), 92600.51s(cpu) 
 Sun Sep 20 16:42:38 2020

        *************************************************************
        *                                                           *
        *  Thank you very much for using Q-Chem.  Have a nice day.  *
        *                                                           *
        *************************************************************


