Q-Chem Developer Version!
                  Welcome to Q-Chem
     A Quantum Leap Into The Future Of Chemistry


 Q-Chem 5.1, Q-Chem, Inc., Pleasanton, CA (2018)

 Yihan Shao,  Zhengting Gan,  E. Epifanovsky,  A. T. B. Gilbert,  M. Wormit,  
 J. Kussmann,  A. W. Lange,  A. Behn,  Jia Deng,  Xintian Feng,  D. Ghosh,  
 M. Goldey,  P. R. Horn,  L. D. Jacobson,  I. Kaliman,  T. Kus,  A. Landau,  
 Jie Liu,  E. I. Proynov,  R. M. Richard,  R. P. Steele,  E. J. Sundstrom,  
 H. L. Woodcock III,  P. M. Zimmerman,  D. Zuev,  B. Albrecht,  E. Alguire,  
 S. A. Baeppler,  D. Barton,  Z. Benda,  Y. A. Bernard,  E. J. Berquist,  
 K. B. Bravaya,  H. Burton,  D. Casanova,  Chun-Min Chang,  Yunqing Chen,  
 A. Chien,  K. D. Closser,  M. P. Coons,  S. Coriani,  S. Dasgupta,  
 A. L. Dempwolff,  M. Diedenhofen,  Hainam Do,  R. G. Edgar,  Po-Tung Fang,  
 S. Faraji,  S. Fatehi,  Qingguo Feng,  K. D. Fenk,  J. Fosso-Tande,  
 Qinghui Ge,  A. Ghysels,  G. Gidofalvi,  J. Gomes,  J. Gonthier,  A. Gunina,  
 D. Hait,  M. W. D. Hanson-Heine,  P. H. P. Harbach,  A. W. Hauser,  
 J. E. Herr,  E. G. Hohenstein,  Z. C. Holden,  Kerwin Hui,  B. C. Huynh,  
 T.-C. Jagau,  Hyunjun Ji,  B. Kaduk,  K. Khistyaev,  Jaehoon Kim,  
 P. Klunzinger,  K. Koh,  D. Kosenkov,  L. Koulias,  T. Kowalczyk,  
 C. M. Krauter,  A. Kunitsa,  Ka Un Lao,  A. Laurent,  K. V. Lawler,  
 Joonho Lee,  D. Lefrancois,  S. Lehtola,  D. S. Levine,  Yi-Pei Li,  
 You-Sheng Lin,  Fenglai Liu,  E. Livshits,  A. Luenser,  P. Manohar,  
 E. Mansoor,  S. F. Manzer,  Shan-Ping Mao,  Yuezhi Mao,  N. Mardirossian,  
 A. V. Marenich,  T. Markovich,  L. A. Martinez-Martinez,  S. A. Maurer,  
 N. J. Mayhall,  S. C. McKenzie,  J.-M. Mewes,  A. F. Morrison,  
 J. W. Mullinax,  K. Nanda,  T. S. Nguyen-Beck,  R. Olivares-Amaya,  
 J. A. Parkhill,  T. M. Perrine,  F. Plasser,  P. Pokhilko,  S. Prager,  
 A. Prociuk,  E. Ramos,  D. R. Rehn,  F. Rob,  M. Schneider,  N. Sergueev,  
 S. M. Sharada,  S. Sharma,  D. W. Small,  T. Stauch,  T. Stein,  
 Yu-Chuan Su,  A. J. W. Thom,  A. Tkatchenko,  T. Tsuchimochi,  N. M. Tubman,  
 L. Vogt,  M. L. Vidal,  O. Vydrov,  M. A. Watson,  J. Wenzel,  
 M. de Wergifosse,  T. A. Wesolowski,  A. White,  J. Witte,  A. Yamada,  
 Jun Yang,  K. Yao,  S. Yeganeh,  S. R. Yost,  Zhi-Qiang You,  A. Zech,  
 Igor Ying Zhang,  Xing Zhang,  Yan Zhao,  Ying Zhu,  B. R. Brooks,  
 G. K. L. Chan,  C. J. Cramer,  M. S. Gordon,  W. J. Hehre,  A. Klamt,  
 M. W. Schmidt,  C. D. Sherrill,  D. G. Truhlar,  A. Aspuru-Guzik,  R. Baer,  
 A. T. Bell,  N. A. Besley,  Jeng-Da Chai,  A. E. DePrince, III,  
 R. A. DiStasio Jr.,  A. Dreuw,  B. D. Dunietz,  T. R. Furlani,  
 Chao-Ping Hsu,  Yousung Jung,  Jing Kong,  D. S. Lambrecht,  WanZhen Liang,  
 C. Ochsenfeld,  V. A. Rassolov,  L. V. Slipchenko,  J. E. Subotnik,  
 T. Van Voorhis,  J. M. Herbert,  A. I. Krylov,  P. M. W. Gill,  M. Head-Gordon

 Contributors to earlier versions of Q-Chem not listed above: 
 R. D. Adamson,  B. Austin,  J. Baker,  G. J. O. Beran,  K. Brandhorst,  
 S. T. Brown,  E. F. C. Byrd,  A. K. Chakraborty,  C.-L. Cheng,  
 Siu Hung Chien,  D. M. Chipman,  D. L. Crittenden,  H. Dachsel,  
 R. J. Doerksen,  A. D. Dutoi,  L. Fusti-Molnar,  W. A. Goddard III,  
 A. Golubeva-Zadorozhnaya,  S. R. Gwaltney,  G. Hawkins,  A. Heyden,  
 S. Hirata,  G. Kedziora,  F. J. Keil,  C. Kelley,  Jihan Kim,  R. A. King,  
 R. Z. Khaliullin,  P. P. Korambath,  W. Kurlancheek,  A. M. Lee,  M. S. Lee,  
 S. V. Levchenko,  Ching Yeh Lin,  D. Liotard,  R. C. Lochan,  I. Lotan,  
 P. E. Maslen,  N. Nair,  D. P. O'Neill,  D. Neuhauser,  E. Neuscamman,  
 C. M. Oana,  R. Olson,  B. Peters,  R. Peverati,  P. A. Pieniazek,  
 Y. M. Rhee,  J. Ritchie,  M. A. Rohrdanz,  E. Rosta,  N. J. Russ,  
 H. F. Schaefer III,  N. E. Schultz,  N. Shenvi,  A. C. Simmonett,  A. Sodt,  
 D. Stuck,  K. S. Thanthiriwatte,  V. Vanovschi,  Tao Wang,  A. Warshel,  
 C. F. Williams,  Q. Wu,  X. Xu,  W. Zhang

 Please cite Q-Chem as follows:
 Y. Shao et al., Mol. Phys. 113, 184-215 (2015)
 DOI: 10.1080/00268976.2014.952696

 Q-Chem 5.1.1 for Intel X86 EM64T Linux

 Parts of Q-Chem use Armadillo 8.300.2 (Tropical Shenanigans).
 http://arma.sourceforge.net/

 Q-Chem begins on Fri Oct  9 01:10:26 2020  

Host: n0057.mhg0
0

     Scratch files written to /local/scratch/users/yhljason/BS_PWPB95-D3_aug-cc-pcVTZ.inp20201008191744//
Input Ideriv = 0
Curr. Ideriv = -1
Max.  Ideriv = 0
Input Ideriv = 1
Curr. Ideriv = 0
Max.  Ideriv = 0

Checking the input file for inconsistencies... 	...done.

--------------------------------------------------------------
User input:
--------------------------------------------------------------
$molecule
0 2
B1      0.0000  0.0000  0.0000
S2      0.0000  0.0000  1.6092
$end

$rem
jobtype sp
method PWPB95-D3
xc_grid 000099000590
basis aug-cc-pcVTZ
max_scf_cycles 200
thresh 14
scf_convergence 8
scf_algorithm gdm
symmetry false
sym_ignore true
unrestricted false
gen_scfman true
internal_stability_iter 15
internal_stability_davidson_iter 200
mem_total 128000
cc_memory 96000
cc_backend xm
mem_static 1500
n_frozen_core 0
$end



--------------------------------------------------------------
 Adding empirical dispersion correction 
 ----------------------------------------------------------------
 Doing -D3(0) with
 s6  =   0.82000
 s8  =   0.70500
 rs6 =   1.55700
 rs8 =   1.00000
 -D3 energy without 3body term =     -0.0000023220 hartrees
 ----------------------------------------------------------------
             Standard Nuclear Orientation (Angstroms)
    I     Atom           X                Y                Z
 ----------------------------------------------------------------
    1      B       0.0000000000     0.0000000000     0.0000000000
    2      S       0.0000000000     0.0000000000     1.6092000000
 ----------------------------------------------------------------
 Nuclear Repulsion Energy =    26.3075895647 hartrees
 There are       11 alpha and       10 beta electrons
 Requested basis set is aug-cc-pCVTZ
 There are 42 shells and 134 basis functions

 Total QAlloc Memory Limit 128000 MB
 Mega-Array Size      1467 MB
 MEM_STATIC part      1500 MB

                       Distance Matrix (Angstroms)
             B (  1)
   S (  2)  1.609200
 
 A cutoff of  1.0D-14 yielded    890 shell pairs
 There are      9132 function pairs (     12757 Cartesian)
 
 -------------------------------------------------------
 OpenMP Integral Computing Module                       
 Release: version 1.0, May 2013, Q-Chem Inc. Pittsburgh 
 -------------------------------------------------------
 Integral Job Info:
 Integral job number is                      11
 Integral operator is                         1
 short-range coefficients                     0
 long-range coefficients              100000000
 Omega coefficients                           0
 if combine SR and LR in K                    0
 Integral screening is                        0
 Integral computing path is                   2
 max size of driver memory is            800000
 size of driver memory is                776718
 size of scratch memory is             29531563
 max col of scratch BK array              10000
 max len of scratch array in speh3          662
 max len of scratch index in speh4           32
 max int batch size is                      520
 min int batch size is                       52
 fixed nKL is                                31
 max L of basis functions is                  3
 order of int derivative is                   0
 number of shells is                         42
 number of basis is                         158
 number of cartesian basis is               158
 number of contracted shell pairs           890
 number of primitive shell pairs           5226
 maxK2 (contraction) of shell pair          169
 max number of K2 of shell pair               1
 max number of CS2 of shell pair             97
 max number of PS2 of shell pair           1014
 mem total for path MDJ                  562256
 -------------------------------------------------------
 Smallest overlap matrix eigenvalue = 2.00E-04

 Scale SEOQF with 1.000000e-01/1.000000e-01/1.000000e-01

 Standard Electronic Orientation quadrupole field applied
 Nucleus-field energy     =    -0.0000000044 hartrees
 Guess from superposition of atomic densities
 Warning:  Energy on first SCF cycle will be non-variational
 SAD guess density has 21.000000 electrons

 -----------------------------------------------------------------------
  General SCF calculation program by
  Eric Jon Sundstrom, Paul Horn, Yuezhi Mao, Dmitri Zuev, Alec White,
  David Stuck, Shaama M.S., Shane Yost, Joonho Lee, David Small,
  Daniel Levine, Susi Lehtola, Hugh Burton, Evgeny Epifanovsky
 -----------------------------------------------------------------------
 Exchange:     0.5000 Hartree-Fock + 1.0000 PWPB95-D3
 Correlation:  0.7310 PWPB95-D3
 Using Euler-Maclaurin-Lebedev (99,590) quadrature formula
 Dispersion:   Grimme D3
Running Object-Oriented ROKS (ROHF)
ROHF occupied orbitals are orthonormal
ROHF occupied orbitals are orthogonal to virtual orbitals
ROHF virtual orbitals are orthonormal
We will preform up to 15 macro iterations over saddle points until a stable solution is found
Energy prior to optimization (guess energy) = -421.671003697464
Begin Timing: Total SCF Calculation
Begin Timing: SCF Single Stationary Point Calculation
begin iterations for algorithm: GDM          
the SCF tolerance is set to 1.00e-08
    1    -421.6710036975      5.78e-01     00000  Descent step
    2    -422.0979894303      4.02e-01     00000  Descent step
    3    -422.3409519071      4.36e-01     00000  Descent step
Fro norm of D 1.265907107046e+00
transformation scaled by 2
    4    -422.5511215648      1.12e+00     00000  Descent step
Fro norm of D 1.008413545049e+00
transformation scaled by 2
    5    -422.7025807455      5.91e-01     00000  Descent step
    6    -422.8414939088      1.95e-01     00000  Dog-leg BFGS step
    7    -422.7209059887      9.42e-01     00000 Line search: overstep
    8    -422.8543727602      4.48e-02     00000  Normal BFGS step
    9    -422.8587091501      2.59e-02     00000  Normal BFGS step
   10    -422.8588520408      2.04e-02     00000  Normal BFGS step
   11    -422.8592500098      3.47e-03     00000  Normal BFGS step
   12    -422.8592570841      1.48e-03     00000  Normal BFGS step
   13    -422.8592588832      1.41e-04     00000  Normal BFGS step
   14    -422.8592589669      5.76e-05     00000  Normal BFGS step
   15    -422.8592589779      6.84e-06     00000  Normal BFGS step
   16    -422.8592589781      1.79e-06     00000  Normal BFGS step
   17    -422.8592589781      2.74e-07     00000  Normal BFGS step
   18    -422.8592589781      3.49e-07     00000  Normal BFGS step
   19    -422.8592589781      5.26e-07     00000  Normal BFGS step
   20    -422.8592589781      1.45e-08     00000  Normal BFGS step
   21    -422.8592589781      8.14e-09     00000 Convergence criterion met
The disked orbital energies are calculated using alpha and beta Focks
Timing for Single Stationary Point: 68.00s (wall), 546.39s (cpu)
Begin Timing: Stability
===================================================
Beginning Test for Internal Stability
===================================================
generating davidson guess vectors based on koopmans-like excitations
    1      2.51e-01     00000 Davidson Iteration
    2      1.59e-01     00000 Davidson Iteration
    3      9.17e-02     00000 Davidson Iteration
    4      4.07e-02     00000 Davidson Iteration
    5      9.68e-03     00000 Davidson Iteration
    6      1.75e-03     00000 Davidson Iteration
    7      1.95e-04     00000 Davidson Iteration
    8      7.28e-05     00000 Davidson Iteration
    9      2.45e-05     00000 Davidson Converged
converged_eigenvalues
   0.1960
   0.1960
Threshold for negative eigenvalues: -1.0e-05
solution was a local minimum (stable)
===================================================
End Test for Internal Stability
===================================================
Our SCF solution is stable!
The disked orbital energies are calculated using alpha and beta Focks
Timing for Total SCF: 117.00s (wall), 936.07s (cpu)
 Total energy in the final basis set =     -422.8592589781
<S^2> =          0.750000000
    ==================================================
              The end of Object-Oriented SCFman       
    ==================================================
 
 Components of the MP2 correlation energy:
        aaaa  correlation energy =         0.0000000000 au
        abab  correlation energy =        -0.1428292823 au
        bbbb  correlation energy =         0.0000000000 au
        non-Brillouin singles    =        -0.0009051659 au

 Total  MP2   correlation energy =                    -0.14373445 au
        MP2         total energy =                  -423.00299343 au
 
 --------------------------------------------------------------
 
                    Orbital Energies (a.u.)
 --------------------------------------------------------------
 
 Alpha MOs
 -- Occupied --
-90.033  -8.320  -7.177  -6.179  -6.177  -6.177  -0.830  -0.483
 -0.352  -0.352  -0.373
 -- Virtual --
 -0.018  -0.018   0.026   0.030   0.038   0.038   0.077   0.097
  0.097   0.134   0.134   0.136   0.186   0.186   0.185   0.216
  0.260   0.260   0.272   0.272   0.263   0.333   0.333   0.376
  0.491   0.525   0.525   0.535   0.535   0.552   0.582   0.582
  0.606   0.606   0.615   0.615   0.652   0.677   0.677   0.703
  0.728   0.728   0.833   0.833   0.951   0.966   0.966   1.039
  1.039   1.052   1.052   1.110   1.241   1.544   1.544   1.598
  1.766   1.766   1.819   1.869   1.869   1.867   1.867   1.901
  1.900   1.900   1.994   1.994   2.001   2.001   2.037   2.202
  2.202   2.251   2.251   2.357   2.357   2.459   2.459   2.599
  2.892   2.888   2.888   3.087   3.644   8.381   8.381   8.463
  8.463   8.771  10.236  10.236  10.501  10.684  10.684  10.959
 11.287  14.856  31.197  31.197  31.201  31.201  31.207  31.207
 31.213  36.533  36.533  36.557  36.557  36.645  38.742  38.742
 38.794  38.794  38.978  46.525  46.525  47.048  55.312  55.312
 55.618  59.137  85.795
 
 Beta MOs
 -- Occupied --
-90.032  -8.319  -7.160  -6.176  -6.176  -6.176  -0.817  -0.461
 -0.345  -0.345
 -- Virtual --
 -0.088   0.004   0.004   0.029   0.040   0.043   0.043   0.078
  0.099   0.099   0.136   0.136   0.141   0.194   0.194   0.195
  0.224   0.261   0.261   0.276   0.276   0.278   0.346   0.346
  0.411   0.495   0.533   0.533   0.547   0.547   0.563   0.585
  0.585   0.618   0.618   0.625   0.625   0.669   0.687   0.687
  0.717   0.731   0.731   0.834   0.834   0.964   0.978   0.978
  1.048   1.048   1.056   1.056   1.126   1.252   1.556   1.556
  1.646   1.768   1.768   1.830   1.876   1.876   1.878   1.878
  1.934   1.937   1.937   2.015   2.015   2.049   2.049   2.087
  2.208   2.208   2.294   2.294   2.364   2.364   2.471   2.471
  2.606   2.900   2.907   2.907   3.110   3.664   8.381   8.381
  8.464   8.464   8.774  10.251  10.251  10.542  10.686  10.686
 10.969  11.299  14.858  31.197  31.197  31.201  31.201  31.207
 31.207  31.213  36.536  36.536  36.567  36.567  36.657  38.743
 38.743  38.796  38.796  38.980  46.525  46.525  47.050  55.321
 55.321  55.633  59.151  85.796
 --------------------------------------------------------------
 
          Ground-State Mulliken Net Atomic Charges

     Atom                 Charge (a.u.)
  ----------------------------------------
      1 B                    -0.061092
      2 S                     0.061092
  ----------------------------------------
  Sum of atomic charges =    -0.000000

 -----------------------------------------------------------------
                    Cartesian Multipole Moments
 -----------------------------------------------------------------
    Charge (ESU x 10^10)
                -0.0000
    Dipole Moment (Debye)
         X       0.0000      Y       0.0000      Z      -1.0797
       Tot       1.0797
    Quadrupole Moments (Debye-Ang)
        XX     -19.2454     XY       0.0000     YY     -19.2454
        XZ       0.0000     YZ       0.0000     ZZ     -19.0798
    Octopole Moments (Debye-Ang^2)
       XXX       0.0000    XXY      -0.0000    XYY       0.0000
       YYY       0.0000    XXZ     -21.6657    XYZ       0.0000
       YYZ     -21.6657    XZZ       0.0000    YZZ       0.0000
       ZZZ     -59.0153
    Hexadecapole Moments (Debye-Ang^3)
      XXXX     -27.9505   XXXY       0.0000   XXYY      -9.3168
      XYYY       0.0000   YYYY     -27.9505   XXXZ       0.0000
      XXYZ      -0.0000   XYYZ       0.0000   YYYZ       0.0000
      XXZZ     -42.8327   XYZZ       0.0000   YYZZ     -42.8327
      XZZZ      -0.0000   YZZZ       0.0000   ZZZZ    -215.4971
 -----------------------------------------------------------------
Archival summary:
1\1\n0057.mhg0\SP\ROProcedureUnspecified\BasisUnspecified\11(2)\yhljason\FriOct901:13:052020FriOct901:13:052020\0\\#,ROProcedureUnspecified,BasisUnspecified,\\0,2\B\S,1,1.6092\\\@

 Total job time:  158.12s(wall), 1259.48s(cpu) 
 Fri Oct  9 01:13:05 2020

        *************************************************************
        *                                                           *
        *  Thank you very much for using Q-Chem.  Have a nice day.  *
        *                                                           *
        *************************************************************


 
User input: 2 of 83 of 8 
 
Q-Chem Developer Version!
                  Welcome to Q-Chem
     A Quantum Leap Into The Future Of Chemistry


 Q-Chem 5.1, Q-Chem, Inc., Pleasanton, CA (2018)

 Yihan Shao,  Zhengting Gan,  E. Epifanovsky,  A. T. B. Gilbert,  M. Wormit,  
 J. Kussmann,  A. W. Lange,  A. Behn,  Jia Deng,  Xintian Feng,  D. Ghosh,  
 M. Goldey,  P. R. Horn,  L. D. Jacobson,  I. Kaliman,  T. Kus,  A. Landau,  
 Jie Liu,  E. I. Proynov,  R. M. Richard,  R. P. Steele,  E. J. Sundstrom,  
 H. L. Woodcock III,  P. M. Zimmerman,  D. Zuev,  B. Albrecht,  E. Alguire,  
 S. A. Baeppler,  D. Barton,  Z. Benda,  Y. A. Bernard,  E. J. Berquist,  
 K. B. Bravaya,  H. Burton,  D. Casanova,  Chun-Min Chang,  Yunqing Chen,  
 A. Chien,  K. D. Closser,  M. P. Coons,  S. Coriani,  S. Dasgupta,  
 A. L. Dempwolff,  M. Diedenhofen,  Hainam Do,  R. G. Edgar,  Po-Tung Fang,  
 S. Faraji,  S. Fatehi,  Qingguo Feng,  K. D. Fenk,  J. Fosso-Tande,  
 Qinghui Ge,  A. Ghysels,  G. Gidofalvi,  J. Gomes,  J. Gonthier,  A. Gunina,  
 D. Hait,  M. W. D. Hanson-Heine,  P. H. P. Harbach,  A. W. Hauser,  
 J. E. Herr,  E. G. Hohenstein,  Z. C. Holden,  Kerwin Hui,  B. C. Huynh,  
 T.-C. Jagau,  Hyunjun Ji,  B. Kaduk,  K. Khistyaev,  Jaehoon Kim,  
 P. Klunzinger,  K. Koh,  D. Kosenkov,  L. Koulias,  T. Kowalczyk,  
 C. M. Krauter,  A. Kunitsa,  Ka Un Lao,  A. Laurent,  K. V. Lawler,  
 Joonho Lee,  D. Lefrancois,  S. Lehtola,  D. S. Levine,  Yi-Pei Li,  
 You-Sheng Lin,  Fenglai Liu,  E. Livshits,  A. Luenser,  P. Manohar,  
 E. Mansoor,  S. F. Manzer,  Shan-Ping Mao,  Yuezhi Mao,  N. Mardirossian,  
 A. V. Marenich,  T. Markovich,  L. A. Martinez-Martinez,  S. A. Maurer,  
 N. J. Mayhall,  S. C. McKenzie,  J.-M. Mewes,  A. F. Morrison,  
 J. W. Mullinax,  K. Nanda,  T. S. Nguyen-Beck,  R. Olivares-Amaya,  
 J. A. Parkhill,  T. M. Perrine,  F. Plasser,  P. Pokhilko,  S. Prager,  
 A. Prociuk,  E. Ramos,  D. R. Rehn,  F. Rob,  M. Schneider,  N. Sergueev,  
 S. M. Sharada,  S. Sharma,  D. W. Small,  T. Stauch,  T. Stein,  
 Yu-Chuan Su,  A. J. W. Thom,  A. Tkatchenko,  T. Tsuchimochi,  N. M. Tubman,  
 L. Vogt,  M. L. Vidal,  O. Vydrov,  M. A. Watson,  J. Wenzel,  
 M. de Wergifosse,  T. A. Wesolowski,  A. White,  J. Witte,  A. Yamada,  
 Jun Yang,  K. Yao,  S. Yeganeh,  S. R. Yost,  Zhi-Qiang You,  A. Zech,  
 Igor Ying Zhang,  Xing Zhang,  Yan Zhao,  Ying Zhu,  B. R. Brooks,  
 G. K. L. Chan,  C. J. Cramer,  M. S. Gordon,  W. J. Hehre,  A. Klamt,  
 M. W. Schmidt,  C. D. Sherrill,  D. G. Truhlar,  A. Aspuru-Guzik,  R. Baer,  
 A. T. Bell,  N. A. Besley,  Jeng-Da Chai,  A. E. DePrince, III,  
 R. A. DiStasio Jr.,  A. Dreuw,  B. D. Dunietz,  T. R. Furlani,  
 Chao-Ping Hsu,  Yousung Jung,  Jing Kong,  D. S. Lambrecht,  WanZhen Liang,  
 C. Ochsenfeld,  V. A. Rassolov,  L. V. Slipchenko,  J. E. Subotnik,  
 T. Van Voorhis,  J. M. Herbert,  A. I. Krylov,  P. M. W. Gill,  M. Head-Gordon

 Contributors to earlier versions of Q-Chem not listed above: 
 R. D. Adamson,  B. Austin,  J. Baker,  G. J. O. Beran,  K. Brandhorst,  
 S. T. Brown,  E. F. C. Byrd,  A. K. Chakraborty,  C.-L. Cheng,  
 Siu Hung Chien,  D. M. Chipman,  D. L. Crittenden,  H. Dachsel,  
 R. J. Doerksen,  A. D. Dutoi,  L. Fusti-Molnar,  W. A. Goddard III,  
 A. Golubeva-Zadorozhnaya,  S. R. Gwaltney,  G. Hawkins,  A. Heyden,  
 S. Hirata,  G. Kedziora,  F. J. Keil,  C. Kelley,  Jihan Kim,  R. A. King,  
 R. Z. Khaliullin,  P. P. Korambath,  W. Kurlancheek,  A. M. Lee,  M. S. Lee,  
 S. V. Levchenko,  Ching Yeh Lin,  D. Liotard,  R. C. Lochan,  I. Lotan,  
 P. E. Maslen,  N. Nair,  D. P. O'Neill,  D. Neuhauser,  E. Neuscamman,  
 C. M. Oana,  R. Olson,  B. Peters,  R. Peverati,  P. A. Pieniazek,  
 Y. M. Rhee,  J. Ritchie,  M. A. Rohrdanz,  E. Rosta,  N. J. Russ,  
 H. F. Schaefer III,  N. E. Schultz,  N. Shenvi,  A. C. Simmonett,  A. Sodt,  
 D. Stuck,  K. S. Thanthiriwatte,  V. Vanovschi,  Tao Wang,  A. Warshel,  
 C. F. Williams,  Q. Wu,  X. Xu,  W. Zhang

 Please cite Q-Chem as follows:
 Y. Shao et al., Mol. Phys. 113, 184-215 (2015)
 DOI: 10.1080/00268976.2014.952696

 Q-Chem 5.1.1 for Intel X86 EM64T Linux

 Parts of Q-Chem use Armadillo 8.300.2 (Tropical Shenanigans).
 http://arma.sourceforge.net/

 Q-Chem begins on Fri Oct  9 01:13:09 2020  

Host: n0057.mhg0
0

     Scratch files written to /local/scratch/users/yhljason/BS_PWPB95-D3_aug-cc-pcVTZ.inp20201008191744//
The previous job contains 0 fragments, simply inherited here
Input Ideriv = 0
Curr. Ideriv = -1
Max.  Ideriv = 0
Input Ideriv = 1
Curr. Ideriv = 0
Max.  Ideriv = 0

Checking the input file for inconsistencies... 	...done.

--------------------------------------------------------------
User input:
--------------------------------------------------------------
$molecule
read
$end

$rem

jobtype sp
method PWPB95-D3
xc_grid 000099000590
basis aug-cc-pcVTZ
max_scf_cycles 200
thresh 14
scf_convergence 8
mem_total 128000
cc_memory 96000
cc_backend xm
mem_static 1500
symmetry false
sym_ignore true
scf_guess read
unrestricted false
scf_algorithm gdm
n_frozen_core 0
$end

$multipole_field
XX 0.0001
$end


--------------------------------------------------------------
 Adding empirical dispersion correction 
 ----------------------------------------------------------------
 Doing -D3(0) with
 s6  =   0.82000
 s8  =   0.70500
 rs6 =   1.55700
 rs8 =   1.00000
 -D3 energy without 3body term =     -0.0000023220 hartrees
 ----------------------------------------------------------------
             Standard Nuclear Orientation (Angstroms)
    I     Atom           X                Y                Z
 ----------------------------------------------------------------
    1      B       0.0000000000     0.0000000000     0.0000000000
    2      S       0.0000000000     0.0000000000     1.6092000000
 ----------------------------------------------------------------
 Nuclear Repulsion Energy =    26.3075895647 hartrees
 There are       11 alpha and       10 beta electrons
 Requested basis set is aug-cc-pCVTZ
 There are 42 shells and 134 basis functions

 Total QAlloc Memory Limit 128000 MB
 Mega-Array Size      1467 MB
 MEM_STATIC part      1500 MB

                       Distance Matrix (Angstroms)
             B (  1)
   S (  2)  1.609200
 
 Applying Cartesian multipole field
    Component          Value
    ---------          -----
     (2,0,0)        1.00000E-04
 A cutoff of  1.0D-14 yielded    890 shell pairs
 There are      9132 function pairs (     12757 Cartesian)
 
 -------------------------------------------------------
 OpenMP Integral Computing Module                       
 Release: version 1.0, May 2013, Q-Chem Inc. Pittsburgh 
 -------------------------------------------------------
 Integral Job Info:
 Integral job number is                      11
 Integral operator is                         1
 short-range coefficients                     0
 long-range coefficients              100000000
 Omega coefficients                           0
 if combine SR and LR in K                    0
 Integral screening is                        0
 Integral computing path is                   2
 max size of driver memory is            800000
 size of driver memory is                776718
 size of scratch memory is             29531563
 max col of scratch BK array              10000
 max len of scratch array in speh3          662
 max len of scratch index in speh4           32
 max int batch size is                      520
 min int batch size is                       52
 fixed nKL is                                31
 max L of basis functions is                  3
 order of int derivative is                   0
 number of shells is                         42
 number of basis is                         158
 number of cartesian basis is               158
 number of contracted shell pairs           890
 number of primitive shell pairs           5226
 maxK2 (contraction) of shell pair          169
 max number of K2 of shell pair               1
 max number of CS2 of shell pair             97
 max number of PS2 of shell pair           1014
 mem total for path MDJ                  562256
 -------------------------------------------------------
 Smallest overlap matrix eigenvalue = 2.00E-04
 Guess MOs from SCF MO coefficient file
 Reading MOs from coefficient file
 Reading MOs from coefficient file
 A restricted hybrid HF-DFT SCF calculation will be
 performed using Geometric Direct Minimization
 Exchange:     0.5000 Hartree-Fock + 1.0000 PWPB95-D3
 Correlation:  0.7310 PWPB95-D3
 Using Euler-Maclaurin-Lebedev (99,590) quadrature formula
 Dispersion:   Grimme D3
 SCF converges when RMS gradient is below 1.0E-08
Using Q-Chem read-in guess as SCF_GUESS READ specified.

 using 8 threads for integral computing
 -------------------------------------------------------
 OpenMP Integral computing Module                
 Release: version 2.0, May 2017, Q-Chem Inc. Pleasanton 
 -------------------------------------------------------
TIMEINFO->: J/JK contribution 15.62 sec.
 -------------------------------------------------------
 OpenMP BLAS3 based DFT computing Module                
 Release: version 1.0, May 2013, Q-Chem Inc. Pittsburgh 
 -------------------------------------------------------
 ---------------------------------------
  Cycle       Energy        RMS Gradient
 ---------------------------------------
    1    -422.8606898284      5.32E-04 Normal BFGS step
TIMEINFO->: J/JK contribution 15.49 sec.
    2    -422.8606904814      2.66E-04 Normal BFGS step
TIMEINFO->: J/JK contribution 16.29 sec.
    3    -422.8606905620      8.98E-05 Normal BFGS step
TIMEINFO->: J/JK contribution 14.94 sec.
    4    -422.8606905681      2.18E-05 Normal BFGS step
TIMEINFO->: J/JK contribution 15.11 sec.
    5    -422.8606905685      5.97E-06 Normal BFGS step
TIMEINFO->: J/JK contribution 15.53 sec.
    6    -422.8606905686      2.88E-06 Normal BFGS step
TIMEINFO->: J/JK contribution 14.84 sec.
    7    -422.8606905686      1.98E-06 Normal BFGS step
TIMEINFO->: J/JK contribution 15.01 sec.
    8    -422.8606905686      7.89E-07 Normal BFGS step
TIMEINFO->: J/JK contribution 15.30 sec.
    9    -422.8606905686      3.14E-07 Normal BFGS step
TIMEINFO->: J/JK contribution 15.01 sec.
   GDM::WARNING energy changes are now smaller than effective accuracy.
   GDM::        calculation will continue, but THRESH should be increased
   GDM::        or SCF_CONVERGENCE decreased.
   GDM::        effective_thresh =   1.100000000000000E-010
   10    -422.8606905686      6.17E-08 Normal BFGS step
TIMEINFO->: J/JK contribution 14.61 sec.
   GDM::WARNING energy changes are now smaller than effective accuracy.
   GDM::        calculation will continue, but THRESH should be increased
   GDM::        or SCF_CONVERGENCE decreased.
   GDM::        effective_thresh =   1.100000000000000E-010
   11    -422.8606905686      1.76E-08 Normal BFGS step
TIMEINFO->: J/JK contribution 15.06 sec.
   12    -422.8606905686      5.20E-09 Convergence criterion met
 ---------------------------------------
 SCF time:  CPU 311.06 s  wall 38.91 s
 SCF   energy in the final basis set = -422.86069057
 Total energy in the final basis set = -422.86069057
 
 Components of the MP2 correlation energy:
        aaaa  correlation energy =         0.0000000000 au
        abab  correlation energy =        -0.1428235091 au
        bbbb  correlation energy =         0.0000000000 au
        non-Brillouin singles    =        -0.0009050958 au

 Total  MP2   correlation energy =                    -0.14372860 au
        MP2         total energy =                  -423.00441917 au
 
 --------------------------------------------------------------
 
                    Orbital Energies (a.u.)
 --------------------------------------------------------------
 
 Alpha MOs
 -- Occupied --
-90.033  -8.320  -7.177  -6.180  -6.177  -6.177  -0.831  -0.483
 -0.352  -0.352  -0.374
 -- Virtual --
 -0.022  -0.021   0.023   0.029   0.035   0.038   0.075   0.094
  0.096   0.133   0.133   0.133   0.185   0.185   0.186   0.214
  0.259   0.259   0.262   0.270   0.271   0.331   0.332   0.376
  0.490   0.523   0.523   0.533   0.534   0.551   0.582   0.582
  0.606   0.607   0.614   0.614   0.652   0.676   0.677   0.702
  0.728   0.728   0.833   0.833   0.950   0.965   0.966   1.039
  1.039   1.052   1.052   1.110   1.240   1.542   1.543   1.596
  1.766   1.766   1.819   1.866   1.866   1.867   1.867   1.901
  1.901   1.901   1.993   1.993   2.001   2.001   2.039   2.202
  2.202   2.253   2.253   2.357   2.357   2.459   2.459   2.598
  2.891   2.888   2.888   3.087   3.644   8.381   8.381   8.462
  8.462   8.771  10.236  10.236  10.501  10.684  10.684  10.958
 11.287  14.856  31.197  31.197  31.200  31.200  31.207  31.207
 31.213  36.533  36.533  36.557  36.557  36.645  38.742  38.742
 38.794  38.794  38.978  46.524  46.524  47.047  55.311  55.311
 55.618  59.137  85.795
 
 Beta MOs
 -- Occupied --
-90.032  -8.319  -7.161  -6.176  -6.177  -6.177  -0.818  -0.461
 -0.345  -0.345
 -- Virtual --
 -0.088   0.004   0.005   0.028   0.038   0.039   0.042   0.077
  0.096   0.098   0.135   0.135   0.139   0.192   0.194   0.193
  0.224   0.260   0.260   0.277   0.274   0.275   0.345   0.346
  0.410   0.494   0.533   0.533   0.547   0.547   0.563   0.584
  0.584   0.616   0.617   0.624   0.624   0.668   0.686   0.687
  0.716   0.730   0.730   0.834   0.834   0.964   0.978   0.978
  1.048   1.048   1.055   1.055   1.125   1.252   1.556   1.556
  1.645   1.768   1.768   1.829   1.878   1.878   1.877   1.877
  1.934   1.936   1.936   2.015   2.015   2.048   2.048   2.085
  2.207   2.207   2.293   2.293   2.363   2.364   2.470   2.470
  2.606   2.900   2.906   2.906   3.109   3.663   8.381   8.381
  8.464   8.464   8.774  10.250  10.250  10.542  10.686  10.686
 10.969  11.299  14.858  31.197  31.197  31.201  31.201  31.207
 31.207  31.213  36.536  36.536  36.566  36.566  36.656  38.742
 38.742  38.796  38.796  38.980  46.525  46.525  47.050  55.321
 55.321  55.633  59.151  85.796
 --------------------------------------------------------------
 
          Ground-State Mulliken Net Atomic Charges

     Atom                 Charge (a.u.)
  ----------------------------------------
      1 B                    -0.061945
      2 S                     0.061945
  ----------------------------------------
  Sum of atomic charges =    -0.000000

 -----------------------------------------------------------------
                    Cartesian Multipole Moments
 -----------------------------------------------------------------
    Charge (ESU x 10^10)
                -0.0000
    Dipole Moment (Debye)
         X       0.0000      Y       0.0000      Z      -1.0798
       Tot       1.0798
    Quadrupole Moments (Debye-Ang)
        XX     -19.2654     XY      -0.0000     YY     -19.2494
        XZ       0.0000     YZ       0.0000     ZZ     -19.0810
    Octopole Moments (Debye-Ang^2)
       XXX       0.0000    XXY       0.0000    XYY       0.0000
       YYY       0.0000    XXZ     -21.6850    XYZ      -0.0000
       YYZ     -21.6701    XZZ       0.0000    YZZ       0.0000
       ZZZ     -59.0196
    Hexadecapole Moments (Debye-Ang^3)
      XXXX     -28.0537   XXXY       0.0000   XXYY      -9.3382
      XYYY       0.0000   YYYY     -27.9752   XXXZ       0.0000
      XXYZ       0.0000   XYYZ       0.0000   YYYZ       0.0000
      XXZZ     -42.8806   XYZZ      -0.0000   YYZZ     -42.8446
      XZZZ       0.0000   YZZZ       0.0000   ZZZZ    -215.5225
 -----------------------------------------------------------------
Archival summary:
1\1\n0057.mhg0\SP\ROProcedureUnspecified\BasisUnspecified\11(2)\yhljason\FriOct901:14:252020FriOct901:14:252020\0\\#,ROProcedureUnspecified,BasisUnspecified,\\0,2\B\S,1,1.6092\\\@

 Total job time:  75.82s(wall), 601.59s(cpu) 
 Fri Oct  9 01:14:25 2020

        *************************************************************
        *                                                           *
        *  Thank you very much for using Q-Chem.  Have a nice day.  *
        *                                                           *
        *************************************************************


 
User input: 4 of 8 
 
Q-Chem Developer Version!
                  Welcome to Q-Chem
     A Quantum Leap Into The Future Of Chemistry


 Q-Chem 5.1, Q-Chem, Inc., Pleasanton, CA (2018)

 Yihan Shao,  Zhengting Gan,  E. Epifanovsky,  A. T. B. Gilbert,  M. Wormit,  
 J. Kussmann,  A. W. Lange,  A. Behn,  Jia Deng,  Xintian Feng,  D. Ghosh,  
 M. Goldey,  P. R. Horn,  L. D. Jacobson,  I. Kaliman,  T. Kus,  A. Landau,  
 Jie Liu,  E. I. Proynov,  R. M. Richard,  R. P. Steele,  E. J. Sundstrom,  
 H. L. Woodcock III,  P. M. Zimmerman,  D. Zuev,  B. Albrecht,  E. Alguire,  
 S. A. Baeppler,  D. Barton,  Z. Benda,  Y. A. Bernard,  E. J. Berquist,  
 K. B. Bravaya,  H. Burton,  D. Casanova,  Chun-Min Chang,  Yunqing Chen,  
 A. Chien,  K. D. Closser,  M. P. Coons,  S. Coriani,  S. Dasgupta,  
 A. L. Dempwolff,  M. Diedenhofen,  Hainam Do,  R. G. Edgar,  Po-Tung Fang,  
 S. Faraji,  S. Fatehi,  Qingguo Feng,  K. D. Fenk,  J. Fosso-Tande,  
 Qinghui Ge,  A. Ghysels,  G. Gidofalvi,  J. Gomes,  J. Gonthier,  A. Gunina,  
 D. Hait,  M. W. D. Hanson-Heine,  P. H. P. Harbach,  A. W. Hauser,  
 J. E. Herr,  E. G. Hohenstein,  Z. C. Holden,  Kerwin Hui,  B. C. Huynh,  
 T.-C. Jagau,  Hyunjun Ji,  B. Kaduk,  K. Khistyaev,  Jaehoon Kim,  
 P. Klunzinger,  K. Koh,  D. Kosenkov,  L. Koulias,  T. Kowalczyk,  
 C. M. Krauter,  A. Kunitsa,  Ka Un Lao,  A. Laurent,  K. V. Lawler,  
 Joonho Lee,  D. Lefrancois,  S. Lehtola,  D. S. Levine,  Yi-Pei Li,  
 You-Sheng Lin,  Fenglai Liu,  E. Livshits,  A. Luenser,  P. Manohar,  
 E. Mansoor,  S. F. Manzer,  Shan-Ping Mao,  Yuezhi Mao,  N. Mardirossian,  
 A. V. Marenich,  T. Markovich,  L. A. Martinez-Martinez,  S. A. Maurer,  
 N. J. Mayhall,  S. C. McKenzie,  J.-M. Mewes,  A. F. Morrison,  
 J. W. Mullinax,  K. Nanda,  T. S. Nguyen-Beck,  R. Olivares-Amaya,  
 J. A. Parkhill,  T. M. Perrine,  F. Plasser,  P. Pokhilko,  S. Prager,  
 A. Prociuk,  E. Ramos,  D. R. Rehn,  F. Rob,  M. Schneider,  N. Sergueev,  
 S. M. Sharada,  S. Sharma,  D. W. Small,  T. Stauch,  T. Stein,  
 Yu-Chuan Su,  A. J. W. Thom,  A. Tkatchenko,  T. Tsuchimochi,  N. M. Tubman,  
 L. Vogt,  M. L. Vidal,  O. Vydrov,  M. A. Watson,  J. Wenzel,  
 M. de Wergifosse,  T. A. Wesolowski,  A. White,  J. Witte,  A. Yamada,  
 Jun Yang,  K. Yao,  S. Yeganeh,  S. R. Yost,  Zhi-Qiang You,  A. Zech,  
 Igor Ying Zhang,  Xing Zhang,  Yan Zhao,  Ying Zhu,  B. R. Brooks,  
 G. K. L. Chan,  C. J. Cramer,  M. S. Gordon,  W. J. Hehre,  A. Klamt,  
 M. W. Schmidt,  C. D. Sherrill,  D. G. Truhlar,  A. Aspuru-Guzik,  R. Baer,  
 A. T. Bell,  N. A. Besley,  Jeng-Da Chai,  A. E. DePrince, III,  
 R. A. DiStasio Jr.,  A. Dreuw,  B. D. Dunietz,  T. R. Furlani,  
 Chao-Ping Hsu,  Yousung Jung,  Jing Kong,  D. S. Lambrecht,  WanZhen Liang,  
 C. Ochsenfeld,  V. A. Rassolov,  L. V. Slipchenko,  J. E. Subotnik,  
 T. Van Voorhis,  J. M. Herbert,  A. I. Krylov,  P. M. W. Gill,  M. Head-Gordon

 Contributors to earlier versions of Q-Chem not listed above: 
 R. D. Adamson,  B. Austin,  J. Baker,  G. J. O. Beran,  K. Brandhorst,  
 S. T. Brown,  E. F. C. Byrd,  A. K. Chakraborty,  C.-L. Cheng,  
 Siu Hung Chien,  D. M. Chipman,  D. L. Crittenden,  H. Dachsel,  
 R. J. Doerksen,  A. D. Dutoi,  L. Fusti-Molnar,  W. A. Goddard III,  
 A. Golubeva-Zadorozhnaya,  S. R. Gwaltney,  G. Hawkins,  A. Heyden,  
 S. Hirata,  G. Kedziora,  F. J. Keil,  C. Kelley,  Jihan Kim,  R. A. King,  
 R. Z. Khaliullin,  P. P. Korambath,  W. Kurlancheek,  A. M. Lee,  M. S. Lee,  
 S. V. Levchenko,  Ching Yeh Lin,  D. Liotard,  R. C. Lochan,  I. Lotan,  
 P. E. Maslen,  N. Nair,  D. P. O'Neill,  D. Neuhauser,  E. Neuscamman,  
 C. M. Oana,  R. Olson,  B. Peters,  R. Peverati,  P. A. Pieniazek,  
 Y. M. Rhee,  J. Ritchie,  M. A. Rohrdanz,  E. Rosta,  N. J. Russ,  
 H. F. Schaefer III,  N. E. Schultz,  N. Shenvi,  A. C. Simmonett,  A. Sodt,  
 D. Stuck,  K. S. Thanthiriwatte,  V. Vanovschi,  Tao Wang,  A. Warshel,  
 C. F. Williams,  Q. Wu,  X. Xu,  W. Zhang

 Please cite Q-Chem as follows:
 Y. Shao et al., Mol. Phys. 113, 184-215 (2015)
 DOI: 10.1080/00268976.2014.952696

 Q-Chem 5.1.1 for Intel X86 EM64T Linux

 Parts of Q-Chem use Armadillo 8.300.2 (Tropical Shenanigans).
 http://arma.sourceforge.net/

 Q-Chem begins on Fri Oct  9 01:14:25 2020  

Host: n0057.mhg0
0

     Scratch files written to /local/scratch/users/yhljason/BS_PWPB95-D3_aug-cc-pcVTZ.inp20201008191744//
The previous job contains 0 fragments, simply inherited here
Input Ideriv = 0
Curr. Ideriv = -1
Max.  Ideriv = 0
Input Ideriv = 1
Curr. Ideriv = 0
Max.  Ideriv = 0

Checking the input file for inconsistencies... 	...done.

--------------------------------------------------------------
User input:
--------------------------------------------------------------
$molecule
read
$end

$rem

jobtype sp
method PWPB95-D3
xc_grid 000099000590
basis aug-cc-pcVTZ
max_scf_cycles 200
thresh 14
scf_convergence 8
mem_total 128000
cc_memory 96000
cc_backend xm
mem_static 1500
symmetry false
sym_ignore true
scf_guess read
unrestricted false
scf_algorithm gdm
n_frozen_core 0
$end

$multipole_field
XX -0.0001
$end


--------------------------------------------------------------
 Adding empirical dispersion correction 
 ----------------------------------------------------------------
 Doing -D3(0) with
 s6  =   0.82000
 s8  =   0.70500
 rs6 =   1.55700
 rs8 =   1.00000
 -D3 energy without 3body term =     -0.0000023220 hartrees
 ----------------------------------------------------------------
             Standard Nuclear Orientation (Angstroms)
    I     Atom           X                Y                Z
 ----------------------------------------------------------------
    1      B       0.0000000000     0.0000000000     0.0000000000
    2      S       0.0000000000     0.0000000000     1.6092000000
 ----------------------------------------------------------------
 Nuclear Repulsion Energy =    26.3075895647 hartrees
 There are       11 alpha and       10 beta electrons
 Requested basis set is aug-cc-pCVTZ
 There are 42 shells and 134 basis functions

 Total QAlloc Memory Limit 128000 MB
 Mega-Array Size      1467 MB
 MEM_STATIC part      1500 MB

                       Distance Matrix (Angstroms)
             B (  1)
   S (  2)  1.609200
 
 Applying Cartesian multipole field
    Component          Value
    ---------          -----
     (2,0,0)       -1.00000E-04
 A cutoff of  1.0D-14 yielded    890 shell pairs
 There are      9132 function pairs (     12757 Cartesian)
 
 -------------------------------------------------------
 OpenMP Integral Computing Module                       
 Release: version 1.0, May 2013, Q-Chem Inc. Pittsburgh 
 -------------------------------------------------------
 Integral Job Info:
 Integral job number is                      11
 Integral operator is                         1
 short-range coefficients                     0
 long-range coefficients              100000000
 Omega coefficients                           0
 if combine SR and LR in K                    0
 Integral screening is                        0
 Integral computing path is                   2
 max size of driver memory is            800000
 size of driver memory is                776718
 size of scratch memory is             29531563
 max col of scratch BK array              10000
 max len of scratch array in speh3          662
 max len of scratch index in speh4           32
 max int batch size is                      520
 min int batch size is                       52
 fixed nKL is                                31
 max L of basis functions is                  3
 order of int derivative is                   0
 number of shells is                         42
 number of basis is                         158
 number of cartesian basis is               158
 number of contracted shell pairs           890
 number of primitive shell pairs           5226
 maxK2 (contraction) of shell pair          169
 max number of K2 of shell pair               1
 max number of CS2 of shell pair             97
 max number of PS2 of shell pair           1014
 mem total for path MDJ                  562256
 -------------------------------------------------------
 Smallest overlap matrix eigenvalue = 2.00E-04
 Guess MOs from SCF MO coefficient file
 Reading MOs from coefficient file
 Reading MOs from coefficient file
 A restricted hybrid HF-DFT SCF calculation will be
 performed using Geometric Direct Minimization
 Exchange:     0.5000 Hartree-Fock + 1.0000 PWPB95-D3
 Correlation:  0.7310 PWPB95-D3
 Using Euler-Maclaurin-Lebedev (99,590) quadrature formula
 Dispersion:   Grimme D3
 SCF converges when RMS gradient is below 1.0E-08
Using Q-Chem read-in guess as SCF_GUESS READ specified.

 using 8 threads for integral computing
 -------------------------------------------------------
 OpenMP Integral computing Module                
 Release: version 2.0, May 2017, Q-Chem Inc. Pleasanton 
 -------------------------------------------------------
TIMEINFO->: J/JK contribution 15.43 sec.
 -------------------------------------------------------
 OpenMP BLAS3 based DFT computing Module                
 Release: version 1.0, May 2013, Q-Chem Inc. Pittsburgh 
 -------------------------------------------------------
 ---------------------------------------
  Cycle       Energy        RMS Gradient
 ---------------------------------------
    1    -422.8578259024      1.11E-03 Normal BFGS step
TIMEINFO->: J/JK contribution 15.13 sec.
    2    -422.8578285213      5.30E-04 Normal BFGS step
TIMEINFO->: J/JK contribution 15.03 sec.
    3    -422.8578288376      1.74E-04 Normal BFGS step
TIMEINFO->: J/JK contribution 15.33 sec.
    4    -422.8578288614      3.87E-05 Normal BFGS step
TIMEINFO->: J/JK contribution 15.25 sec.
    5    -422.8578288630      1.11E-05 Normal BFGS step
TIMEINFO->: J/JK contribution 15.00 sec.
    6    -422.8578288632      4.15E-06 Normal BFGS step
TIMEINFO->: J/JK contribution 15.10 sec.
    7    -422.8578288632      1.20E-06 Normal BFGS step
TIMEINFO->: J/JK contribution 15.05 sec.
    8    -422.8578288632      3.38E-07 Normal BFGS step
TIMEINFO->: J/JK contribution 15.36 sec.
   GDM::WARNING energy changes are now smaller than effective accuracy.
   GDM::        calculation will continue, but THRESH should be increased
   GDM::        or SCF_CONVERGENCE decreased.
   GDM::        effective_thresh =   1.100000000000000E-010
    9    -422.8578288632      2.04E-07 Normal BFGS step
TIMEINFO->: J/JK contribution 15.73 sec.
   GDM::WARNING energy changes are now smaller than effective accuracy.
   GDM::        calculation will continue, but THRESH should be increased
   GDM::        or SCF_CONVERGENCE decreased.
   GDM::        effective_thresh =   1.100000000000000E-010
   10    -422.8578288632      1.21E-07 Normal BFGS step
TIMEINFO->: J/JK contribution 14.87 sec.
   11    -422.8578288632      3.17E-08 Normal BFGS step
TIMEINFO->: J/JK contribution 15.17 sec.
   12    -422.8578288632      1.09E-08 Normal BFGS step
TIMEINFO->: J/JK contribution 14.31 sec.
   13    -422.8578288632      1.33E-09 Convergence criterion met
 ---------------------------------------
 SCF time:  CPU 333.54 s  wall 42.20 s
 SCF   energy in the final basis set = -422.85782886
 Total energy in the final basis set = -422.85782886
 
 Components of the MP2 correlation energy:
        aaaa  correlation energy =         0.0000000000 au
        abab  correlation energy =        -0.1428350530 au
        bbbb  correlation energy =         0.0000000000 au
        non-Brillouin singles    =        -0.0009052365 au

 Total  MP2   correlation energy =                    -0.14374029 au
        MP2         total energy =                  -423.00156915 au
 
 --------------------------------------------------------------
 
                    Orbital Energies (a.u.)
 --------------------------------------------------------------
 
 Alpha MOs
 -- Occupied --
-90.033  -8.320  -7.176  -6.179  -6.176  -6.176  -0.830  -0.482
 -0.351  -0.351  -0.373
 -- Virtual --
 -0.020  -0.020   0.026   0.032   0.040   0.043   0.078   0.099
  0.101   0.135   0.135   0.137   0.187   0.187   0.188   0.216
  0.261   0.261   0.264   0.272   0.273   0.333   0.333   0.377
  0.492   0.525   0.525   0.535   0.535   0.553   0.583   0.583
  0.608   0.608   0.616   0.616   0.653   0.677   0.678   0.704
  0.729   0.729   0.834   0.834   0.951   0.966   0.967   1.040
  1.040   1.053   1.053   1.111   1.241   1.543   1.544   1.597
  1.767   1.767   1.820   1.867   1.867   1.868   1.868   1.901
  1.902   1.902   1.994   1.994   2.002   2.002   2.040   2.203
  2.203   2.254   2.254   2.358   2.358   2.459   2.459   2.599
  2.889   2.889   2.892   3.087   3.645   8.381   8.381   8.463
  8.463   8.771  10.237  10.237  10.501  10.684  10.684  10.959
 11.288  14.857  31.197  31.197  31.201  31.201  31.207  31.207
 31.213  36.534  36.534  36.558  36.558  36.646  38.743  38.743
 38.795  38.795  38.979  46.525  46.525  47.048  55.312  55.312
 55.619  59.137  85.795
 
 Beta MOs
 -- Occupied --
-90.032  -8.318  -7.160  -6.175  -6.176  -6.176  -0.817  -0.460
 -0.344  -0.344
 -- Virtual --
 -0.088   0.006   0.006   0.032   0.041   0.044   0.047   0.079
  0.100   0.103   0.137   0.137   0.143   0.194   0.196   0.195
  0.225   0.262   0.262   0.279   0.277   0.278   0.347   0.347
  0.412   0.495   0.534   0.534   0.548   0.549   0.564   0.586
  0.586   0.618   0.618   0.625   0.625   0.669   0.687   0.688
  0.717   0.731   0.731   0.835   0.835   0.964   0.979   0.979
  1.048   1.049   1.056   1.056   1.126   1.253   1.557   1.557
  1.646   1.769   1.769   1.830   1.879   1.879   1.878   1.878
  1.935   1.936   1.936   2.016   2.016   2.049   2.049   2.086
  2.208   2.208   2.294   2.294   2.364   2.364   2.471   2.471
  2.607   2.907   2.907   2.901   3.110   3.664   8.382   8.382
  8.465   8.465   8.775  10.251  10.251  10.542  10.686  10.686
 10.970  11.300  14.858  31.198  31.198  31.201  31.201  31.208
 31.208  31.214  36.537  36.537  36.567  36.567  36.657  38.743
 38.743  38.796  38.796  38.981  46.526  46.526  47.051  55.321
 55.321  55.633  59.151  85.796
 --------------------------------------------------------------
 
          Ground-State Mulliken Net Atomic Charges

     Atom                 Charge (a.u.)
  ----------------------------------------
      1 B                    -0.060246
      2 S                     0.060246
  ----------------------------------------
  Sum of atomic charges =    -0.000000

 -----------------------------------------------------------------
                    Cartesian Multipole Moments
 -----------------------------------------------------------------
    Charge (ESU x 10^10)
                -0.0000
    Dipole Moment (Debye)
         X      -0.0000      Y      -0.0000      Z      -1.0795
       Tot       1.0795
    Quadrupole Moments (Debye-Ang)
        XX     -19.2257     XY       0.0000     YY     -19.2415
        XZ      -0.0000     YZ      -0.0000     ZZ     -19.0786
    Octopole Moments (Debye-Ang^2)
       XXX       0.0000    XXY      -0.0000    XYY       0.0000
       YYY      -0.0000    XXZ     -21.6465    XYZ       0.0000
       YYZ     -21.6613    XZZ      -0.0000    YZZ      -0.0000
       ZZZ     -59.0111
    Hexadecapole Moments (Debye-Ang^3)
      XXXX     -27.8491   XXXY      -0.0000   XXYY      -9.2959
      XYYY      -0.0000   YYYY     -27.9261   XXXZ       0.0000
      XXYZ      -0.0000   XYYZ      -0.0000   YYYZ      -0.0000
      XXZZ     -42.7853   XYZZ       0.0000   YYZZ     -42.8210
      XZZZ      -0.0000   YZZZ      -0.0000   ZZZZ    -215.4719
 -----------------------------------------------------------------
Archival summary:
1\1\n0057.mhg0\SP\ROProcedureUnspecified\BasisUnspecified\11(2)\yhljason\FriOct901:15:442020FriOct901:15:442020\0\\#,ROProcedureUnspecified,BasisUnspecified,\\0,2\B\S,1,1.6092\\\@

 Total job time:  79.02s(wall), 624.19s(cpu) 
 Fri Oct  9 01:15:44 2020

        *************************************************************
        *                                                           *
        *  Thank you very much for using Q-Chem.  Have a nice day.  *
        *                                                           *
        *************************************************************


 
User input: 5 of 8 
 
Q-Chem Developer Version!
                  Welcome to Q-Chem
     A Quantum Leap Into The Future Of Chemistry


 Q-Chem 5.1, Q-Chem, Inc., Pleasanton, CA (2018)

 Yihan Shao,  Zhengting Gan,  E. Epifanovsky,  A. T. B. Gilbert,  M. Wormit,  
 J. Kussmann,  A. W. Lange,  A. Behn,  Jia Deng,  Xintian Feng,  D. Ghosh,  
 M. Goldey,  P. R. Horn,  L. D. Jacobson,  I. Kaliman,  T. Kus,  A. Landau,  
 Jie Liu,  E. I. Proynov,  R. M. Richard,  R. P. Steele,  E. J. Sundstrom,  
 H. L. Woodcock III,  P. M. Zimmerman,  D. Zuev,  B. Albrecht,  E. Alguire,  
 S. A. Baeppler,  D. Barton,  Z. Benda,  Y. A. Bernard,  E. J. Berquist,  
 K. B. Bravaya,  H. Burton,  D. Casanova,  Chun-Min Chang,  Yunqing Chen,  
 A. Chien,  K. D. Closser,  M. P. Coons,  S. Coriani,  S. Dasgupta,  
 A. L. Dempwolff,  M. Diedenhofen,  Hainam Do,  R. G. Edgar,  Po-Tung Fang,  
 S. Faraji,  S. Fatehi,  Qingguo Feng,  K. D. Fenk,  J. Fosso-Tande,  
 Qinghui Ge,  A. Ghysels,  G. Gidofalvi,  J. Gomes,  J. Gonthier,  A. Gunina,  
 D. Hait,  M. W. D. Hanson-Heine,  P. H. P. Harbach,  A. W. Hauser,  
 J. E. Herr,  E. G. Hohenstein,  Z. C. Holden,  Kerwin Hui,  B. C. Huynh,  
 T.-C. Jagau,  Hyunjun Ji,  B. Kaduk,  K. Khistyaev,  Jaehoon Kim,  
 P. Klunzinger,  K. Koh,  D. Kosenkov,  L. Koulias,  T. Kowalczyk,  
 C. M. Krauter,  A. Kunitsa,  Ka Un Lao,  A. Laurent,  K. V. Lawler,  
 Joonho Lee,  D. Lefrancois,  S. Lehtola,  D. S. Levine,  Yi-Pei Li,  
 You-Sheng Lin,  Fenglai Liu,  E. Livshits,  A. Luenser,  P. Manohar,  
 E. Mansoor,  S. F. Manzer,  Shan-Ping Mao,  Yuezhi Mao,  N. Mardirossian,  
 A. V. Marenich,  T. Markovich,  L. A. Martinez-Martinez,  S. A. Maurer,  
 N. J. Mayhall,  S. C. McKenzie,  J.-M. Mewes,  A. F. Morrison,  
 J. W. Mullinax,  K. Nanda,  T. S. Nguyen-Beck,  R. Olivares-Amaya,  
 J. A. Parkhill,  T. M. Perrine,  F. Plasser,  P. Pokhilko,  S. Prager,  
 A. Prociuk,  E. Ramos,  D. R. Rehn,  F. Rob,  M. Schneider,  N. Sergueev,  
 S. M. Sharada,  S. Sharma,  D. W. Small,  T. Stauch,  T. Stein,  
 Yu-Chuan Su,  A. J. W. Thom,  A. Tkatchenko,  T. Tsuchimochi,  N. M. Tubman,  
 L. Vogt,  M. L. Vidal,  O. Vydrov,  M. A. Watson,  J. Wenzel,  
 M. de Wergifosse,  T. A. Wesolowski,  A. White,  J. Witte,  A. Yamada,  
 Jun Yang,  K. Yao,  S. Yeganeh,  S. R. Yost,  Zhi-Qiang You,  A. Zech,  
 Igor Ying Zhang,  Xing Zhang,  Yan Zhao,  Ying Zhu,  B. R. Brooks,  
 G. K. L. Chan,  C. J. Cramer,  M. S. Gordon,  W. J. Hehre,  A. Klamt,  
 M. W. Schmidt,  C. D. Sherrill,  D. G. Truhlar,  A. Aspuru-Guzik,  R. Baer,  
 A. T. Bell,  N. A. Besley,  Jeng-Da Chai,  A. E. DePrince, III,  
 R. A. DiStasio Jr.,  A. Dreuw,  B. D. Dunietz,  T. R. Furlani,  
 Chao-Ping Hsu,  Yousung Jung,  Jing Kong,  D. S. Lambrecht,  WanZhen Liang,  
 C. Ochsenfeld,  V. A. Rassolov,  L. V. Slipchenko,  J. E. Subotnik,  
 T. Van Voorhis,  J. M. Herbert,  A. I. Krylov,  P. M. W. Gill,  M. Head-Gordon

 Contributors to earlier versions of Q-Chem not listed above: 
 R. D. Adamson,  B. Austin,  J. Baker,  G. J. O. Beran,  K. Brandhorst,  
 S. T. Brown,  E. F. C. Byrd,  A. K. Chakraborty,  C.-L. Cheng,  
 Siu Hung Chien,  D. M. Chipman,  D. L. Crittenden,  H. Dachsel,  
 R. J. Doerksen,  A. D. Dutoi,  L. Fusti-Molnar,  W. A. Goddard III,  
 A. Golubeva-Zadorozhnaya,  S. R. Gwaltney,  G. Hawkins,  A. Heyden,  
 S. Hirata,  G. Kedziora,  F. J. Keil,  C. Kelley,  Jihan Kim,  R. A. King,  
 R. Z. Khaliullin,  P. P. Korambath,  W. Kurlancheek,  A. M. Lee,  M. S. Lee,  
 S. V. Levchenko,  Ching Yeh Lin,  D. Liotard,  R. C. Lochan,  I. Lotan,  
 P. E. Maslen,  N. Nair,  D. P. O'Neill,  D. Neuhauser,  E. Neuscamman,  
 C. M. Oana,  R. Olson,  B. Peters,  R. Peverati,  P. A. Pieniazek,  
 Y. M. Rhee,  J. Ritchie,  M. A. Rohrdanz,  E. Rosta,  N. J. Russ,  
 H. F. Schaefer III,  N. E. Schultz,  N. Shenvi,  A. C. Simmonett,  A. Sodt,  
 D. Stuck,  K. S. Thanthiriwatte,  V. Vanovschi,  Tao Wang,  A. Warshel,  
 C. F. Williams,  Q. Wu,  X. Xu,  W. Zhang

 Please cite Q-Chem as follows:
 Y. Shao et al., Mol. Phys. 113, 184-215 (2015)
 DOI: 10.1080/00268976.2014.952696

 Q-Chem 5.1.1 for Intel X86 EM64T Linux

 Parts of Q-Chem use Armadillo 8.300.2 (Tropical Shenanigans).
 http://arma.sourceforge.net/

 Q-Chem begins on Fri Oct  9 01:15:44 2020  

Host: n0057.mhg0
0

     Scratch files written to /local/scratch/users/yhljason/BS_PWPB95-D3_aug-cc-pcVTZ.inp20201008191744//
The previous job contains 0 fragments, simply inherited here
Input Ideriv = 0
Curr. Ideriv = -1
Max.  Ideriv = 0
Input Ideriv = 1
Curr. Ideriv = 0
Max.  Ideriv = 0

Checking the input file for inconsistencies... 	...done.

--------------------------------------------------------------
User input:
--------------------------------------------------------------
$molecule
read
$end

$rem

jobtype sp
method PWPB95-D3
xc_grid 000099000590
basis aug-cc-pcVTZ
max_scf_cycles 200
thresh 14
scf_convergence 8
mem_total 128000
cc_memory 96000
cc_backend xm
mem_static 1500
symmetry false
sym_ignore true
scf_guess read
unrestricted false
scf_algorithm gdm
n_frozen_core 0
$end

$multipole_field
YY 0.0001
$end


--------------------------------------------------------------
 Adding empirical dispersion correction 
 ----------------------------------------------------------------
 Doing -D3(0) with
 s6  =   0.82000
 s8  =   0.70500
 rs6 =   1.55700
 rs8 =   1.00000
 -D3 energy without 3body term =     -0.0000023220 hartrees
 ----------------------------------------------------------------
             Standard Nuclear Orientation (Angstroms)
    I     Atom           X                Y                Z
 ----------------------------------------------------------------
    1      B       0.0000000000     0.0000000000     0.0000000000
    2      S       0.0000000000     0.0000000000     1.6092000000
 ----------------------------------------------------------------
 Nuclear Repulsion Energy =    26.3075895647 hartrees
 There are       11 alpha and       10 beta electrons
 Requested basis set is aug-cc-pCVTZ
 There are 42 shells and 134 basis functions

 Total QAlloc Memory Limit 128000 MB
 Mega-Array Size      1467 MB
 MEM_STATIC part      1500 MB

                       Distance Matrix (Angstroms)
             B (  1)
   S (  2)  1.609200
 
 Applying Cartesian multipole field
    Component          Value
    ---------          -----
     (0,2,0)        1.00000E-04
 A cutoff of  1.0D-14 yielded    890 shell pairs
 There are      9132 function pairs (     12757 Cartesian)
 
 -------------------------------------------------------
 OpenMP Integral Computing Module                       
 Release: version 1.0, May 2013, Q-Chem Inc. Pittsburgh 
 -------------------------------------------------------
 Integral Job Info:
 Integral job number is                      11
 Integral operator is                         1
 short-range coefficients                     0
 long-range coefficients              100000000
 Omega coefficients                           0
 if combine SR and LR in K                    0
 Integral screening is                        0
 Integral computing path is                   2
 max size of driver memory is            800000
 size of driver memory is                776718
 size of scratch memory is             29531563
 max col of scratch BK array              10000
 max len of scratch array in speh3          662
 max len of scratch index in speh4           32
 max int batch size is                      520
 min int batch size is                       52
 fixed nKL is                                31
 max L of basis functions is                  3
 order of int derivative is                   0
 number of shells is                         42
 number of basis is                         158
 number of cartesian basis is               158
 number of contracted shell pairs           890
 number of primitive shell pairs           5226
 maxK2 (contraction) of shell pair          169
 max number of K2 of shell pair               1
 max number of CS2 of shell pair             97
 max number of PS2 of shell pair           1014
 mem total for path MDJ                  562256
 -------------------------------------------------------
 Smallest overlap matrix eigenvalue = 2.00E-04
 Guess MOs from SCF MO coefficient file
 Reading MOs from coefficient file
 Reading MOs from coefficient file
 A restricted hybrid HF-DFT SCF calculation will be
 performed using Geometric Direct Minimization
 Exchange:     0.5000 Hartree-Fock + 1.0000 PWPB95-D3
 Correlation:  0.7310 PWPB95-D3
 Using Euler-Maclaurin-Lebedev (99,590) quadrature formula
 Dispersion:   Grimme D3
 SCF converges when RMS gradient is below 1.0E-08
Using Q-Chem read-in guess as SCF_GUESS READ specified.

 using 8 threads for integral computing
 -------------------------------------------------------
 OpenMP Integral computing Module                
 Release: version 2.0, May 2017, Q-Chem Inc. Pleasanton 
 -------------------------------------------------------
TIMEINFO->: J/JK contribution 15.93 sec.
 -------------------------------------------------------
 OpenMP BLAS3 based DFT computing Module                
 Release: version 1.0, May 2013, Q-Chem Inc. Pittsburgh 
 -------------------------------------------------------
 ---------------------------------------
  Cycle       Energy        RMS Gradient
 ---------------------------------------
    1    -422.8606888047      7.11E-04 Normal BFGS step
TIMEINFO->: J/JK contribution 16.04 sec.
    2    -422.8606902817      5.26E-04 Normal BFGS step
TIMEINFO->: J/JK contribution 14.95 sec.
    3    -422.8606905561      1.19E-04 Normal BFGS step
TIMEINFO->: J/JK contribution 15.39 sec.
    4    -422.8606905671      3.77E-05 Normal BFGS step
TIMEINFO->: J/JK contribution 14.91 sec.
    5    -422.8606905685      8.55E-06 Normal BFGS step
TIMEINFO->: J/JK contribution 15.25 sec.
    6    -422.8606905686      4.02E-06 Normal BFGS step
TIMEINFO->: J/JK contribution 14.96 sec.
    7    -422.8606905686      2.33E-06 Normal BFGS step
TIMEINFO->: J/JK contribution 15.47 sec.
    8    -422.8606905686      1.51E-06 Normal BFGS step
TIMEINFO->: J/JK contribution 15.00 sec.
    9    -422.8606905686      3.30E-07 Normal BFGS step
TIMEINFO->: J/JK contribution 14.96 sec.
   GDM::WARNING energy changes are now smaller than effective accuracy.
   GDM::        calculation will continue, but THRESH should be increased
   GDM::        or SCF_CONVERGENCE decreased.
   GDM::        effective_thresh =   1.100000000000000E-010
   10    -422.8606905686      1.24E-07 Normal BFGS step
TIMEINFO->: J/JK contribution 15.11 sec.
   GDM::WARNING energy changes are now smaller than effective accuracy.
   GDM::        calculation will continue, but THRESH should be increased
   GDM::        or SCF_CONVERGENCE decreased.
   GDM::        effective_thresh =   1.100000000000000E-010
   11    -422.8606905686      1.45E-08 Normal BFGS step
TIMEINFO->: J/JK contribution 14.59 sec.
   12    -422.8606905686      6.80E-09 Convergence criterion met
 ---------------------------------------
 SCF time:  CPU 309.59 s  wall 38.72 s
 SCF   energy in the final basis set = -422.86069057
 Total energy in the final basis set = -422.86069057
 
 Components of the MP2 correlation energy:
        aaaa  correlation energy =         0.0000000000 au
        abab  correlation energy =        -0.1428235092 au
        bbbb  correlation energy =         0.0000000000 au
        non-Brillouin singles    =        -0.0009050958 au

 Total  MP2   correlation energy =                    -0.14372860 au
        MP2         total energy =                  -423.00441917 au
 
 --------------------------------------------------------------
 
                    Orbital Energies (a.u.)
 --------------------------------------------------------------
 
 Alpha MOs
 -- Occupied --
-90.033  -8.320  -7.177  -6.180  -6.177  -6.177  -0.831  -0.483
 -0.352  -0.352  -0.374
 -- Virtual --
 -0.022  -0.021   0.023   0.029   0.035   0.038   0.075   0.094
  0.096   0.133   0.133   0.133   0.185   0.185   0.186   0.214
  0.259   0.259   0.262   0.270   0.271   0.331   0.332   0.376
  0.490   0.523   0.523   0.533   0.534   0.551   0.582   0.582
  0.606   0.607   0.614   0.614   0.652   0.676   0.677   0.702
  0.728   0.728   0.833   0.833   0.950   0.965   0.966   1.039
  1.039   1.052   1.052   1.110   1.240   1.542   1.543   1.596
  1.766   1.766   1.819   1.866   1.866   1.867   1.867   1.901
  1.901   1.901   1.993   1.993   2.001   2.001   2.039   2.202
  2.202   2.253   2.253   2.357   2.357   2.459   2.459   2.598
  2.891   2.888   2.888   3.087   3.644   8.381   8.381   8.462
  8.462   8.771  10.236  10.236  10.501  10.684  10.684  10.958
 11.287  14.856  31.197  31.197  31.200  31.200  31.207  31.207
 31.213  36.533  36.533  36.557  36.557  36.645  38.742  38.742
 38.794  38.794  38.978  46.524  46.524  47.047  55.311  55.311
 55.618  59.137  85.795
 
 Beta MOs
 -- Occupied --
-90.032  -8.319  -7.161  -6.176  -6.177  -6.177  -0.818  -0.461
 -0.345  -0.345
 -- Virtual --
 -0.088   0.004   0.005   0.028   0.038   0.039   0.042   0.077
  0.096   0.098   0.135   0.135   0.139   0.192   0.194   0.193
  0.224   0.260   0.260   0.277   0.274   0.275   0.345   0.346
  0.410   0.494   0.533   0.533   0.547   0.547   0.563   0.584
  0.584   0.616   0.617   0.624   0.624   0.668   0.686   0.687
  0.716   0.730   0.730   0.834   0.834   0.964   0.978   0.978
  1.048   1.048   1.055   1.055   1.125   1.252   1.556   1.556
  1.645   1.768   1.768   1.829   1.878   1.878   1.877   1.877
  1.934   1.936   1.936   2.015   2.015   2.048   2.048   2.085
  2.207   2.207   2.293   2.293   2.363   2.364   2.470   2.470
  2.606   2.900   2.906   2.906   3.109   3.663   8.381   8.381
  8.464   8.464   8.774  10.250  10.250  10.542  10.686  10.686
 10.969  11.299  14.858  31.197  31.197  31.201  31.201  31.207
 31.207  31.213  36.536  36.536  36.566  36.566  36.656  38.742
 38.742  38.796  38.796  38.980  46.525  46.525  47.050  55.321
 55.321  55.633  59.151  85.796
 --------------------------------------------------------------
 
          Ground-State Mulliken Net Atomic Charges

     Atom                 Charge (a.u.)
  ----------------------------------------
      1 B                    -0.061945
      2 S                     0.061945
  ----------------------------------------
  Sum of atomic charges =    -0.000000

 -----------------------------------------------------------------
                    Cartesian Multipole Moments
 -----------------------------------------------------------------
    Charge (ESU x 10^10)
                -0.0000
    Dipole Moment (Debye)
         X      -0.0000      Y      -0.0000      Z      -1.0798
       Tot       1.0798
    Quadrupole Moments (Debye-Ang)
        XX     -19.2494     XY       0.0000     YY     -19.2654
        XZ      -0.0000     YZ       0.0000     ZZ     -19.0810
    Octopole Moments (Debye-Ang^2)
       XXX      -0.0000    XXY      -0.0000    XYY      -0.0000
       YYY      -0.0000    XXZ     -21.6701    XYZ       0.0000
       YYZ     -21.6850    XZZ      -0.0000    YZZ       0.0000
       ZZZ     -59.0196
    Hexadecapole Moments (Debye-Ang^3)
      XXXX     -27.9752   XXXY       0.0000   XXYY      -9.3382
      XYYY       0.0000   YYYY     -28.0537   XXXZ       0.0000
      XXYZ       0.0000   XYYZ      -0.0000   YYYZ       0.0000
      XXZZ     -42.8446   XYZZ       0.0000   YYZZ     -42.8806
      XZZZ       0.0000   YZZZ       0.0000   ZZZZ    -215.5225
 -----------------------------------------------------------------
Archival summary:
1\1\n0057.mhg0\SP\ROProcedureUnspecified\BasisUnspecified\11(2)\yhljason\FriOct901:17:002020FriOct901:17:002020\0\\#,ROProcedureUnspecified,BasisUnspecified,\\0,2\B\S,1,1.6092\\\@

 Total job time:  75.72s(wall), 600.92s(cpu) 
 Fri Oct  9 01:17:00 2020

        *************************************************************
        *                                                           *
        *  Thank you very much for using Q-Chem.  Have a nice day.  *
        *                                                           *
        *************************************************************


 
User input: 6 of 8 
 
Q-Chem Developer Version!
                  Welcome to Q-Chem
     A Quantum Leap Into The Future Of Chemistry


 Q-Chem 5.1, Q-Chem, Inc., Pleasanton, CA (2018)

 Yihan Shao,  Zhengting Gan,  E. Epifanovsky,  A. T. B. Gilbert,  M. Wormit,  
 J. Kussmann,  A. W. Lange,  A. Behn,  Jia Deng,  Xintian Feng,  D. Ghosh,  
 M. Goldey,  P. R. Horn,  L. D. Jacobson,  I. Kaliman,  T. Kus,  A. Landau,  
 Jie Liu,  E. I. Proynov,  R. M. Richard,  R. P. Steele,  E. J. Sundstrom,  
 H. L. Woodcock III,  P. M. Zimmerman,  D. Zuev,  B. Albrecht,  E. Alguire,  
 S. A. Baeppler,  D. Barton,  Z. Benda,  Y. A. Bernard,  E. J. Berquist,  
 K. B. Bravaya,  H. Burton,  D. Casanova,  Chun-Min Chang,  Yunqing Chen,  
 A. Chien,  K. D. Closser,  M. P. Coons,  S. Coriani,  S. Dasgupta,  
 A. L. Dempwolff,  M. Diedenhofen,  Hainam Do,  R. G. Edgar,  Po-Tung Fang,  
 S. Faraji,  S. Fatehi,  Qingguo Feng,  K. D. Fenk,  J. Fosso-Tande,  
 Qinghui Ge,  A. Ghysels,  G. Gidofalvi,  J. Gomes,  J. Gonthier,  A. Gunina,  
 D. Hait,  M. W. D. Hanson-Heine,  P. H. P. Harbach,  A. W. Hauser,  
 J. E. Herr,  E. G. Hohenstein,  Z. C. Holden,  Kerwin Hui,  B. C. Huynh,  
 T.-C. Jagau,  Hyunjun Ji,  B. Kaduk,  K. Khistyaev,  Jaehoon Kim,  
 P. Klunzinger,  K. Koh,  D. Kosenkov,  L. Koulias,  T. Kowalczyk,  
 C. M. Krauter,  A. Kunitsa,  Ka Un Lao,  A. Laurent,  K. V. Lawler,  
 Joonho Lee,  D. Lefrancois,  S. Lehtola,  D. S. Levine,  Yi-Pei Li,  
 You-Sheng Lin,  Fenglai Liu,  E. Livshits,  A. Luenser,  P. Manohar,  
 E. Mansoor,  S. F. Manzer,  Shan-Ping Mao,  Yuezhi Mao,  N. Mardirossian,  
 A. V. Marenich,  T. Markovich,  L. A. Martinez-Martinez,  S. A. Maurer,  
 N. J. Mayhall,  S. C. McKenzie,  J.-M. Mewes,  A. F. Morrison,  
 J. W. Mullinax,  K. Nanda,  T. S. Nguyen-Beck,  R. Olivares-Amaya,  
 J. A. Parkhill,  T. M. Perrine,  F. Plasser,  P. Pokhilko,  S. Prager,  
 A. Prociuk,  E. Ramos,  D. R. Rehn,  F. Rob,  M. Schneider,  N. Sergueev,  
 S. M. Sharada,  S. Sharma,  D. W. Small,  T. Stauch,  T. Stein,  
 Yu-Chuan Su,  A. J. W. Thom,  A. Tkatchenko,  T. Tsuchimochi,  N. M. Tubman,  
 L. Vogt,  M. L. Vidal,  O. Vydrov,  M. A. Watson,  J. Wenzel,  
 M. de Wergifosse,  T. A. Wesolowski,  A. White,  J. Witte,  A. Yamada,  
 Jun Yang,  K. Yao,  S. Yeganeh,  S. R. Yost,  Zhi-Qiang You,  A. Zech,  
 Igor Ying Zhang,  Xing Zhang,  Yan Zhao,  Ying Zhu,  B. R. Brooks,  
 G. K. L. Chan,  C. J. Cramer,  M. S. Gordon,  W. J. Hehre,  A. Klamt,  
 M. W. Schmidt,  C. D. Sherrill,  D. G. Truhlar,  A. Aspuru-Guzik,  R. Baer,  
 A. T. Bell,  N. A. Besley,  Jeng-Da Chai,  A. E. DePrince, III,  
 R. A. DiStasio Jr.,  A. Dreuw,  B. D. Dunietz,  T. R. Furlani,  
 Chao-Ping Hsu,  Yousung Jung,  Jing Kong,  D. S. Lambrecht,  WanZhen Liang,  
 C. Ochsenfeld,  V. A. Rassolov,  L. V. Slipchenko,  J. E. Subotnik,  
 T. Van Voorhis,  J. M. Herbert,  A. I. Krylov,  P. M. W. Gill,  M. Head-Gordon

 Contributors to earlier versions of Q-Chem not listed above: 
 R. D. Adamson,  B. Austin,  J. Baker,  G. J. O. Beran,  K. Brandhorst,  
 S. T. Brown,  E. F. C. Byrd,  A. K. Chakraborty,  C.-L. Cheng,  
 Siu Hung Chien,  D. M. Chipman,  D. L. Crittenden,  H. Dachsel,  
 R. J. Doerksen,  A. D. Dutoi,  L. Fusti-Molnar,  W. A. Goddard III,  
 A. Golubeva-Zadorozhnaya,  S. R. Gwaltney,  G. Hawkins,  A. Heyden,  
 S. Hirata,  G. Kedziora,  F. J. Keil,  C. Kelley,  Jihan Kim,  R. A. King,  
 R. Z. Khaliullin,  P. P. Korambath,  W. Kurlancheek,  A. M. Lee,  M. S. Lee,  
 S. V. Levchenko,  Ching Yeh Lin,  D. Liotard,  R. C. Lochan,  I. Lotan,  
 P. E. Maslen,  N. Nair,  D. P. O'Neill,  D. Neuhauser,  E. Neuscamman,  
 C. M. Oana,  R. Olson,  B. Peters,  R. Peverati,  P. A. Pieniazek,  
 Y. M. Rhee,  J. Ritchie,  M. A. Rohrdanz,  E. Rosta,  N. J. Russ,  
 H. F. Schaefer III,  N. E. Schultz,  N. Shenvi,  A. C. Simmonett,  A. Sodt,  
 D. Stuck,  K. S. Thanthiriwatte,  V. Vanovschi,  Tao Wang,  A. Warshel,  
 C. F. Williams,  Q. Wu,  X. Xu,  W. Zhang

 Please cite Q-Chem as follows:
 Y. Shao et al., Mol. Phys. 113, 184-215 (2015)
 DOI: 10.1080/00268976.2014.952696

 Q-Chem 5.1.1 for Intel X86 EM64T Linux

 Parts of Q-Chem use Armadillo 8.300.2 (Tropical Shenanigans).
 http://arma.sourceforge.net/

 Q-Chem begins on Fri Oct  9 01:17:00 2020  

Host: n0057.mhg0
0

     Scratch files written to /local/scratch/users/yhljason/BS_PWPB95-D3_aug-cc-pcVTZ.inp20201008191744//
The previous job contains 0 fragments, simply inherited here
Input Ideriv = 0
Curr. Ideriv = -1
Max.  Ideriv = 0
Input Ideriv = 1
Curr. Ideriv = 0
Max.  Ideriv = 0

Checking the input file for inconsistencies... 	...done.

--------------------------------------------------------------
User input:
--------------------------------------------------------------
$molecule
read
$end

$rem

jobtype sp
method PWPB95-D3
xc_grid 000099000590
basis aug-cc-pcVTZ
max_scf_cycles 200
thresh 14
scf_convergence 8
mem_total 128000
cc_memory 96000
cc_backend xm
mem_static 1500
symmetry false
sym_ignore true
scf_guess read
unrestricted false
scf_algorithm gdm
n_frozen_core 0
$end

$multipole_field
YY -0.0001
$end


--------------------------------------------------------------
 Adding empirical dispersion correction 
 ----------------------------------------------------------------
 Doing -D3(0) with
 s6  =   0.82000
 s8  =   0.70500
 rs6 =   1.55700
 rs8 =   1.00000
 -D3 energy without 3body term =     -0.0000023220 hartrees
 ----------------------------------------------------------------
             Standard Nuclear Orientation (Angstroms)
    I     Atom           X                Y                Z
 ----------------------------------------------------------------
    1      B       0.0000000000     0.0000000000     0.0000000000
    2      S       0.0000000000     0.0000000000     1.6092000000
 ----------------------------------------------------------------
 Nuclear Repulsion Energy =    26.3075895647 hartrees
 There are       11 alpha and       10 beta electrons
 Requested basis set is aug-cc-pCVTZ
 There are 42 shells and 134 basis functions

 Total QAlloc Memory Limit 128000 MB
 Mega-Array Size      1467 MB
 MEM_STATIC part      1500 MB

                       Distance Matrix (Angstroms)
             B (  1)
   S (  2)  1.609200
 
 Applying Cartesian multipole field
    Component          Value
    ---------          -----
     (0,2,0)       -1.00000E-04
 A cutoff of  1.0D-14 yielded    890 shell pairs
 There are      9132 function pairs (     12757 Cartesian)
 
 -------------------------------------------------------
 OpenMP Integral Computing Module                       
 Release: version 1.0, May 2013, Q-Chem Inc. Pittsburgh 
 -------------------------------------------------------
 Integral Job Info:
 Integral job number is                      11
 Integral operator is                         1
 short-range coefficients                     0
 long-range coefficients              100000000
 Omega coefficients                           0
 if combine SR and LR in K                    0
 Integral screening is                        0
 Integral computing path is                   2
 max size of driver memory is            800000
 size of driver memory is                776718
 size of scratch memory is             29531563
 max col of scratch BK array              10000
 max len of scratch array in speh3          662
 max len of scratch index in speh4           32
 max int batch size is                      520
 min int batch size is                       52
 fixed nKL is                                31
 max L of basis functions is                  3
 order of int derivative is                   0
 number of shells is                         42
 number of basis is                         158
 number of cartesian basis is               158
 number of contracted shell pairs           890
 number of primitive shell pairs           5226
 maxK2 (contraction) of shell pair          169
 max number of K2 of shell pair               1
 max number of CS2 of shell pair             97
 max number of PS2 of shell pair           1014
 mem total for path MDJ                  562256
 -------------------------------------------------------
 Smallest overlap matrix eigenvalue = 2.00E-04
 Guess MOs from SCF MO coefficient file
 Reading MOs from coefficient file
 Reading MOs from coefficient file
 A restricted hybrid HF-DFT SCF calculation will be
 performed using Geometric Direct Minimization
 Exchange:     0.5000 Hartree-Fock + 1.0000 PWPB95-D3
 Correlation:  0.7310 PWPB95-D3
 Using Euler-Maclaurin-Lebedev (99,590) quadrature formula
 Dispersion:   Grimme D3
 SCF converges when RMS gradient is below 1.0E-08
Using Q-Chem read-in guess as SCF_GUESS READ specified.

 using 8 threads for integral computing
 -------------------------------------------------------
 OpenMP Integral computing Module                
 Release: version 2.0, May 2017, Q-Chem Inc. Pleasanton 
 -------------------------------------------------------
TIMEINFO->: J/JK contribution 15.54 sec.
 -------------------------------------------------------
 OpenMP BLAS3 based DFT computing Module                
 Release: version 1.0, May 2013, Q-Chem Inc. Pittsburgh 
 -------------------------------------------------------
 ---------------------------------------
  Cycle       Energy        RMS Gradient
 ---------------------------------------
    1    -422.8578259024      1.11E-03 Normal BFGS step
TIMEINFO->: J/JK contribution 15.38 sec.
    2    -422.8578285213      5.30E-04 Normal BFGS step
TIMEINFO->: J/JK contribution 15.41 sec.
    3    -422.8578288376      1.74E-04 Normal BFGS step
TIMEINFO->: J/JK contribution 16.34 sec.
    4    -422.8578288614      3.87E-05 Normal BFGS step
TIMEINFO->: J/JK contribution 14.91 sec.
    5    -422.8578288630      1.11E-05 Normal BFGS step
TIMEINFO->: J/JK contribution 15.44 sec.
    6    -422.8578288632      4.15E-06 Normal BFGS step
TIMEINFO->: J/JK contribution 15.34 sec.
    7    -422.8578288632      1.20E-06 Normal BFGS step
TIMEINFO->: J/JK contribution 14.89 sec.
    8    -422.8578288632      3.38E-07 Normal BFGS step
TIMEINFO->: J/JK contribution 14.92 sec.
    9    -422.8578288632      2.04E-07 Normal BFGS step
TIMEINFO->: J/JK contribution 15.24 sec.
   GDM::WARNING energy changes are now smaller than effective accuracy.
   GDM::        calculation will continue, but THRESH should be increased
   GDM::        or SCF_CONVERGENCE decreased.
   GDM::        effective_thresh =   1.100000000000000E-010
   10    -422.8578288632      1.21E-07 Normal BFGS step
TIMEINFO->: J/JK contribution 14.94 sec.
   11    -422.8578288632      3.17E-08 Normal BFGS step
TIMEINFO->: J/JK contribution 14.63 sec.
   GDM::WARNING energy changes are now smaller than effective accuracy.
   GDM::        calculation will continue, but THRESH should be increased
   GDM::        or SCF_CONVERGENCE decreased.
   GDM::        effective_thresh =   1.100000000000000E-010
   12    -422.8578288632      1.09E-08 Normal BFGS step
TIMEINFO->: J/JK contribution 14.83 sec.
   13    -422.8578288632      1.33E-09 Convergence criterion met
 ---------------------------------------
 SCF time:  CPU 336.56 s  wall 42.11 s
 SCF   energy in the final basis set = -422.85782886
 Total energy in the final basis set = -422.85782886
 
 Components of the MP2 correlation energy:
        aaaa  correlation energy =         0.0000000000 au
        abab  correlation energy =        -0.1428350530 au
        bbbb  correlation energy =         0.0000000000 au
        non-Brillouin singles    =        -0.0009052365 au

 Total  MP2   correlation energy =                    -0.14374029 au
        MP2         total energy =                  -423.00156915 au
 
 --------------------------------------------------------------
 
                    Orbital Energies (a.u.)
 --------------------------------------------------------------
 
 Alpha MOs
 -- Occupied --
-90.033  -8.320  -7.176  -6.179  -6.176  -6.176  -0.830  -0.482
 -0.351  -0.351  -0.373
 -- Virtual --
 -0.020  -0.020   0.026   0.032   0.040   0.043   0.078   0.099
  0.101   0.135   0.135   0.137   0.187   0.187   0.188   0.216
  0.261   0.261   0.264   0.272   0.273   0.333   0.333   0.377
  0.492   0.525   0.525   0.535   0.535   0.553   0.583   0.583
  0.608   0.608   0.616   0.616   0.653   0.677   0.678   0.704
  0.729   0.729   0.834   0.834   0.951   0.966   0.967   1.040
  1.040   1.053   1.053   1.111   1.241   1.543   1.544   1.597
  1.767   1.767   1.820   1.867   1.867   1.868   1.868   1.901
  1.902   1.902   1.994   1.994   2.002   2.002   2.040   2.203
  2.203   2.254   2.254   2.358   2.358   2.459   2.459   2.599
  2.889   2.889   2.892   3.087   3.645   8.381   8.381   8.463
  8.463   8.771  10.237  10.237  10.501  10.684  10.684  10.959
 11.288  14.857  31.197  31.197  31.201  31.201  31.207  31.207
 31.213  36.534  36.534  36.558  36.558  36.646  38.743  38.743
 38.795  38.795  38.979  46.525  46.525  47.048  55.312  55.312
 55.619  59.137  85.795
 
 Beta MOs
 -- Occupied --
-90.032  -8.318  -7.160  -6.175  -6.176  -6.176  -0.817  -0.460
 -0.344  -0.344
 -- Virtual --
 -0.088   0.006   0.006   0.032   0.041   0.044   0.047   0.079
  0.100   0.103   0.137   0.137   0.143   0.194   0.196   0.195
  0.225   0.262   0.262   0.279   0.277   0.278   0.347   0.347
  0.412   0.495   0.534   0.534   0.548   0.549   0.564   0.586
  0.586   0.618   0.618   0.625   0.625   0.669   0.687   0.688
  0.717   0.731   0.731   0.835   0.835   0.964   0.979   0.979
  1.048   1.049   1.056   1.056   1.126   1.253   1.557   1.557
  1.646   1.769   1.769   1.830   1.879   1.879   1.878   1.878
  1.935   1.936   1.936   2.016   2.016   2.049   2.049   2.086
  2.208   2.208   2.294   2.294   2.364   2.364   2.471   2.471
  2.607   2.907   2.907   2.901   3.110   3.664   8.382   8.382
  8.465   8.465   8.775  10.251  10.251  10.542  10.686  10.686
[...]
  1.900   1.900   1.993   1.993   2.001   2.001   2.038   2.202
  2.202   2.252   2.252   2.357   2.357   2.458   2.458   2.598
  2.891   2.888   2.888   3.086   3.643   8.380   8.380   8.462
  8.462   8.770  10.235  10.235  10.500  10.683  10.683  10.958
 11.286  14.855  31.196  31.196  31.200  31.200  31.206  31.206
 31.212  36.532  36.532  36.556  36.556  36.644  38.741  38.741
 38.793  38.793  38.977  46.524  46.524  47.047  55.311  55.311
 55.617  59.136  85.794
 
 Beta MOs
 -- Occupied --
-90.033  -8.320  -7.161  -6.177  -6.177  -6.177  -0.818  -0.462
 -0.345  -0.345
 -- Virtual --
 -0.089   0.004   0.004   0.026   0.036   0.042   0.042   0.074
  0.096   0.096   0.138   0.135   0.135   0.193   0.192   0.192
  0.221   0.260   0.260   0.276   0.274   0.274   0.344   0.344
  0.409   0.492   0.533   0.533   0.547   0.547   0.561   0.584
  0.584   0.616   0.616   0.624   0.624   0.668   0.686   0.686
  0.715   0.730   0.730   0.833   0.833   0.962   0.977   0.977
  1.047   1.047   1.054   1.054   1.125   1.250   1.555   1.555
  1.645   1.767   1.767   1.828   1.876   1.876   1.877   1.877
  1.933   1.935   1.935   2.015   2.015   2.047   2.047   2.084
  2.207   2.207   2.292   2.292   2.363   2.363   2.469   2.469
  2.605   2.899   2.906   2.906   3.108   3.662   8.380   8.380
  8.463   8.463   8.773  10.250  10.250  10.541  10.685  10.685
 10.968  11.298  14.857  31.196  31.196  31.200  31.200  31.207
 31.207  31.213  36.535  36.535  36.566  36.566  36.656  38.742
 38.742  38.795  38.795  38.980  46.524  46.524  47.049  55.320
 55.320  55.632  59.150  85.795
 --------------------------------------------------------------
 
          Ground-State Mulliken Net Atomic Charges

     Atom                 Charge (a.u.)
  ----------------------------------------
      1 B                    -0.057524
      2 S                     0.057524
  ----------------------------------------
  Sum of atomic charges =    -0.000000

 -----------------------------------------------------------------
                    Cartesian Multipole Moments
 -----------------------------------------------------------------
    Charge (ESU x 10^10)
                -0.0000
    Dipole Moment (Debye)
         X       0.0000      Y       0.0000      Z      -1.1170
       Tot       1.1170
    Quadrupole Moments (Debye-Ang)
        XX     -19.2467     XY      -0.0000     YY     -19.2467
        XZ      -0.0000     YZ       0.0000     ZZ     -19.1961
    Octopole Moments (Debye-Ang^2)
       XXX       0.0000    XXY       0.0000    XYY       0.0000
       YYY       0.0000    XXZ     -21.6985    XYZ      -0.0000
       YYZ     -21.6985    XZZ       0.0000    YZZ       0.0000
       ZZZ     -59.3510
    Hexadecapole Moments (Debye-Ang^3)
      XXXX     -27.9590   XXXY      -0.0000   XXYY      -9.3197
      XYYY      -0.0000   YYYY     -27.9590   XXXZ       0.0000
      XXYZ       0.0000   XYYZ       0.0000   YYYZ       0.0000
      XXZZ     -42.9319   XYZZ      -0.0000   YYZZ     -42.9319
      XZZZ      -0.0000   YZZZ       0.0000   ZZZZ    -216.5607
 -----------------------------------------------------------------
Archival summary:
1\1\n0057.mhg0\SP\ROProcedureUnspecified\BasisUnspecified\11(2)\yhljason\FriOct901:19:352020FriOct901:19:352020\0\\#,ROProcedureUnspecified,BasisUnspecified,\\0,2\B\S,1,1.6092\\\@

 Total job time:  75.74s(wall), 600.73s(cpu) 
 Fri Oct  9 01:19:35 2020

        *************************************************************
        *                                                           *
        *  Thank you very much for using Q-Chem.  Have a nice day.  *
        *                                                           *
        *************************************************************


 
User input: 8 of 8 
 
Q-Chem Developer Version!
                  Welcome to Q-Chem
     A Quantum Leap Into The Future Of Chemistry


 Q-Chem 5.1, Q-Chem, Inc., Pleasanton, CA (2018)

 Yihan Shao,  Zhengting Gan,  E. Epifanovsky,  A. T. B. Gilbert,  M. Wormit,  
 J. Kussmann,  A. W. Lange,  A. Behn,  Jia Deng,  Xintian Feng,  D. Ghosh,  
 M. Goldey,  P. R. Horn,  L. D. Jacobson,  I. Kaliman,  T. Kus,  A. Landau,  
 Jie Liu,  E. I. Proynov,  R. M. Richard,  R. P. Steele,  E. J. Sundstrom,  
 H. L. Woodcock III,  P. M. Zimmerman,  D. Zuev,  B. Albrecht,  E. Alguire,  
 S. A. Baeppler,  D. Barton,  Z. Benda,  Y. A. Bernard,  E. J. Berquist,  
 K. B. Bravaya,  H. Burton,  D. Casanova,  Chun-Min Chang,  Yunqing Chen,  
 A. Chien,  K. D. Closser,  M. P. Coons,  S. Coriani,  S. Dasgupta,  
 A. L. Dempwolff,  M. Diedenhofen,  Hainam Do,  R. G. Edgar,  Po-Tung Fang,  
 S. Faraji,  S. Fatehi,  Qingguo Feng,  K. D. Fenk,  J. Fosso-Tande,  
 Qinghui Ge,  A. Ghysels,  G. Gidofalvi,  J. Gomes,  J. Gonthier,  A. Gunina,  
 D. Hait,  M. W. D. Hanson-Heine,  P. H. P. Harbach,  A. W. Hauser,  
 J. E. Herr,  E. G. Hohenstein,  Z. C. Holden,  Kerwin Hui,  B. C. Huynh,  
 T.-C. Jagau,  Hyunjun Ji,  B. Kaduk,  K. Khistyaev,  Jaehoon Kim,  
 P. Klunzinger,  K. Koh,  D. Kosenkov,  L. Koulias,  T. Kowalczyk,  
 C. M. Krauter,  A. Kunitsa,  Ka Un Lao,  A. Laurent,  K. V. Lawler,  
 Joonho Lee,  D. Lefrancois,  S. Lehtola,  D. S. Levine,  Yi-Pei Li,  
 You-Sheng Lin,  Fenglai Liu,  E. Livshits,  A. Luenser,  P. Manohar,  
 E. Mansoor,  S. F. Manzer,  Shan-Ping Mao,  Yuezhi Mao,  N. Mardirossian,  
 A. V. Marenich,  T. Markovich,  L. A. Martinez-Martinez,  S. A. Maurer,  
 N. J. Mayhall,  S. C. McKenzie,  J.-M. Mewes,  A. F. Morrison,  
 J. W. Mullinax,  K. Nanda,  T. S. Nguyen-Beck,  R. Olivares-Amaya,  
 J. A. Parkhill,  T. M. Perrine,  F. Plasser,  P. Pokhilko,  S. Prager,  
 A. Prociuk,  E. Ramos,  D. R. Rehn,  F. Rob,  M. Schneider,  N. Sergueev,  
 S. M. Sharada,  S. Sharma,  D. W. Small,  T. Stauch,  T. Stein,  
 Yu-Chuan Su,  A. J. W. Thom,  A. Tkatchenko,  T. Tsuchimochi,  N. M. Tubman,  
 L. Vogt,  M. L. Vidal,  O. Vydrov,  M. A. Watson,  J. Wenzel,  
 M. de Wergifosse,  T. A. Wesolowski,  A. White,  J. Witte,  A. Yamada,  
 Jun Yang,  K. Yao,  S. Yeganeh,  S. R. Yost,  Zhi-Qiang You,  A. Zech,  
 Igor Ying Zhang,  Xing Zhang,  Yan Zhao,  Ying Zhu,  B. R. Brooks,  
 G. K. L. Chan,  C. J. Cramer,  M. S. Gordon,  W. J. Hehre,  A. Klamt,  
 M. W. Schmidt,  C. D. Sherrill,  D. G. Truhlar,  A. Aspuru-Guzik,  R. Baer,  
 A. T. Bell,  N. A. Besley,  Jeng-Da Chai,  A. E. DePrince, III,  
 R. A. DiStasio Jr.,  A. Dreuw,  B. D. Dunietz,  T. R. Furlani,  
 Chao-Ping Hsu,  Yousung Jung,  Jing Kong,  D. S. Lambrecht,  WanZhen Liang,  
 C. Ochsenfeld,  V. A. Rassolov,  L. V. Slipchenko,  J. E. Subotnik,  
 T. Van Voorhis,  J. M. Herbert,  A. I. Krylov,  P. M. W. Gill,  M. Head-Gordon

 Contributors to earlier versions of Q-Chem not listed above: 
 R. D. Adamson,  B. Austin,  J. Baker,  G. J. O. Beran,  K. Brandhorst,  
 S. T. Brown,  E. F. C. Byrd,  A. K. Chakraborty,  C.-L. Cheng,  
 Siu Hung Chien,  D. M. Chipman,  D. L. Crittenden,  H. Dachsel,  
 R. J. Doerksen,  A. D. Dutoi,  L. Fusti-Molnar,  W. A. Goddard III,  
 A. Golubeva-Zadorozhnaya,  S. R. Gwaltney,  G. Hawkins,  A. Heyden,  
 S. Hirata,  G. Kedziora,  F. J. Keil,  C. Kelley,  Jihan Kim,  R. A. King,  
 R. Z. Khaliullin,  P. P. Korambath,  W. Kurlancheek,  A. M. Lee,  M. S. Lee,  
 S. V. Levchenko,  Ching Yeh Lin,  D. Liotard,  R. C. Lochan,  I. Lotan,  
 P. E. Maslen,  N. Nair,  D. P. O'Neill,  D. Neuhauser,  E. Neuscamman,  
 C. M. Oana,  R. Olson,  B. Peters,  R. Peverati,  P. A. Pieniazek,  
 Y. M. Rhee,  J. Ritchie,  M. A. Rohrdanz,  E. Rosta,  N. J. Russ,  
 H. F. Schaefer III,  N. E. Schultz,  N. Shenvi,  A. C. Simmonett,  A. Sodt,  
 D. Stuck,  K. S. Thanthiriwatte,  V. Vanovschi,  Tao Wang,  A. Warshel,  
 C. F. Williams,  Q. Wu,  X. Xu,  W. Zhang

 Please cite Q-Chem as follows:
 Y. Shao et al., Mol. Phys. 113, 184-215 (2015)
 DOI: 10.1080/00268976.2014.952696

 Q-Chem 5.1.1 for Intel X86 EM64T Linux

 Parts of Q-Chem use Armadillo 8.300.2 (Tropical Shenanigans).
 http://arma.sourceforge.net/

 Q-Chem begins on Fri Oct  9 01:19:36 2020  

Host: n0057.mhg0
0

     Scratch files written to /local/scratch/users/yhljason/BS_PWPB95-D3_aug-cc-pcVTZ.inp20201008191744//
The previous job contains 0 fragments, simply inherited here
Input Ideriv = 0
Curr. Ideriv = -1
Max.  Ideriv = 0
Input Ideriv = 1
Curr. Ideriv = 0
Max.  Ideriv = 0

Checking the input file for inconsistencies... 	...done.

--------------------------------------------------------------
User input:
--------------------------------------------------------------
$molecule
read
$end

$rem

jobtype sp
method PWPB95-D3
xc_grid 000099000590
basis aug-cc-pcVTZ
max_scf_cycles 200
thresh 14
scf_convergence 8
mem_total 128000
cc_memory 96000
cc_backend xm
mem_static 1500
symmetry false
sym_ignore true
scf_guess read
unrestricted false
scf_algorithm gdm
n_frozen_core 0
$end

$multipole_field
ZZ -0.0001
$end

--------------------------------------------------------------
 Adding empirical dispersion correction 
 ----------------------------------------------------------------
 Doing -D3(0) with
 s6  =   0.82000
 s8  =   0.70500
 rs6 =   1.55700
 rs8 =   1.00000
 -D3 energy without 3body term =     -0.0000023220 hartrees
 ----------------------------------------------------------------
             Standard Nuclear Orientation (Angstroms)
    I     Atom           X                Y                Z
 ----------------------------------------------------------------
    1      B       0.0000000000     0.0000000000     0.0000000000
    2      S       0.0000000000     0.0000000000     1.6092000000
 ----------------------------------------------------------------
 Nuclear Repulsion Energy =    26.3075895647 hartrees
 There are       11 alpha and       10 beta electrons
 Requested basis set is aug-cc-pCVTZ
 There are 42 shells and 134 basis functions

 Total QAlloc Memory Limit 128000 MB
 Mega-Array Size      1467 MB
 MEM_STATIC part      1500 MB

                       Distance Matrix (Angstroms)
             B (  1)
   S (  2)  1.609200
 
 Applying Cartesian multipole field
    Component          Value
    ---------          -----
     (0,0,2)       -1.00000E-04
 Nucleus-field energy     =    -0.0147957766 hartrees
 A cutoff of  1.0D-14 yielded    890 shell pairs
 There are      9132 function pairs (     12757 Cartesian)
 
 -------------------------------------------------------
 OpenMP Integral Computing Module                       
 Release: version 1.0, May 2013, Q-Chem Inc. Pittsburgh 
 -------------------------------------------------------
 Integral Job Info:
 Integral job number is                      11
 Integral operator is                         1
 short-range coefficients                     0
 long-range coefficients              100000000
 Omega coefficients                           0
 if combine SR and LR in K                    0
 Integral screening is                        0
 Integral computing path is                   2
 max size of driver memory is            800000
 size of driver memory is                776718
 size of scratch memory is             29531563
 max col of scratch BK array              10000
 max len of scratch array in speh3          662
 max len of scratch index in speh4           32
 max int batch size is                      520
 min int batch size is                       52
 fixed nKL is                                31
 max L of basis functions is                  3
 order of int derivative is                   0
 number of shells is                         42
 number of basis is                         158
 number of cartesian basis is               158
 number of contracted shell pairs           890
 number of primitive shell pairs           5226
 maxK2 (contraction) of shell pair          169
 max number of K2 of shell pair               1
 max number of CS2 of shell pair             97
 max number of PS2 of shell pair           1014
 mem total for path MDJ                  562256
 -------------------------------------------------------
 Smallest overlap matrix eigenvalue = 2.00E-04
 Guess MOs from SCF MO coefficient file
 Reading MOs from coefficient file
 Reading MOs from coefficient file
 A restricted hybrid HF-DFT SCF calculation will be
 performed using Geometric Direct Minimization
 Exchange:     0.5000 Hartree-Fock + 1.0000 PWPB95-D3
 Correlation:  0.7310 PWPB95-D3
 Using Euler-Maclaurin-Lebedev (99,590) quadrature formula
 Dispersion:   Grimme D3
 SCF converges when RMS gradient is below 1.0E-08
Using Q-Chem read-in guess as SCF_GUESS READ specified.

 using 8 threads for integral computing
 -------------------------------------------------------
 OpenMP Integral computing Module                
 Release: version 2.0, May 2017, Q-Chem Inc. Pleasanton 
 -------------------------------------------------------
TIMEINFO->: J/JK contribution 16.33 sec.
 -------------------------------------------------------
 OpenMP BLAS3 based DFT computing Module                
 Release: version 1.0, May 2013, Q-Chem Inc. Pittsburgh 
 -------------------------------------------------------
 ---------------------------------------
  Cycle       Energy        RMS Gradient
 ---------------------------------------
    1    -422.8578274647      3.25E-03 Normal BFGS step
TIMEINFO->: J/JK contribution 15.30 sec.
    2    -422.8578306168      3.93E-03 Normal BFGS step
TIMEINFO->: J/JK contribution 16.02 sec.
    3    -422.8578441232      3.94E-04 Normal BFGS step
TIMEINFO->: J/JK contribution 14.95 sec.
    4    -422.8578445155      2.89E-04 Normal BFGS step
TIMEINFO->: J/JK contribution 15.46 sec.
    5    -422.8578447396      1.83E-05 Normal BFGS step
TIMEINFO->: J/JK contribution 14.92 sec.
    6    -422.8578447406      1.09E-05 Normal BFGS step
TIMEINFO->: J/JK contribution 15.26 sec.
    7    -422.8578447408      2.65E-06 Normal BFGS step
TIMEINFO->: J/JK contribution 15.00 sec.
    8    -422.8578447408      7.50E-07 Normal BFGS step
TIMEINFO->: J/JK contribution 15.13 sec.
    9    -422.8578447408      1.59E-07 Normal BFGS step
TIMEINFO->: J/JK contribution 14.98 sec.
   10    -422.8578447408      1.34E-07 Normal BFGS step
TIMEINFO->: J/JK contribution 14.72 sec.
   GDM::WARNING energy changes are now smaller than effective accuracy.
   GDM::        calculation will continue, but THRESH should be increased
   GDM::        or SCF_CONVERGENCE decreased.
   GDM::        effective_thresh =   2.979204629521837E-009
   11    -422.8578447408      2.44E-08 Normal BFGS step
TIMEINFO->: J/JK contribution 14.84 sec.
   GDM::WARNING energy changes are now smaller than effective accuracy.
   GDM::        calculation will continue, but THRESH should be increased
   GDM::        or SCF_CONVERGENCE decreased.
   GDM::        effective_thresh =   2.979204629521837E-009
   12    -422.8578447408      6.55E-09 Convergence criterion met
 ---------------------------------------
 SCF time:  CPU 310.77 s  wall 38.88 s
 SCF   energy in the final basis set = -422.85784474
 Total energy in the final basis set = -422.85784474
 
 Components of the MP2 correlation energy:
        aaaa  correlation energy =         0.0000000000 au
        abab  correlation energy =        -0.1428548863 au
        bbbb  correlation energy =         0.0000000000 au
        non-Brillouin singles    =        -0.0009070097 au

 Total  MP2   correlation energy =                    -0.14376190 au
        MP2         total energy =                  -423.00160664 au
 
 --------------------------------------------------------------
 
                    Orbital Energies (a.u.)
 --------------------------------------------------------------
 
 Alpha MOs
 -- Occupied --
-90.032  -8.319  -7.176  -6.179  -6.176  -6.176  -0.829  -0.482
 -0.351  -0.351  -0.372
 -- Virtual --
 -0.020  -0.020   0.027   0.035   0.040   0.040   0.081   0.101
  0.101   0.135   0.135   0.138   0.188   0.188   0.188   0.218
  0.261   0.261   0.265   0.273   0.273   0.334   0.334   0.378
  0.494   0.525   0.525   0.536   0.536   0.555   0.583   0.583
  0.609   0.609   0.616   0.616   0.654   0.678   0.678   0.705
  0.729   0.729   0.834   0.834   0.952   0.967   0.967   1.041
  1.041   1.054   1.054   1.112   1.242   1.544   1.544   1.598
  1.767   1.767   1.821   1.867   1.867   1.868   1.868   1.902
  1.902   1.902   1.994   1.994   2.003   2.003   2.041   2.204
  2.204   2.254   2.254   2.359   2.359   2.460   2.460   2.600
  2.890   2.890   2.893   3.088   3.646   8.382   8.382   8.464
  8.464   8.772  10.237  10.237  10.502  10.685  10.685  10.960
 11.288  14.857  31.198  31.198  31.201  31.201  31.208  31.208
 31.214  36.534  36.534  36.559  36.559  36.647  38.743  38.743
 38.795  38.795  38.979  46.526  46.526  47.049  55.313  55.313
 55.619  59.138  85.796
 
 Beta MOs
 -- Occupied --
-90.031  -8.318  -7.159  -6.175  -6.175  -6.175  -0.816  -0.459
 -0.344  -0.344
 -- Virtual --
 -0.087   0.006   0.006   0.033   0.043   0.044   0.044   0.083
  0.102   0.102   0.137   0.137   0.145   0.195   0.195   0.197
  0.228   0.262   0.262   0.280   0.278   0.278   0.348   0.348
  0.412   0.497   0.535   0.535   0.549   0.549   0.566   0.585
  0.585   0.619   0.619   0.626   0.626   0.670   0.688   0.688
  0.718   0.732   0.732   0.835   0.835   0.966   0.979   0.979
  1.050   1.050   1.057   1.057   1.127   1.254   1.558   1.558
  1.647   1.769   1.769   1.831   1.879   1.879   1.878   1.878
  1.935   1.937   1.937   2.016   2.016   2.049   2.049   2.087
  2.208   2.208   2.294   2.294   2.365   2.365   2.471   2.471
  2.607   2.908   2.908   2.902   3.110   3.664   8.382   8.382
  8.465   8.465   8.775  10.252  10.252  10.543  10.687  10.687
 10.970  11.300  14.859  31.198  31.198  31.202  31.202  31.208
 31.208  31.214  36.538  36.538  36.568  36.568  36.658  38.743
 38.743  38.797  38.797  38.981  46.526  46.526  47.051  55.322
 55.322  55.634  59.152  85.797
 --------------------------------------------------------------
 
          Ground-State Mulliken Net Atomic Charges

     Atom                 Charge (a.u.)
  ----------------------------------------
      1 B                    -0.064624
      2 S                     0.064624
  ----------------------------------------
  Sum of atomic charges =    -0.000000

 -----------------------------------------------------------------
                    Cartesian Multipole Moments
 -----------------------------------------------------------------
    Charge (ESU x 10^10)
                -0.0000
    Dipole Moment (Debye)
         X       0.0000      Y      -0.0000      Z      -1.0425
       Tot       1.0425
    Quadrupole Moments (Debye-Ang)
        XX     -19.2442     XY       0.0000     YY     -19.2442
        XZ       0.0000     YZ      -0.0000     ZZ     -18.9643
    Octopole Moments (Debye-Ang^2)
       XXX       0.0000    XXY       0.0000    XYY       0.0000
       YYY       0.0000    XXZ     -21.6332    XYZ       0.0000
       YYZ     -21.6332    XZZ       0.0000    YZZ      -0.0000
       ZZZ     -58.6827
    Hexadecapole Moments (Debye-Ang^3)
      XXXX     -27.9426   XXXY       0.0000   XXYY      -9.3142
      XYYY       0.0000   YYYY     -27.9426   XXXZ       0.0000
      XXYZ       0.0000   XYYZ       0.0000   YYYZ       0.0000
      XXZZ     -42.7347   XYZZ       0.0000   YYZZ     -42.7347
      XZZZ       0.0000   YZZZ      -0.0000   ZZZZ    -214.4455
 -----------------------------------------------------------------
Archival summary:
1\1\n0057.mhg0\SP\ROProcedureUnspecified\BasisUnspecified\11(2)\yhljason\FriOct901:20:522020FriOct901:20:522020\0\\#,ROProcedureUnspecified,BasisUnspecified,\\0,2\B\S,1,1.6092\\\@

 Total job time:  76.06s(wall), 603.11s(cpu) 
 Fri Oct  9 01:20:52 2020

        *************************************************************
        *                                                           *
        *  Thank you very much for using Q-Chem.  Have a nice day.  *
        *                                                           *
        *************************************************************


