Q-Chem Developer Version!
                  Welcome to Q-Chem
     A Quantum Leap Into The Future Of Chemistry


 Q-Chem 5.1, Q-Chem, Inc., Pleasanton, CA (2018)

 Yihan Shao,  Zhengting Gan,  E. Epifanovsky,  A. T. B. Gilbert,  M. Wormit,  
 J. Kussmann,  A. W. Lange,  A. Behn,  Jia Deng,  Xintian Feng,  D. Ghosh,  
 M. Goldey,  P. R. Horn,  L. D. Jacobson,  I. Kaliman,  T. Kus,  A. Landau,  
 Jie Liu,  E. I. Proynov,  R. M. Richard,  R. P. Steele,  E. J. Sundstrom,  
 H. L. Woodcock III,  P. M. Zimmerman,  D. Zuev,  B. Albrecht,  E. Alguire,  
 S. A. Baeppler,  D. Barton,  Z. Benda,  Y. A. Bernard,  E. J. Berquist,  
 K. B. Bravaya,  H. Burton,  D. Casanova,  Chun-Min Chang,  Yunqing Chen,  
 A. Chien,  K. D. Closser,  M. P. Coons,  S. Coriani,  S. Dasgupta,  
 A. L. Dempwolff,  M. Diedenhofen,  Hainam Do,  R. G. Edgar,  Po-Tung Fang,  
 S. Faraji,  S. Fatehi,  Qingguo Feng,  K. D. Fenk,  J. Fosso-Tande,  
 Qinghui Ge,  A. Ghysels,  G. Gidofalvi,  J. Gomes,  J. Gonthier,  A. Gunina,  
 D. Hait,  M. W. D. Hanson-Heine,  P. H. P. Harbach,  A. W. Hauser,  
 J. E. Herr,  E. G. Hohenstein,  Z. C. Holden,  Kerwin Hui,  B. C. Huynh,  
 T.-C. Jagau,  Hyunjun Ji,  B. Kaduk,  K. Khistyaev,  Jaehoon Kim,  
 P. Klunzinger,  K. Koh,  D. Kosenkov,  L. Koulias,  T. Kowalczyk,  
 C. M. Krauter,  A. Kunitsa,  Ka Un Lao,  A. Laurent,  K. V. Lawler,  
 Joonho Lee,  D. Lefrancois,  S. Lehtola,  D. S. Levine,  Yi-Pei Li,  
 You-Sheng Lin,  Fenglai Liu,  E. Livshits,  A. Luenser,  P. Manohar,  
 E. Mansoor,  S. F. Manzer,  Shan-Ping Mao,  Yuezhi Mao,  N. Mardirossian,  
 A. V. Marenich,  T. Markovich,  L. A. Martinez-Martinez,  S. A. Maurer,  
 N. J. Mayhall,  S. C. McKenzie,  J.-M. Mewes,  A. F. Morrison,  
 J. W. Mullinax,  K. Nanda,  T. S. Nguyen-Beck,  R. Olivares-Amaya,  
 J. A. Parkhill,  T. M. Perrine,  F. Plasser,  P. Pokhilko,  S. Prager,  
 A. Prociuk,  E. Ramos,  D. R. Rehn,  F. Rob,  M. Schneider,  N. Sergueev,  
 S. M. Sharada,  S. Sharma,  D. W. Small,  T. Stauch,  T. Stein,  
 Yu-Chuan Su,  A. J. W. Thom,  A. Tkatchenko,  T. Tsuchimochi,  N. M. Tubman,  
 L. Vogt,  M. L. Vidal,  O. Vydrov,  M. A. Watson,  J. Wenzel,  
 M. de Wergifosse,  T. A. Wesolowski,  A. White,  J. Witte,  A. Yamada,  
 Jun Yang,  K. Yao,  S. Yeganeh,  S. R. Yost,  Zhi-Qiang You,  A. Zech,  
 Igor Ying Zhang,  Xing Zhang,  Yan Zhao,  Ying Zhu,  B. R. Brooks,  
 G. K. L. Chan,  C. J. Cramer,  M. S. Gordon,  W. J. Hehre,  A. Klamt,  
 M. W. Schmidt,  C. D. Sherrill,  D. G. Truhlar,  A. Aspuru-Guzik,  R. Baer,  
 A. T. Bell,  N. A. Besley,  Jeng-Da Chai,  A. E. DePrince, III,  
 R. A. DiStasio Jr.,  A. Dreuw,  B. D. Dunietz,  T. R. Furlani,  
 Chao-Ping Hsu,  Yousung Jung,  Jing Kong,  D. S. Lambrecht,  WanZhen Liang,  
 C. Ochsenfeld,  V. A. Rassolov,  L. V. Slipchenko,  J. E. Subotnik,  
 T. Van Voorhis,  J. M. Herbert,  A. I. Krylov,  P. M. W. Gill,  M. Head-Gordon

 Contributors to earlier versions of Q-Chem not listed above: 
 R. D. Adamson,  B. Austin,  J. Baker,  G. J. O. Beran,  K. Brandhorst,  
 S. T. Brown,  E. F. C. Byrd,  A. K. Chakraborty,  C.-L. Cheng,  
 Siu Hung Chien,  D. M. Chipman,  D. L. Crittenden,  H. Dachsel,  
 R. J. Doerksen,  A. D. Dutoi,  L. Fusti-Molnar,  W. A. Goddard III,  
 A. Golubeva-Zadorozhnaya,  S. R. Gwaltney,  G. Hawkins,  A. Heyden,  
 S. Hirata,  G. Kedziora,  F. J. Keil,  C. Kelley,  Jihan Kim,  R. A. King,  
 R. Z. Khaliullin,  P. P. Korambath,  W. Kurlancheek,  A. M. Lee,  M. S. Lee,  
 S. V. Levchenko,  Ching Yeh Lin,  D. Liotard,  R. C. Lochan,  I. Lotan,  
 P. E. Maslen,  N. Nair,  D. P. O'Neill,  D. Neuhauser,  E. Neuscamman,  
 C. M. Oana,  R. Olson,  B. Peters,  R. Peverati,  P. A. Pieniazek,  
 Y. M. Rhee,  J. Ritchie,  M. A. Rohrdanz,  E. Rosta,  N. J. Russ,  
 H. F. Schaefer III,  N. E. Schultz,  N. Shenvi,  A. C. Simmonett,  A. Sodt,  
 D. Stuck,  K. S. Thanthiriwatte,  V. Vanovschi,  Tao Wang,  A. Warshel,  
 C. F. Williams,  Q. Wu,  X. Xu,  W. Zhang

 Please cite Q-Chem as follows:
 Y. Shao et al., Mol. Phys. 113, 184-215 (2015)
 DOI: 10.1080/00268976.2014.952696

 Q-Chem 5.1.1 for Intel X86 EM64T Linux

 Parts of Q-Chem use Armadillo 8.300.2 (Tropical Shenanigans).
 http://arma.sourceforge.net/

 Q-Chem begins on Fri Oct  9 01:15:42 2020  

Host: n0086.mhg0
0

     Scratch files written to /local/scratch/users/yhljason/Cl2_PWPB95-D3_aug-cc-pcVQZ.inp20201008191749//
Input Ideriv = 0
Curr. Ideriv = -1
Max.  Ideriv = 0
Analytic post-HF gradients are not available with non-HF exchange
Input Ideriv = 0
Curr. Ideriv = 0
Max.  Ideriv = 0

Checking the input file for inconsistencies... 	...done.

--------------------------------------------------------------
User input:
--------------------------------------------------------------
$molecule
0 1
Cl1	0.0000	0.0000	0.0000
Cl2	0.0000	0.0000	1.9879
$end

$rem
jobtype sp
method PWPB95-D3
xc_grid 000099000590
basis aug-cc-pcVQZ
max_scf_cycles 200
thresh 14
scf_convergence 8
scf_algorithm gdm
symmetry false
sym_ignore true
unrestricted false
gen_scfman true
internal_stability_iter 15
internal_stability_davidson_iter 200
mem_total 128000
cc_memory 96000
cc_backend xm
mem_static 1500
n_frozen_core 0
$end



--------------------------------------------------------------
 Adding empirical dispersion correction 
 ----------------------------------------------------------------
 Doing -D3(0) with
 s6  =   0.82000
 s8  =   0.70500
 rs6 =   1.55700
 rs8 =   1.00000
 -D3 energy without 3body term =     -0.0000089417 hartrees
 ----------------------------------------------------------------
             Standard Nuclear Orientation (Angstroms)
    I     Atom           X                Y                Z
 ----------------------------------------------------------------
    1      Cl      0.0000000000     0.0000000000     0.0000000000
    2      Cl      0.0000000000     0.0000000000     1.9879000000
 ----------------------------------------------------------------
 Nuclear Repulsion Energy =    76.9315338528 hartrees
 There are       17 alpha and       17 beta electrons
 Requested basis set is aug-cc-pCVQZ
 There are 68 shells and 268 basis functions

 Total QAlloc Memory Limit 128000 MB
 Mega-Array Size      1467 MB
 MEM_STATIC part      1500 MB

                       Distance Matrix (Angstroms)
             Cl(  1)
   Cl(  2)  1.987900
 
 A cutoff of  1.0D-14 yielded   2208 shell pairs
 There are     34276 function pairs (     57990 Cartesian)
 
 -------------------------------------------------------
 OpenMP Integral Computing Module                       
 Release: version 1.0, May 2013, Q-Chem Inc. Pittsburgh 
 -------------------------------------------------------
 Integral Job Info:
 Integral job number is                      11
 Integral operator is                         1
 short-range coefficients                     0
 long-range coefficients              100000000
 Omega coefficients                           0
 if combine SR and LR in K                    0
 Integral screening is                        0
 Integral computing path is                   2
 max size of driver memory is           3200000
 size of driver memory is               1704330
 size of scratch memory is             29435624
 max col of scratch BK array              50625
 max len of scratch array in speh3         2114
 max len of scratch index in speh4           50
 max int batch size is                      520
 min int batch size is                       52
 fixed nKL is                                22
 max L of basis functions is                  4
 order of int derivative is                   0
 number of shells is                         68
 number of basis is                         348
 number of cartesian basis is               348
 number of contracted shell pairs          2208
 number of primitive shell pairs          10830
 maxK2 (contraction) of shell pair          169
 max number of K2 of shell pair               1
 max number of CS2 of shell pair            202
 max number of PS2 of shell pair           2028
 mem total for path MDJ                  752464
 -------------------------------------------------------
 Smallest overlap matrix eigenvalue = 2.44E-05

 Scale SEOQF with 1.000000e-01/1.000000e-01/1.000000e-01

 Standard Electronic Orientation quadrupole field applied
 Nucleus-field energy     =    -0.0000000072 hartrees
 Guess from superposition of atomic densities
 Warning:  Energy on first SCF cycle will be non-variational
 SAD guess density has 34.000000 electrons

 -----------------------------------------------------------------------
  General SCF calculation program by
  Eric Jon Sundstrom, Paul Horn, Yuezhi Mao, Dmitri Zuev, Alec White,
  David Stuck, Shaama M.S., Shane Yost, Joonho Lee, David Small,
  Daniel Levine, Susi Lehtola, Hugh Burton, Evgeny Epifanovsky
 -----------------------------------------------------------------------
 Exchange:     0.5000 Hartree-Fock + 1.0000 PWPB95-D3
 Correlation:  0.7310 PWPB95-D3
 Using Euler-Maclaurin-Lebedev (99,590) quadrature formula
 Dispersion:   Grimme D3
Running Object-Oriented RKS (RHF)
We will preform up to 15 macro iterations over saddle points until a stable solution is found
Energy prior to optimization (guess energy) = -920.217782599903
Begin Timing: Total SCF Calculation
Begin Timing: SCF Single Stationary Point Calculation
begin iterations for algorithm: GDM          
the SCF tolerance is set to 1.00e-08
    1    -920.2177825999      3.62e-02     00000  Normal BFGS step
    2    -920.2223231447      3.15e-02     00000  Normal BFGS step
    3    -920.2259850506      1.49e-03     00000  Normal BFGS step
    4    -920.2260064287      2.83e-04     00000  Normal BFGS step
    5    -920.2260070718      3.04e-05     00000  Normal BFGS step
    6    -920.2260070811      4.23e-06     00000  Normal BFGS step
    7    -920.2260070813      1.08e-06     00000  Normal BFGS step
    8    -920.2260070813      1.43e-07     00000  Normal BFGS step
    9    -920.2260070813      3.09e-08     00000  Normal BFGS step
   10    -920.2260070813      2.08e-08     00000  Normal BFGS step
   11    -920.2260070813      3.68e-09     00000 Convergence criterion met
Timing for Single Stationary Point: 379.00s (wall), 3006.90s (cpu)
Begin Timing: Stability
===================================================
Beginning Test for Internal Stability
===================================================
generating davidson guess vectors based on koopmans excitations
    1      3.05e+00     00000 Davidson Iteration
    2      8.60e-01     00000 Davidson Iteration
    3      2.45e-01     00000 Davidson Iteration
    4      1.32e-02     00000 Davidson Iteration
    5      3.71e-03     00000 Davidson Iteration
    6      4.37e-04     00000 Davidson Iteration
    7      1.31e-04     00000 Davidson Iteration
    8      3.45e-05     00000 Davidson Converged
converged_eigenvalues
   0.6137
   0.6137
Threshold for negative eigenvalues: -1.0e-05
solution was a local minimum (stable)
===================================================
End Test for Internal Stability
===================================================
Our SCF solution is stable!
Timing for Total SCF: 723.00s (wall), 5733.91s (cpu)
 Total energy in the final basis set =     -920.2260070813
    ==================================================
              The end of Object-Oriented SCFman       
    ==================================================
 
 Components of the MP2 correlation energy:
        aaaa  correlation energy =         0.0000000000 au
        abab  correlation energy =        -0.2721024728 au
        bbbb  correlation energy =         0.0000000000 au
        non-Brillouin singles    =        -0.0000000000 au

 Total  MP2   correlation energy =                    -0.27210247 au
        MP2         total energy =                  -920.49810955 au
 
 --------------------------------------------------------------
 
                    Orbital Energies (a.u.)
 --------------------------------------------------------------
 
 Alpha MOs
 -- Occupied --
*******-102.837  -9.920  -9.920  -7.577  -7.577  -7.568  -7.568
 -7.568  -7.568  -1.040  -0.861  -0.522  -0.473  -0.473  -0.360
 -0.360
 -- Virtual --
 -0.067   0.048   0.051   0.065   0.065   0.083   0.095   0.095
  0.167   0.167   0.172   0.207   0.207   0.256   0.265   0.265
  0.295   0.321   0.321   0.388   0.388   0.450   0.463   0.463
  0.475   0.476   0.476   0.490   0.499   0.499   0.573   0.573
  0.591   0.655   0.655   0.667   0.667   0.711   0.732   0.732
  0.809   0.809   0.934   0.953   0.953   0.987   0.987   1.033
  1.067   1.067   1.116   1.403   1.403   1.417   1.432   1.433
  1.433   1.497   1.497   1.504   1.504   1.549   1.549   1.598
  1.598   1.630   1.645   1.645   1.649   1.649   1.789   1.789
  1.797   1.797   1.801   1.801   1.835   1.835   1.909   1.909
  1.988   1.988   1.989   2.033   2.033   2.036   2.036   2.070
  2.122   2.122   2.284   2.315   2.315   2.341   2.443   2.443
  2.544   2.705   2.958   2.958   3.233   3.800   3.800   3.869
  3.869   3.883   3.883   3.922   4.012   4.012   4.206   4.254
  4.254   4.331   4.340   4.340   4.351   4.351   4.373   4.373
  4.382   4.382   4.395   4.395   4.397   4.397   4.453   4.453
  4.485   4.485   4.506   4.543   4.543   4.564   4.564   4.588
  4.588   4.713   4.772   4.772   5.077   5.077   5.400   5.400
  5.603   5.930   5.930   6.443   6.493   9.592  10.171  11.616
 11.616  11.651  11.651  11.675  11.675  11.809  11.887  11.887
 12.711  17.425  17.425  17.769  17.769  18.014  18.395  21.058
 21.058  21.065  21.065  21.083  21.083  21.085  21.104  21.104
 21.117  21.117  21.163  21.163  21.226  33.096  33.682  37.098
 37.098  37.127  37.127  37.139  37.139  37.250  37.286  37.286
 37.776  51.136  51.136  51.425  51.425  51.645  51.973  64.604
 64.606  64.606  64.610  64.610  64.610  64.610  64.612  64.612
 64.612  64.615  64.615  64.616  64.616  64.624  64.624  64.624
 64.624  75.031  75.031  75.036  75.036  75.043  75.046  75.046
 75.056  75.056  75.061  75.061  75.087  75.087  75.113  96.913
 97.640 109.792 109.792 109.815 109.815 109.822 109.822 109.905
109.928 109.928 110.248 165.387 165.387 165.557 165.557 165.703
165.883 452.998 456.131
 --------------------------------------------------------------
 
          Ground-State Mulliken Net Atomic Charges

     Atom                 Charge (a.u.)
  ----------------------------------------
      1 Cl                   -0.000000
      2 Cl                    0.000000
  ----------------------------------------
  Sum of atomic charges =    -0.000000

 -----------------------------------------------------------------
                    Cartesian Multipole Moments
 -----------------------------------------------------------------
    Charge (ESU x 10^10)
                -0.0000
    Dipole Moment (Debye)
         X      -0.0000      Y      -0.0000      Z       0.0000
       Tot       0.0000
    Quadrupole Moments (Debye-Ang)
        XX     -25.3137     XY      -0.0000     YY     -25.3137
        XZ       0.0000     YZ      -0.0000     ZZ     -22.2320
    Octopole Moments (Debye-Ang^2)
       XXX       0.0000    XXY      -0.0000    XYY      -0.0000
       YYY       0.0000    XXZ     -25.1606    XYZ      -0.0000
       YYZ     -25.1606    XZZ       0.0000    YZZ      -0.0000
       ZZZ     -66.2925
    Hexadecapole Moments (Debye-Ang^3)
      XXXX     -28.5919   XXXY      -0.0000   XXYY      -9.5306
      XYYY      -0.0000   YYYY     -28.5919   XXXZ       0.0000
      XXYZ      -0.0000   XYYZ      -0.0000   YYYZ       0.0000
      XXZZ     -59.5966   XYZZ      -0.0000   YYZZ     -59.5966
      XZZZ       0.0000   YZZZ      -0.0000   ZZZZ    -282.4358
 -----------------------------------------------------------------
Archival summary:
1\1\n0086.mhg0\SP\ProcedureUnspecified\BasisUnspecified\l2\yhljason\FriOct901:36:072020FriOct901:36:072020\0\\#,ProcedureUnspecified,BasisUnspecified,\\0,1\Cl\Cl,1,1.9879\\\@

 Total job time:  1224.66s(wall), 9625.21s(cpu) 
 Fri Oct  9 01:36:07 2020

        *************************************************************
        *                                                           *
        *  Thank you very much for using Q-Chem.  Have a nice day.  *
        *                                                           *
        *************************************************************


 
User input: 2 of 83 of 8 
 
Q-Chem Developer Version!
                  Welcome to Q-Chem
     A Quantum Leap Into The Future Of Chemistry


 Q-Chem 5.1, Q-Chem, Inc., Pleasanton, CA (2018)

 Yihan Shao,  Zhengting Gan,  E. Epifanovsky,  A. T. B. Gilbert,  M. Wormit,  
 J. Kussmann,  A. W. Lange,  A. Behn,  Jia Deng,  Xintian Feng,  D. Ghosh,  
 M. Goldey,  P. R. Horn,  L. D. Jacobson,  I. Kaliman,  T. Kus,  A. Landau,  
 Jie Liu,  E. I. Proynov,  R. M. Richard,  R. P. Steele,  E. J. Sundstrom,  
 H. L. Woodcock III,  P. M. Zimmerman,  D. Zuev,  B. Albrecht,  E. Alguire,  
 S. A. Baeppler,  D. Barton,  Z. Benda,  Y. A. Bernard,  E. J. Berquist,  
 K. B. Bravaya,  H. Burton,  D. Casanova,  Chun-Min Chang,  Yunqing Chen,  
 A. Chien,  K. D. Closser,  M. P. Coons,  S. Coriani,  S. Dasgupta,  
 A. L. Dempwolff,  M. Diedenhofen,  Hainam Do,  R. G. Edgar,  Po-Tung Fang,  
 S. Faraji,  S. Fatehi,  Qingguo Feng,  K. D. Fenk,  J. Fosso-Tande,  
 Qinghui Ge,  A. Ghysels,  G. Gidofalvi,  J. Gomes,  J. Gonthier,  A. Gunina,  
 D. Hait,  M. W. D. Hanson-Heine,  P. H. P. Harbach,  A. W. Hauser,  
 J. E. Herr,  E. G. Hohenstein,  Z. C. Holden,  Kerwin Hui,  B. C. Huynh,  
 T.-C. Jagau,  Hyunjun Ji,  B. Kaduk,  K. Khistyaev,  Jaehoon Kim,  
 P. Klunzinger,  K. Koh,  D. Kosenkov,  L. Koulias,  T. Kowalczyk,  
 C. M. Krauter,  A. Kunitsa,  Ka Un Lao,  A. Laurent,  K. V. Lawler,  
 Joonho Lee,  D. Lefrancois,  S. Lehtola,  D. S. Levine,  Yi-Pei Li,  
 You-Sheng Lin,  Fenglai Liu,  E. Livshits,  A. Luenser,  P. Manohar,  
 E. Mansoor,  S. F. Manzer,  Shan-Ping Mao,  Yuezhi Mao,  N. Mardirossian,  
 A. V. Marenich,  T. Markovich,  L. A. Martinez-Martinez,  S. A. Maurer,  
 N. J. Mayhall,  S. C. McKenzie,  J.-M. Mewes,  A. F. Morrison,  
 J. W. Mullinax,  K. Nanda,  T. S. Nguyen-Beck,  R. Olivares-Amaya,  
 J. A. Parkhill,  T. M. Perrine,  F. Plasser,  P. Pokhilko,  S. Prager,  
 A. Prociuk,  E. Ramos,  D. R. Rehn,  F. Rob,  M. Schneider,  N. Sergueev,  
 S. M. Sharada,  S. Sharma,  D. W. Small,  T. Stauch,  T. Stein,  
 Yu-Chuan Su,  A. J. W. Thom,  A. Tkatchenko,  T. Tsuchimochi,  N. M. Tubman,  
 L. Vogt,  M. L. Vidal,  O. Vydrov,  M. A. Watson,  J. Wenzel,  
 M. de Wergifosse,  T. A. Wesolowski,  A. White,  J. Witte,  A. Yamada,  
 Jun Yang,  K. Yao,  S. Yeganeh,  S. R. Yost,  Zhi-Qiang You,  A. Zech,  
 Igor Ying Zhang,  Xing Zhang,  Yan Zhao,  Ying Zhu,  B. R. Brooks,  
 G. K. L. Chan,  C. J. Cramer,  M. S. Gordon,  W. J. Hehre,  A. Klamt,  
 M. W. Schmidt,  C. D. Sherrill,  D. G. Truhlar,  A. Aspuru-Guzik,  R. Baer,  
 A. T. Bell,  N. A. Besley,  Jeng-Da Chai,  A. E. DePrince, III,  
 R. A. DiStasio Jr.,  A. Dreuw,  B. D. Dunietz,  T. R. Furlani,  
 Chao-Ping Hsu,  Yousung Jung,  Jing Kong,  D. S. Lambrecht,  WanZhen Liang,  
 C. Ochsenfeld,  V. A. Rassolov,  L. V. Slipchenko,  J. E. Subotnik,  
 T. Van Voorhis,  J. M. Herbert,  A. I. Krylov,  P. M. W. Gill,  M. Head-Gordon

 Contributors to earlier versions of Q-Chem not listed above: 
 R. D. Adamson,  B. Austin,  J. Baker,  G. J. O. Beran,  K. Brandhorst,  
 S. T. Brown,  E. F. C. Byrd,  A. K. Chakraborty,  C.-L. Cheng,  
 Siu Hung Chien,  D. M. Chipman,  D. L. Crittenden,  H. Dachsel,  
 R. J. Doerksen,  A. D. Dutoi,  L. Fusti-Molnar,  W. A. Goddard III,  
 A. Golubeva-Zadorozhnaya,  S. R. Gwaltney,  G. Hawkins,  A. Heyden,  
 S. Hirata,  G. Kedziora,  F. J. Keil,  C. Kelley,  Jihan Kim,  R. A. King,  
 R. Z. Khaliullin,  P. P. Korambath,  W. Kurlancheek,  A. M. Lee,  M. S. Lee,  
 S. V. Levchenko,  Ching Yeh Lin,  D. Liotard,  R. C. Lochan,  I. Lotan,  
 P. E. Maslen,  N. Nair,  D. P. O'Neill,  D. Neuhauser,  E. Neuscamman,  
 C. M. Oana,  R. Olson,  B. Peters,  R. Peverati,  P. A. Pieniazek,  
 Y. M. Rhee,  J. Ritchie,  M. A. Rohrdanz,  E. Rosta,  N. J. Russ,  
 H. F. Schaefer III,  N. E. Schultz,  N. Shenvi,  A. C. Simmonett,  A. Sodt,  
 D. Stuck,  K. S. Thanthiriwatte,  V. Vanovschi,  Tao Wang,  A. Warshel,  
 C. F. Williams,  Q. Wu,  X. Xu,  W. Zhang

 Please cite Q-Chem as follows:
 Y. Shao et al., Mol. Phys. 113, 184-215 (2015)
 DOI: 10.1080/00268976.2014.952696

 Q-Chem 5.1.1 for Intel X86 EM64T Linux

 Parts of Q-Chem use Armadillo 8.300.2 (Tropical Shenanigans).
 http://arma.sourceforge.net/

 Q-Chem begins on Fri Oct  9 01:36:42 2020  

Host: n0086.mhg0
0

     Scratch files written to /local/scratch/users/yhljason/Cl2_PWPB95-D3_aug-cc-pcVQZ.inp20201008191749//
The previous job contains 0 fragments, simply inherited here
Input Ideriv = 0
Curr. Ideriv = -1
Max.  Ideriv = 0
Analytic post-HF gradients are not available with non-HF exchange
Input Ideriv = 0
Curr. Ideriv = 0
Max.  Ideriv = 0

Checking the input file for inconsistencies... 	...done.

--------------------------------------------------------------
User input:
--------------------------------------------------------------
$molecule
read
$end

$rem

jobtype sp
method PWPB95-D3
xc_grid 000099000590
basis aug-cc-pcVQZ
max_scf_cycles 200
thresh 14
scf_convergence 8
mem_total 128000
cc_memory 96000
cc_backend xm
mem_static 1500
symmetry false
sym_ignore true
scf_guess read
unrestricted false
scf_algorithm gdm
n_frozen_core 0
$end

$multipole_field
XX 0.0001
$end


--------------------------------------------------------------
 Adding empirical dispersion correction 
 ----------------------------------------------------------------
 Doing -D3(0) with
 s6  =   0.82000
 s8  =   0.70500
 rs6 =   1.55700
 rs8 =   1.00000
 -D3 energy without 3body term =     -0.0000089417 hartrees
 ----------------------------------------------------------------
             Standard Nuclear Orientation (Angstroms)
    I     Atom           X                Y                Z
 ----------------------------------------------------------------
    1      Cl      0.0000000000     0.0000000000     0.0000000000
    2      Cl      0.0000000000     0.0000000000     1.9879000000
 ----------------------------------------------------------------
 Nuclear Repulsion Energy =    76.9315338528 hartrees
 There are       17 alpha and       17 beta electrons
 Requested basis set is aug-cc-pCVQZ
 There are 68 shells and 268 basis functions

 Total QAlloc Memory Limit 128000 MB
 Mega-Array Size      1467 MB
 MEM_STATIC part      1500 MB

                       Distance Matrix (Angstroms)
             Cl(  1)
   Cl(  2)  1.987900
 
 Applying Cartesian multipole field
    Component          Value
    ---------          -----
     (2,0,0)        1.00000E-04
 A cutoff of  1.0D-14 yielded   2208 shell pairs
 There are     34276 function pairs (     57990 Cartesian)
 
 -------------------------------------------------------
 OpenMP Integral Computing Module                       
 Release: version 1.0, May 2013, Q-Chem Inc. Pittsburgh 
 -------------------------------------------------------
 Integral Job Info:
 Integral job number is                      11
 Integral operator is                         1
 short-range coefficients                     0
 long-range coefficients              100000000
 Omega coefficients                           0
 if combine SR and LR in K                    0
 Integral screening is                        0
 Integral computing path is                   2
 max size of driver memory is           3200000
 size of driver memory is               1704330
 size of scratch memory is             29435624
 max col of scratch BK array              50625
 max len of scratch array in speh3         2114
 max len of scratch index in speh4           50
 max int batch size is                      520
 min int batch size is                       52
 fixed nKL is                                22
 max L of basis functions is                  4
 order of int derivative is                   0
 number of shells is                         68
 number of basis is                         348
 number of cartesian basis is               348
 number of contracted shell pairs          2208
 number of primitive shell pairs          10830
 maxK2 (contraction) of shell pair          169
 max number of K2 of shell pair               1
 max number of CS2 of shell pair            202
 max number of PS2 of shell pair           2028
 mem total for path MDJ                  752464
 -------------------------------------------------------
 Smallest overlap matrix eigenvalue = 2.44E-05
 Guess MOs from SCF MO coefficient file

 -----------------------------------------------------------------------
  General SCF calculation program by
  Eric Jon Sundstrom, Paul Horn, Yuezhi Mao, Dmitri Zuev, Alec White,
  David Stuck, Shaama M.S., Shane Yost, Joonho Lee, David Small,
  Daniel Levine, Susi Lehtola, Hugh Burton, Evgeny Epifanovsky
 -----------------------------------------------------------------------
 Exchange:     0.5000 Hartree-Fock + 1.0000 PWPB95-D3
 Correlation:  0.7310 PWPB95-D3
 Using Euler-Maclaurin-Lebedev (99,590) quadrature formula
 Dispersion:   Grimme D3
 using 8 threads for integral computing
 -------------------------------------------------------
 OpenMP Integral computing Module                
 Release: version 2.0, May 2017, Q-Chem Inc. Pleasanton 
 -------------------------------------------------------
 -------------------------------------------------------
 OpenMP BLAS3 based DFT computing Module                
 Release: version 1.0, May 2013, Q-Chem Inc. Pittsburgh 
 -------------------------------------------------------
 A restricted SCF calculation will be
 performed using GDM
 SCF converges when RMS gradient is below 1.0e-08
 ---------------------------------------
  Cycle       Energy        RMS Gradient
 ---------------------------------------
    1    -920.2278890962      3.17e-04   Normal BFGS step
    2    -920.2278895941      7.67e-05   Normal BFGS step
    3    -920.2278896317      2.99e-05   Normal BFGS step
    4    -920.2278896354      9.01e-06   Normal BFGS step
    5    -920.2278896358      1.36e-06   Normal BFGS step
    6    -920.2278896358      1.36e-07   Normal BFGS step
    7    -920.2278896358      1.97e-08   Normal BFGS step
    8    -920.2278896358      3.73e-09  Convergence criterion met
 ---------------------------------------
 SCF time:   CPU 2515.86s  wall 318.00s 
 SCF   energy in the final basis set =     -920.2278896358
 Total energy in the final basis set =     -920.2278896358
 
 Components of the MP2 correlation energy:
        aaaa  correlation energy =         0.0000000000 au
        abab  correlation energy =        -0.2721020914 au
        bbbb  correlation energy =         0.0000000000 au
        non-Brillouin singles    =        -0.0000000000 au

 Total  MP2   correlation energy =                    -0.27210209 au
        MP2         total energy =                  -920.49999173 au
 
 --------------------------------------------------------------
 
                    Orbital Energies (a.u.)
 --------------------------------------------------------------
 
 Alpha MOs
 -- Occupied --
*******-102.837  -9.921  -9.921  -7.578  -7.577  -7.568  -7.568
 -7.568  -7.568  -1.040  -0.861  -0.523  -0.473  -0.473  -0.361
 -0.360
 -- Virtual --
 -0.068   0.047   0.050   0.062   0.064   0.082   0.093   0.094
  0.166   0.166   0.171   0.207   0.207   0.256   0.264   0.264
  0.294   0.319   0.320   0.386   0.387   0.449   0.462   0.462
  0.474   0.474   0.475   0.490   0.498   0.498   0.573   0.573
  0.590   0.654   0.654   0.667   0.667   0.711   0.731   0.731
  0.808   0.808   0.934   0.952   0.953   0.987   0.987   1.032
  1.067   1.067   1.116   1.402   1.402   1.416   1.431   1.433
  1.433   1.496   1.497   1.504   1.504   1.549   1.549   1.597
  1.597   1.630   1.645   1.645   1.649   1.649   1.788   1.788
  1.797   1.797   1.800   1.801   1.834   1.834   1.909   1.909
  1.988   1.988   1.989   2.032   2.032   2.035   2.035   2.070
  2.121   2.122   2.284   2.315   2.315   2.341   2.443   2.443
  2.543   2.704   2.958   2.958   3.233   3.800   3.800   3.869
  3.869   3.882   3.882   3.921   4.012   4.012   4.206   4.254
  4.254   4.331   4.340   4.340   4.351   4.351   4.373   4.373
  4.382   4.382   4.395   4.395   4.396   4.396   4.452   4.452
  4.485   4.485   4.505   4.543   4.543   4.564   4.564   4.588
  4.588   4.713   4.772   4.772   5.076   5.076   5.400   5.400
  5.602   5.930   5.930   6.443   6.493   9.592  10.171  11.616
 11.616  11.650  11.650  11.674  11.674  11.808  11.886  11.886
 12.711  17.425  17.425  17.769  17.769  18.013  18.394  21.058
 21.058  21.065  21.065  21.083  21.083  21.085  21.104  21.104
 21.116  21.116  21.163  21.163  21.226  33.096  33.682  37.098
 37.098  37.127  37.127  37.139  37.139  37.250  37.285  37.285
 37.775  51.135  51.135  51.424  51.424  51.645  51.973  64.604
 64.606  64.606  64.609  64.609  64.610  64.610  64.611  64.612
 64.612  64.615  64.615  64.616  64.616  64.624  64.624  64.624
 64.624  75.031  75.031  75.036  75.036  75.042  75.045  75.045
 75.056  75.056  75.061  75.061  75.087  75.087  75.112  96.913
 97.640 109.792 109.792 109.815 109.815 109.821 109.821 109.904
109.928 109.928 110.248 165.387 165.387 165.556 165.556 165.702
165.882 452.998 456.131
 --------------------------------------------------------------
 
          Ground-State Mulliken Net Atomic Charges

     Atom                 Charge (a.u.)
  ----------------------------------------
      1 Cl                    0.000000
      2 Cl                   -0.000000
  ----------------------------------------
  Sum of atomic charges =    -0.000000

 -----------------------------------------------------------------
                    Cartesian Multipole Moments
 -----------------------------------------------------------------
    Charge (ESU x 10^10)
                -0.0000
    Dipole Moment (Debye)
         X      -0.0000      Y       0.0000      Z      -0.0000
       Tot       0.0000
    Quadrupole Moments (Debye-Ang)
        XX     -25.3283     XY      -0.0000     YY     -25.3160
        XZ      -0.0000     YZ       0.0000     ZZ     -22.2338
    Octopole Moments (Debye-Ang^2)
       XXX      -0.0000    XXY      -0.0000    XYY      -0.0000
       YYY      -0.0000    XXZ     -25.1750    XYZ      -0.0000
       YYZ     -25.1629    XZZ      -0.0000    YZZ      -0.0000
       ZZZ     -66.2980
    Hexadecapole Moments (Debye-Ang^3)
      XXXX     -28.6510   XXXY      -0.0000   XXYY      -9.5424
      XYYY      -0.0000   YYYY     -28.6036   XXXZ      -0.0000
      XXYZ      -0.0000   XYYZ      -0.0000   YYYZ      -0.0000
      XXZZ     -59.6398   XYZZ      -0.0000   YYZZ     -59.6053
      XZZZ      -0.0000   YZZZ      -0.0000   ZZZZ    -282.4681
 -----------------------------------------------------------------
Archival summary:
1\1\n0086.mhg0\SP\ProcedureUnspecified\BasisUnspecified\l2\yhljason\FriOct901:49:422020FriOct901:49:422020\0\\#,ProcedureUnspecified,BasisUnspecified,\\0,1\Cl\Cl,1,1.9879\\\@

 Total job time:  780.20s(wall), 6143.72s(cpu) 
 Fri Oct  9 01:49:42 2020

        *************************************************************
        *                                                           *
        *  Thank you very much for using Q-Chem.  Have a nice day.  *
        *                                                           *
        *************************************************************


 
User input: 4 of 8 
 
Q-Chem Developer Version!
                  Welcome to Q-Chem
     A Quantum Leap Into The Future Of Chemistry


 Q-Chem 5.1, Q-Chem, Inc., Pleasanton, CA (2018)

 Yihan Shao,  Zhengting Gan,  E. Epifanovsky,  A. T. B. Gilbert,  M. Wormit,  
 J. Kussmann,  A. W. Lange,  A. Behn,  Jia Deng,  Xintian Feng,  D. Ghosh,  
 M. Goldey,  P. R. Horn,  L. D. Jacobson,  I. Kaliman,  T. Kus,  A. Landau,  
 Jie Liu,  E. I. Proynov,  R. M. Richard,  R. P. Steele,  E. J. Sundstrom,  
 H. L. Woodcock III,  P. M. Zimmerman,  D. Zuev,  B. Albrecht,  E. Alguire,  
 S. A. Baeppler,  D. Barton,  Z. Benda,  Y. A. Bernard,  E. J. Berquist,  
 K. B. Bravaya,  H. Burton,  D. Casanova,  Chun-Min Chang,  Yunqing Chen,  
 A. Chien,  K. D. Closser,  M. P. Coons,  S. Coriani,  S. Dasgupta,  
 A. L. Dempwolff,  M. Diedenhofen,  Hainam Do,  R. G. Edgar,  Po-Tung Fang,  
 S. Faraji,  S. Fatehi,  Qingguo Feng,  K. D. Fenk,  J. Fosso-Tande,  
 Qinghui Ge,  A. Ghysels,  G. Gidofalvi,  J. Gomes,  J. Gonthier,  A. Gunina,  
 D. Hait,  M. W. D. Hanson-Heine,  P. H. P. Harbach,  A. W. Hauser,  
 J. E. Herr,  E. G. Hohenstein,  Z. C. Holden,  Kerwin Hui,  B. C. Huynh,  
 T.-C. Jagau,  Hyunjun Ji,  B. Kaduk,  K. Khistyaev,  Jaehoon Kim,  
 P. Klunzinger,  K. Koh,  D. Kosenkov,  L. Koulias,  T. Kowalczyk,  
 C. M. Krauter,  A. Kunitsa,  Ka Un Lao,  A. Laurent,  K. V. Lawler,  
 Joonho Lee,  D. Lefrancois,  S. Lehtola,  D. S. Levine,  Yi-Pei Li,  
 You-Sheng Lin,  Fenglai Liu,  E. Livshits,  A. Luenser,  P. Manohar,  
 E. Mansoor,  S. F. Manzer,  Shan-Ping Mao,  Yuezhi Mao,  N. Mardirossian,  
 A. V. Marenich,  T. Markovich,  L. A. Martinez-Martinez,  S. A. Maurer,  
 N. J. Mayhall,  S. C. McKenzie,  J.-M. Mewes,  A. F. Morrison,  
 J. W. Mullinax,  K. Nanda,  T. S. Nguyen-Beck,  R. Olivares-Amaya,  
 J. A. Parkhill,  T. M. Perrine,  F. Plasser,  P. Pokhilko,  S. Prager,  
 A. Prociuk,  E. Ramos,  D. R. Rehn,  F. Rob,  M. Schneider,  N. Sergueev,  
 S. M. Sharada,  S. Sharma,  D. W. Small,  T. Stauch,  T. Stein,  
 Yu-Chuan Su,  A. J. W. Thom,  A. Tkatchenko,  T. Tsuchimochi,  N. M. Tubman,  
 L. Vogt,  M. L. Vidal,  O. Vydrov,  M. A. Watson,  J. Wenzel,  
 M. de Wergifosse,  T. A. Wesolowski,  A. White,  J. Witte,  A. Yamada,  
 Jun Yang,  K. Yao,  S. Yeganeh,  S. R. Yost,  Zhi-Qiang You,  A. Zech,  
 Igor Ying Zhang,  Xing Zhang,  Yan Zhao,  Ying Zhu,  B. R. Brooks,  
 G. K. L. Chan,  C. J. Cramer,  M. S. Gordon,  W. J. Hehre,  A. Klamt,  
 M. W. Schmidt,  C. D. Sherrill,  D. G. Truhlar,  A. Aspuru-Guzik,  R. Baer,  
 A. T. Bell,  N. A. Besley,  Jeng-Da Chai,  A. E. DePrince, III,  
 R. A. DiStasio Jr.,  A. Dreuw,  B. D. Dunietz,  T. R. Furlani,  
 Chao-Ping Hsu,  Yousung Jung,  Jing Kong,  D. S. Lambrecht,  WanZhen Liang,  
 C. Ochsenfeld,  V. A. Rassolov,  L. V. Slipchenko,  J. E. Subotnik,  
 T. Van Voorhis,  J. M. Herbert,  A. I. Krylov,  P. M. W. Gill,  M. Head-Gordon

 Contributors to earlier versions of Q-Chem not listed above: 
 R. D. Adamson,  B. Austin,  J. Baker,  G. J. O. Beran,  K. Brandhorst,  
 S. T. Brown,  E. F. C. Byrd,  A. K. Chakraborty,  C.-L. Cheng,  
 Siu Hung Chien,  D. M. Chipman,  D. L. Crittenden,  H. Dachsel,  
 R. J. Doerksen,  A. D. Dutoi,  L. Fusti-Molnar,  W. A. Goddard III,  
 A. Golubeva-Zadorozhnaya,  S. R. Gwaltney,  G. Hawkins,  A. Heyden,  
 S. Hirata,  G. Kedziora,  F. J. Keil,  C. Kelley,  Jihan Kim,  R. A. King,  
 R. Z. Khaliullin,  P. P. Korambath,  W. Kurlancheek,  A. M. Lee,  M. S. Lee,  
 S. V. Levchenko,  Ching Yeh Lin,  D. Liotard,  R. C. Lochan,  I. Lotan,  
 P. E. Maslen,  N. Nair,  D. P. O'Neill,  D. Neuhauser,  E. Neuscamman,  
 C. M. Oana,  R. Olson,  B. Peters,  R. Peverati,  P. A. Pieniazek,  
 Y. M. Rhee,  J. Ritchie,  M. A. Rohrdanz,  E. Rosta,  N. J. Russ,  
 H. F. Schaefer III,  N. E. Schultz,  N. Shenvi,  A. C. Simmonett,  A. Sodt,  
 D. Stuck,  K. S. Thanthiriwatte,  V. Vanovschi,  Tao Wang,  A. Warshel,  
 C. F. Williams,  Q. Wu,  X. Xu,  W. Zhang

 Please cite Q-Chem as follows:
 Y. Shao et al., Mol. Phys. 113, 184-215 (2015)
 DOI: 10.1080/00268976.2014.952696

 Q-Chem 5.1.1 for Intel X86 EM64T Linux

 Parts of Q-Chem use Armadillo 8.300.2 (Tropical Shenanigans).
 http://arma.sourceforge.net/

 Q-Chem begins on Fri Oct  9 01:49:42 2020  

Host: n0086.mhg0
0

     Scratch files written to /local/scratch/users/yhljason/Cl2_PWPB95-D3_aug-cc-pcVQZ.inp20201008191749//
The previous job contains 0 fragments, simply inherited here
Input Ideriv = 0
Curr. Ideriv = -1
Max.  Ideriv = 0
Analytic post-HF gradients are not available with non-HF exchange
Input Ideriv = 0
Curr. Ideriv = 0
Max.  Ideriv = 0

Checking the input file for inconsistencies... 	...done.

--------------------------------------------------------------
User input:
--------------------------------------------------------------
$molecule
read
$end

$rem

jobtype sp
method PWPB95-D3
xc_grid 000099000590
basis aug-cc-pcVQZ
max_scf_cycles 200
thresh 14
scf_convergence 8
mem_total 128000
cc_memory 96000
cc_backend xm
mem_static 1500
symmetry false
sym_ignore true
scf_guess read
unrestricted false
scf_algorithm gdm
n_frozen_core 0
$end

$multipole_field
XX -0.0001
$end


--------------------------------------------------------------
 Adding empirical dispersion correction 
 ----------------------------------------------------------------
 Doing -D3(0) with
 s6  =   0.82000
 s8  =   0.70500
 rs6 =   1.55700
 rs8 =   1.00000
 -D3 energy without 3body term =     -0.0000089417 hartrees
 ----------------------------------------------------------------
             Standard Nuclear Orientation (Angstroms)
    I     Atom           X                Y                Z
 ----------------------------------------------------------------
    1      Cl      0.0000000000     0.0000000000     0.0000000000
    2      Cl      0.0000000000     0.0000000000     1.9879000000
 ----------------------------------------------------------------
 Nuclear Repulsion Energy =    76.9315338528 hartrees
 There are       17 alpha and       17 beta electrons
 Requested basis set is aug-cc-pCVQZ
 There are 68 shells and 268 basis functions

 Total QAlloc Memory Limit 128000 MB
 Mega-Array Size      1467 MB
 MEM_STATIC part      1500 MB

                       Distance Matrix (Angstroms)
             Cl(  1)
   Cl(  2)  1.987900
 
 Applying Cartesian multipole field
    Component          Value
    ---------          -----
     (2,0,0)       -1.00000E-04
 A cutoff of  1.0D-14 yielded   2208 shell pairs
 There are     34276 function pairs (     57990 Cartesian)
 
 -------------------------------------------------------
 OpenMP Integral Computing Module                       
 Release: version 1.0, May 2013, Q-Chem Inc. Pittsburgh 
 -------------------------------------------------------
 Integral Job Info:
 Integral job number is                      11
 Integral operator is                         1
 short-range coefficients                     0
 long-range coefficients              100000000
 Omega coefficients                           0
 if combine SR and LR in K                    0
 Integral screening is                        0
 Integral computing path is                   2
 max size of driver memory is           3200000
 size of driver memory is               1704330
 size of scratch memory is             29435624
 max col of scratch BK array              50625
 max len of scratch array in speh3         2114
 max len of scratch index in speh4           50
 max int batch size is                      520
 min int batch size is                       52
 fixed nKL is                                22
 max L of basis functions is                  4
 order of int derivative is                   0
 number of shells is                         68
 number of basis is                         348
 number of cartesian basis is               348
 number of contracted shell pairs          2208
 number of primitive shell pairs          10830
 maxK2 (contraction) of shell pair          169
 max number of K2 of shell pair               1
 max number of CS2 of shell pair            202
 max number of PS2 of shell pair           2028
 mem total for path MDJ                  752464
 -------------------------------------------------------
 Smallest overlap matrix eigenvalue = 2.44E-05
 Guess MOs from SCF MO coefficient file

 -----------------------------------------------------------------------
  General SCF calculation program by
  Eric Jon Sundstrom, Paul Horn, Yuezhi Mao, Dmitri Zuev, Alec White,
  David Stuck, Shaama M.S., Shane Yost, Joonho Lee, David Small,
  Daniel Levine, Susi Lehtola, Hugh Burton, Evgeny Epifanovsky
 -----------------------------------------------------------------------
 Exchange:     0.5000 Hartree-Fock + 1.0000 PWPB95-D3
 Correlation:  0.7310 PWPB95-D3
 Using Euler-Maclaurin-Lebedev (99,590) quadrature formula
 Dispersion:   Grimme D3
 using 8 threads for integral computing
 -------------------------------------------------------
 OpenMP Integral computing Module                
 Release: version 2.0, May 2017, Q-Chem Inc. Pleasanton 
 -------------------------------------------------------
 -------------------------------------------------------
 OpenMP BLAS3 based DFT computing Module                
 Release: version 1.0, May 2013, Q-Chem Inc. Pittsburgh 
 -------------------------------------------------------
 A restricted SCF calculation will be
 performed using GDM
 SCF converges when RMS gradient is below 1.0e-08
 ---------------------------------------
  Cycle       Energy        RMS Gradient
 ---------------------------------------
    1    -920.2241234456      6.37e-04   Normal BFGS step
    2    -920.2241254377      1.53e-04   Normal BFGS step
    3    -920.2241255875      5.98e-05   Normal BFGS step
    4    -920.2241256021      1.80e-05   Normal BFGS step
    5    -920.2241256038      2.73e-06   Normal BFGS step
    6    -920.2241256040      2.70e-07   Normal BFGS step
    7    -920.2241256040      3.92e-08   Normal BFGS step
    8    -920.2241256040      7.44e-09  Convergence criterion met
 ---------------------------------------
 SCF time:   CPU 2497.15s  wall 315.00s 
 SCF   energy in the final basis set =     -920.2241256040
 Total energy in the final basis set =     -920.2241256040
 
 Components of the MP2 correlation energy:
        aaaa  correlation energy =         0.0000000000 au
        abab  correlation energy =        -0.2721028766 au
        bbbb  correlation energy =         0.0000000000 au
        non-Brillouin singles    =        -0.0000000000 au

 Total  MP2   correlation energy =                    -0.27210288 au
        MP2         total energy =                  -920.49622848 au
 
 --------------------------------------------------------------
 
                    Orbital Energies (a.u.)
 --------------------------------------------------------------
 
 Alpha MOs
 -- Occupied --
*******-102.836  -9.920  -9.920  -7.577  -7.577  -7.568  -7.568
 -7.568  -7.568  -1.040  -0.860  -0.522  -0.473  -0.473  -0.360
 -0.360
 -- Virtual --
 -0.067   0.049   0.052   0.066   0.068   0.084   0.096   0.098
  0.168   0.168   0.173   0.208   0.208   0.257   0.266   0.266
  0.296   0.322   0.322   0.388   0.389   0.451   0.463   0.463
  0.476   0.476   0.477   0.491   0.500   0.500   0.574   0.574
  0.591   0.655   0.655   0.668   0.668   0.712   0.732   0.732
  0.809   0.809   0.935   0.953   0.953   0.988   0.988   1.033
  1.068   1.068   1.117   1.403   1.403   1.417   1.432   1.434
  1.434   1.497   1.497   1.504   1.504   1.550   1.550   1.598
  1.598   1.631   1.645   1.645   1.650   1.650   1.789   1.789
  1.797   1.797   1.801   1.801   1.835   1.835   1.909   1.909
  1.988   1.988   1.990   2.033   2.033   2.036   2.036   2.071
  2.122   2.122   2.285   2.315   2.315   2.341   2.443   2.443
  2.544   2.705   2.959   2.959   3.234   3.801   3.801   3.869
  3.869   3.883   3.883   3.922   4.013   4.013   4.207   4.254
  4.255   4.331   4.341   4.341   4.351   4.351   4.374   4.374
  4.383   4.383   4.395   4.395   4.397   4.397   4.453   4.453
  4.485   4.485   4.506   4.544   4.544   4.564   4.564   4.589
  4.589   4.714   4.773   4.773   5.077   5.077   5.401   5.401
  5.603   5.930   5.930   6.444   6.493   9.593  10.171  11.616
 11.616  11.651  11.651  11.675  11.675  11.809  11.887  11.887
 12.711  17.426  17.426  17.770  17.770  18.014  18.395  21.059
 21.059  21.065  21.065  21.083  21.083  21.086  21.105  21.105
 21.117  21.117  21.164  21.164  21.226  33.096  33.682  37.098
 37.098  37.127  37.127  37.139  37.139  37.251  37.286  37.286
 37.776  51.136  51.136  51.425  51.425  51.646  51.973  64.604
 64.606  64.606  64.610  64.610  64.610  64.610  64.612  64.612
 64.612  64.616  64.616  64.617  64.617  64.624  64.624  64.625
 64.625  75.031  75.031  75.036  75.036  75.043  75.046  75.046
 75.057  75.057  75.061  75.061  75.087  75.087  75.113  96.914
 97.641 109.792 109.792 109.816 109.816 109.822 109.822 109.905
109.929 109.929 110.248 165.387 165.387 165.557 165.557 165.703
165.883 452.998 456.132
 --------------------------------------------------------------
 
          Ground-State Mulliken Net Atomic Charges

     Atom                 Charge (a.u.)
  ----------------------------------------
      1 Cl                   -0.000000
      2 Cl                    0.000000
  ----------------------------------------
  Sum of atomic charges =    -0.000000

 -----------------------------------------------------------------
                    Cartesian Multipole Moments
 -----------------------------------------------------------------
    Charge (ESU x 10^10)
                -0.0000
    Dipole Moment (Debye)
         X      -0.0000      Y       0.0000      Z       0.0000
       Tot       0.0000
    Quadrupole Moments (Debye-Ang)
        XX     -25.2993     XY      -0.0000     YY     -25.3115
        XZ       0.0000     YZ       0.0000     ZZ     -22.2302
    Octopole Moments (Debye-Ang^2)
       XXX       0.0000    XXY      -0.0000    XYY       0.0000
       YYY      -0.0000    XXZ     -25.1462    XYZ      -0.0000
       YYZ     -25.1583    XZZ       0.0000    YZZ      -0.0000
       ZZZ     -66.2870
    Hexadecapole Moments (Debye-Ang^3)
      XXXX     -28.5334   XXXY      -0.0000   XXYY      -9.5189
      XYYY      -0.0000   YYYY     -28.5802   XXXZ       0.0000
      XXYZ      -0.0000   XYYZ       0.0000   YYYZ      -0.0000
      XXZZ     -59.5537   XYZZ      -0.0000   YYZZ     -59.5879
      XZZZ      -0.0000   YZZZ      -0.0000   ZZZZ    -282.4039
 -----------------------------------------------------------------
Archival summary:
1\1\n0086.mhg0\SP\ProcedureUnspecified\BasisUnspecified\l2\yhljason\FriOct902:02:382020FriOct902:02:382020\0\\#,ProcedureUnspecified,BasisUnspecified,\\0,1\Cl\Cl,1,1.9879\\\@

 Total job time:  775.65s(wall), 6108.95s(cpu) 
 Fri Oct  9 02:02:38 2020

        *************************************************************
        *                                                           *
        *  Thank you very much for using Q-Chem.  Have a nice day.  *
        *                                                           *
        *************************************************************


 
User input: 5 of 8 
 
Q-Chem Developer Version!
                  Welcome to Q-Chem
     A Quantum Leap Into The Future Of Chemistry


 Q-Chem 5.1, Q-Chem, Inc., Pleasanton, CA (2018)

 Yihan Shao,  Zhengting Gan,  E. Epifanovsky,  A. T. B. Gilbert,  M. Wormit,  
 J. Kussmann,  A. W. Lange,  A. Behn,  Jia Deng,  Xintian Feng,  D. Ghosh,  
 M. Goldey,  P. R. Horn,  L. D. Jacobson,  I. Kaliman,  T. Kus,  A. Landau,  
 Jie Liu,  E. I. Proynov,  R. M. Richard,  R. P. Steele,  E. J. Sundstrom,  
 H. L. Woodcock III,  P. M. Zimmerman,  D. Zuev,  B. Albrecht,  E. Alguire,  
 S. A. Baeppler,  D. Barton,  Z. Benda,  Y. A. Bernard,  E. J. Berquist,  
 K. B. Bravaya,  H. Burton,  D. Casanova,  Chun-Min Chang,  Yunqing Chen,  
 A. Chien,  K. D. Closser,  M. P. Coons,  S. Coriani,  S. Dasgupta,  
 A. L. Dempwolff,  M. Diedenhofen,  Hainam Do,  R. G. Edgar,  Po-Tung Fang,  
 S. Faraji,  S. Fatehi,  Qingguo Feng,  K. D. Fenk,  J. Fosso-Tande,  
 Qinghui Ge,  A. Ghysels,  G. Gidofalvi,  J. Gomes,  J. Gonthier,  A. Gunina,  
 D. Hait,  M. W. D. Hanson-Heine,  P. H. P. Harbach,  A. W. Hauser,  
 J. E. Herr,  E. G. Hohenstein,  Z. C. Holden,  Kerwin Hui,  B. C. Huynh,  
 T.-C. Jagau,  Hyunjun Ji,  B. Kaduk,  K. Khistyaev,  Jaehoon Kim,  
 P. Klunzinger,  K. Koh,  D. Kosenkov,  L. Koulias,  T. Kowalczyk,  
 C. M. Krauter,  A. Kunitsa,  Ka Un Lao,  A. Laurent,  K. V. Lawler,  
 Joonho Lee,  D. Lefrancois,  S. Lehtola,  D. S. Levine,  Yi-Pei Li,  
 You-Sheng Lin,  Fenglai Liu,  E. Livshits,  A. Luenser,  P. Manohar,  
 E. Mansoor,  S. F. Manzer,  Shan-Ping Mao,  Yuezhi Mao,  N. Mardirossian,  
 A. V. Marenich,  T. Markovich,  L. A. Martinez-Martinez,  S. A. Maurer,  
 N. J. Mayhall,  S. C. McKenzie,  J.-M. Mewes,  A. F. Morrison,  
 J. W. Mullinax,  K. Nanda,  T. S. Nguyen-Beck,  R. Olivares-Amaya,  
 J. A. Parkhill,  T. M. Perrine,  F. Plasser,  P. Pokhilko,  S. Prager,  
 A. Prociuk,  E. Ramos,  D. R. Rehn,  F. Rob,  M. Schneider,  N. Sergueev,  
 S. M. Sharada,  S. Sharma,  D. W. Small,  T. Stauch,  T. Stein,  
 Yu-Chuan Su,  A. J. W. Thom,  A. Tkatchenko,  T. Tsuchimochi,  N. M. Tubman,  
 L. Vogt,  M. L. Vidal,  O. Vydrov,  M. A. Watson,  J. Wenzel,  
 M. de Wergifosse,  T. A. Wesolowski,  A. White,  J. Witte,  A. Yamada,  
 Jun Yang,  K. Yao,  S. Yeganeh,  S. R. Yost,  Zhi-Qiang You,  A. Zech,  
 Igor Ying Zhang,  Xing Zhang,  Yan Zhao,  Ying Zhu,  B. R. Brooks,  
 G. K. L. Chan,  C. J. Cramer,  M. S. Gordon,  W. J. Hehre,  A. Klamt,  
 M. W. Schmidt,  C. D. Sherrill,  D. G. Truhlar,  A. Aspuru-Guzik,  R. Baer,  
 A. T. Bell,  N. A. Besley,  Jeng-Da Chai,  A. E. DePrince, III,  
 R. A. DiStasio Jr.,  A. Dreuw,  B. D. Dunietz,  T. R. Furlani,  
 Chao-Ping Hsu,  Yousung Jung,  Jing Kong,  D. S. Lambrecht,  WanZhen Liang,  
 C. Ochsenfeld,  V. A. Rassolov,  L. V. Slipchenko,  J. E. Subotnik,  
 T. Van Voorhis,  J. M. Herbert,  A. I. Krylov,  P. M. W. Gill,  M. Head-Gordon

 Contributors to earlier versions of Q-Chem not listed above: 
 R. D. Adamson,  B. Austin,  J. Baker,  G. J. O. Beran,  K. Brandhorst,  
 S. T. Brown,  E. F. C. Byrd,  A. K. Chakraborty,  C.-L. Cheng,  
 Siu Hung Chien,  D. M. Chipman,  D. L. Crittenden,  H. Dachsel,  
 R. J. Doerksen,  A. D. Dutoi,  L. Fusti-Molnar,  W. A. Goddard III,  
 A. Golubeva-Zadorozhnaya,  S. R. Gwaltney,  G. Hawkins,  A. Heyden,  
 S. Hirata,  G. Kedziora,  F. J. Keil,  C. Kelley,  Jihan Kim,  R. A. King,  
 R. Z. Khaliullin,  P. P. Korambath,  W. Kurlancheek,  A. M. Lee,  M. S. Lee,  
 S. V. Levchenko,  Ching Yeh Lin,  D. Liotard,  R. C. Lochan,  I. Lotan,  
 P. E. Maslen,  N. Nair,  D. P. O'Neill,  D. Neuhauser,  E. Neuscamman,  
 C. M. Oana,  R. Olson,  B. Peters,  R. Peverati,  P. A. Pieniazek,  
 Y. M. Rhee,  J. Ritchie,  M. A. Rohrdanz,  E. Rosta,  N. J. Russ,  
 H. F. Schaefer III,  N. E. Schultz,  N. Shenvi,  A. C. Simmonett,  A. Sodt,  
 D. Stuck,  K. S. Thanthiriwatte,  V. Vanovschi,  Tao Wang,  A. Warshel,  
 C. F. Williams,  Q. Wu,  X. Xu,  W. Zhang

 Please cite Q-Chem as follows:
 Y. Shao et al., Mol. Phys. 113, 184-215 (2015)
 DOI: 10.1080/00268976.2014.952696

 Q-Chem 5.1.1 for Intel X86 EM64T Linux

 Parts of Q-Chem use Armadillo 8.300.2 (Tropical Shenanigans).
 http://arma.sourceforge.net/

 Q-Chem begins on Fri Oct  9 02:02:38 2020  

Host: n0086.mhg0
0

     Scratch files written to /local/scratch/users/yhljason/Cl2_PWPB95-D3_aug-cc-pcVQZ.inp20201008191749//
The previous job contains 0 fragments, simply inherited here
Input Ideriv = 0
Curr. Ideriv = -1
Max.  Ideriv = 0
Analytic post-HF gradients are not available with non-HF exchange
Input Ideriv = 0
Curr. Ideriv = 0
Max.  Ideriv = 0

Checking the input file for inconsistencies... 	...done.

--------------------------------------------------------------
User input:
--------------------------------------------------------------
$molecule
read
$end

$rem

jobtype sp
method PWPB95-D3
xc_grid 000099000590
basis aug-cc-pcVQZ
max_scf_cycles 200
thresh 14
scf_convergence 8
mem_total 128000
cc_memory 96000
cc_backend xm
mem_static 1500
symmetry false
sym_ignore true
scf_guess read
unrestricted false
scf_algorithm gdm
n_frozen_core 0
$end

$multipole_field
YY 0.0001
$end


--------------------------------------------------------------
 Adding empirical dispersion correction 
 ----------------------------------------------------------------
 Doing -D3(0) with
 s6  =   0.82000
 s8  =   0.70500
 rs6 =   1.55700
 rs8 =   1.00000
 -D3 energy without 3body term =     -0.0000089417 hartrees
 ----------------------------------------------------------------
             Standard Nuclear Orientation (Angstroms)
    I     Atom           X                Y                Z
 ----------------------------------------------------------------
    1      Cl      0.0000000000     0.0000000000     0.0000000000
    2      Cl      0.0000000000     0.0000000000     1.9879000000
 ----------------------------------------------------------------
 Nuclear Repulsion Energy =    76.9315338528 hartrees
 There are       17 alpha and       17 beta electrons
 Requested basis set is aug-cc-pCVQZ
 There are 68 shells and 268 basis functions

 Total QAlloc Memory Limit 128000 MB
 Mega-Array Size      1467 MB
 MEM_STATIC part      1500 MB

                       Distance Matrix (Angstroms)
             Cl(  1)
   Cl(  2)  1.987900
 
 Applying Cartesian multipole field
    Component          Value
    ---------          -----
     (0,2,0)        1.00000E-04
 A cutoff of  1.0D-14 yielded   2208 shell pairs
 There are     34276 function pairs (     57990 Cartesian)
 
 -------------------------------------------------------
 OpenMP Integral Computing Module                       
 Release: version 1.0, May 2013, Q-Chem Inc. Pittsburgh 
 -------------------------------------------------------
 Integral Job Info:
 Integral job number is                      11
 Integral operator is                         1
 short-range coefficients                     0
 long-range coefficients              100000000
 Omega coefficients                           0
 if combine SR and LR in K                    0
 Integral screening is                        0
 Integral computing path is                   2
 max size of driver memory is           3200000
 size of driver memory is               1704330
 size of scratch memory is             29435624
 max col of scratch BK array              50625
 max len of scratch array in speh3         2114
 max len of scratch index in speh4           50
 max int batch size is                      520
 min int batch size is                       52
 fixed nKL is                                22
 max L of basis functions is                  4
 order of int derivative is                   0
 number of shells is                         68
 number of basis is                         348
 number of cartesian basis is               348
 number of contracted shell pairs          2208
 number of primitive shell pairs          10830
 maxK2 (contraction) of shell pair          169
 max number of K2 of shell pair               1
 max number of CS2 of shell pair            202
 max number of PS2 of shell pair           2028
 mem total for path MDJ                  752464
 -------------------------------------------------------
 Smallest overlap matrix eigenvalue = 2.44E-05
 Guess MOs from SCF MO coefficient file

 -----------------------------------------------------------------------
  General SCF calculation program by
  Eric Jon Sundstrom, Paul Horn, Yuezhi Mao, Dmitri Zuev, Alec White,
  David Stuck, Shaama M.S., Shane Yost, Joonho Lee, David Small,
  Daniel Levine, Susi Lehtola, Hugh Burton, Evgeny Epifanovsky
 -----------------------------------------------------------------------
 Exchange:     0.5000 Hartree-Fock + 1.0000 PWPB95-D3
 Correlation:  0.7310 PWPB95-D3
 Using Euler-Maclaurin-Lebedev (99,590) quadrature formula
 Dispersion:   Grimme D3
 using 8 threads for integral computing
 -------------------------------------------------------
 OpenMP Integral computing Module                
 Release: version 2.0, May 2017, Q-Chem Inc. Pleasanton 
 -------------------------------------------------------
 -------------------------------------------------------
 OpenMP BLAS3 based DFT computing Module                
 Release: version 1.0, May 2013, Q-Chem Inc. Pittsburgh 
 -------------------------------------------------------
 A restricted SCF calculation will be
 performed using GDM
 SCF converges when RMS gradient is below 1.0e-08
 ---------------------------------------
  Cycle       Energy        RMS Gradient
 ---------------------------------------
    1    -920.2278883900      4.22e-04   Normal BFGS step
    2    -920.2278894982      1.21e-04   Normal BFGS step
    3    -920.2278896279      4.32e-05   Normal BFGS step
    4    -920.2278896341      1.75e-05   Normal BFGS step
    5    -920.2278896358      8.83e-07   Normal BFGS step
    6    -920.2278896358      2.20e-07   Normal BFGS step
    7    -920.2278896358      1.83e-08   Normal BFGS step
    8    -920.2278896358      5.54e-09  Convergence criterion met
 ---------------------------------------
 SCF time:   CPU 2516.10s  wall 317.00s 
 SCF   energy in the final basis set =     -920.2278896358
 Total energy in the final basis set =     -920.2278896358
 
 Components of the MP2 correlation energy:
        aaaa  correlation energy =         0.0000000000 au
        abab  correlation energy =        -0.2721020914 au
        bbbb  correlation energy =         0.0000000000 au
        non-Brillouin singles    =        -0.0000000000 au

 Total  MP2   correlation energy =                    -0.27210209 au
        MP2         total energy =                  -920.49999173 au
 
 --------------------------------------------------------------
 
                    Orbital Energies (a.u.)
 --------------------------------------------------------------
 
 Alpha MOs
 -- Occupied --
*******-102.837  -9.921  -9.921  -7.578  -7.577  -7.568  -7.568
 -7.568  -7.568  -1.040  -0.861  -0.523  -0.473  -0.473  -0.361
 -0.360
 -- Virtual --
 -0.068   0.047   0.050   0.062   0.064   0.082   0.093   0.094
  0.166   0.166   0.171   0.207   0.207   0.256   0.264   0.264
  0.294   0.319   0.320   0.386   0.387   0.449   0.462   0.462
  0.474   0.474   0.475   0.490   0.498   0.498   0.573   0.573
  0.590   0.654   0.654   0.667   0.667   0.711   0.731   0.731
  0.808   0.808   0.934   0.952   0.953   0.987   0.987   1.032
  1.067   1.067   1.116   1.402   1.402   1.416   1.431   1.433
  1.433   1.496   1.497   1.504   1.504   1.549   1.549   1.597
  1.597   1.630   1.645   1.645   1.649   1.649   1.788   1.788
  1.797   1.797   1.800   1.801   1.834   1.834   1.909   1.909
  1.988   1.988   1.989   2.032   2.032   2.035   2.035   2.070
  2.121   2.122   2.284   2.315   2.315   2.341   2.443   2.443
  2.543   2.704   2.958   2.958   3.233   3.800   3.800   3.869
  3.869   3.882   3.882   3.921   4.012   4.012   4.206   4.254
  4.254   4.331   4.340   4.340   4.351   4.351   4.373   4.373
  4.382   4.382   4.395   4.395   4.396   4.396   4.452   4.452
  4.485   4.485   4.505   4.543   4.543   4.564   4.564   4.588
  4.588   4.713   4.772   4.772   5.076   5.076   5.400   5.400
  5.602   5.930   5.930   6.443   6.493   9.592  10.171  11.616
 11.616  11.650  11.650  11.674  11.674  11.808  11.886  11.886
 12.711  17.425  17.425  17.769  17.769  18.013  18.394  21.058
 21.058  21.065  21.065  21.083  21.083  21.085  21.104  21.104
 21.116  21.116  21.163  21.163  21.226  33.096  33.682  37.098
 37.098  37.127  37.127  37.139  37.139  37.250  37.285  37.285
 37.775  51.135  51.135  51.424  51.424  51.645  51.973  64.604
 64.606  64.606  64.609  64.609  64.610  64.610  64.611  64.612
 64.612  64.615  64.615  64.616  64.616  64.624  64.624  64.624
 64.624  75.031  75.031  75.036  75.036  75.042  75.045  75.045
 75.056  75.056  75.061  75.061  75.087  75.087  75.112  96.913
 97.640 109.792 109.792 109.815 109.815 109.821 109.821 109.904
109.928 109.928 110.248 165.387 165.387 165.556 165.556 165.702
165.882 452.998 456.131
 --------------------------------------------------------------
 
          Ground-State Mulliken Net Atomic Charges

     Atom                 Charge (a.u.)
  ----------------------------------------
      1 Cl                    0.000000
      2 Cl                   -0.000000
  ----------------------------------------
  Sum of atomic charges =    -0.000000

 -----------------------------------------------------------------
                    Cartesian Multipole Moments
 -----------------------------------------------------------------
    Charge (ESU x 10^10)
                -0.0000
    Dipole Moment (Debye)
         X       0.0000      Y      -0.0000      Z      -0.0000
       Tot       0.0000
    Quadrupole Moments (Debye-Ang)
        XX     -25.3160     XY      -0.0000     YY     -25.3283
        XZ       0.0000     YZ       0.0000     ZZ     -22.2338
    Octopole Moments (Debye-Ang^2)
       XXX       0.0000    XXY      -0.0000    XYY       0.0000
       YYY      -0.0000    XXZ     -25.1629    XYZ       0.0000
       YYZ     -25.1750    XZZ       0.0000    YZZ       0.0000
       ZZZ     -66.2980
    Hexadecapole Moments (Debye-Ang^3)
      XXXX     -28.6036   XXXY      -0.0000   XXYY      -9.5424
      XYYY       0.0000   YYYY     -28.6510   XXXZ       0.0000
      XXYZ       0.0000   XYYZ       0.0000   YYYZ       0.0000
      XXZZ     -59.6053   XYZZ       0.0000   YYZZ     -59.6398
      XZZZ      -0.0000   YZZZ      -0.0000   ZZZZ    -282.4681
 -----------------------------------------------------------------
Archival summary:
1\1\n0086.mhg0\SP\ProcedureUnspecified\BasisUnspecified\l2\yhljason\FriOct902:15:382020FriOct902:15:382020\0\\#,ProcedureUnspecified,BasisUnspecified,\\0,1\Cl\Cl,1,1.9879\\\@

 Total job time:  779.52s(wall), 6140.26s(cpu) 
 Fri Oct  9 02:15:38 2020

        *************************************************************
        *                                                           *
        *  Thank you very much for using Q-Chem.  Have a nice day.  *
        *                                                           *
        *************************************************************


 
User input: 6 of 8 
 
Q-Chem Developer Version!
                  Welcome to Q-Chem
     A Quantum Leap Into The Future Of Chemistry


 Q-Chem 5.1, Q-Chem, Inc., Pleasanton, CA (2018)

 Yihan Shao,  Zhengting Gan,  E. Epifanovsky,  A. T. B. Gilbert,  M. Wormit,  
 J. Kussmann,  A. W. Lange,  A. Behn,  Jia Deng,  Xintian Feng,  D. Ghosh,  
 M. Goldey,  P. R. Horn,  L. D. Jacobson,  I. Kaliman,  T. Kus,  A. Landau,  
 Jie Liu,  E. I. Proynov,  R. M. Richard,  R. P. Steele,  E. J. Sundstrom,  
 H. L. Woodcock III,  P. M. Zimmerman,  D. Zuev,  B. Albrecht,  E. Alguire,  
 S. A. Baeppler,  D. Barton,  Z. Benda,  Y. A. Bernard,  E. J. Berquist,  
 K. B. Bravaya,  H. Burton,  D. Casanova,  Chun-Min Chang,  Yunqing Chen,  
 A. Chien,  K. D. Closser,  M. P. Coons,  S. Coriani,  S. Dasgupta,  
 A. L. Dempwolff,  M. Diedenhofen,  Hainam Do,  R. G. Edgar,  Po-Tung Fang,  
 S. Faraji,  S. Fatehi,  Qingguo Feng,  K. D. Fenk,  J. Fosso-Tande,  
 Qinghui Ge,  A. Ghysels,  G. Gidofalvi,  J. Gomes,  J. Gonthier,  A. Gunina,  
 D. Hait,  M. W. D. Hanson-Heine,  P. H. P. Harbach,  A. W. Hauser,  
 J. E. Herr,  E. G. Hohenstein,  Z. C. Holden,  Kerwin Hui,  B. C. Huynh,  
 T.-C. Jagau,  Hyunjun Ji,  B. Kaduk,  K. Khistyaev,  Jaehoon Kim,  
 P. Klunzinger,  K. Koh,  D. Kosenkov,  L. Koulias,  T. Kowalczyk,  
 C. M. Krauter,  A. Kunitsa,  Ka Un Lao,  A. Laurent,  K. V. Lawler,  
 Joonho Lee,  D. Lefrancois,  S. Lehtola,  D. S. Levine,  Yi-Pei Li,  
 You-Sheng Lin,  Fenglai Liu,  E. Livshits,  A. Luenser,  P. Manohar,  
 E. Mansoor,  S. F. Manzer,  Shan-Ping Mao,  Yuezhi Mao,  N. Mardirossian,  
 A. V. Marenich,  T. Markovich,  L. A. Martinez-Martinez,  S. A. Maurer,  
 N. J. Mayhall,  S. C. McKenzie,  J.-M. Mewes,  A. F. Morrison,  
 J. W. Mullinax,  K. Nanda,  T. S. Nguyen-Beck,  R. Olivares-Amaya,  
 J. A. Parkhill,  T. M. Perrine,  F. Plasser,  P. Pokhilko,  S. Prager,  
 A. Prociuk,  E. Ramos,  D. R. Rehn,  F. Rob,  M. Schneider,  N. Sergueev,  
 S. M. Sharada,  S. Sharma,  D. W. Small,  T. Stauch,  T. Stein,  
 Yu-Chuan Su,  A. J. W. Thom,  A. Tkatchenko,  T. Tsuchimochi,  N. M. Tubman,  
 L. Vogt,  M. L. Vidal,  O. Vydrov,  M. A. Watson,  J. Wenzel,  
 M. de Wergifosse,  T. A. Wesolowski,  A. White,  J. Witte,  A. Yamada,  
 Jun Yang,  K. Yao,  S. Yeganeh,  S. R. Yost,  Zhi-Qiang You,  A. Zech,  
 Igor Ying Zhang,  Xing Zhang,  Yan Zhao,  Ying Zhu,  B. R. Brooks,  
 G. K. L. Chan,  C. J. Cramer,  M. S. Gordon,  W. J. Hehre,  A. Klamt,  
 M. W. Schmidt,  C. D. Sherrill,  D. G. Truhlar,  A. Aspuru-Guzik,  R. Baer,  
 A. T. Bell,  N. A. Besley,  Jeng-Da Chai,  A. E. DePrince, III,  
 R. A. DiStasio Jr.,  A. Dreuw,  B. D. Dunietz,  T. R. Furlani,  
 Chao-Ping Hsu,  Yousung Jung,  Jing Kong,  D. S. Lambrecht,  WanZhen Liang,  
 C. Ochsenfeld,  V. A. Rassolov,  L. V. Slipchenko,  J. E. Subotnik,  
 T. Van Voorhis,  J. M. Herbert,  A. I. Krylov,  P. M. W. Gill,  M. Head-Gordon

 Contributors to earlier versions of Q-Chem not listed above: 
 R. D. Adamson,  B. Austin,  J. Baker,  G. J. O. Beran,  K. Brandhorst,  
 S. T. Brown,  E. F. C. Byrd,  A. K. Chakraborty,  C.-L. Cheng,  
 Siu Hung Chien,  D. M. Chipman,  D. L. Crittenden,  H. Dachsel,  
 R. J. Doerksen,  A. D. Dutoi,  L. Fusti-Molnar,  W. A. Goddard III,  
 A. Golubeva-Zadorozhnaya,  S. R. Gwaltney,  G. Hawkins,  A. Heyden,  
 S. Hirata,  G. Kedziora,  F. J. Keil,  C. Kelley,  Jihan Kim,  R. A. King,  
 R. Z. Khaliullin,  P. P. Korambath,  W. Kurlancheek,  A. M. Lee,  M. S. Lee,  
 S. V. Levchenko,  Ching Yeh Lin,  D. Liotard,  R. C. Lochan,  I. Lotan,  
 P. E. Maslen,  N. Nair,  D. P. O'Neill,  D. Neuhauser,  E. Neuscamman,  
 C. M. Oana,  R. Olson,  B. Peters,  R. Peverati,  P. A. Pieniazek,  
 Y. M. Rhee,  J. Ritchie,  M. A. Rohrdanz,  E. Rosta,  N. J. Russ,  
 H. F. Schaefer III,  N. E. Schultz,  N. Shenvi,  A. C. Simmonett,  A. Sodt,  
 D. Stuck,  K. S. Thanthiriwatte,  V. Vanovschi,  Tao Wang,  A. Warshel,  
 C. F. Williams,  Q. Wu,  X. Xu,  W. Zhang

 Please cite Q-Chem as follows:
 Y. Shao et al., Mol. Phys. 113, 184-215 (2015)
 DOI: 10.1080/00268976.2014.952696

 Q-Chem 5.1.1 for Intel X86 EM64T Linux

 Parts of Q-Chem use Armadillo 8.300.2 (Tropical Shenanigans).
 http://arma.sourceforge.net/

 Q-Chem begins on Fri Oct  9 02:15:38 2020  

Host: n0086.mhg0
0

     Scratch files written to /local/scratch/users/yhljason/Cl2_PWPB95-D3_aug-cc-pcVQZ.inp20201008191749//
The previous job contains 0 fragments, simply inherited here
Input Ideriv = 0
Curr. Ideriv = -1
Max.  Ideriv = 0
Analytic post-HF gradients are not available with non-HF exchange
Input Ideriv = 0
Curr. Ideriv = 0
Max.  Ideriv = 0

Checking the input file for inconsistencies... 	...done.

--------------------------------------------------------------
User input:
--------------------------------------------------------------
$molecule
read
$end

$rem

jobtype sp
method PWPB95-D3
xc_grid 000099000590
basis aug-cc-pcVQZ
max_scf_cycles 200
thresh 14
scf_convergence 8
mem_total 128000
cc_memory 96000
cc_backend xm
mem_static 1500
symmetry false
sym_ignore true
scf_guess read
unrestricted false
scf_algorithm gdm
n_frozen_core 0
$end

$multipole_field
YY -0.0001
$end


--------------------------------------------------------------
 Adding empirical dispersion correction 
 ----------------------------------------------------------------
 Doing -D3(0) with
 s6  =   0.82000
 s8  =   0.70500
 rs6 =   1.55700
 rs8 =   1.00000
 -D3 energy without 3body term =     -0.0000089417 hartrees
 ----------------------------------------------------------------
             Standard Nuclear Orientation (Angstroms)
    I     Atom           X                Y                Z
 ----------------------------------------------------------------
    1      Cl      0.0000000000     0.0000000000     0.0000000000
    2      Cl      0.0000000000     0.0000000000     1.9879000000
 ----------------------------------------------------------------
 Nuclear Repulsion Energy =    76.9315338528 hartrees
 There are       17 alpha and       17 beta electrons
 Requested basis set is aug-cc-pCVQZ
 There are 68 shells and 268 basis functions

 Total QAlloc Memory Limit 128000 MB
 Mega-Array Size      1467 MB
 MEM_STATIC part      1500 MB

                       Distance Matrix (Angstroms)
             Cl(  1)
   Cl(  2)  1.987900
 
 Applying Cartesian multipole field
    Component          Value
    ---------          -----
     (0,2,0)       -1.00000E-04
 A cutoff of  1.0D-14 yielded   2208 shell pairs
 There are     34276 function pairs (     57990 Cartesian)
 
 -------------------------------------------------------
 OpenMP Integral Computing Module                       
 Release: version 1.0, May 2013, Q-Chem Inc. Pittsburgh 
 -------------------------------------------------------
 Integral Job Info:
 Integral job number is                      11
 Integral operator is                         1
 short-range coefficients                     0
 long-range coefficients              100000000
 Omega coefficients                           0
 if combine SR and LR in K                    0
 Integral screening is                        0
 Integral computing path is                   2
 max size of driver memory is           3200000
 size of driver memory is               1704330
 size of scratch memory is             29435624
 max col of scratch BK array              50625
 max len of scratch array in speh3         2114
 max len of scratch index in speh4           50
 max int batch size is                      520
 min int batch size is                       52
 fixed nKL is                                22
 max L of basis functions is                  4
 order of int derivative is                   0
 number of shells is                         68
 number of basis is                         348
 number of cartesian basis is               348
 number of contracted shell pairs          2208
 number of primitive shell pairs          10830
 maxK2 (contraction) of shell pair          169
 max number of K2 of shell pair               1
 max number of CS2 of shell pair            202
 max number of PS2 of shell pair           2028
 mem total for path MDJ                  752464
 -------------------------------------------------------
 Smallest overlap matrix eigenvalue = 2.44E-05
 Guess MOs from SCF MO coefficient file

 -----------------------------------------------------------------------
  General SCF calculation program by
  Eric Jon Sundstrom, Paul Horn, Yuezhi Mao, Dmitri Zuev, Alec White,
  David Stuck, Shaama M.S., Shane Yost, Joonho Lee, David Small,
  Daniel Levine, Susi Lehtola, Hugh Burton, Evgeny Epifanovsky
 -----------------------------------------------------------------------
 Exchange:     0.5000 Hartree-Fock + 1.0000 PWPB95-D3
 Correlation:  0.7310 PWPB95-D3
 Using Euler-Maclaurin-Lebedev (99,590) quadrature formula
 Dispersion:   Grimme D3
 using 8 threads for integral computing
 -------------------------------------------------------
 OpenMP Integral computing Module                
 Release: version 2.0, May 2017, Q-Chem Inc. Pleasanton 
 -------------------------------------------------------
 -------------------------------------------------------
 OpenMP BLAS3 based DFT computing Module                
 Release: version 1.0, May 2013, Q-Chem Inc. Pittsburgh 
 -------------------------------------------------------
 A restricted SCF calculation will be
 performed using GDM
 SCF converges when RMS gradient is below 1.0e-08
 ---------------------------------------
  Cycle       Energy        RMS Gradient
 ---------------------------------------
    1    -920.2241234456      6.37e-04   Normal BFGS step
    2    -920.2241254377      1.53e-04   Normal BFGS step
    3    -920.2241255875      5.98e-05   Normal BFGS step
    4    -920.2241256021      1.80e-05   Normal BFGS step
    5    -920.2241256038      2.73e-06   Normal BFGS step
    6    -920.2241256039      2.70e-07   Normal BFGS step
    7    -920.2241256039      3.92e-08   Normal BFGS step
    8    -920.2241256040      7.44e-09  Convergence criterion met
 ---------------------------------------
 SCF time:   CPU 2497.74s  wall 315.00s 
 SCF   energy in the final basis set =     -920.2241256040
 Total energy in the final basis set =     -920.2241256040
 
 Components of the MP2 correlation energy:
        aaaa  correlation energy =         0.0000000000 au
        abab  correlation energy =        -0.2721028766 au
        bbbb  correlation energy =         0.0000000000 au
        non-Brillouin singles    =        -0.0000000000 au

 Total  MP2   correlation energy =                    -0.27210288 au
        MP2         total energy =                  -920.49622848 au
 
 --------------------------------------------------------------
 
                    Orbital Energies (a.u.)
 --------------------------------------------------------------
 
 Alpha MOs
 -- Occupied --
*******-102.836  -9.920  -9.920  -7.577  -7.577  -7.568  -7.568
 -7.568  -7.568  -1.040  -0.860  -0.522  -0.473  -0.473  -0.360
 -0.360
 -- Virtual --
 -0.067   0.049   0.052   0.066   0.068   0.084   0.096   0.098
  0.168   0.168   0.173   0.208   0.208   0.257   0.266   0.266
  0.296   0.322   0.322   0.388   0.389   0.451   0.463   0.463
  0.476   0.476   0.477   0.491   0.500   0.500   0.574   0.574
  0.591   0.655   0.655   0.668   0.668   0.712   0.732   0.732
  0.809   0.809   0.935   0.953   0.953   0.988   0.988   1.033
  1.068   1.068   1.117   1.403   1.403   1.417   1.432   1.434
  1.434   1.497   1.497   1.504   1.504   1.550   1.550   1.598
  1.598   1.631   1.645   1.645   1.650   1.650   1.789   1.789
  1.797   1.797   1.801   1.801   1.835   1.835   1.909   1.909
  1.988   1.988   1.990   2.033   2.033   2.036   2.036   2.071
  2.122   2.122   2.285   2.315   2.315   2.341   2.443   2.443
  2.544   2.705   2.959   2.959   3.234   3.801   3.801   3.869
  3.869   3.883   3.883   3.922   4.013   4.013   4.207   4.254
  4.255   4.331   4.341   4.341   4.351   4.351   4.374   4.374
  4.383   4.383   4.395   4.395   4.397   4.397   4.453   4.453
  4.485   4.485   4.506   4.544   4.544   4.564   4.564   4.589
  4.589   4.714   4.773   4.773   5.077   5.077   5.401   5.401
  5.603   5.930   5.930   6.444   6.493   9.593  10.171  11.616
 11.616  11.651  11.651  11.675  11.675  11.809  11.887  11.887
 12.711  17.426  17.426  17.770  17.770  18.014  18.395  21.059
 21.059  21.065  21.065  21.083  21.083  21.086  21.105  21.105
 21.117  21.117  21.164  21.164  21.226  33.096  33.682  37.098
 37.098  37.127  37.127  37.139  37.139  37.251  37.286  37.286
 37.776  51.136  51.136  51.425  51.425  51.646  51.973  64.604
 64.606  64.606  64.610  64.610  64.610  64.610  64.612  64.612
 64.612  64.616  64.616  64.617  64.617  64.624  64.624  64.625
 64.625  75.031  75.031  75.036  75.036  75.043  75.046  75.046
 75.057  75.057  75.061  75.061  75.087  75.087  75.113  96.914
 97.641 109.792 109.792 109.816 109.816 109.822 109.822 109.905
109.929 109.929 110.248 165.387 165.387 165.557 165.557 165.703
165.883 452.998 456.132
 --------------------------------------------------------------
 
          Ground-State Mulliken Net Atomic Charges

     Atom                 Charge (a.u.)
  ----------------------------------------
      1 Cl                    0.000000
      2 Cl                   -0.000000
  ----------------------------------------
  Sum of atomic charges =    -0.000000

 -----------------------------------------------------------------
                    Cartesian Multipole Moments
 -----------------------------------------------------------------
    Charge (ESU x 10^10)
                -0.0000
    Dipole Moment (Debye)
         X      -0.0000      Y      -0.0000      Z      -0.0000
       Tot       0.0000
    Quadrupole Moments (Debye-Ang)
        XX     -25.3115     XY       0.0000     YY     -25.2993
        XZ       0.0000     YZ       0.0000     ZZ     -22.2302
    Octopole Moments (Debye-Ang^2)
       XXX      -0.0000    XXY      -0.0000    XYY      -0.0000
       YYY      -0.0000    XXZ     -25.1583    XYZ      -0.0000
       YYZ     -25.1462    XZZ       0.0000    YZZ       0.0000
       ZZZ     -66.2870
    Hexadecapole Moments (Debye-Ang^3)
      XXXX     -28.5802   XXXY      -0.0000   XXYY      -9.5189
      XYYY       0.0000   YYYY     -28.5334   XXXZ       0.0000
      XXYZ      -0.0000   XYYZ       0.0000   YYYZ       0.0000
      XXZZ     -59.5879   XYZZ      -0.0000   YYZZ     -59.5537
      XZZZ       0.0000   YZZZ       0.0000   ZZZZ    -282.4039
 -----------------------------------------------------------------
Archival summary:
1\1\n0086.mhg0\SP\ProcedureUnspecified\BasisUnspecified\l2\yhljason\FriOct902:28:352020FriOct902:28:352020\0\\#,ProcedureUnspecified,BasisUnspecified,\\0,1\Cl\Cl,1,1.9879\\\@

 Total job time:  777.05s(wall), 6119.85s(cpu) 
 Fri Oct  9 02:28:35 2020

        *************************************************************
        *                                                           *
        *  Thank you very much for using Q-Chem.  Have a nice day.  *
        *                                                           *
        *************************************************************


 
User input: 7 of 8 
 
Q-Chem Developer Version!
                  Welcome to Q-Chem
     A Quantum Leap Into The Future Of Chemistry


 Q-Chem 5.1, Q-Chem, Inc., Pleasanton, CA (2018)

 Yihan Shao,  Zhengting Gan,  E. Epifanovsky,  A. T. B. Gilbert,  M. Wormit,  
 J. Kussmann,  A. W. Lange,  A. Behn,  Jia Deng,  Xintian Feng,  D. Ghosh,  
 M. Goldey,  P. R. Horn,  L. D. Jacobson,  I. Kaliman,  T. Kus,  A. Landau,  
 Jie Liu,  E. I. Proynov,  R. M. Richard,  R. P. Steele,  E. J. Sundstrom,  
 H. L. Woodcock III,  P. M. Zimmerman,  D. Zuev,  B. Albrecht,  E. Alguire,  
 S. A. Baeppler,  D. Barton,  Z. Benda,  Y. A. Bernard,  E. J. Berquist,  
 K. B. Bravaya,  H. Burton,  D. Casanova,  Chun-Min Chang,  Yunqing Chen,  
 A. Chien,  K. D. Closser,  M. P. Coons,  S. Coriani,  S. Dasgupta,  
 A. L. Dempwolff,  M. Diedenhofen,  Hainam Do,  R. G. Edgar,  Po-Tung Fang,  
 S. Faraji,  S. Fatehi,  Qingguo Feng,  K. D. Fenk,  J. Fosso-Tande,  
 Qinghui Ge,  A. Ghysels,  G. Gidofalvi,  J. Gomes,  J. Gonthier,  A. Gunina,  
 D. Hait,  M. W. D. Hanson-Heine,  P. H. P. Harbach,  A. W. Hauser,  
 J. E. Herr,  E. G. Hohenstein,  Z. C. Holden,  Kerwin Hui,  B. C. Huynh,  
 T.-C. Jagau,  Hyunjun Ji,  B. Kaduk,  K. Khistyaev,  Jaehoon Kim,  
 P. Klunzinger,  K. Koh,  D. Kosenkov,  L. Koulias,  T. Kowalczyk,  
 C. M. Krauter,  A. Kunitsa,  Ka Un Lao,  A. Laurent,  K. V. Lawler,  
 Joonho Lee,  D. Lefrancois,  S. Lehtola,  D. S. Levine,  Yi-Pei Li,  
 You-Sheng Lin,  Fenglai Liu,  E. Livshits,  A. Luenser,  P. Manohar,  
 E. Mansoor,  S. F. Manzer,  Shan-Ping Mao,  Yuezhi Mao,  N. Mardirossian,  
 A. V. Marenich,  T. Markovich,  L. A. Martinez-Martinez,  S. A. Maurer,  
 N. J. Mayhall,  S. C. McKenzie,  J.-M. Mewes,  A. F. Morrison,  
 J. W. Mullinax,  K. Nanda,  T. S. Nguyen-Beck,  R. Olivares-Amaya,  
 J. A. Parkhill,  T. M. Perrine,  F. Plasser,  P. Pokhilko,  S. Prager,  
 A. Prociuk,  E. Ramos,  D. R. Rehn,  F. Rob,  M. Schneider,  N. Sergueev,  
 S. M. Sharada,  S. Sharma,  D. W. Small,  T. Stauch,  T. Stein,  
 Yu-Chuan Su,  A. J. W. Thom,  A. Tkatchenko,  T. Tsuchimochi,  N. M. Tubman,  
 L. Vogt,  M. L. Vidal,  O. Vydrov,  M. A. Watson,  J. Wenzel,  
 M. de Wergifosse,  T. A. Wesolowski,  A. White,  J. Witte,  A. Yamada,  
 Jun Yang,  K. Yao,  S. Yeganeh,  S. R. Yost,  Zhi-Qiang You,  A. Zech,  
 Igor Ying Zhang,  Xing Zhang,  Yan Zhao,  Ying Zhu,  B. R. Brooks,  
 G. K. L. Chan,  C. J. Cramer,  M. S. Gordon,  W. J. Hehre,  A. Klamt,  
 M. W. Schmidt,  C. D. Sherrill,  D. G. Truhlar,  A. Aspuru-Guzik,  R. Baer,  
 A. T. Bell,  N. A. Besley,  Jeng-Da Chai,  A. E. DePrince, III,  
 R. A. DiStasio Jr.,  A. Dreuw,  B. D. Dunietz,  T. R. Furlani,  
[...]
        MP2         total energy =                  -920.49976576 au
 
 --------------------------------------------------------------
 
                    Orbital Energies (a.u.)
 --------------------------------------------------------------
 
 Alpha MOs
 -- Occupied --
*******-102.838  -9.922  -9.921  -7.578  -7.578  -7.569  -7.569
 -7.569  -7.569  -1.041  -0.862  -0.524  -0.474  -0.474  -0.361
 -0.361
 -- Virtual --
 -0.069   0.044   0.047   0.063   0.063   0.080   0.092   0.092
  0.166   0.166   0.168   0.206   0.206   0.253   0.264   0.264
  0.292   0.318   0.318   0.386   0.386   0.448   0.461   0.461
  0.472   0.474   0.474   0.489   0.498   0.498   0.572   0.572
  0.589   0.653   0.653   0.666   0.666   0.709   0.730   0.730
  0.808   0.808   0.932   0.951   0.951   0.986   0.986   1.031
  1.065   1.065   1.114   1.402   1.402   1.415   1.430   1.432
  1.432   1.495   1.495   1.503   1.503   1.548   1.548   1.597
  1.597   1.629   1.644   1.644   1.649   1.649   1.788   1.788
  1.796   1.796   1.800   1.800   1.834   1.834   1.908   1.908
  1.987   1.987   1.988   2.032   2.032   2.034   2.034   2.069
  2.120   2.120   2.283   2.314   2.314   2.340   2.442   2.442
  2.542   2.704   2.957   2.957   3.232   3.799   3.799   3.868
  3.868   3.881   3.881   3.920   4.011   4.011   4.205   4.253
  4.253   4.330   4.339   4.339   4.350   4.350   4.372   4.372
  4.381   4.381   4.394   4.394   4.396   4.396   4.452   4.452
  4.484   4.484   4.504   4.542   4.542   4.563   4.563   4.587
  4.587   4.712   4.771   4.771   5.076   5.076   5.399   5.399
  5.602   5.929   5.929   6.442   6.492   9.591  10.170  11.615
 11.615  11.650  11.650  11.674  11.674  11.807  11.885  11.885
 12.710  17.424  17.424  17.768  17.768  18.013  18.393  21.057
 21.057  21.064  21.064  21.082  21.082  21.084  21.103  21.103
 21.115  21.115  21.162  21.162  21.225  33.095  33.681  37.097
 37.097  37.126  37.126  37.138  37.138  37.249  37.284  37.284
 37.775  51.135  51.135  51.423  51.423  51.644  51.972  64.603
 64.605  64.605  64.608  64.608  64.609  64.609  64.611  64.611
 64.611  64.614  64.614  64.615  64.615  64.623  64.623  64.623
 64.623  75.030  75.030  75.035  75.035  75.041  75.045  75.045
 75.055  75.055  75.060  75.060  75.086  75.086  75.112  96.912
 97.639 109.791 109.791 109.814 109.814 109.821 109.821 109.903
109.927 109.927 110.247 165.386 165.386 165.556 165.556 165.701
165.882 452.997 456.130
 --------------------------------------------------------------
 
          Ground-State Mulliken Net Atomic Charges

     Atom                 Charge (a.u.)
  ----------------------------------------
      1 Cl                    0.002113
      2 Cl                   -0.002113
  ----------------------------------------
  Sum of atomic charges =    -0.000000

 -----------------------------------------------------------------
                    Cartesian Multipole Moments
 -----------------------------------------------------------------
    Charge (ESU x 10^10)
                -0.0000
    Dipole Moment (Debye)
         X       0.0000      Y       0.0000      Z      -0.0402
       Tot       0.0402
    Quadrupole Moments (Debye-Ang)
        XX     -25.3156     XY       0.0000     YY     -25.3156
        XZ      -0.0000     YZ       0.0000     ZZ     -22.3635
    Octopole Moments (Debye-Ang^2)
       XXX      -0.0000    XXY       0.0000    XYY       0.0000
       YYY       0.0000    XXZ     -25.1908    XYZ       0.0000
       YYZ     -25.1908    XZZ      -0.0000    YZZ       0.0000
       ZZZ     -66.7366
    Hexadecapole Moments (Debye-Ang^3)
      XXXX     -28.6022   XXXY       0.0000   XXYY      -9.5341
      XYYY       0.0000   YYYY     -28.6022   XXXZ      -0.0000
      XXYZ       0.0000   XYYZ       0.0000   YYYZ       0.0000
      XXZZ     -59.6959   XYZZ       0.0000   YYZZ     -59.6959
      XZZZ      -0.0000   YZZZ       0.0000   ZZZZ    -283.8943
 -----------------------------------------------------------------
Archival summary:
1\1\n0086.mhg0\SP\ProcedureUnspecified\BasisUnspecified\l2\yhljason\FriOct902:42:432020FriOct902:42:432020\0\\#,ProcedureUnspecified,BasisUnspecified,\\0,1\Cl\Cl,1,1.9879\\\@

 Total job time:  848.39s(wall), 6667.72s(cpu) 
 Fri Oct  9 02:42:43 2020

        *************************************************************
        *                                                           *
        *  Thank you very much for using Q-Chem.  Have a nice day.  *
        *                                                           *
        *************************************************************


 
User input: 8 of 8 
 
Q-Chem Developer Version!
                  Welcome to Q-Chem
     A Quantum Leap Into The Future Of Chemistry


 Q-Chem 5.1, Q-Chem, Inc., Pleasanton, CA (2018)

 Yihan Shao,  Zhengting Gan,  E. Epifanovsky,  A. T. B. Gilbert,  M. Wormit,  
 J. Kussmann,  A. W. Lange,  A. Behn,  Jia Deng,  Xintian Feng,  D. Ghosh,  
 M. Goldey,  P. R. Horn,  L. D. Jacobson,  I. Kaliman,  T. Kus,  A. Landau,  
 Jie Liu,  E. I. Proynov,  R. M. Richard,  R. P. Steele,  E. J. Sundstrom,  
 H. L. Woodcock III,  P. M. Zimmerman,  D. Zuev,  B. Albrecht,  E. Alguire,  
 S. A. Baeppler,  D. Barton,  Z. Benda,  Y. A. Bernard,  E. J. Berquist,  
 K. B. Bravaya,  H. Burton,  D. Casanova,  Chun-Min Chang,  Yunqing Chen,  
 A. Chien,  K. D. Closser,  M. P. Coons,  S. Coriani,  S. Dasgupta,  
 A. L. Dempwolff,  M. Diedenhofen,  Hainam Do,  R. G. Edgar,  Po-Tung Fang,  
 S. Faraji,  S. Fatehi,  Qingguo Feng,  K. D. Fenk,  J. Fosso-Tande,  
 Qinghui Ge,  A. Ghysels,  G. Gidofalvi,  J. Gomes,  J. Gonthier,  A. Gunina,  
 D. Hait,  M. W. D. Hanson-Heine,  P. H. P. Harbach,  A. W. Hauser,  
 J. E. Herr,  E. G. Hohenstein,  Z. C. Holden,  Kerwin Hui,  B. C. Huynh,  
 T.-C. Jagau,  Hyunjun Ji,  B. Kaduk,  K. Khistyaev,  Jaehoon Kim,  
 P. Klunzinger,  K. Koh,  D. Kosenkov,  L. Koulias,  T. Kowalczyk,  
 C. M. Krauter,  A. Kunitsa,  Ka Un Lao,  A. Laurent,  K. V. Lawler,  
 Joonho Lee,  D. Lefrancois,  S. Lehtola,  D. S. Levine,  Yi-Pei Li,  
 You-Sheng Lin,  Fenglai Liu,  E. Livshits,  A. Luenser,  P. Manohar,  
 E. Mansoor,  S. F. Manzer,  Shan-Ping Mao,  Yuezhi Mao,  N. Mardirossian,  
 A. V. Marenich,  T. Markovich,  L. A. Martinez-Martinez,  S. A. Maurer,  
 N. J. Mayhall,  S. C. McKenzie,  J.-M. Mewes,  A. F. Morrison,  
 J. W. Mullinax,  K. Nanda,  T. S. Nguyen-Beck,  R. Olivares-Amaya,  
 J. A. Parkhill,  T. M. Perrine,  F. Plasser,  P. Pokhilko,  S. Prager,  
 A. Prociuk,  E. Ramos,  D. R. Rehn,  F. Rob,  M. Schneider,  N. Sergueev,  
 S. M. Sharada,  S. Sharma,  D. W. Small,  T. Stauch,  T. Stein,  
 Yu-Chuan Su,  A. J. W. Thom,  A. Tkatchenko,  T. Tsuchimochi,  N. M. Tubman,  
 L. Vogt,  M. L. Vidal,  O. Vydrov,  M. A. Watson,  J. Wenzel,  
 M. de Wergifosse,  T. A. Wesolowski,  A. White,  J. Witte,  A. Yamada,  
 Jun Yang,  K. Yao,  S. Yeganeh,  S. R. Yost,  Zhi-Qiang You,  A. Zech,  
 Igor Ying Zhang,  Xing Zhang,  Yan Zhao,  Ying Zhu,  B. R. Brooks,  
 G. K. L. Chan,  C. J. Cramer,  M. S. Gordon,  W. J. Hehre,  A. Klamt,  
 M. W. Schmidt,  C. D. Sherrill,  D. G. Truhlar,  A. Aspuru-Guzik,  R. Baer,  
 A. T. Bell,  N. A. Besley,  Jeng-Da Chai,  A. E. DePrince, III,  
 R. A. DiStasio Jr.,  A. Dreuw,  B. D. Dunietz,  T. R. Furlani,  
 Chao-Ping Hsu,  Yousung Jung,  Jing Kong,  D. S. Lambrecht,  WanZhen Liang,  
 C. Ochsenfeld,  V. A. Rassolov,  L. V. Slipchenko,  J. E. Subotnik,  
 T. Van Voorhis,  J. M. Herbert,  A. I. Krylov,  P. M. W. Gill,  M. Head-Gordon

 Contributors to earlier versions of Q-Chem not listed above: 
 R. D. Adamson,  B. Austin,  J. Baker,  G. J. O. Beran,  K. Brandhorst,  
 S. T. Brown,  E. F. C. Byrd,  A. K. Chakraborty,  C.-L. Cheng,  
 Siu Hung Chien,  D. M. Chipman,  D. L. Crittenden,  H. Dachsel,  
 R. J. Doerksen,  A. D. Dutoi,  L. Fusti-Molnar,  W. A. Goddard III,  
 A. Golubeva-Zadorozhnaya,  S. R. Gwaltney,  G. Hawkins,  A. Heyden,  
 S. Hirata,  G. Kedziora,  F. J. Keil,  C. Kelley,  Jihan Kim,  R. A. King,  
 R. Z. Khaliullin,  P. P. Korambath,  W. Kurlancheek,  A. M. Lee,  M. S. Lee,  
 S. V. Levchenko,  Ching Yeh Lin,  D. Liotard,  R. C. Lochan,  I. Lotan,  
 P. E. Maslen,  N. Nair,  D. P. O'Neill,  D. Neuhauser,  E. Neuscamman,  
 C. M. Oana,  R. Olson,  B. Peters,  R. Peverati,  P. A. Pieniazek,  
 Y. M. Rhee,  J. Ritchie,  M. A. Rohrdanz,  E. Rosta,  N. J. Russ,  
 H. F. Schaefer III,  N. E. Schultz,  N. Shenvi,  A. C. Simmonett,  A. Sodt,  
 D. Stuck,  K. S. Thanthiriwatte,  V. Vanovschi,  Tao Wang,  A. Warshel,  
 C. F. Williams,  Q. Wu,  X. Xu,  W. Zhang

 Please cite Q-Chem as follows:
 Y. Shao et al., Mol. Phys. 113, 184-215 (2015)
 DOI: 10.1080/00268976.2014.952696

 Q-Chem 5.1.1 for Intel X86 EM64T Linux

 Parts of Q-Chem use Armadillo 8.300.2 (Tropical Shenanigans).
 http://arma.sourceforge.net/

 Q-Chem begins on Fri Oct  9 02:42:44 2020  

Host: n0086.mhg0
0

     Scratch files written to /local/scratch/users/yhljason/Cl2_PWPB95-D3_aug-cc-pcVQZ.inp20201008191749//
The previous job contains 0 fragments, simply inherited here
Input Ideriv = 0
Curr. Ideriv = -1
Max.  Ideriv = 0
Analytic post-HF gradients are not available with non-HF exchange
Input Ideriv = 0
Curr. Ideriv = 0
Max.  Ideriv = 0

Checking the input file for inconsistencies... 	...done.

--------------------------------------------------------------
User input:
--------------------------------------------------------------
$molecule
read
$end

$rem

jobtype sp
method PWPB95-D3
xc_grid 000099000590
basis aug-cc-pcVQZ
max_scf_cycles 200
thresh 14
scf_convergence 8
mem_total 128000
cc_memory 96000
cc_backend xm
mem_static 1500
symmetry false
sym_ignore true
scf_guess read
unrestricted false
scf_algorithm gdm
n_frozen_core 0
$end

$multipole_field
ZZ -0.0001
$end

--------------------------------------------------------------
 Adding empirical dispersion correction 
 ----------------------------------------------------------------
 Doing -D3(0) with
 s6  =   0.82000
 s8  =   0.70500
 rs6 =   1.55700
 rs8 =   1.00000
 -D3 energy without 3body term =     -0.0000089417 hartrees
 ----------------------------------------------------------------
             Standard Nuclear Orientation (Angstroms)
    I     Atom           X                Y                Z
 ----------------------------------------------------------------
    1      Cl      0.0000000000     0.0000000000     0.0000000000
    2      Cl      0.0000000000     0.0000000000     1.9879000000
 ----------------------------------------------------------------
 Nuclear Repulsion Energy =    76.9315338528 hartrees
 There are       17 alpha and       17 beta electrons
 Requested basis set is aug-cc-pCVQZ
 There are 68 shells and 268 basis functions

 Total QAlloc Memory Limit 128000 MB
 Mega-Array Size      1467 MB
 MEM_STATIC part      1500 MB

                       Distance Matrix (Angstroms)
             Cl(  1)
   Cl(  2)  1.987900
 
 Applying Cartesian multipole field
    Component          Value
    ---------          -----
     (0,0,2)       -1.00000E-04
 Nucleus-field energy     =    -0.0239903024 hartrees
 A cutoff of  1.0D-14 yielded   2208 shell pairs
 There are     34276 function pairs (     57990 Cartesian)
 
 -------------------------------------------------------
 OpenMP Integral Computing Module                       
 Release: version 1.0, May 2013, Q-Chem Inc. Pittsburgh 
 -------------------------------------------------------
 Integral Job Info:
 Integral job number is                      11
 Integral operator is                         1
 short-range coefficients                     0
 long-range coefficients              100000000
 Omega coefficients                           0
 if combine SR and LR in K                    0
 Integral screening is                        0
 Integral computing path is                   2
 max size of driver memory is           3200000
 size of driver memory is               1704330
 size of scratch memory is             29435624
 max col of scratch BK array              50625
 max len of scratch array in speh3         2114
 max len of scratch index in speh4           50
 max int batch size is                      520
 min int batch size is                       52
 fixed nKL is                                22
 max L of basis functions is                  4
 order of int derivative is                   0
 number of shells is                         68
 number of basis is                         348
 number of cartesian basis is               348
 number of contracted shell pairs          2208
 number of primitive shell pairs          10830
 maxK2 (contraction) of shell pair          169
 max number of K2 of shell pair               1
 max number of CS2 of shell pair            202
 max number of PS2 of shell pair           2028
 mem total for path MDJ                  752464
 -------------------------------------------------------
 Smallest overlap matrix eigenvalue = 2.44E-05
 Guess MOs from SCF MO coefficient file

 -----------------------------------------------------------------------
  General SCF calculation program by
  Eric Jon Sundstrom, Paul Horn, Yuezhi Mao, Dmitri Zuev, Alec White,
  David Stuck, Shaama M.S., Shane Yost, Joonho Lee, David Small,
  Daniel Levine, Susi Lehtola, Hugh Burton, Evgeny Epifanovsky
 -----------------------------------------------------------------------
 Exchange:     0.5000 Hartree-Fock + 1.0000 PWPB95-D3
 Correlation:  0.7310 PWPB95-D3
 Using Euler-Maclaurin-Lebedev (99,590) quadrature formula
 Dispersion:   Grimme D3
 using 8 threads for integral computing
 -------------------------------------------------------
 OpenMP Integral computing Module                
 Release: version 2.0, May 2017, Q-Chem Inc. Pleasanton 
 -------------------------------------------------------
 -------------------------------------------------------
 OpenMP BLAS3 based DFT computing Module                
 Release: version 1.0, May 2013, Q-Chem Inc. Pittsburgh 
 -------------------------------------------------------
 A restricted SCF calculation will be
 performed using GDM
 SCF converges when RMS gradient is below 1.0e-08
 ---------------------------------------
  Cycle       Energy        RMS Gradient
 ---------------------------------------
    1    -920.2243395215      2.99e-03   Normal BFGS step
    2    -920.2243516430      1.81e-03   Normal BFGS step
    3    -920.2243587938      2.20e-04   Normal BFGS step
    4    -920.2243589807      9.45e-05   Normal BFGS step
    5    -920.2243590469      2.44e-05   Normal BFGS step
    6    -920.2243590493      9.05e-06   Normal BFGS step
    7    -920.2243590500      8.94e-07   Normal BFGS step
    8    -920.2243590500      3.59e-07   Normal BFGS step
    9    -920.2243590500      4.06e-08   Normal BFGS step
   10    -920.2243590500      2.29e-09  Convergence criterion met
 ---------------------------------------
 SCF time:   CPU 3064.57s  wall 387.00s 
 SCF   energy in the final basis set =     -920.2243590500
 Total energy in the final basis set =     -920.2243590500
 
 Components of the MP2 correlation energy:
        aaaa  correlation energy =         0.0000000000 au
        abab  correlation energy =        -0.2721040849 au
        bbbb  correlation energy =         0.0000000000 au
        non-Brillouin singles    =        -0.0000000000 au

 Total  MP2   correlation energy =                    -0.27210408 au
        MP2         total energy =                  -920.49646313 au
 
 --------------------------------------------------------------
 
                    Orbital Energies (a.u.)
 --------------------------------------------------------------
 
 Alpha MOs
 -- Occupied --
*******-102.835  -9.919  -9.919  -7.576  -7.576  -7.567  -7.567
 -7.567  -7.567  -1.039  -0.860  -0.521  -0.472  -0.472  -0.359
 -0.359
 -- Virtual --
 -0.066   0.050   0.056   0.067   0.067   0.086   0.098   0.098
  0.168   0.168   0.177   0.209   0.209   0.260   0.266   0.266
  0.298   0.323   0.323   0.389   0.389   0.452   0.464   0.464
  0.477   0.477   0.478   0.492   0.500   0.500   0.574   0.574
  0.592   0.656   0.656   0.668   0.668   0.713   0.733   0.733
  0.810   0.810   0.936   0.954   0.954   0.989   0.989   1.035
  1.069   1.069   1.119   1.404   1.404   1.418   1.433   1.434
  1.434   1.498   1.498   1.505   1.505   1.550   1.550   1.599
  1.599   1.632   1.646   1.646   1.650   1.650   1.790   1.790
  1.798   1.798   1.802   1.802   1.836   1.836   1.910   1.910
  1.989   1.989   1.991   2.034   2.034   2.037   2.037   2.072
  2.123   2.123   2.286   2.316   2.316   2.342   2.444   2.444
  2.545   2.706   2.960   2.960   3.235   3.801   3.801   3.870
  3.870   3.884   3.884   3.923   4.014   4.014   4.208   4.255
  4.255   4.332   4.341   4.341   4.352   4.352   4.375   4.375
  4.384   4.384   4.396   4.396   4.398   4.398   4.454   4.454
  4.486   4.486   4.507   4.544   4.544   4.565   4.565   4.589
  4.589   4.715   4.774   4.774   5.078   5.078   5.402   5.402
  5.604   5.931   5.931   6.445   6.494   9.594  10.172  11.617
 11.617  11.652  11.652  11.676  11.676  11.810  11.888  11.888
 12.712  17.427  17.427  17.770  17.770  18.015  18.396  21.060
 21.060  21.066  21.066  21.084  21.084  21.086  21.106  21.106
 21.118  21.118  21.164  21.164  21.227  33.097  33.683  37.099
 37.099  37.128  37.128  37.140  37.140  37.252  37.287  37.287
 37.777  51.137  51.137  51.426  51.426  51.647  51.974  64.605
 64.607  64.607  64.611  64.611  64.611  64.611  64.613  64.613
 64.613  64.616  64.616  64.618  64.618  64.625  64.625  64.626
 64.626  75.032  75.032  75.037  75.037  75.044  75.047  75.047
 75.058  75.058  75.062  75.062  75.088  75.088  75.114  96.915
 97.641 109.793 109.793 109.816 109.816 109.823 109.823 109.906
109.929 109.929 110.249 165.388 165.388 165.558 165.558 165.704
165.884 452.999 456.132
 --------------------------------------------------------------
 
          Ground-State Mulliken Net Atomic Charges

     Atom                 Charge (a.u.)
  ----------------------------------------
      1 Cl                   -0.002122
      2 Cl                    0.002122
  ----------------------------------------
  Sum of atomic charges =    -0.000000

 -----------------------------------------------------------------
                    Cartesian Multipole Moments
 -----------------------------------------------------------------
    Charge (ESU x 10^10)
                -0.0000
    Dipole Moment (Debye)
         X      -0.0000      Y       0.0000      Z       0.0400
       Tot       0.0400
    Quadrupole Moments (Debye-Ang)
        XX     -25.3119     XY       0.0000     YY     -25.3119
        XZ       0.0000     YZ       0.0000     ZZ     -22.1013
    Octopole Moments (Debye-Ang^2)
       XXX       0.0000    XXY       0.0000    XYY       0.0000
       YYY       0.0000    XXZ     -25.1307    XYZ       0.0000
       YYZ     -25.1307    XZZ       0.0000    YZZ       0.0000
       ZZZ     -65.8515
    Hexadecapole Moments (Debye-Ang^3)
      XXXX     -28.5819   XXXY       0.0000   XXYY      -9.5273
      XYYY       0.0000   YYYY     -28.5819   XXXZ       0.0000
      XXYZ      -0.0000   XYYZ       0.0000   YYYZ       0.0000
      XXZZ     -59.4984   XYZZ       0.0000   YYZZ     -59.4984
      XZZZ       0.0000   YZZZ       0.0000   ZZZZ    -280.9900
 -----------------------------------------------------------------
Archival summary:
1\1\n0086.mhg0\SP\ProcedureUnspecified\BasisUnspecified\l2\yhljason\FriOct902:56:542020FriOct902:56:542020\0\\#,ProcedureUnspecified,BasisUnspecified,\\0,1\Cl\Cl,1,1.9879\\\@

 Total job time:  850.43s(wall), 6697.99s(cpu) 
 Fri Oct  9 02:56:54 2020

        *************************************************************
        *                                                           *
        *  Thank you very much for using Q-Chem.  Have a nice day.  *
        *                                                           *
        *************************************************************


