Q-Chem Developer Version!
                  Welcome to Q-Chem
     A Quantum Leap Into The Future Of Chemistry


 Q-Chem 5.1, Q-Chem, Inc., Pleasanton, CA (2018)

 Yihan Shao,  Zhengting Gan,  E. Epifanovsky,  A. T. B. Gilbert,  M. Wormit,  
 J. Kussmann,  A. W. Lange,  A. Behn,  Jia Deng,  Xintian Feng,  D. Ghosh,  
 M. Goldey,  P. R. Horn,  L. D. Jacobson,  I. Kaliman,  T. Kus,  A. Landau,  
 Jie Liu,  E. I. Proynov,  R. M. Richard,  R. P. Steele,  E. J. Sundstrom,  
 H. L. Woodcock III,  P. M. Zimmerman,  D. Zuev,  B. Albrecht,  E. Alguire,  
 S. A. Baeppler,  D. Barton,  Z. Benda,  Y. A. Bernard,  E. J. Berquist,  
 K. B. Bravaya,  H. Burton,  D. Casanova,  Chun-Min Chang,  Yunqing Chen,  
 A. Chien,  K. D. Closser,  M. P. Coons,  S. Coriani,  S. Dasgupta,  
 A. L. Dempwolff,  M. Diedenhofen,  Hainam Do,  R. G. Edgar,  Po-Tung Fang,  
 S. Faraji,  S. Fatehi,  Qingguo Feng,  K. D. Fenk,  J. Fosso-Tande,  
 Qinghui Ge,  A. Ghysels,  G. Gidofalvi,  J. Gomes,  J. Gonthier,  A. Gunina,  
 D. Hait,  M. W. D. Hanson-Heine,  P. H. P. Harbach,  A. W. Hauser,  
 J. E. Herr,  E. G. Hohenstein,  Z. C. Holden,  Kerwin Hui,  B. C. Huynh,  
 T.-C. Jagau,  Hyunjun Ji,  B. Kaduk,  K. Khistyaev,  Jaehoon Kim,  
 P. Klunzinger,  K. Koh,  D. Kosenkov,  L. Koulias,  T. Kowalczyk,  
 C. M. Krauter,  A. Kunitsa,  Ka Un Lao,  A. Laurent,  K. V. Lawler,  
 Joonho Lee,  D. Lefrancois,  S. Lehtola,  D. S. Levine,  Yi-Pei Li,  
 You-Sheng Lin,  Fenglai Liu,  E. Livshits,  A. Luenser,  P. Manohar,  
 E. Mansoor,  S. F. Manzer,  Shan-Ping Mao,  Yuezhi Mao,  N. Mardirossian,  
 A. V. Marenich,  T. Markovich,  L. A. Martinez-Martinez,  S. A. Maurer,  
 N. J. Mayhall,  S. C. McKenzie,  J.-M. Mewes,  A. F. Morrison,  
 J. W. Mullinax,  K. Nanda,  T. S. Nguyen-Beck,  R. Olivares-Amaya,  
 J. A. Parkhill,  T. M. Perrine,  F. Plasser,  P. Pokhilko,  S. Prager,  
 A. Prociuk,  E. Ramos,  D. R. Rehn,  F. Rob,  M. Schneider,  N. Sergueev,  
 S. M. Sharada,  S. Sharma,  D. W. Small,  T. Stauch,  T. Stein,  
 Yu-Chuan Su,  A. J. W. Thom,  A. Tkatchenko,  T. Tsuchimochi,  N. M. Tubman,  
 L. Vogt,  M. L. Vidal,  O. Vydrov,  M. A. Watson,  J. Wenzel,  
 M. de Wergifosse,  T. A. Wesolowski,  A. White,  J. Witte,  A. Yamada,  
 Jun Yang,  K. Yao,  S. Yeganeh,  S. R. Yost,  Zhi-Qiang You,  A. Zech,  
 Igor Ying Zhang,  Xing Zhang,  Yan Zhao,  Ying Zhu,  B. R. Brooks,  
 G. K. L. Chan,  C. J. Cramer,  M. S. Gordon,  W. J. Hehre,  A. Klamt,  
 M. W. Schmidt,  C. D. Sherrill,  D. G. Truhlar,  A. Aspuru-Guzik,  R. Baer,  
 A. T. Bell,  N. A. Besley,  Jeng-Da Chai,  A. E. DePrince, III,  
 R. A. DiStasio Jr.,  A. Dreuw,  B. D. Dunietz,  T. R. Furlani,  
 Chao-Ping Hsu,  Yousung Jung,  Jing Kong,  D. S. Lambrecht,  WanZhen Liang,  
 C. Ochsenfeld,  V. A. Rassolov,  L. V. Slipchenko,  J. E. Subotnik,  
 T. Van Voorhis,  J. M. Herbert,  A. I. Krylov,  P. M. W. Gill,  M. Head-Gordon

 Contributors to earlier versions of Q-Chem not listed above: 
 R. D. Adamson,  B. Austin,  J. Baker,  G. J. O. Beran,  K. Brandhorst,  
 S. T. Brown,  E. F. C. Byrd,  A. K. Chakraborty,  C.-L. Cheng,  
 Siu Hung Chien,  D. M. Chipman,  D. L. Crittenden,  H. Dachsel,  
 R. J. Doerksen,  A. D. Dutoi,  L. Fusti-Molnar,  W. A. Goddard III,  
 A. Golubeva-Zadorozhnaya,  S. R. Gwaltney,  G. Hawkins,  A. Heyden,  
 S. Hirata,  G. Kedziora,  F. J. Keil,  C. Kelley,  Jihan Kim,  R. A. King,  
 R. Z. Khaliullin,  P. P. Korambath,  W. Kurlancheek,  A. M. Lee,  M. S. Lee,  
 S. V. Levchenko,  Ching Yeh Lin,  D. Liotard,  R. C. Lochan,  I. Lotan,  
 P. E. Maslen,  N. Nair,  D. P. O'Neill,  D. Neuhauser,  E. Neuscamman,  
 C. M. Oana,  R. Olson,  B. Peters,  R. Peverati,  P. A. Pieniazek,  
 Y. M. Rhee,  J. Ritchie,  M. A. Rohrdanz,  E. Rosta,  N. J. Russ,  
 H. F. Schaefer III,  N. E. Schultz,  N. Shenvi,  A. C. Simmonett,  A. Sodt,  
 D. Stuck,  K. S. Thanthiriwatte,  V. Vanovschi,  Tao Wang,  A. Warshel,  
 C. F. Williams,  Q. Wu,  X. Xu,  W. Zhang

 Please cite Q-Chem as follows:
 Y. Shao et al., Mol. Phys. 113, 184-215 (2015)
 DOI: 10.1080/00268976.2014.952696

 Q-Chem 5.1.1 for Intel X86 EM64T Linux

 Parts of Q-Chem use Armadillo 8.300.2 (Tropical Shenanigans).
 http://arma.sourceforge.net/

 Q-Chem begins on Fri Oct  9 01:15:42 2020  

Host: n0081.mhg0
0

     Scratch files written to /local/scratch/users/yhljason/CSO_PWPB95-D3_aug-cc-pcVTZ.inp20201008191748//
Input Ideriv = 0
Curr. Ideriv = -1
Max.  Ideriv = 0
Analytic post-HF gradients are not available with non-HF exchange
Input Ideriv = 0
Curr. Ideriv = 0
Max.  Ideriv = 0

Checking the input file for inconsistencies... 	...done.

--------------------------------------------------------------
User input:
--------------------------------------------------------------
$molecule
0 1
C1      0.0000  0.0000  0.0000
O2      0.0000  0.0000  1.1600
S3      0.0000  0.0000  -1.5600
$end

$rem
jobtype sp
method PWPB95-D3
xc_grid 000099000590
basis aug-cc-pcVTZ
max_scf_cycles 200
thresh 14
scf_convergence 8
scf_algorithm gdm
symmetry false
sym_ignore true
unrestricted false
gen_scfman true
internal_stability_iter 15
internal_stability_davidson_iter 200
mem_total 128000
cc_memory 96000
cc_backend xm
mem_static 1500
n_frozen_core 0
$end



--------------------------------------------------------------
 Adding empirical dispersion correction 
 ----------------------------------------------------------------
 Doing -D3(0) with
 s6  =   0.82000
 s8  =   0.70500
 rs6 =   1.55700
 rs8 =   1.00000
 -D3 energy without 3body term =     -0.0001133449 hartrees
 ----------------------------------------------------------------
             Standard Nuclear Orientation (Angstroms)
    I     Atom           X                Y                Z
 ----------------------------------------------------------------
    1      C       0.0000000000     0.0000000000     0.0000000000
    2      O       0.0000000000     0.0000000000     1.1600000000
    3      S       0.0000000000     0.0000000000    -1.5600000000
 ----------------------------------------------------------------
 Nuclear Repulsion Energy =    79.3640831009 hartrees
 There are       15 alpha and       15 beta electrons
 Requested basis set is aug-cc-pCVTZ
 There are 61 shells and 193 basis functions

 Total QAlloc Memory Limit 128000 MB
 Mega-Array Size      1467 MB
 MEM_STATIC part      1500 MB

                       Distance Matrix (Angstroms)
             C (  1)   O (  2)
   O (  2)  1.160000
   S (  3)  1.560000  2.720000
 
 A cutoff of  1.0D-14 yielded   1820 shell pairs
 There are     18324 function pairs (     25483 Cartesian)
 
 -------------------------------------------------------
 OpenMP Integral Computing Module                       
 Release: version 1.0, May 2013, Q-Chem Inc. Pittsburgh 
 -------------------------------------------------------
 Integral Job Info:
 Integral job number is                      11
 Integral operator is                         1
 short-range coefficients                     0
 long-range coefficients              100000000
 Omega coefficients                           0
 if combine SR and LR in K                    0
 Integral screening is                        0
 Integral computing path is                   2
 max size of driver memory is            800000
 size of driver memory is                776718
 size of scratch memory is             29531563
 max col of scratch BK array              10000
 max len of scratch array in speh3          662
 max len of scratch index in speh4           32
 max int batch size is                      520
 min int batch size is                       52
 fixed nKL is                                31
 max L of basis functions is                  3
 order of int derivative is                   0
 number of shells is                         61
 number of basis is                         227
 number of cartesian basis is               227
 number of contracted shell pairs          1820
 number of primitive shell pairs           7952
 maxK2 (contraction) of shell pair          169
 max number of K2 of shell pair               1
 max number of CS2 of shell pair            226
 max number of PS2 of shell pair           1014
 mem total for path MDJ                  604144
 -------------------------------------------------------
 Smallest overlap matrix eigenvalue = 8.14E-05

 Scale SEOQF with 1.000000e-01/1.000000e-01/1.000000e-01

 Standard Electronic Orientation quadrupole field applied
 Nucleus-field energy     =    -0.0000000053 hartrees
 Guess from superposition of atomic densities
 Warning:  Energy on first SCF cycle will be non-variational
 SAD guess density has 30.000000 electrons

 -----------------------------------------------------------------------
  General SCF calculation program by
  Eric Jon Sundstrom, Paul Horn, Yuezhi Mao, Dmitri Zuev, Alec White,
  David Stuck, Shaama M.S., Shane Yost, Joonho Lee, David Small,
  Daniel Levine, Susi Lehtola, Hugh Burton, Evgeny Epifanovsky
 -----------------------------------------------------------------------
 Exchange:     0.5000 Hartree-Fock + 1.0000 PWPB95-D3
 Correlation:  0.7310 PWPB95-D3
 Using Euler-Maclaurin-Lebedev (99,590) quadrature formula
 Dispersion:   Grimme D3
Running Object-Oriented RKS (RHF)
We will preform up to 15 macro iterations over saddle points until a stable solution is found
Energy prior to optimization (guess energy) = -511.308225318196
Begin Timing: Total SCF Calculation
Begin Timing: SCF Single Stationary Point Calculation
begin iterations for algorithm: GDM          
the SCF tolerance is set to 1.00e-08
    1    -511.3082253182      1.36e-01     00000  Normal BFGS step
    2    -511.2284323158      2.35e-01     00000 Line search: overstep
    3    -511.3458770728      3.41e-02     00000  Normal BFGS step
    4    -511.3499327001      1.83e-02     00000  Normal BFGS step
    5    -511.3502252960      1.75e-02     00000  Normal BFGS step
    6    -511.3506912135      7.50e-04     00000  Normal BFGS step
    7    -511.3506975295      3.17e-04     00000  Normal BFGS step
    8    -511.3506987076      4.32e-05     00000  Normal BFGS step
    9    -511.3506987158      7.92e-06     00000  Normal BFGS step
   10    -511.3506987170      2.19e-06     00000  Normal BFGS step
   11    -511.3506987170      4.31e-07     00000  Normal BFGS step
   12    -511.3506987170      1.15e-07     00000  Normal BFGS step
   13    -511.3506987170      4.64e-08     00000  Normal BFGS step
   14    -511.3506987170      2.61e-08     00000  Normal BFGS step
   15    -511.3506987170      2.28e-08     00000  Normal BFGS step
   16    -511.3506987170      8.19e-10     00000 Convergence criterion met
Timing for Single Stationary Point: 128.00s (wall), 1014.95s (cpu)
Begin Timing: Stability
===================================================
Beginning Test for Internal Stability
===================================================
generating davidson guess vectors based on koopmans excitations
    1      1.69e+00     00000 Davidson Iteration
    2      1.19e+00     00000 Davidson Iteration
    3      5.86e-01     00000 Davidson Iteration
    4      1.17e-01     00000 Davidson Iteration
    5      4.27e-02     00000 Davidson Iteration
    6      1.73e-02     00000 Davidson Iteration
    7      5.22e-03     00000 Davidson Iteration
    8      1.61e-03     00000 Davidson Iteration
    9      9.64e-04     00000 Davidson Iteration
   10      1.85e-04     00000 Davidson Iteration
   11      4.66e-05     00000 Davidson Converged
converged_eigenvalues
   0.7800
   0.7800
Threshold for negative eigenvalues: -1.0e-05
solution was a local minimum (stable)
===================================================
End Test for Internal Stability
===================================================
Our SCF solution is stable!
Timing for Total SCF: 255.00s (wall), 2022.75s (cpu)
 Total energy in the final basis set =     -511.3506987170
    ==================================================
              The end of Object-Oriented SCFman       
    ==================================================
 
 Components of the MP2 correlation energy:
        aaaa  correlation energy =         0.0000000000 au
        abab  correlation energy =        -0.2338912269 au
        bbbb  correlation energy =         0.0000000000 au
        non-Brillouin singles    =        -0.0000000000 au

 Total  MP2   correlation energy =                    -0.23389123 au
        MP2         total energy =                  -511.58458994 au
 
 --------------------------------------------------------------
 
                    Orbital Energies (a.u.)
 --------------------------------------------------------------
 
 Alpha MOs
 -- Occupied --
-90.065 -19.759 -10.749  -8.350  -6.211  -6.206  -6.206  -1.275
 -0.922  -0.639  -0.550  -0.550  -0.537  -0.352  -0.352
 -- Virtual --
  0.007   0.007   0.017   0.042   0.063   0.063   0.072   0.094
  0.094   0.125   0.168   0.177   0.177   0.189   0.189   0.202
  0.206   0.302   0.302   0.305   0.305   0.326   0.389   0.391
  0.391   0.451   0.451   0.508   0.531   0.570   0.570   0.570
  0.570   0.609   0.634   0.634   0.670   0.670   0.730   0.730
  0.760   0.794   0.794   0.813   0.813   0.835   0.946   1.003
  1.003   1.014   1.034   1.034   1.080   1.080   1.099   1.099
  1.116   1.262   1.335   1.365   1.365   1.443   1.443   1.511
  1.511   1.628   1.727   1.727   1.832   1.864   1.864   2.009
  2.009   2.042   2.042   2.104   2.104   2.133   2.133   2.191
  2.191   2.194   2.228   2.228   2.373   2.427   2.501   2.501
  2.542   2.588   2.588   2.758   2.758   2.857   2.989   2.989
  3.083   3.188   3.188   3.191   3.191   3.414   3.530   3.530
  3.584   3.584   3.896   3.896   4.005   4.220   4.771   4.887
  4.887   5.475   6.172   6.172   6.314   6.494   6.494   6.749
  6.749   6.907   6.907   7.127   7.136   7.136   8.156   8.350
  8.350   8.582   8.582   9.303  10.593  10.593  11.418  14.835
 15.257  15.257  16.715  16.963  25.852  25.852  26.831  29.113
 31.170  31.170  31.170  31.170  31.181  31.181  31.184  38.710
 38.710  38.799  38.799  39.203  40.648  40.648  40.810  40.810
 41.130  43.161  43.161  43.307  43.307  43.564  46.453  46.453
 47.270  80.237  80.237  81.360  85.595  85.950 137.182 137.182
138.058 149.102
 --------------------------------------------------------------
 
          Ground-State Mulliken Net Atomic Charges

     Atom                 Charge (a.u.)
  ----------------------------------------
      1 C                     0.116996
      2 O                    -0.274364
      3 S                     0.157368
  ----------------------------------------
  Sum of atomic charges =    -0.000000

 -----------------------------------------------------------------
                    Cartesian Multipole Moments
 -----------------------------------------------------------------
    Charge (ESU x 10^10)
                -0.0000
    Dipole Moment (Debye)
         X      -0.0000      Y      -0.0000      Z      -0.8422
       Tot       0.8422
    Quadrupole Moments (Debye-Ang)
        XX     -23.3646     XY      -0.0000     YY     -23.3646
        XZ       0.0000     YZ       0.0000     ZZ     -23.6541
    Octopole Moments (Debye-Ang^2)
       XXX      -0.0000    XXY       0.0000    XYY      -0.0000
       YYY       0.0000    XXZ      14.8632    XYZ       0.0000
       YYZ      14.8632    XZZ      -0.0000    YZZ      -0.0000
       ZZZ      32.9830
    Hexadecapole Moments (Debye-Ang^3)
      XXXX     -27.2037   XXXY      -0.0000   XXYY      -9.0679
      XYYY      -0.0000   YYYY     -27.2037   XXXZ       0.0000
      XXYZ      -0.0000   XYYZ       0.0000   YYYZ      -0.0000
      XXZZ     -47.7801   XYZZ      -0.0000   YYZZ     -47.7801
      XZZZ       0.0000   YZZZ      -0.0000   ZZZZ    -232.6794
 -----------------------------------------------------------------
Archival summary:
1\1\n0081.mhg0\SP\ProcedureUnspecified\BasisUnspecified\111\yhljason\FriOct901:21:162020FriOct901:21:162020\0\\#,ProcedureUnspecified,BasisUnspecified,\\0,1\S\C,1,1.56\O,2,1.16,1,180\\\@

 Total job time:  334.35s(wall), 2637.09s(cpu) 
 Fri Oct  9 01:21:16 2020

        *************************************************************
        *                                                           *
        *  Thank you very much for using Q-Chem.  Have a nice day.  *
        *                                                           *
        *************************************************************


 
User input: 2 of 83 of 8 
 
Q-Chem Developer Version!
                  Welcome to Q-Chem
     A Quantum Leap Into The Future Of Chemistry


 Q-Chem 5.1, Q-Chem, Inc., Pleasanton, CA (2018)

 Yihan Shao,  Zhengting Gan,  E. Epifanovsky,  A. T. B. Gilbert,  M. Wormit,  
 J. Kussmann,  A. W. Lange,  A. Behn,  Jia Deng,  Xintian Feng,  D. Ghosh,  
 M. Goldey,  P. R. Horn,  L. D. Jacobson,  I. Kaliman,  T. Kus,  A. Landau,  
 Jie Liu,  E. I. Proynov,  R. M. Richard,  R. P. Steele,  E. J. Sundstrom,  
 H. L. Woodcock III,  P. M. Zimmerman,  D. Zuev,  B. Albrecht,  E. Alguire,  
 S. A. Baeppler,  D. Barton,  Z. Benda,  Y. A. Bernard,  E. J. Berquist,  
 K. B. Bravaya,  H. Burton,  D. Casanova,  Chun-Min Chang,  Yunqing Chen,  
 A. Chien,  K. D. Closser,  M. P. Coons,  S. Coriani,  S. Dasgupta,  
 A. L. Dempwolff,  M. Diedenhofen,  Hainam Do,  R. G. Edgar,  Po-Tung Fang,  
 S. Faraji,  S. Fatehi,  Qingguo Feng,  K. D. Fenk,  J. Fosso-Tande,  
 Qinghui Ge,  A. Ghysels,  G. Gidofalvi,  J. Gomes,  J. Gonthier,  A. Gunina,  
 D. Hait,  M. W. D. Hanson-Heine,  P. H. P. Harbach,  A. W. Hauser,  
 J. E. Herr,  E. G. Hohenstein,  Z. C. Holden,  Kerwin Hui,  B. C. Huynh,  
 T.-C. Jagau,  Hyunjun Ji,  B. Kaduk,  K. Khistyaev,  Jaehoon Kim,  
 P. Klunzinger,  K. Koh,  D. Kosenkov,  L. Koulias,  T. Kowalczyk,  
 C. M. Krauter,  A. Kunitsa,  Ka Un Lao,  A. Laurent,  K. V. Lawler,  
 Joonho Lee,  D. Lefrancois,  S. Lehtola,  D. S. Levine,  Yi-Pei Li,  
 You-Sheng Lin,  Fenglai Liu,  E. Livshits,  A. Luenser,  P. Manohar,  
 E. Mansoor,  S. F. Manzer,  Shan-Ping Mao,  Yuezhi Mao,  N. Mardirossian,  
 A. V. Marenich,  T. Markovich,  L. A. Martinez-Martinez,  S. A. Maurer,  
 N. J. Mayhall,  S. C. McKenzie,  J.-M. Mewes,  A. F. Morrison,  
 J. W. Mullinax,  K. Nanda,  T. S. Nguyen-Beck,  R. Olivares-Amaya,  
 J. A. Parkhill,  T. M. Perrine,  F. Plasser,  P. Pokhilko,  S. Prager,  
 A. Prociuk,  E. Ramos,  D. R. Rehn,  F. Rob,  M. Schneider,  N. Sergueev,  
 S. M. Sharada,  S. Sharma,  D. W. Small,  T. Stauch,  T. Stein,  
 Yu-Chuan Su,  A. J. W. Thom,  A. Tkatchenko,  T. Tsuchimochi,  N. M. Tubman,  
 L. Vogt,  M. L. Vidal,  O. Vydrov,  M. A. Watson,  J. Wenzel,  
 M. de Wergifosse,  T. A. Wesolowski,  A. White,  J. Witte,  A. Yamada,  
 Jun Yang,  K. Yao,  S. Yeganeh,  S. R. Yost,  Zhi-Qiang You,  A. Zech,  
 Igor Ying Zhang,  Xing Zhang,  Yan Zhao,  Ying Zhu,  B. R. Brooks,  
 G. K. L. Chan,  C. J. Cramer,  M. S. Gordon,  W. J. Hehre,  A. Klamt,  
 M. W. Schmidt,  C. D. Sherrill,  D. G. Truhlar,  A. Aspuru-Guzik,  R. Baer,  
 A. T. Bell,  N. A. Besley,  Jeng-Da Chai,  A. E. DePrince, III,  
 R. A. DiStasio Jr.,  A. Dreuw,  B. D. Dunietz,  T. R. Furlani,  
 Chao-Ping Hsu,  Yousung Jung,  Jing Kong,  D. S. Lambrecht,  WanZhen Liang,  
 C. Ochsenfeld,  V. A. Rassolov,  L. V. Slipchenko,  J. E. Subotnik,  
 T. Van Voorhis,  J. M. Herbert,  A. I. Krylov,  P. M. W. Gill,  M. Head-Gordon

 Contributors to earlier versions of Q-Chem not listed above: 
 R. D. Adamson,  B. Austin,  J. Baker,  G. J. O. Beran,  K. Brandhorst,  
 S. T. Brown,  E. F. C. Byrd,  A. K. Chakraborty,  C.-L. Cheng,  
 Siu Hung Chien,  D. M. Chipman,  D. L. Crittenden,  H. Dachsel,  
 R. J. Doerksen,  A. D. Dutoi,  L. Fusti-Molnar,  W. A. Goddard III,  
 A. Golubeva-Zadorozhnaya,  S. R. Gwaltney,  G. Hawkins,  A. Heyden,  
 S. Hirata,  G. Kedziora,  F. J. Keil,  C. Kelley,  Jihan Kim,  R. A. King,  
 R. Z. Khaliullin,  P. P. Korambath,  W. Kurlancheek,  A. M. Lee,  M. S. Lee,  
 S. V. Levchenko,  Ching Yeh Lin,  D. Liotard,  R. C. Lochan,  I. Lotan,  
 P. E. Maslen,  N. Nair,  D. P. O'Neill,  D. Neuhauser,  E. Neuscamman,  
 C. M. Oana,  R. Olson,  B. Peters,  R. Peverati,  P. A. Pieniazek,  
 Y. M. Rhee,  J. Ritchie,  M. A. Rohrdanz,  E. Rosta,  N. J. Russ,  
 H. F. Schaefer III,  N. E. Schultz,  N. Shenvi,  A. C. Simmonett,  A. Sodt,  
 D. Stuck,  K. S. Thanthiriwatte,  V. Vanovschi,  Tao Wang,  A. Warshel,  
 C. F. Williams,  Q. Wu,  X. Xu,  W. Zhang

 Please cite Q-Chem as follows:
 Y. Shao et al., Mol. Phys. 113, 184-215 (2015)
 DOI: 10.1080/00268976.2014.952696

 Q-Chem 5.1.1 for Intel X86 EM64T Linux

 Parts of Q-Chem use Armadillo 8.300.2 (Tropical Shenanigans).
 http://arma.sourceforge.net/

 Q-Chem begins on Fri Oct  9 01:21:24 2020  

Host: n0081.mhg0
0

     Scratch files written to /local/scratch/users/yhljason/CSO_PWPB95-D3_aug-cc-pcVTZ.inp20201008191748//
The previous job contains 0 fragments, simply inherited here
Input Ideriv = 0
Curr. Ideriv = -1
Max.  Ideriv = 0
Analytic post-HF gradients are not available with non-HF exchange
Input Ideriv = 0
Curr. Ideriv = 0
Max.  Ideriv = 0

Checking the input file for inconsistencies... 	...done.

--------------------------------------------------------------
User input:
--------------------------------------------------------------
$molecule
read
$end

$rem

jobtype sp
method PWPB95-D3
xc_grid 000099000590
basis aug-cc-pcVTZ
max_scf_cycles 200
thresh 14
scf_convergence 8
mem_total 128000
cc_memory 96000
cc_backend xm
mem_static 1500
symmetry false
sym_ignore true
scf_guess read
unrestricted false
scf_algorithm gdm
n_frozen_core 0
$end

$multipole_field
XX 0.0001
$end


--------------------------------------------------------------
 Adding empirical dispersion correction 
 ----------------------------------------------------------------
 Doing -D3(0) with
 s6  =   0.82000
 s8  =   0.70500
 rs6 =   1.55700
 rs8 =   1.00000
 -D3 energy without 3body term =     -0.0001133449 hartrees
 ----------------------------------------------------------------
             Standard Nuclear Orientation (Angstroms)
    I     Atom           X                Y                Z
 ----------------------------------------------------------------
    1      C       0.0000000000     0.0000000000     0.0000000000
    2      O       0.0000000000     0.0000000000     1.1600000000
    3      S       0.0000000000     0.0000000000    -1.5600000000
 ----------------------------------------------------------------
 Nuclear Repulsion Energy =    79.3640831009 hartrees
 There are       15 alpha and       15 beta electrons
 Requested basis set is aug-cc-pCVTZ
 There are 61 shells and 193 basis functions

 Total QAlloc Memory Limit 128000 MB
 Mega-Array Size      1467 MB
 MEM_STATIC part      1500 MB

                       Distance Matrix (Angstroms)
             C (  1)   O (  2)
   O (  2)  1.160000
   S (  3)  1.560000  2.720000
 
 Applying Cartesian multipole field
    Component          Value
    ---------          -----
     (2,0,0)        1.00000E-04
 A cutoff of  1.0D-14 yielded   1820 shell pairs
 There are     18324 function pairs (     25483 Cartesian)
 
 -------------------------------------------------------
 OpenMP Integral Computing Module                       
 Release: version 1.0, May 2013, Q-Chem Inc. Pittsburgh 
 -------------------------------------------------------
 Integral Job Info:
 Integral job number is                      11
 Integral operator is                         1
 short-range coefficients                     0
 long-range coefficients              100000000
 Omega coefficients                           0
 if combine SR and LR in K                    0
 Integral screening is                        0
 Integral computing path is                   2
 max size of driver memory is            800000
 size of driver memory is                776718
 size of scratch memory is             29531563
 max col of scratch BK array              10000
 max len of scratch array in speh3          662
 max len of scratch index in speh4           32
 max int batch size is                      520
 min int batch size is                       52
 fixed nKL is                                31
 max L of basis functions is                  3
 order of int derivative is                   0
 number of shells is                         61
 number of basis is                         227
 number of cartesian basis is               227
 number of contracted shell pairs          1820
 number of primitive shell pairs           7952
 maxK2 (contraction) of shell pair          169
 max number of K2 of shell pair               1
 max number of CS2 of shell pair            226
 max number of PS2 of shell pair           1014
 mem total for path MDJ                  604144
 -------------------------------------------------------
 Smallest overlap matrix eigenvalue = 8.14E-05
 Guess MOs from SCF MO coefficient file

 -----------------------------------------------------------------------
  General SCF calculation program by
  Eric Jon Sundstrom, Paul Horn, Yuezhi Mao, Dmitri Zuev, Alec White,
  David Stuck, Shaama M.S., Shane Yost, Joonho Lee, David Small,
  Daniel Levine, Susi Lehtola, Hugh Burton, Evgeny Epifanovsky
 -----------------------------------------------------------------------
 Exchange:     0.5000 Hartree-Fock + 1.0000 PWPB95-D3
 Correlation:  0.7310 PWPB95-D3
 Using Euler-Maclaurin-Lebedev (99,590) quadrature formula
 Dispersion:   Grimme D3
 using 8 threads for integral computing
 -------------------------------------------------------
 OpenMP Integral computing Module                
 Release: version 2.0, May 2017, Q-Chem Inc. Pleasanton 
 -------------------------------------------------------
 -------------------------------------------------------
 OpenMP BLAS3 based DFT computing Module                
 Release: version 1.0, May 2013, Q-Chem Inc. Pittsburgh 
 -------------------------------------------------------
 A restricted SCF calculation will be
 performed using GDM
 SCF converges when RMS gradient is below 1.0e-08
 ---------------------------------------
  Cycle       Energy        RMS Gradient
 ---------------------------------------
    1    -511.3524358209      3.24e-04   Normal BFGS step
    2    -511.3524363606      8.89e-05   Normal BFGS step
    3    -511.3524363926      1.04e-04   Normal BFGS step
    4    -511.3524364082      3.79e-05   Normal BFGS step
    5    -511.3524364135      7.32e-06   Normal BFGS step
    6    -511.3524364140      6.52e-06   Normal BFGS step
    7    -511.3524364140      2.99e-06   Normal BFGS step
    8    -511.3524364141      7.27e-07   Normal BFGS step
    9    -511.3524364141      2.55e-07   Normal BFGS step
   10    -511.3524364141      7.13e-08   Normal BFGS step
   11    -511.3524364141      7.95e-09  Convergence criterion met
 ---------------------------------------
 SCF time:   CPU 772.27s  wall 98.00s 
 SCF   energy in the final basis set =     -511.3524364141
 Total energy in the final basis set =     -511.3524364141
 
 Components of the MP2 correlation energy:
        aaaa  correlation energy =         0.0000000000 au
        abab  correlation energy =        -0.2338877127 au
        bbbb  correlation energy =         0.0000000000 au
        non-Brillouin singles    =        -0.0000000000 au

 Total  MP2   correlation energy =                    -0.23388771 au
        MP2         total energy =                  -511.58632413 au
 
 --------------------------------------------------------------
 
                    Orbital Energies (a.u.)
 --------------------------------------------------------------
 
 Alpha MOs
 -- Occupied --
-90.065 -19.760 -10.749  -8.351  -6.211  -6.207  -6.207  -1.275
 -0.922  -0.639  -0.550  -0.550  -0.538  -0.353  -0.353
 -- Virtual --
  0.007   0.007   0.015   0.041   0.060   0.062   0.071   0.092
  0.093   0.124   0.167   0.177   0.177   0.187   0.188   0.201
  0.204   0.301   0.301   0.304   0.305   0.326   0.388   0.389
  0.390   0.449   0.450   0.507   0.530   0.569   0.569   0.569
  0.569   0.608   0.633   0.634   0.669   0.669   0.730   0.730
  0.760   0.794   0.794   0.812   0.813   0.834   0.946   1.002
  1.003   1.014   1.033   1.033   1.079   1.079   1.098   1.099
  1.116   1.262   1.334   1.364   1.364   1.442   1.442   1.511
  1.511   1.628   1.726   1.726   1.831   1.864   1.864   2.008
  2.008   2.041   2.042   2.104   2.104   2.133   2.133   2.191
  2.191   2.194   2.228   2.228   2.372   2.427   2.501   2.501
  2.542   2.588   2.588   2.757   2.758   2.857   2.988   2.989
  3.083   3.187   3.187   3.191   3.191   3.414   3.530   3.530
  3.583   3.583   3.896   3.896   4.005   4.220   4.770   4.887
  4.887   5.475   6.171   6.171   6.313   6.494   6.494   6.749
  6.749   6.907   6.907   7.127   7.136   7.136   8.155   8.349
  8.349   8.581   8.582   9.303  10.593  10.593  11.418  14.835
 15.257  15.257  16.715  16.962  25.851  25.851  26.831  29.113
 31.169  31.169  31.169  31.169  31.180  31.180  31.184  38.709
 38.709  38.799  38.799  39.203  40.647  40.647  40.809  40.809
 41.130  43.160  43.160  43.307  43.307  43.564  46.453  46.453
 47.270  80.237  80.237  81.360  85.595  85.950 137.182 137.182
138.057 149.101
 --------------------------------------------------------------
 
          Ground-State Mulliken Net Atomic Charges

     Atom                 Charge (a.u.)
  ----------------------------------------
      1 C                     0.117314
      2 O                    -0.273959
      3 S                     0.156645
  ----------------------------------------
  Sum of atomic charges =     0.000000

 -----------------------------------------------------------------
                    Cartesian Multipole Moments
 -----------------------------------------------------------------
    Charge (ESU x 10^10)
                 0.0000
    Dipole Moment (Debye)
         X      -0.0000      Y       0.0000      Z      -0.8397
       Tot       0.8397
    Quadrupole Moments (Debye-Ang)
        XX     -23.3806     XY      -0.0000     YY     -23.3681
        XZ       0.0000     YZ      -0.0000     ZZ     -23.6568
    Octopole Moments (Debye-Ang^2)
       XXX      -0.0000    XXY       0.0000    XYY      -0.0000
       YYY       0.0000    XXZ      14.8827    XYZ       0.0000
       YYZ      14.8678    XZZ      -0.0000    YZZ       0.0000
       ZZZ      32.9950
    Hexadecapole Moments (Debye-Ang^3)
      XXXX     -27.2765   XXXY      -0.0000   XXYY      -9.0832
      XYYY      -0.0000   YYYY     -27.2230   XXXZ       0.0000
      XXYZ      -0.0000   XYYZ       0.0000   YYYZ      -0.0000
      XXZZ     -47.8266   XYZZ      -0.0000   YYZZ     -47.7914
      XZZZ       0.0000   YZZZ      -0.0000   ZZZZ    -232.7118
 -----------------------------------------------------------------
Archival summary:
1\1\n0081.mhg0\SP\ProcedureUnspecified\BasisUnspecified\111\yhljason\FriOct901:24:072020FriOct901:24:072020\0\\#,ProcedureUnspecified,BasisUnspecified,\\0,1\S\C,1,1.56\O,2,1.16,1,180\\\@

 Total job time:  163.15s(wall), 1280.91s(cpu) 
 Fri Oct  9 01:24:07 2020

        *************************************************************
        *                                                           *
        *  Thank you very much for using Q-Chem.  Have a nice day.  *
        *                                                           *
        *************************************************************


 
User input: 4 of 8 
 
Q-Chem Developer Version!
                  Welcome to Q-Chem
     A Quantum Leap Into The Future Of Chemistry


 Q-Chem 5.1, Q-Chem, Inc., Pleasanton, CA (2018)

 Yihan Shao,  Zhengting Gan,  E. Epifanovsky,  A. T. B. Gilbert,  M. Wormit,  
 J. Kussmann,  A. W. Lange,  A. Behn,  Jia Deng,  Xintian Feng,  D. Ghosh,  
 M. Goldey,  P. R. Horn,  L. D. Jacobson,  I. Kaliman,  T. Kus,  A. Landau,  
 Jie Liu,  E. I. Proynov,  R. M. Richard,  R. P. Steele,  E. J. Sundstrom,  
 H. L. Woodcock III,  P. M. Zimmerman,  D. Zuev,  B. Albrecht,  E. Alguire,  
 S. A. Baeppler,  D. Barton,  Z. Benda,  Y. A. Bernard,  E. J. Berquist,  
 K. B. Bravaya,  H. Burton,  D. Casanova,  Chun-Min Chang,  Yunqing Chen,  
 A. Chien,  K. D. Closser,  M. P. Coons,  S. Coriani,  S. Dasgupta,  
 A. L. Dempwolff,  M. Diedenhofen,  Hainam Do,  R. G. Edgar,  Po-Tung Fang,  
 S. Faraji,  S. Fatehi,  Qingguo Feng,  K. D. Fenk,  J. Fosso-Tande,  
 Qinghui Ge,  A. Ghysels,  G. Gidofalvi,  J. Gomes,  J. Gonthier,  A. Gunina,  
 D. Hait,  M. W. D. Hanson-Heine,  P. H. P. Harbach,  A. W. Hauser,  
 J. E. Herr,  E. G. Hohenstein,  Z. C. Holden,  Kerwin Hui,  B. C. Huynh,  
 T.-C. Jagau,  Hyunjun Ji,  B. Kaduk,  K. Khistyaev,  Jaehoon Kim,  
 P. Klunzinger,  K. Koh,  D. Kosenkov,  L. Koulias,  T. Kowalczyk,  
 C. M. Krauter,  A. Kunitsa,  Ka Un Lao,  A. Laurent,  K. V. Lawler,  
 Joonho Lee,  D. Lefrancois,  S. Lehtola,  D. S. Levine,  Yi-Pei Li,  
 You-Sheng Lin,  Fenglai Liu,  E. Livshits,  A. Luenser,  P. Manohar,  
 E. Mansoor,  S. F. Manzer,  Shan-Ping Mao,  Yuezhi Mao,  N. Mardirossian,  
 A. V. Marenich,  T. Markovich,  L. A. Martinez-Martinez,  S. A. Maurer,  
 N. J. Mayhall,  S. C. McKenzie,  J.-M. Mewes,  A. F. Morrison,  
 J. W. Mullinax,  K. Nanda,  T. S. Nguyen-Beck,  R. Olivares-Amaya,  
 J. A. Parkhill,  T. M. Perrine,  F. Plasser,  P. Pokhilko,  S. Prager,  
 A. Prociuk,  E. Ramos,  D. R. Rehn,  F. Rob,  M. Schneider,  N. Sergueev,  
 S. M. Sharada,  S. Sharma,  D. W. Small,  T. Stauch,  T. Stein,  
 Yu-Chuan Su,  A. J. W. Thom,  A. Tkatchenko,  T. Tsuchimochi,  N. M. Tubman,  
 L. Vogt,  M. L. Vidal,  O. Vydrov,  M. A. Watson,  J. Wenzel,  
 M. de Wergifosse,  T. A. Wesolowski,  A. White,  J. Witte,  A. Yamada,  
 Jun Yang,  K. Yao,  S. Yeganeh,  S. R. Yost,  Zhi-Qiang You,  A. Zech,  
 Igor Ying Zhang,  Xing Zhang,  Yan Zhao,  Ying Zhu,  B. R. Brooks,  
 G. K. L. Chan,  C. J. Cramer,  M. S. Gordon,  W. J. Hehre,  A. Klamt,  
 M. W. Schmidt,  C. D. Sherrill,  D. G. Truhlar,  A. Aspuru-Guzik,  R. Baer,  
 A. T. Bell,  N. A. Besley,  Jeng-Da Chai,  A. E. DePrince, III,  
 R. A. DiStasio Jr.,  A. Dreuw,  B. D. Dunietz,  T. R. Furlani,  
 Chao-Ping Hsu,  Yousung Jung,  Jing Kong,  D. S. Lambrecht,  WanZhen Liang,  
 C. Ochsenfeld,  V. A. Rassolov,  L. V. Slipchenko,  J. E. Subotnik,  
 T. Van Voorhis,  J. M. Herbert,  A. I. Krylov,  P. M. W. Gill,  M. Head-Gordon

 Contributors to earlier versions of Q-Chem not listed above: 
 R. D. Adamson,  B. Austin,  J. Baker,  G. J. O. Beran,  K. Brandhorst,  
 S. T. Brown,  E. F. C. Byrd,  A. K. Chakraborty,  C.-L. Cheng,  
 Siu Hung Chien,  D. M. Chipman,  D. L. Crittenden,  H. Dachsel,  
 R. J. Doerksen,  A. D. Dutoi,  L. Fusti-Molnar,  W. A. Goddard III,  
 A. Golubeva-Zadorozhnaya,  S. R. Gwaltney,  G. Hawkins,  A. Heyden,  
 S. Hirata,  G. Kedziora,  F. J. Keil,  C. Kelley,  Jihan Kim,  R. A. King,  
 R. Z. Khaliullin,  P. P. Korambath,  W. Kurlancheek,  A. M. Lee,  M. S. Lee,  
 S. V. Levchenko,  Ching Yeh Lin,  D. Liotard,  R. C. Lochan,  I. Lotan,  
 P. E. Maslen,  N. Nair,  D. P. O'Neill,  D. Neuhauser,  E. Neuscamman,  
 C. M. Oana,  R. Olson,  B. Peters,  R. Peverati,  P. A. Pieniazek,  
 Y. M. Rhee,  J. Ritchie,  M. A. Rohrdanz,  E. Rosta,  N. J. Russ,  
 H. F. Schaefer III,  N. E. Schultz,  N. Shenvi,  A. C. Simmonett,  A. Sodt,  
 D. Stuck,  K. S. Thanthiriwatte,  V. Vanovschi,  Tao Wang,  A. Warshel,  
 C. F. Williams,  Q. Wu,  X. Xu,  W. Zhang

 Please cite Q-Chem as follows:
 Y. Shao et al., Mol. Phys. 113, 184-215 (2015)
 DOI: 10.1080/00268976.2014.952696

 Q-Chem 5.1.1 for Intel X86 EM64T Linux

 Parts of Q-Chem use Armadillo 8.300.2 (Tropical Shenanigans).
 http://arma.sourceforge.net/

 Q-Chem begins on Fri Oct  9 01:24:07 2020  

Host: n0081.mhg0
0

     Scratch files written to /local/scratch/users/yhljason/CSO_PWPB95-D3_aug-cc-pcVTZ.inp20201008191748//
The previous job contains 0 fragments, simply inherited here
Input Ideriv = 0
Curr. Ideriv = -1
Max.  Ideriv = 0
Analytic post-HF gradients are not available with non-HF exchange
Input Ideriv = 0
Curr. Ideriv = 0
Max.  Ideriv = 0

Checking the input file for inconsistencies... 	...done.

--------------------------------------------------------------
User input:
--------------------------------------------------------------
$molecule
read
$end

$rem

jobtype sp
method PWPB95-D3
xc_grid 000099000590
basis aug-cc-pcVTZ
max_scf_cycles 200
thresh 14
scf_convergence 8
mem_total 128000
cc_memory 96000
cc_backend xm
mem_static 1500
symmetry false
sym_ignore true
scf_guess read
unrestricted false
scf_algorithm gdm
n_frozen_core 0
$end

$multipole_field
XX -0.0001
$end


--------------------------------------------------------------
 Adding empirical dispersion correction 
 ----------------------------------------------------------------
 Doing -D3(0) with
 s6  =   0.82000
 s8  =   0.70500
 rs6 =   1.55700
 rs8 =   1.00000
 -D3 energy without 3body term =     -0.0001133449 hartrees
 ----------------------------------------------------------------
             Standard Nuclear Orientation (Angstroms)
    I     Atom           X                Y                Z
 ----------------------------------------------------------------
    1      C       0.0000000000     0.0000000000     0.0000000000
    2      O       0.0000000000     0.0000000000     1.1600000000
    3      S       0.0000000000     0.0000000000    -1.5600000000
 ----------------------------------------------------------------
 Nuclear Repulsion Energy =    79.3640831009 hartrees
 There are       15 alpha and       15 beta electrons
 Requested basis set is aug-cc-pCVTZ
 There are 61 shells and 193 basis functions

 Total QAlloc Memory Limit 128000 MB
 Mega-Array Size      1467 MB
 MEM_STATIC part      1500 MB

                       Distance Matrix (Angstroms)
             C (  1)   O (  2)
   O (  2)  1.160000
   S (  3)  1.560000  2.720000
 
 Applying Cartesian multipole field
    Component          Value
    ---------          -----
     (2,0,0)       -1.00000E-04
 A cutoff of  1.0D-14 yielded   1820 shell pairs
 There are     18324 function pairs (     25483 Cartesian)
 
 -------------------------------------------------------
 OpenMP Integral Computing Module                       
 Release: version 1.0, May 2013, Q-Chem Inc. Pittsburgh 
 -------------------------------------------------------
 Integral Job Info:
 Integral job number is                      11
 Integral operator is                         1
 short-range coefficients                     0
 long-range coefficients              100000000
 Omega coefficients                           0
 if combine SR and LR in K                    0
 Integral screening is                        0
 Integral computing path is                   2
 max size of driver memory is            800000
 size of driver memory is                776718
 size of scratch memory is             29531563
 max col of scratch BK array              10000
 max len of scratch array in speh3          662
 max len of scratch index in speh4           32
 max int batch size is                      520
 min int batch size is                       52
 fixed nKL is                                31
 max L of basis functions is                  3
 order of int derivative is                   0
 number of shells is                         61
 number of basis is                         227
 number of cartesian basis is               227
 number of contracted shell pairs          1820
 number of primitive shell pairs           7952
 maxK2 (contraction) of shell pair          169
 max number of K2 of shell pair               1
 max number of CS2 of shell pair            226
 max number of PS2 of shell pair           1014
 mem total for path MDJ                  604144
 -------------------------------------------------------
 Smallest overlap matrix eigenvalue = 8.14E-05
 Guess MOs from SCF MO coefficient file

 -----------------------------------------------------------------------
  General SCF calculation program by
  Eric Jon Sundstrom, Paul Horn, Yuezhi Mao, Dmitri Zuev, Alec White,
  David Stuck, Shaama M.S., Shane Yost, Joonho Lee, David Small,
  Daniel Levine, Susi Lehtola, Hugh Burton, Evgeny Epifanovsky
 -----------------------------------------------------------------------
 Exchange:     0.5000 Hartree-Fock + 1.0000 PWPB95-D3
 Correlation:  0.7310 PWPB95-D3
 Using Euler-Maclaurin-Lebedev (99,590) quadrature formula
 Dispersion:   Grimme D3
 using 8 threads for integral computing
 -------------------------------------------------------
 OpenMP Integral computing Module                
 Release: version 2.0, May 2017, Q-Chem Inc. Pleasanton 
 -------------------------------------------------------
 -------------------------------------------------------
 OpenMP BLAS3 based DFT computing Module                
 Release: version 1.0, May 2013, Q-Chem Inc. Pittsburgh 
 -------------------------------------------------------
 A restricted SCF calculation will be
 performed using GDM
 SCF converges when RMS gradient is below 1.0e-08
 ---------------------------------------
  Cycle       Energy        RMS Gradient
 ---------------------------------------
    1    -511.3489598306      6.56e-04   Normal BFGS step
    2    -511.3489619905      1.78e-04   Normal BFGS step
    3    -511.3489621173      2.10e-04   Normal BFGS step
    4    -511.3489621801      7.58e-05   Normal BFGS step
    5    -511.3489622012      1.46e-05   Normal BFGS step
    6    -511.3489622030      1.30e-05   Normal BFGS step
    7    -511.3489622032      6.03e-06   Normal BFGS step
    8    -511.3489622034      1.45e-06   Normal BFGS step
    9    -511.3489622034      5.11e-07   Normal BFGS step
   10    -511.3489622034      1.43e-07   Normal BFGS step
   11    -511.3489622034      1.59e-08   Normal BFGS step
   12    -511.3489622034      1.42e-09  Convergence criterion met
 ---------------------------------------
 SCF time:   CPU 825.73s  wall 104.00s 
 SCF   energy in the final basis set =     -511.3489622034
 Total energy in the final basis set =     -511.3489622034
 
 Components of the MP2 correlation energy:
        aaaa  correlation energy =         0.0000000000 au
        abab  correlation energy =        -0.2338947489 au
        bbbb  correlation energy =         0.0000000000 au
        non-Brillouin singles    =        -0.0000000000 au

 Total  MP2   correlation energy =                    -0.23389475 au
        MP2         total energy =                  -511.58285695 au
 
 --------------------------------------------------------------
 
                    Orbital Energies (a.u.)
 --------------------------------------------------------------
 
 Alpha MOs
 -- Occupied --
-90.064 -19.759 -10.748  -8.350  -6.211  -6.206  -6.206  -1.275
 -0.922  -0.638  -0.549  -0.549  -0.537  -0.352  -0.352
 -- Virtual --
  0.007   0.008   0.018   0.044   0.064   0.066   0.073   0.095
  0.097   0.126   0.170   0.178   0.178   0.190   0.191   0.204
  0.207   0.303   0.303   0.306   0.307   0.327   0.389   0.391
  0.392   0.451   0.452   0.508   0.531   0.570   0.570   0.570
  0.570   0.610   0.634   0.635   0.670   0.670   0.731   0.731
  0.761   0.795   0.795   0.813   0.814   0.835   0.947   1.004
  1.004   1.014   1.034   1.034   1.080   1.080   1.099   1.100
  1.117   1.263   1.335   1.365   1.365   1.443   1.443   1.511
  1.512   1.629   1.727   1.727   1.832   1.864   1.865   2.009
  2.009   2.042   2.042   2.104   2.104   2.134   2.134   2.192
  2.192   2.194   2.228   2.228   2.373   2.427   2.501   2.501
  2.542   2.589   2.589   2.758   2.758   2.858   2.989   2.989
  3.084   3.188   3.188   3.192   3.192   3.415   3.530   3.530
  3.584   3.584   3.897   3.897   4.005   4.220   4.771   4.888
  4.888   5.475   6.172   6.172   6.314   6.495   6.495   6.750
  6.750   6.908   6.908   7.127   7.137   7.137   8.156   8.350
  8.350   8.582   8.582   9.304  10.593  10.593  11.418  14.835
 15.258  15.258  16.715  16.963  25.852  25.852  26.831  29.114
 31.170  31.170  31.170  31.170  31.181  31.181  31.184  38.710
 38.710  38.800  38.800  39.204  40.648  40.648  40.810  40.810
 41.131  43.161  43.161  43.307  43.307  43.565  46.453  46.453
 47.270  80.237  80.237  81.360  85.596  85.950 137.182 137.182
138.058 149.102
 --------------------------------------------------------------
 
          Ground-State Mulliken Net Atomic Charges

     Atom                 Charge (a.u.)
  ----------------------------------------
      1 C                     0.116691
      2 O                    -0.274765
      3 S                     0.158073
  ----------------------------------------
  Sum of atomic charges =     0.000000

 -----------------------------------------------------------------
                    Cartesian Multipole Moments
 -----------------------------------------------------------------
    Charge (ESU x 10^10)
                 0.0000
    Dipole Moment (Debye)
         X       0.0000      Y      -0.0000      Z      -0.8446
       Tot       0.8446
    Quadrupole Moments (Debye-Ang)
        XX     -23.3488     XY       0.0000     YY     -23.3612
        XZ      -0.0000     YZ       0.0000     ZZ     -23.6515
    Octopole Moments (Debye-Ang^2)
       XXX       0.0000    XXY      -0.0000    XYY       0.0000
       YYY      -0.0000    XXZ      14.8439    XYZ      -0.0000
       YYZ      14.8587    XZZ      -0.0000    YZZ      -0.0000
       ZZZ      32.9711
    Hexadecapole Moments (Debye-Ang^3)
      XXXX     -27.1320   XXXY       0.0000   XXYY      -9.0528
      XYYY       0.0000   YYYY     -27.1847   XXXZ      -0.0000
      XXYZ       0.0000   XYYZ      -0.0000   YYYZ       0.0000
      XXZZ     -47.7340   XYZZ       0.0000   YYZZ     -47.7690
      XZZZ       0.0000   YZZZ       0.0000   ZZZZ    -232.6474
 -----------------------------------------------------------------
Archival summary:
1\1\n0081.mhg0\SP\ProcedureUnspecified\BasisUnspecified\111\yhljason\FriOct901:26:562020FriOct901:26:562020\0\\#,ProcedureUnspecified,BasisUnspecified,\\0,1\S\C,1,1.56\O,2,1.16,1,180\\\@

 Total job time:  169.02s(wall), 1329.45s(cpu) 
 Fri Oct  9 01:26:56 2020

        *************************************************************
        *                                                           *
        *  Thank you very much for using Q-Chem.  Have a nice day.  *
        *                                                           *
        *************************************************************


 
User input: 5 of 8 
 
Q-Chem Developer Version!
                  Welcome to Q-Chem
     A Quantum Leap Into The Future Of Chemistry


 Q-Chem 5.1, Q-Chem, Inc., Pleasanton, CA (2018)

 Yihan Shao,  Zhengting Gan,  E. Epifanovsky,  A. T. B. Gilbert,  M. Wormit,  
 J. Kussmann,  A. W. Lange,  A. Behn,  Jia Deng,  Xintian Feng,  D. Ghosh,  
 M. Goldey,  P. R. Horn,  L. D. Jacobson,  I. Kaliman,  T. Kus,  A. Landau,  
 Jie Liu,  E. I. Proynov,  R. M. Richard,  R. P. Steele,  E. J. Sundstrom,  
 H. L. Woodcock III,  P. M. Zimmerman,  D. Zuev,  B. Albrecht,  E. Alguire,  
 S. A. Baeppler,  D. Barton,  Z. Benda,  Y. A. Bernard,  E. J. Berquist,  
 K. B. Bravaya,  H. Burton,  D. Casanova,  Chun-Min Chang,  Yunqing Chen,  
 A. Chien,  K. D. Closser,  M. P. Coons,  S. Coriani,  S. Dasgupta,  
 A. L. Dempwolff,  M. Diedenhofen,  Hainam Do,  R. G. Edgar,  Po-Tung Fang,  
 S. Faraji,  S. Fatehi,  Qingguo Feng,  K. D. Fenk,  J. Fosso-Tande,  
 Qinghui Ge,  A. Ghysels,  G. Gidofalvi,  J. Gomes,  J. Gonthier,  A. Gunina,  
 D. Hait,  M. W. D. Hanson-Heine,  P. H. P. Harbach,  A. W. Hauser,  
 J. E. Herr,  E. G. Hohenstein,  Z. C. Holden,  Kerwin Hui,  B. C. Huynh,  
 T.-C. Jagau,  Hyunjun Ji,  B. Kaduk,  K. Khistyaev,  Jaehoon Kim,  
 P. Klunzinger,  K. Koh,  D. Kosenkov,  L. Koulias,  T. Kowalczyk,  
 C. M. Krauter,  A. Kunitsa,  Ka Un Lao,  A. Laurent,  K. V. Lawler,  
 Joonho Lee,  D. Lefrancois,  S. Lehtola,  D. S. Levine,  Yi-Pei Li,  
 You-Sheng Lin,  Fenglai Liu,  E. Livshits,  A. Luenser,  P. Manohar,  
 E. Mansoor,  S. F. Manzer,  Shan-Ping Mao,  Yuezhi Mao,  N. Mardirossian,  
 A. V. Marenich,  T. Markovich,  L. A. Martinez-Martinez,  S. A. Maurer,  
 N. J. Mayhall,  S. C. McKenzie,  J.-M. Mewes,  A. F. Morrison,  
 J. W. Mullinax,  K. Nanda,  T. S. Nguyen-Beck,  R. Olivares-Amaya,  
 J. A. Parkhill,  T. M. Perrine,  F. Plasser,  P. Pokhilko,  S. Prager,  
 A. Prociuk,  E. Ramos,  D. R. Rehn,  F. Rob,  M. Schneider,  N. Sergueev,  
 S. M. Sharada,  S. Sharma,  D. W. Small,  T. Stauch,  T. Stein,  
 Yu-Chuan Su,  A. J. W. Thom,  A. Tkatchenko,  T. Tsuchimochi,  N. M. Tubman,  
 L. Vogt,  M. L. Vidal,  O. Vydrov,  M. A. Watson,  J. Wenzel,  
 M. de Wergifosse,  T. A. Wesolowski,  A. White,  J. Witte,  A. Yamada,  
 Jun Yang,  K. Yao,  S. Yeganeh,  S. R. Yost,  Zhi-Qiang You,  A. Zech,  
 Igor Ying Zhang,  Xing Zhang,  Yan Zhao,  Ying Zhu,  B. R. Brooks,  
 G. K. L. Chan,  C. J. Cramer,  M. S. Gordon,  W. J. Hehre,  A. Klamt,  
 M. W. Schmidt,  C. D. Sherrill,  D. G. Truhlar,  A. Aspuru-Guzik,  R. Baer,  
 A. T. Bell,  N. A. Besley,  Jeng-Da Chai,  A. E. DePrince, III,  
 R. A. DiStasio Jr.,  A. Dreuw,  B. D. Dunietz,  T. R. Furlani,  
 Chao-Ping Hsu,  Yousung Jung,  Jing Kong,  D. S. Lambrecht,  WanZhen Liang,  
 C. Ochsenfeld,  V. A. Rassolov,  L. V. Slipchenko,  J. E. Subotnik,  
 T. Van Voorhis,  J. M. Herbert,  A. I. Krylov,  P. M. W. Gill,  M. Head-Gordon

 Contributors to earlier versions of Q-Chem not listed above: 
 R. D. Adamson,  B. Austin,  J. Baker,  G. J. O. Beran,  K. Brandhorst,  
 S. T. Brown,  E. F. C. Byrd,  A. K. Chakraborty,  C.-L. Cheng,  
 Siu Hung Chien,  D. M. Chipman,  D. L. Crittenden,  H. Dachsel,  
 R. J. Doerksen,  A. D. Dutoi,  L. Fusti-Molnar,  W. A. Goddard III,  
 A. Golubeva-Zadorozhnaya,  S. R. Gwaltney,  G. Hawkins,  A. Heyden,  
 S. Hirata,  G. Kedziora,  F. J. Keil,  C. Kelley,  Jihan Kim,  R. A. King,  
 R. Z. Khaliullin,  P. P. Korambath,  W. Kurlancheek,  A. M. Lee,  M. S. Lee,  
 S. V. Levchenko,  Ching Yeh Lin,  D. Liotard,  R. C. Lochan,  I. Lotan,  
 P. E. Maslen,  N. Nair,  D. P. O'Neill,  D. Neuhauser,  E. Neuscamman,  
 C. M. Oana,  R. Olson,  B. Peters,  R. Peverati,  P. A. Pieniazek,  
 Y. M. Rhee,  J. Ritchie,  M. A. Rohrdanz,  E. Rosta,  N. J. Russ,  
 H. F. Schaefer III,  N. E. Schultz,  N. Shenvi,  A. C. Simmonett,  A. Sodt,  
 D. Stuck,  K. S. Thanthiriwatte,  V. Vanovschi,  Tao Wang,  A. Warshel,  
 C. F. Williams,  Q. Wu,  X. Xu,  W. Zhang

 Please cite Q-Chem as follows:
 Y. Shao et al., Mol. Phys. 113, 184-215 (2015)
 DOI: 10.1080/00268976.2014.952696

 Q-Chem 5.1.1 for Intel X86 EM64T Linux

 Parts of Q-Chem use Armadillo 8.300.2 (Tropical Shenanigans).
 http://arma.sourceforge.net/

 Q-Chem begins on Fri Oct  9 01:26:56 2020  

Host: n0081.mhg0
0

     Scratch files written to /local/scratch/users/yhljason/CSO_PWPB95-D3_aug-cc-pcVTZ.inp20201008191748//
The previous job contains 0 fragments, simply inherited here
Input Ideriv = 0
Curr. Ideriv = -1
Max.  Ideriv = 0
Analytic post-HF gradients are not available with non-HF exchange
Input Ideriv = 0
Curr. Ideriv = 0
Max.  Ideriv = 0

Checking the input file for inconsistencies... 	...done.

--------------------------------------------------------------
User input:
--------------------------------------------------------------
$molecule
read
$end

$rem

jobtype sp
method PWPB95-D3
xc_grid 000099000590
basis aug-cc-pcVTZ
max_scf_cycles 200
thresh 14
scf_convergence 8
mem_total 128000
cc_memory 96000
cc_backend xm
mem_static 1500
symmetry false
sym_ignore true
scf_guess read
unrestricted false
scf_algorithm gdm
n_frozen_core 0
$end

$multipole_field
YY 0.0001
$end


--------------------------------------------------------------
 Adding empirical dispersion correction 
 ----------------------------------------------------------------
 Doing -D3(0) with
 s6  =   0.82000
 s8  =   0.70500
 rs6 =   1.55700
 rs8 =   1.00000
 -D3 energy without 3body term =     -0.0001133449 hartrees
 ----------------------------------------------------------------
             Standard Nuclear Orientation (Angstroms)
    I     Atom           X                Y                Z
 ----------------------------------------------------------------
    1      C       0.0000000000     0.0000000000     0.0000000000
    2      O       0.0000000000     0.0000000000     1.1600000000
    3      S       0.0000000000     0.0000000000    -1.5600000000
 ----------------------------------------------------------------
 Nuclear Repulsion Energy =    79.3640831009 hartrees
 There are       15 alpha and       15 beta electrons
 Requested basis set is aug-cc-pCVTZ
 There are 61 shells and 193 basis functions

 Total QAlloc Memory Limit 128000 MB
 Mega-Array Size      1467 MB
 MEM_STATIC part      1500 MB

                       Distance Matrix (Angstroms)
             C (  1)   O (  2)
   O (  2)  1.160000
   S (  3)  1.560000  2.720000
 
 Applying Cartesian multipole field
    Component          Value
    ---------          -----
     (0,2,0)        1.00000E-04
 A cutoff of  1.0D-14 yielded   1820 shell pairs
 There are     18324 function pairs (     25483 Cartesian)
 
 -------------------------------------------------------
 OpenMP Integral Computing Module                       
 Release: version 1.0, May 2013, Q-Chem Inc. Pittsburgh 
 -------------------------------------------------------
 Integral Job Info:
 Integral job number is                      11
 Integral operator is                         1
 short-range coefficients                     0
 long-range coefficients              100000000
 Omega coefficients                           0
 if combine SR and LR in K                    0
 Integral screening is                        0
 Integral computing path is                   2
 max size of driver memory is            800000
 size of driver memory is                776718
 size of scratch memory is             29531563
 max col of scratch BK array              10000
 max len of scratch array in speh3          662
 max len of scratch index in speh4           32
 max int batch size is                      520
 min int batch size is                       52
 fixed nKL is                                31
 max L of basis functions is                  3
 order of int derivative is                   0
 number of shells is                         61
 number of basis is                         227
 number of cartesian basis is               227
 number of contracted shell pairs          1820
 number of primitive shell pairs           7952
 maxK2 (contraction) of shell pair          169
 max number of K2 of shell pair               1
 max number of CS2 of shell pair            226
 max number of PS2 of shell pair           1014
 mem total for path MDJ                  604144
 -------------------------------------------------------
 Smallest overlap matrix eigenvalue = 8.14E-05
 Guess MOs from SCF MO coefficient file

 -----------------------------------------------------------------------
  General SCF calculation program by
  Eric Jon Sundstrom, Paul Horn, Yuezhi Mao, Dmitri Zuev, Alec White,
  David Stuck, Shaama M.S., Shane Yost, Joonho Lee, David Small,
  Daniel Levine, Susi Lehtola, Hugh Burton, Evgeny Epifanovsky
 -----------------------------------------------------------------------
 Exchange:     0.5000 Hartree-Fock + 1.0000 PWPB95-D3
 Correlation:  0.7310 PWPB95-D3
 Using Euler-Maclaurin-Lebedev (99,590) quadrature formula
 Dispersion:   Grimme D3
 using 8 threads for integral computing
 -------------------------------------------------------
 OpenMP Integral computing Module                
 Release: version 2.0, May 2017, Q-Chem Inc. Pleasanton 
 -------------------------------------------------------
 -------------------------------------------------------
 OpenMP BLAS3 based DFT computing Module                
 Release: version 1.0, May 2013, Q-Chem Inc. Pittsburgh 
 -------------------------------------------------------
 A restricted SCF calculation will be
 performed using GDM
 SCF converges when RMS gradient is below 1.0e-08
 ---------------------------------------
  Cycle       Energy        RMS Gradient
 ---------------------------------------
    1    -511.3524349751      4.31e-04   Normal BFGS step
    2    -511.3524362367      1.31e-04   Normal BFGS step
    3    -511.3524363576      1.65e-04   Normal BFGS step
    4    -511.3524363934      6.10e-05   Normal BFGS step
    5    -511.3524364132      1.08e-05   Normal BFGS step
    6    -511.3524364138      9.43e-06   Normal BFGS step
    7    -511.3524364140      3.01e-06   Normal BFGS step
    8    -511.3524364141      6.18e-07   Normal BFGS step
    9    -511.3524364141      1.18e-07   Normal BFGS step
   10    -511.3524364141      9.80e-09  Convergence criterion met
 ---------------------------------------
 SCF time:   CPU 719.50s  wall 91.00s 
 SCF   energy in the final basis set =     -511.3524364141
 Total energy in the final basis set =     -511.3524364141
 
 Components of the MP2 correlation energy:
        aaaa  correlation energy =         0.0000000000 au
        abab  correlation energy =        -0.2338877129 au
        bbbb  correlation energy =         0.0000000000 au
        non-Brillouin singles    =        -0.0000000000 au

 Total  MP2   correlation energy =                    -0.23388771 au
        MP2         total energy =                  -511.58632413 au
 
 --------------------------------------------------------------
 
                    Orbital Energies (a.u.)
 --------------------------------------------------------------
 
 Alpha MOs
 -- Occupied --
-90.065 -19.760 -10.749  -8.351  -6.211  -6.207  -6.207  -1.275
 -0.922  -0.639  -0.550  -0.550  -0.538  -0.353  -0.353
 -- Virtual --
  0.007   0.007   0.015   0.041   0.060   0.062   0.071   0.092
  0.093   0.124   0.167   0.177   0.177   0.187   0.188   0.201
  0.204   0.301   0.301   0.304   0.305   0.326   0.388   0.389
  0.390   0.449   0.450   0.507   0.530   0.569   0.569   0.569
  0.569   0.608   0.633   0.634   0.669   0.669   0.730   0.730
  0.760   0.794   0.794   0.812   0.813   0.834   0.946   1.002
  1.003   1.014   1.033   1.033   1.079   1.079   1.098   1.099
  1.116   1.262   1.334   1.364   1.364   1.442   1.442   1.511
  1.511   1.628   1.726   1.726   1.831   1.864   1.864   2.008
  2.008   2.041   2.042   2.104   2.104   2.133   2.133   2.191
  2.191   2.194   2.228   2.228   2.372   2.427   2.501   2.501
  2.542   2.588   2.588   2.757   2.758   2.857   2.988   2.989
  3.083   3.187   3.187   3.191   3.191   3.414   3.530   3.530
  3.583   3.583   3.896   3.896   4.005   4.220   4.770   4.887
  4.887   5.475   6.171   6.171   6.313   6.494   6.494   6.749
  6.749   6.907   6.907   7.127   7.136   7.136   8.155   8.349
  8.349   8.581   8.582   9.303  10.593  10.593  11.418  14.835
 15.257  15.257  16.715  16.962  25.851  25.851  26.831  29.113
 31.169  31.169  31.169  31.169  31.180  31.180  31.184  38.709
 38.709  38.799  38.799  39.203  40.647  40.647  40.809  40.809
 41.130  43.160  43.160  43.307  43.307  43.564  46.453  46.453
 47.270  80.237  80.237  81.360  85.595  85.950 137.182 137.182
138.057 149.101
 --------------------------------------------------------------
 
          Ground-State Mulliken Net Atomic Charges

     Atom                 Charge (a.u.)
  ----------------------------------------
      1 C                     0.117314
      2 O                    -0.273959
      3 S                     0.156645
  ----------------------------------------
  Sum of atomic charges =     0.000000

 -----------------------------------------------------------------
                    Cartesian Multipole Moments
 -----------------------------------------------------------------
    Charge (ESU x 10^10)
                -0.0000
    Dipole Moment (Debye)
         X       0.0000      Y      -0.0000      Z      -0.8397
       Tot       0.8397
    Quadrupole Moments (Debye-Ang)
        XX     -23.3681     XY       0.0000     YY     -23.3806
        XZ      -0.0000     YZ       0.0000     ZZ     -23.6568
    Octopole Moments (Debye-Ang^2)
       XXX       0.0000    XXY      -0.0000    XYY       0.0000
       YYY      -0.0000    XXZ      14.8678    XYZ       0.0000
       YYZ      14.8827    XZZ       0.0000    YZZ      -0.0000
       ZZZ      32.9950
    Hexadecapole Moments (Debye-Ang^3)
      XXXX     -27.2230   XXXY       0.0000   XXYY      -9.0832
      XYYY       0.0000   YYYY     -27.2765   XXXZ      -0.0000
      XXYZ      -0.0000   XYYZ      -0.0000   YYYZ      -0.0000
      XXZZ     -47.7914   XYZZ      -0.0000   YYZZ     -47.8266
      XZZZ      -0.0000   YZZZ       0.0000   ZZZZ    -232.7118
 -----------------------------------------------------------------
Archival summary:
1\1\n0081.mhg0\SP\ProcedureUnspecified\BasisUnspecified\111\yhljason\FriOct901:29:322020FriOct901:29:322020\0\\#,ProcedureUnspecified,BasisUnspecified,\\0,1\S\C,1,1.56\O,2,1.16,1,180\\\@

 Total job time:  155.51s(wall), 1221.54s(cpu) 
 Fri Oct  9 01:29:32 2020

        *************************************************************
        *                                                           *
        *  Thank you very much for using Q-Chem.  Have a nice day.  *
        *                                                           *
        *************************************************************


 
User input: 6 of 8 
 
Q-Chem Developer Version!
                  Welcome to Q-Chem
     A Quantum Leap Into The Future Of Chemistry


 Q-Chem 5.1, Q-Chem, Inc., Pleasanton, CA (2018)

 Yihan Shao,  Zhengting Gan,  E. Epifanovsky,  A. T. B. Gilbert,  M. Wormit,  
 J. Kussmann,  A. W. Lange,  A. Behn,  Jia Deng,  Xintian Feng,  D. Ghosh,  
 M. Goldey,  P. R. Horn,  L. D. Jacobson,  I. Kaliman,  T. Kus,  A. Landau,  
 Jie Liu,  E. I. Proynov,  R. M. Richard,  R. P. Steele,  E. J. Sundstrom,  
 H. L. Woodcock III,  P. M. Zimmerman,  D. Zuev,  B. Albrecht,  E. Alguire,  
 S. A. Baeppler,  D. Barton,  Z. Benda,  Y. A. Bernard,  E. J. Berquist,  
 K. B. Bravaya,  H. Burton,  D. Casanova,  Chun-Min Chang,  Yunqing Chen,  
 A. Chien,  K. D. Closser,  M. P. Coons,  S. Coriani,  S. Dasgupta,  
 A. L. Dempwolff,  M. Diedenhofen,  Hainam Do,  R. G. Edgar,  Po-Tung Fang,  
 S. Faraji,  S. Fatehi,  Qingguo Feng,  K. D. Fenk,  J. Fosso-Tande,  
 Qinghui Ge,  A. Ghysels,  G. Gidofalvi,  J. Gomes,  J. Gonthier,  A. Gunina,  
 D. Hait,  M. W. D. Hanson-Heine,  P. H. P. Harbach,  A. W. Hauser,  
 J. E. Herr,  E. G. Hohenstein,  Z. C. Holden,  Kerwin Hui,  B. C. Huynh,  
 T.-C. Jagau,  Hyunjun Ji,  B. Kaduk,  K. Khistyaev,  Jaehoon Kim,  
 P. Klunzinger,  K. Koh,  D. Kosenkov,  L. Koulias,  T. Kowalczyk,  
 C. M. Krauter,  A. Kunitsa,  Ka Un Lao,  A. Laurent,  K. V. Lawler,  
 Joonho Lee,  D. Lefrancois,  S. Lehtola,  D. S. Levine,  Yi-Pei Li,  
 You-Sheng Lin,  Fenglai Liu,  E. Livshits,  A. Luenser,  P. Manohar,  
 E. Mansoor,  S. F. Manzer,  Shan-Ping Mao,  Yuezhi Mao,  N. Mardirossian,  
 A. V. Marenich,  T. Markovich,  L. A. Martinez-Martinez,  S. A. Maurer,  
 N. J. Mayhall,  S. C. McKenzie,  J.-M. Mewes,  A. F. Morrison,  
 J. W. Mullinax,  K. Nanda,  T. S. Nguyen-Beck,  R. Olivares-Amaya,  
 J. A. Parkhill,  T. M. Perrine,  F. Plasser,  P. Pokhilko,  S. Prager,  
 A. Prociuk,  E. Ramos,  D. R. Rehn,  F. Rob,  M. Schneider,  N. Sergueev,  
 S. M. Sharada,  S. Sharma,  D. W. Small,  T. Stauch,  T. Stein,  
 Yu-Chuan Su,  A. J. W. Thom,  A. Tkatchenko,  T. Tsuchimochi,  N. M. Tubman,  
 L. Vogt,  M. L. Vidal,  O. Vydrov,  M. A. Watson,  J. Wenzel,  
 M. de Wergifosse,  T. A. Wesolowski,  A. White,  J. Witte,  A. Yamada,  
 Jun Yang,  K. Yao,  S. Yeganeh,  S. R. Yost,  Zhi-Qiang You,  A. Zech,  
 Igor Ying Zhang,  Xing Zhang,  Yan Zhao,  Ying Zhu,  B. R. Brooks,  
 G. K. L. Chan,  C. J. Cramer,  M. S. Gordon,  W. J. Hehre,  A. Klamt,  
 M. W. Schmidt,  C. D. Sherrill,  D. G. Truhlar,  A. Aspuru-Guzik,  R. Baer,  
 A. T. Bell,  N. A. Besley,  Jeng-Da Chai,  A. E. DePrince, III,  
 R. A. DiStasio Jr.,  A. Dreuw,  B. D. Dunietz,  T. R. Furlani,  
 Chao-Ping Hsu,  Yousung Jung,  Jing Kong,  D. S. Lambrecht,  WanZhen Liang,  
 C. Ochsenfeld,  V. A. Rassolov,  L. V. Slipchenko,  J. E. Subotnik,  
 T. Van Voorhis,  J. M. Herbert,  A. I. Krylov,  P. M. W. Gill,  M. Head-Gordon

 Contributors to earlier versions of Q-Chem not listed above: 
 R. D. Adamson,  B. Austin,  J. Baker,  G. J. O. Beran,  K. Brandhorst,  
 S. T. Brown,  E. F. C. Byrd,  A. K. Chakraborty,  C.-L. Cheng,  
 Siu Hung Chien,  D. M. Chipman,  D. L. Crittenden,  H. Dachsel,  
 R. J. Doerksen,  A. D. Dutoi,  L. Fusti-Molnar,  W. A. Goddard III,  
 A. Golubeva-Zadorozhnaya,  S. R. Gwaltney,  G. Hawkins,  A. Heyden,  
 S. Hirata,  G. Kedziora,  F. J. Keil,  C. Kelley,  Jihan Kim,  R. A. King,  
 R. Z. Khaliullin,  P. P. Korambath,  W. Kurlancheek,  A. M. Lee,  M. S. Lee,  
 S. V. Levchenko,  Ching Yeh Lin,  D. Liotard,  R. C. Lochan,  I. Lotan,  
 P. E. Maslen,  N. Nair,  D. P. O'Neill,  D. Neuhauser,  E. Neuscamman,  
 C. M. Oana,  R. Olson,  B. Peters,  R. Peverati,  P. A. Pieniazek,  
 Y. M. Rhee,  J. Ritchie,  M. A. Rohrdanz,  E. Rosta,  N. J. Russ,  
 H. F. Schaefer III,  N. E. Schultz,  N. Shenvi,  A. C. Simmonett,  A. Sodt,  
 D. Stuck,  K. S. Thanthiriwatte,  V. Vanovschi,  Tao Wang,  A. Warshel,  
 C. F. Williams,  Q. Wu,  X. Xu,  W. Zhang

 Please cite Q-Chem as follows:
 Y. Shao et al., Mol. Phys. 113, 184-215 (2015)
 DOI: 10.1080/00268976.2014.952696

 Q-Chem 5.1.1 for Intel X86 EM64T Linux

 Parts of Q-Chem use Armadillo 8.300.2 (Tropical Shenanigans).
 http://arma.sourceforge.net/

 Q-Chem begins on Fri Oct  9 01:29:32 2020  

Host: n0081.mhg0
0

     Scratch files written to /local/scratch/users/yhljason/CSO_PWPB95-D3_aug-cc-pcVTZ.inp20201008191748//
The previous job contains 0 fragments, simply inherited here
Input Ideriv = 0
Curr. Ideriv = -1
Max.  Ideriv = 0
Analytic post-HF gradients are not available with non-HF exchange
Input Ideriv = 0
Curr. Ideriv = 0
Max.  Ideriv = 0

Checking the input file for inconsistencies... 	...done.

--------------------------------------------------------------
User input:
--------------------------------------------------------------
$molecule
read
$end

$rem

jobtype sp
method PWPB95-D3
xc_grid 000099000590
basis aug-cc-pcVTZ
max_scf_cycles 200
thresh 14
scf_convergence 8
mem_total 128000
cc_memory 96000
cc_backend xm
mem_static 1500
symmetry false
sym_ignore true
scf_guess read
unrestricted false
scf_algorithm gdm
n_frozen_core 0
$end

$multipole_field
YY -0.0001
$end


--------------------------------------------------------------
 Adding empirical dispersion correction 
 ----------------------------------------------------------------
 Doing -D3(0) with
 s6  =   0.82000
 s8  =   0.70500
 rs6 =   1.55700
 rs8 =   1.00000
 -D3 energy without 3body term =     -0.0001133449 hartrees
 ----------------------------------------------------------------
             Standard Nuclear Orientation (Angstroms)
    I     Atom           X                Y                Z
 ----------------------------------------------------------------
    1      C       0.0000000000     0.0000000000     0.0000000000
    2      O       0.0000000000     0.0000000000     1.1600000000
    3      S       0.0000000000     0.0000000000    -1.5600000000
 ----------------------------------------------------------------
 Nuclear Repulsion Energy =    79.3640831009 hartrees
 There are       15 alpha and       15 beta electrons
 Requested basis set is aug-cc-pCVTZ
 There are 61 shells and 193 basis functions

 Total QAlloc Memory Limit 128000 MB
 Mega-Array Size      1467 MB
 MEM_STATIC part      1500 MB

                       Distance Matrix (Angstroms)
             C (  1)   O (  2)
   O (  2)  1.160000
   S (  3)  1.560000  2.720000
 
 Applying Cartesian multipole field
    Component          Value
    ---------          -----
     (0,2,0)       -1.00000E-04
 A cutoff of  1.0D-14 yielded   1820 shell pairs
 There are     18324 function pairs (     25483 Cartesian)
 
 -------------------------------------------------------
 OpenMP Integral Computing Module                       
 Release: version 1.0, May 2013, Q-Chem Inc. Pittsburgh 
 -------------------------------------------------------
 Integral Job Info:
 Integral job number is                      11
 Integral operator is                         1
 short-range coefficients                     0
 long-range coefficients              100000000
 Omega coefficients                           0
 if combine SR and LR in K                    0
 Integral screening is                        0
 Integral computing path is                   2
 max size of driver memory is            800000
 size of driver memory is                776718
 size of scratch memory is             29531563
 max col of scratch BK array              10000
 max len of scratch array in speh3          662
 max len of scratch index in speh4           32
 max int batch size is                      520
 min int batch size is                       52
 fixed nKL is                                31
 max L of basis functions is                  3
 order of int derivative is                   0
 number of shells is                         61
 number of basis is                         227
 number of cartesian basis is               227
 number of contracted shell pairs          1820
 number of primitive shell pairs           7952
 maxK2 (contraction) of shell pair          169
 max number of K2 of shell pair               1
 max number of CS2 of shell pair            226
 max number of PS2 of shell pair           1014
 mem total for path MDJ                  604144
 -------------------------------------------------------
 Smallest overlap matrix eigenvalue = 8.14E-05
 Guess MOs from SCF MO coefficient file

 -----------------------------------------------------------------------
  General SCF calculation program by
  Eric Jon Sundstrom, Paul Horn, Yuezhi Mao, Dmitri Zuev, Alec White,
  David Stuck, Shaama M.S., Shane Yost, Joonho Lee, David Small,
  Daniel Levine, Susi Lehtola, Hugh Burton, Evgeny Epifanovsky
 -----------------------------------------------------------------------
 Exchange:     0.5000 Hartree-Fock + 1.0000 PWPB95-D3
 Correlation:  0.7310 PWPB95-D3
 Using Euler-Maclaurin-Lebedev (99,590) quadrature formula
 Dispersion:   Grimme D3
 using 8 threads for integral computing
 -------------------------------------------------------
 OpenMP Integral computing Module                
 Release: version 2.0, May 2017, Q-Chem Inc. Pleasanton 
 -------------------------------------------------------
 -------------------------------------------------------
 OpenMP BLAS3 based DFT computing Module                
 Release: version 1.0, May 2013, Q-Chem Inc. Pittsburgh 
 -------------------------------------------------------
 A restricted SCF calculation will be
 performed using GDM
 SCF converges when RMS gradient is below 1.0e-08
 ---------------------------------------
  Cycle       Energy        RMS Gradient
 ---------------------------------------
    1    -511.3489598306      6.56e-04   Normal BFGS step
    2    -511.3489619905      1.78e-04   Normal BFGS step
    3    -511.3489621173      2.10e-04   Normal BFGS step
    4    -511.3489621801      7.58e-05   Normal BFGS step
    5    -511.3489622012      1.46e-05   Normal BFGS step
    6    -511.3489622030      1.30e-05   Normal BFGS step
    7    -511.3489622032      6.03e-06   Normal BFGS step
    8    -511.3489622034      1.45e-06   Normal BFGS step
    9    -511.3489622034      5.11e-07   Normal BFGS step
   10    -511.3489622034      1.43e-07   Normal BFGS step
   11    -511.3489622034      1.59e-08   Normal BFGS step
   12    -511.3489622034      1.42e-09  Convergence criterion met
 ---------------------------------------
 SCF time:   CPU 839.01s  wall 106.00s 
 SCF   energy in the final basis set =     -511.3489622034
 Total energy in the final basis set =     -511.3489622034
 
 Components of the MP2 correlation energy:
        aaaa  correlation energy =         0.0000000000 au
        abab  correlation energy =        -0.2338947489 au
        bbbb  correlation energy =         0.0000000000 au
        non-Brillouin singles    =        -0.0000000000 au

 Total  MP2   correlation energy =                    -0.23389475 au
        MP2         total energy =                  -511.58285695 au
 
 --------------------------------------------------------------
 
                    Orbital Energies (a.u.)
 --------------------------------------------------------------
 
 Alpha MOs
 -- Occupied --
-90.064 -19.759 -10.748  -8.350  -6.211  -6.206  -6.206  -1.275
 -0.922  -0.638  -0.549  -0.549  -0.537  -0.352  -0.352
 -- Virtual --
  0.007   0.008   0.018   0.044   0.064   0.066   0.073   0.095
  0.097   0.126   0.170   0.178   0.178   0.190   0.191   0.204
  0.207   0.303   0.303   0.306   0.307   0.327   0.389   0.391
  0.392   0.451   0.452   0.508   0.531   0.570   0.570   0.570
  0.570   0.610   0.634   0.635   0.670   0.670   0.731   0.731
  0.761   0.795   0.795   0.813   0.814   0.835   0.947   1.004
  1.004   1.014   1.034   1.034   1.080   1.080   1.099   1.100
  1.117   1.263   1.335   1.365   1.365   1.443   1.443   1.511
  1.512   1.629   1.727   1.727   1.832   1.864   1.865   2.009
  2.009   2.042   2.042   2.104   2.104   2.134   2.134   2.192
  2.192   2.194   2.228   2.228   2.373   2.427   2.501   2.501
  2.542   2.589   2.589   2.758   2.758   2.858   2.989   2.989
  3.084   3.188   3.188   3.192   3.192   3.415   3.530   3.530
  3.584   3.584   3.897   3.897   4.005   4.220   4.771   4.888
  4.888   5.475   6.172   6.172   6.314   6.495   6.495   6.750
  6.750   6.908   6.908   7.127   7.137   7.137   8.156   8.350
  8.350   8.582   8.582   9.304  10.593  10.593  11.418  14.835
 15.258  15.258  16.715  16.963  25.852  25.852  26.831  29.114
 31.170  31.170  31.170  31.170  31.181  31.181  31.184  38.710
 38.710  38.800  38.800  39.204  40.648  40.648  40.810  40.810
 41.131  43.161  43.161  43.307  43.307  43.565  46.453  46.453
 47.270  80.237  80.237  81.360  85.596  85.950 137.182 137.182
138.058 149.102
 --------------------------------------------------------------
 
          Ground-State Mulliken Net Atomic Charges

     Atom                 Charge (a.u.)
  ----------------------------------------
      1 C                     0.116691
      2 O                    -0.274765
      3 S                     0.158073
  ----------------------------------------
  Sum of atomic charges =    -0.000000

 -----------------------------------------------------------------
                    Cartesian Multipole Moments
 -----------------------------------------------------------------
    Charge (ESU x 10^10)
                 0.0000
    Dipole Moment (Debye)
         X       0.0000      Y      -0.0000      Z      -0.8446
       Tot       0.8446
    Quadrupole Moments (Debye-Ang)
        XX     -23.3612     XY       0.0000     YY     -23.3488
        XZ       0.0000     YZ      -0.0000     ZZ     -23.6515
    Octopole Moments (Debye-Ang^2)
       XXX       0.0000    XXY      -0.0000    XYY       0.0000
       YYY       0.0000    XXZ      14.8587    XYZ      -0.0000
       YYZ      14.8439    XZZ      -0.0000    YZZ       0.0000
       ZZZ      32.9711
    Hexadecapole Moments (Debye-Ang^3)
      XXXX     -27.1847   XXXY       0.0000   XXYY      -9.0528
      XYYY       0.0000   YYYY     -27.1320   XXXZ      -0.0000
      XXYZ       0.0000   XYYZ      -0.0000   YYYZ      -0.0000
      XXZZ     -47.7690   XYZZ       0.0000   YYZZ     -47.7340
      XZZZ       0.0000   YZZZ      -0.0000   ZZZZ    -232.6474
 -----------------------------------------------------------------
Archival summary:
1\1\n0081.mhg0\SP\ProcedureUnspecified\BasisUnspecified\111\yhljason\FriOct901:32:232020FriOct901:32:232020\0\\#,ProcedureUnspecified,BasisUnspecified,\\0,1\S\C,1,1.56\O,2,1.16,1,180\\\@

 Total job time:  171.05s(wall), 1342.93s(cpu) 
 Fri Oct  9 01:32:23 2020

        *************************************************************
        *                                                           *
        *  Thank you very much for using Q-Chem.  Have a nice day.  *
        *                                                           *
        *************************************************************


 
User input: 7 of 8 
 
Q-Chem Developer Version!
                  Welcome to Q-Chem
     A Quantum Leap Into The Future Of Chemistry


 Q-Chem 5.1, Q-Chem, Inc., Pleasanton, CA (2018)

 Yihan Shao,  Zhengting Gan,  E. Epifanovsky,  A. T. B. Gilbert,  M. Wormit,  
 J. Kussmann,  A. W. Lange,  A. Behn,  Jia Deng,  Xintian Feng,  D. Ghosh,  
 M. Goldey,  P. R. Horn,  L. D. Jacobson,  I. Kaliman,  T. Kus,  A. Landau,  
 Jie Liu,  E. I. Proynov,  R. M. Richard,  R. P. Steele,  E. J. Sundstrom,  
 H. L. Woodcock III,  P. M. Zimmerman,  D. Zuev,  B. Albrecht,  E. Alguire,  
 S. A. Baeppler,  D. Barton,  Z. Benda,  Y. A. Bernard,  E. J. Berquist,  
 K. B. Bravaya,  H. Burton,  D. Casanova,  Chun-Min Chang,  Yunqing Chen,  
 A. Chien,  K. D. Closser,  M. P. Coons,  S. Coriani,  S. Dasgupta,  
 A. L. Dempwolff,  M. Diedenhofen,  Hainam Do,  R. G. Edgar,  Po-Tung Fang,  
 S. Faraji,  S. Fatehi,  Qingguo Feng,  K. D. Fenk,  J. Fosso-Tande,  
 Qinghui Ge,  A. Ghysels,  G. Gidofalvi,  J. Gomes,  J. Gonthier,  A. Gunina,  
 D. Hait,  M. W. D. Hanson-Heine,  P. H. P. Harbach,  A. W. Hauser,  
 J. E. Herr,  E. G. Hohenstein,  Z. C. Holden,  Kerwin Hui,  B. C. Huynh,  
 T.-C. Jagau,  Hyunjun Ji,  B. Kaduk,  K. Khistyaev,  Jaehoon Kim,  
 P. Klunzinger,  K. Koh,  D. Kosenkov,  L. Koulias,  T. Kowalczyk,  
 C. M. Krauter,  A. Kunitsa,  Ka Un Lao,  A. Laurent,  K. V. Lawler,  
 Joonho Lee,  D. Lefrancois,  S. Lehtola,  D. S. Levine,  Yi-Pei Li,  
 You-Sheng Lin,  Fenglai Liu,  E. Livshits,  A. Luenser,  P. Manohar,  
 E. Mansoor,  S. F. Manzer,  Shan-Ping Mao,  Yuezhi Mao,  N. Mardirossian,  
 A. V. Marenich,  T. Markovich,  L. A. Martinez-Martinez,  S. A. Maurer,  
 N. J. Mayhall,  S. C. McKenzie,  J.-M. Mewes,  A. F. Morrison,  
 J. W. Mullinax,  K. Nanda,  T. S. Nguyen-Beck,  R. Olivares-Amaya,  
 J. A. Parkhill,  T. M. Perrine,  F. Plasser,  P. Pokhilko,  S. Prager,  
 A. Prociuk,  E. Ramos,  D. R. Rehn,  F. Rob,  M. Schneider,  N. Sergueev,  
 S. M. Sharada,  S. Sharma,  D. W. Small,  T. Stauch,  T. Stein,  
 Yu-Chuan Su,  A. J. W. Thom,  A. Tkatchenko,  T. Tsuchimochi,  N. M. Tubman,  
 L. Vogt,  M. L. Vidal,  O. Vydrov,  M. A. Watson,  J. Wenzel,  
 M. de Wergifosse,  T. A. Wesolowski,  A. White,  J. Witte,  A. Yamada,  
 Jun Yang,  K. Yao,  S. Yeganeh,  S. R. Yost,  Zhi-Qiang You,  A. Zech,  
 Igor Ying Zhang,  Xing Zhang,  Yan Zhao,  Ying Zhu,  B. R. Brooks,  
 G. K. L. Chan,  C. J. Cramer,  M. S. Gordon,  W. J. Hehre,  A. Klamt,  
 M. W. Schmidt,  C. D. Sherrill,  D. G. Truhlar,  A. Aspuru-Guzik,  R. Baer,  
 A. T. Bell,  N. A. Besley,  Jeng-Da Chai,  A. E. DePrince, III,  
 R. A. DiStasio Jr.,  A. Dreuw,  B. D. Dunietz,  T. R. Furlani,  
 Chao-Ping Hsu,  Yousung Jung,  Jing Kong,  D. S. Lambrecht,  WanZhen Liang,  
 C. Ochsenfeld,  V. A. Rassolov,  L. V. Slipchenko,  J. E. Subotnik,  
 T. Van Voorhis,  J. M. Herbert,  A. I. Krylov,  P. M. W. Gill,  M. Head-Gordon

 Contributors to earlier versions of Q-Chem not listed above: 
 R. D. Adamson,  B. Austin,  J. Baker,  G. J. O. Beran,  K. Brandhorst,  
 S. T. Brown,  E. F. C. Byrd,  A. K. Chakraborty,  C.-L. Cheng,  
 Siu Hung Chien,  D. M. Chipman,  D. L. Crittenden,  H. Dachsel,  
 R. J. Doerksen,  A. D. Dutoi,  L. Fusti-Molnar,  W. A. Goddard III,  
 A. Golubeva-Zadorozhnaya,  S. R. Gwaltney,  G. Hawkins,  A. Heyden,  
 S. Hirata,  G. Kedziora,  F. J. Keil,  C. Kelley,  Jihan Kim,  R. A. King,  
 R. Z. Khaliullin,  P. P. Korambath,  W. Kurlancheek,  A. M. Lee,  M. S. Lee,  
 S. V. Levchenko,  Ching Yeh Lin,  D. Liotard,  R. C. Lochan,  I. Lotan,  
 P. E. Maslen,  N. Nair,  D. P. O'Neill,  D. Neuhauser,  E. Neuscamman,  
[...]
    6    -511.3524609878      3.23e-05   Normal BFGS step
    7    -511.3524609946      1.83e-06   Normal BFGS step
    8    -511.3524609946      6.03e-07   Normal BFGS step
    9    -511.3524609946      2.57e-07   Normal BFGS step
   10    -511.3524609946      1.62e-08   Normal BFGS step
   11    -511.3524609946      2.65e-09  Convergence criterion met
 ---------------------------------------
 SCF time:   CPU 756.91s  wall 96.00s 
 SCF   energy in the final basis set =     -511.3524609946
 Total energy in the final basis set =     -511.3524609946
 
 Components of the MP2 correlation energy:
        aaaa  correlation energy =         0.0000000000 au
        abab  correlation energy =        -0.2338798009 au
        bbbb  correlation energy =         0.0000000000 au
        non-Brillouin singles    =        -0.0000000000 au

 Total  MP2   correlation energy =                    -0.23387980 au
        MP2         total energy =                  -511.58634080 au
 
 --------------------------------------------------------------
 
                    Orbital Energies (a.u.)
 --------------------------------------------------------------
 
 Alpha MOs
 -- Occupied --
-90.066 -19.760 -10.750  -8.351  -6.212  -6.207  -6.207  -1.276
 -0.923  -0.640  -0.551  -0.551  -0.539  -0.353  -0.353
 -- Virtual --
  0.006   0.006   0.014   0.038   0.062   0.062   0.069   0.091
  0.091   0.122   0.164   0.176   0.176   0.187   0.187   0.199
  0.205   0.301   0.301   0.303   0.303   0.323   0.386   0.389
  0.389   0.449   0.449   0.506   0.529   0.568   0.568   0.569
  0.569   0.607   0.632   0.632   0.669   0.669   0.729   0.729
  0.759   0.793   0.793   0.811   0.811   0.832   0.944   1.002
  1.002   1.012   1.033   1.033   1.079   1.079   1.097   1.097
  1.115   1.261   1.333   1.364   1.364   1.442   1.442   1.510
  1.510   1.627   1.725   1.725   1.831   1.863   1.863   2.008
  2.008   2.041   2.041   2.103   2.103   2.132   2.132   2.190
  2.190   2.193   2.227   2.227   2.372   2.426   2.500   2.500
  2.541   2.587   2.587   2.757   2.757   2.856   2.988   2.988
  3.082   3.187   3.187   3.191   3.191   3.413   3.529   3.529
  3.583   3.583   3.895   3.895   4.004   4.219   4.770   4.886
  4.886   5.474   6.171   6.171   6.313   6.493   6.493   6.748
  6.748   6.906   6.906   7.126   7.135   7.135   8.155   8.349
  8.349   8.581   8.581   9.302  10.592  10.592  11.417  14.834
 15.256  15.256  16.714  16.961  25.851  25.851  26.830  29.112
 31.169  31.169  31.169  31.169  31.180  31.180  31.183  38.709
 38.709  38.798  38.798  39.202  40.646  40.646  40.809  40.809
 41.129  43.160  43.160  43.306  43.306  43.563  46.452  46.452
 47.269  80.236  80.236  81.359  85.594  85.949 137.181 137.181
138.056 149.100
 --------------------------------------------------------------
 
          Ground-State Mulliken Net Atomic Charges

     Atom                 Charge (a.u.)
  ----------------------------------------
      1 C                     0.116901
      2 O                    -0.275150
      3 S                     0.158249
  ----------------------------------------
  Sum of atomic charges =    -0.000000

 -----------------------------------------------------------------
                    Cartesian Multipole Moments
 -----------------------------------------------------------------
    Charge (ESU x 10^10)
                -0.0000
    Dipole Moment (Debye)
         X       0.0000      Y       0.0000      Z      -0.8166
       Tot       0.8166
    Quadrupole Moments (Debye-Ang)
        XX     -23.3673     XY      -0.0000     YY     -23.3673
        XZ      -0.0000     YZ       0.0000     ZZ     -23.7524
    Octopole Moments (Debye-Ang^2)
       XXX       0.0000    XXY       0.0000    XYY       0.0000
       YYY       0.0000    XXZ      14.8865    XYZ       0.0000
       YYZ      14.8865    XZZ      -0.0000    YZZ       0.0000
       ZZZ      33.2190
    Hexadecapole Moments (Debye-Ang^3)
      XXXX     -27.2182   XXXY      -0.0000   XXYY      -9.0727
      XYYY      -0.0000   YYYY     -27.2182   XXXZ      -0.0000
      XXYZ      -0.0000   XYYZ      -0.0000   YYYZ      -0.0000
      XXZZ     -47.8609   XYZZ      -0.0000   YYZZ     -47.8609
      XZZZ       0.0000   YZZZ       0.0000   ZZZZ    -233.5135
 -----------------------------------------------------------------
Archival summary:
1\1\n0081.mhg0\SP\ProcedureUnspecified\BasisUnspecified\111\yhljason\FriOct901:35:042020FriOct901:35:042020\0\\#,ProcedureUnspecified,BasisUnspecified,\\0,1\S\C,1,1.56\O,2,1.16,1,180\\\@

 Total job time:  160.92s(wall), 1263.15s(cpu) 
 Fri Oct  9 01:35:04 2020

        *************************************************************
        *                                                           *
        *  Thank you very much for using Q-Chem.  Have a nice day.  *
        *                                                           *
        *************************************************************


 
User input: 8 of 8 
 
Q-Chem Developer Version!
                  Welcome to Q-Chem
     A Quantum Leap Into The Future Of Chemistry


 Q-Chem 5.1, Q-Chem, Inc., Pleasanton, CA (2018)

 Yihan Shao,  Zhengting Gan,  E. Epifanovsky,  A. T. B. Gilbert,  M. Wormit,  
 J. Kussmann,  A. W. Lange,  A. Behn,  Jia Deng,  Xintian Feng,  D. Ghosh,  
 M. Goldey,  P. R. Horn,  L. D. Jacobson,  I. Kaliman,  T. Kus,  A. Landau,  
 Jie Liu,  E. I. Proynov,  R. M. Richard,  R. P. Steele,  E. J. Sundstrom,  
 H. L. Woodcock III,  P. M. Zimmerman,  D. Zuev,  B. Albrecht,  E. Alguire,  
 S. A. Baeppler,  D. Barton,  Z. Benda,  Y. A. Bernard,  E. J. Berquist,  
 K. B. Bravaya,  H. Burton,  D. Casanova,  Chun-Min Chang,  Yunqing Chen,  
 A. Chien,  K. D. Closser,  M. P. Coons,  S. Coriani,  S. Dasgupta,  
 A. L. Dempwolff,  M. Diedenhofen,  Hainam Do,  R. G. Edgar,  Po-Tung Fang,  
 S. Faraji,  S. Fatehi,  Qingguo Feng,  K. D. Fenk,  J. Fosso-Tande,  
 Qinghui Ge,  A. Ghysels,  G. Gidofalvi,  J. Gomes,  J. Gonthier,  A. Gunina,  
 D. Hait,  M. W. D. Hanson-Heine,  P. H. P. Harbach,  A. W. Hauser,  
 J. E. Herr,  E. G. Hohenstein,  Z. C. Holden,  Kerwin Hui,  B. C. Huynh,  
 T.-C. Jagau,  Hyunjun Ji,  B. Kaduk,  K. Khistyaev,  Jaehoon Kim,  
 P. Klunzinger,  K. Koh,  D. Kosenkov,  L. Koulias,  T. Kowalczyk,  
 C. M. Krauter,  A. Kunitsa,  Ka Un Lao,  A. Laurent,  K. V. Lawler,  
 Joonho Lee,  D. Lefrancois,  S. Lehtola,  D. S. Levine,  Yi-Pei Li,  
 You-Sheng Lin,  Fenglai Liu,  E. Livshits,  A. Luenser,  P. Manohar,  
 E. Mansoor,  S. F. Manzer,  Shan-Ping Mao,  Yuezhi Mao,  N. Mardirossian,  
 A. V. Marenich,  T. Markovich,  L. A. Martinez-Martinez,  S. A. Maurer,  
 N. J. Mayhall,  S. C. McKenzie,  J.-M. Mewes,  A. F. Morrison,  
 J. W. Mullinax,  K. Nanda,  T. S. Nguyen-Beck,  R. Olivares-Amaya,  
 J. A. Parkhill,  T. M. Perrine,  F. Plasser,  P. Pokhilko,  S. Prager,  
 A. Prociuk,  E. Ramos,  D. R. Rehn,  F. Rob,  M. Schneider,  N. Sergueev,  
 S. M. Sharada,  S. Sharma,  D. W. Small,  T. Stauch,  T. Stein,  
 Yu-Chuan Su,  A. J. W. Thom,  A. Tkatchenko,  T. Tsuchimochi,  N. M. Tubman,  
 L. Vogt,  M. L. Vidal,  O. Vydrov,  M. A. Watson,  J. Wenzel,  
 M. de Wergifosse,  T. A. Wesolowski,  A. White,  J. Witte,  A. Yamada,  
 Jun Yang,  K. Yao,  S. Yeganeh,  S. R. Yost,  Zhi-Qiang You,  A. Zech,  
 Igor Ying Zhang,  Xing Zhang,  Yan Zhao,  Ying Zhu,  B. R. Brooks,  
 G. K. L. Chan,  C. J. Cramer,  M. S. Gordon,  W. J. Hehre,  A. Klamt,  
 M. W. Schmidt,  C. D. Sherrill,  D. G. Truhlar,  A. Aspuru-Guzik,  R. Baer,  
 A. T. Bell,  N. A. Besley,  Jeng-Da Chai,  A. E. DePrince, III,  
 R. A. DiStasio Jr.,  A. Dreuw,  B. D. Dunietz,  T. R. Furlani,  
 Chao-Ping Hsu,  Yousung Jung,  Jing Kong,  D. S. Lambrecht,  WanZhen Liang,  
 C. Ochsenfeld,  V. A. Rassolov,  L. V. Slipchenko,  J. E. Subotnik,  
 T. Van Voorhis,  J. M. Herbert,  A. I. Krylov,  P. M. W. Gill,  M. Head-Gordon

 Contributors to earlier versions of Q-Chem not listed above: 
 R. D. Adamson,  B. Austin,  J. Baker,  G. J. O. Beran,  K. Brandhorst,  
 S. T. Brown,  E. F. C. Byrd,  A. K. Chakraborty,  C.-L. Cheng,  
 Siu Hung Chien,  D. M. Chipman,  D. L. Crittenden,  H. Dachsel,  
 R. J. Doerksen,  A. D. Dutoi,  L. Fusti-Molnar,  W. A. Goddard III,  
 A. Golubeva-Zadorozhnaya,  S. R. Gwaltney,  G. Hawkins,  A. Heyden,  
 S. Hirata,  G. Kedziora,  F. J. Keil,  C. Kelley,  Jihan Kim,  R. A. King,  
 R. Z. Khaliullin,  P. P. Korambath,  W. Kurlancheek,  A. M. Lee,  M. S. Lee,  
 S. V. Levchenko,  Ching Yeh Lin,  D. Liotard,  R. C. Lochan,  I. Lotan,  
 P. E. Maslen,  N. Nair,  D. P. O'Neill,  D. Neuhauser,  E. Neuscamman,  
 C. M. Oana,  R. Olson,  B. Peters,  R. Peverati,  P. A. Pieniazek,  
 Y. M. Rhee,  J. Ritchie,  M. A. Rohrdanz,  E. Rosta,  N. J. Russ,  
 H. F. Schaefer III,  N. E. Schultz,  N. Shenvi,  A. C. Simmonett,  A. Sodt,  
 D. Stuck,  K. S. Thanthiriwatte,  V. Vanovschi,  Tao Wang,  A. Warshel,  
 C. F. Williams,  Q. Wu,  X. Xu,  W. Zhang

 Please cite Q-Chem as follows:
 Y. Shao et al., Mol. Phys. 113, 184-215 (2015)
 DOI: 10.1080/00268976.2014.952696

 Q-Chem 5.1.1 for Intel X86 EM64T Linux

 Parts of Q-Chem use Armadillo 8.300.2 (Tropical Shenanigans).
 http://arma.sourceforge.net/

 Q-Chem begins on Fri Oct  9 01:35:04 2020  

Host: n0081.mhg0
0

     Scratch files written to /local/scratch/users/yhljason/CSO_PWPB95-D3_aug-cc-pcVTZ.inp20201008191748//
The previous job contains 0 fragments, simply inherited here
Input Ideriv = 0
Curr. Ideriv = -1
Max.  Ideriv = 0
Analytic post-HF gradients are not available with non-HF exchange
Input Ideriv = 0
Curr. Ideriv = 0
Max.  Ideriv = 0

Checking the input file for inconsistencies... 	...done.

--------------------------------------------------------------
User input:
--------------------------------------------------------------
$molecule
read
$end

$rem

jobtype sp
method PWPB95-D3
xc_grid 000099000590
basis aug-cc-pcVTZ
max_scf_cycles 200
thresh 14
scf_convergence 8
mem_total 128000
cc_memory 96000
cc_backend xm
mem_static 1500
symmetry false
sym_ignore true
scf_guess read
unrestricted false
scf_algorithm gdm
n_frozen_core 0
$end

$multipole_field
ZZ -0.0001
$end

--------------------------------------------------------------
 Adding empirical dispersion correction 
 ----------------------------------------------------------------
 Doing -D3(0) with
 s6  =   0.82000
 s8  =   0.70500
 rs6 =   1.55700
 rs8 =   1.00000
 -D3 energy without 3body term =     -0.0001133449 hartrees
 ----------------------------------------------------------------
             Standard Nuclear Orientation (Angstroms)
    I     Atom           X                Y                Z
 ----------------------------------------------------------------
    1      C       0.0000000000     0.0000000000     0.0000000000
    2      O       0.0000000000     0.0000000000     1.1600000000
    3      S       0.0000000000     0.0000000000    -1.5600000000
 ----------------------------------------------------------------
 Nuclear Repulsion Energy =    79.3640831009 hartrees
 There are       15 alpha and       15 beta electrons
 Requested basis set is aug-cc-pCVTZ
 There are 61 shells and 193 basis functions

 Total QAlloc Memory Limit 128000 MB
 Mega-Array Size      1467 MB
 MEM_STATIC part      1500 MB

                       Distance Matrix (Angstroms)
             C (  1)   O (  2)
   O (  2)  1.160000
   S (  3)  1.560000  2.720000
 
 Applying Cartesian multipole field
    Component          Value
    ---------          -----
     (0,0,2)       -1.00000E-04
 Nucleus-field energy     =    -0.0177490492 hartrees
 A cutoff of  1.0D-14 yielded   1820 shell pairs
 There are     18324 function pairs (     25483 Cartesian)
 
 -------------------------------------------------------
 OpenMP Integral Computing Module                       
 Release: version 1.0, May 2013, Q-Chem Inc. Pittsburgh 
 -------------------------------------------------------
 Integral Job Info:
 Integral job number is                      11
 Integral operator is                         1
 short-range coefficients                     0
 long-range coefficients              100000000
 Omega coefficients                           0
 if combine SR and LR in K                    0
 Integral screening is                        0
 Integral computing path is                   2
 max size of driver memory is            800000
 size of driver memory is                776718
 size of scratch memory is             29531563
 max col of scratch BK array              10000
 max len of scratch array in speh3          662
 max len of scratch index in speh4           32
 max int batch size is                      520
 min int batch size is                       52
 fixed nKL is                                31
 max L of basis functions is                  3
 order of int derivative is                   0
 number of shells is                         61
 number of basis is                         227
 number of cartesian basis is               227
 number of contracted shell pairs          1820
 number of primitive shell pairs           7952
 maxK2 (contraction) of shell pair          169
 max number of K2 of shell pair               1
 max number of CS2 of shell pair            226
 max number of PS2 of shell pair           1014
 mem total for path MDJ                  604144
 -------------------------------------------------------
 Smallest overlap matrix eigenvalue = 8.14E-05
 Guess MOs from SCF MO coefficient file

 -----------------------------------------------------------------------
  General SCF calculation program by
  Eric Jon Sundstrom, Paul Horn, Yuezhi Mao, Dmitri Zuev, Alec White,
  David Stuck, Shaama M.S., Shane Yost, Joonho Lee, David Small,
  Daniel Levine, Susi Lehtola, Hugh Burton, Evgeny Epifanovsky
 -----------------------------------------------------------------------
 Exchange:     0.5000 Hartree-Fock + 1.0000 PWPB95-D3
 Correlation:  0.7310 PWPB95-D3
 Using Euler-Maclaurin-Lebedev (99,590) quadrature formula
 Dispersion:   Grimme D3
 using 8 threads for integral computing
 -------------------------------------------------------
 OpenMP Integral computing Module                
 Release: version 2.0, May 2017, Q-Chem Inc. Pleasanton 
 -------------------------------------------------------
 -------------------------------------------------------
 OpenMP BLAS3 based DFT computing Module                
 Release: version 1.0, May 2013, Q-Chem Inc. Pittsburgh 
 -------------------------------------------------------
 A restricted SCF calculation will be
 performed using GDM
 SCF converges when RMS gradient is below 1.0e-08
 ---------------------------------------
  Cycle       Energy        RMS Gradient
 ---------------------------------------
    1    -511.3489291241      1.90e-03   Normal BFGS step
    2    -511.3489339671      2.11e-03   Normal BFGS step
    3    -511.3489433180      2.21e-04   Normal BFGS step
    4    -511.3489435780      1.71e-04   Normal BFGS step
    5    -511.3489436973      1.09e-04   Normal BFGS step
    6    -511.3489437128      4.06e-05   Normal BFGS step
    7    -511.3489437276      2.95e-06   Normal BFGS step
    8    -511.3489437277      5.94e-07   Normal BFGS step
    9    -511.3489437277      4.24e-08   Normal BFGS step
   10    -511.3489437277      1.12e-08   Normal BFGS step
   11    -511.3489437277      1.09e-09  Convergence criterion met
 ---------------------------------------
 SCF time:   CPU 780.70s  wall 99.00s 
 SCF   energy in the final basis set =     -511.3489437277
 Total energy in the final basis set =     -511.3489437277
 
 Components of the MP2 correlation energy:
        aaaa  correlation energy =         0.0000000000 au
        abab  correlation energy =        -0.2339027141 au
        bbbb  correlation energy =         0.0000000000 au
        non-Brillouin singles    =        -0.0000000000 au

 Total  MP2   correlation energy =                    -0.23390271 au
        MP2         total energy =                  -511.58284644 au
 
 --------------------------------------------------------------
 
                    Orbital Energies (a.u.)
 --------------------------------------------------------------
 
 Alpha MOs
 -- Occupied --
-90.064 -19.758 -10.748  -8.349  -6.210  -6.205  -6.205  -1.274
 -0.921  -0.638  -0.549  -0.549  -0.536  -0.351  -0.351
 -- Virtual --
  0.008   0.008   0.019   0.047   0.064   0.064   0.075   0.097
  0.097   0.128   0.173   0.178   0.178   0.192   0.192   0.205
  0.207   0.303   0.303   0.308   0.308   0.329   0.391   0.392
  0.392   0.452   0.452   0.509   0.533   0.571   0.571   0.571
  0.571   0.611   0.636   0.636   0.671   0.671   0.731   0.731
  0.762   0.795   0.795   0.814   0.814   0.837   0.948   1.004
  1.004   1.016   1.034   1.034   1.081   1.081   1.100   1.100
  1.118   1.263   1.336   1.366   1.366   1.444   1.444   1.512
  1.512   1.630   1.728   1.728   1.833   1.865   1.865   2.010
  2.010   2.043   2.043   2.105   2.105   2.134   2.134   2.192
  2.192   2.195   2.229   2.229   2.374   2.428   2.502   2.502
  2.543   2.589   2.589   2.759   2.759   2.859   2.990   2.990
  3.085   3.189   3.189   3.192   3.192   3.415   3.531   3.531
  3.585   3.585   3.897   3.897   4.006   4.221   4.772   4.888
  4.888   5.476   6.173   6.173   6.315   6.496   6.496   6.750
  6.750   6.909   6.909   7.128   7.137   7.137   8.157   8.351
  8.351   8.583   8.583   9.304  10.594  10.594  11.419  14.836
 15.258  15.258  16.716  16.964  25.853  25.853  26.832  29.115
 31.171  31.171  31.171  31.171  31.182  31.182  31.185  38.710
 38.710  38.800  38.800  39.204  40.649  40.649  40.811  40.811
 41.132  43.162  43.162  43.308  43.308  43.565  46.454  46.454
 47.271  80.238  80.238  81.361  85.596  85.951 137.183 137.183
138.059 149.103
 --------------------------------------------------------------
 
          Ground-State Mulliken Net Atomic Charges

     Atom                 Charge (a.u.)
  ----------------------------------------
      1 C                     0.117031
      2 O                    -0.273579
      3 S                     0.156548
  ----------------------------------------
  Sum of atomic charges =    -0.000000

 -----------------------------------------------------------------
                    Cartesian Multipole Moments
 -----------------------------------------------------------------
    Charge (ESU x 10^10)
                -0.0000
    Dipole Moment (Debye)
         X      -0.0000      Y       0.0000      Z      -0.8676
       Tot       0.8676
    Quadrupole Moments (Debye-Ang)
        XX     -23.3620     XY       0.0000     YY     -23.3620
        XZ       0.0000     YZ       0.0000     ZZ     -23.5564
    Octopole Moments (Debye-Ang^2)
       XXX      -0.0000    XXY       0.0000    XYY      -0.0000
       YYY       0.0000    XXZ      14.8402    XYZ      -0.0000
       YYZ      14.8402    XZZ      -0.0000    YZZ      -0.0000
       ZZZ      32.7489
    Hexadecapole Moments (Debye-Ang^3)
      XXXX     -27.1897   XXXY       0.0000   XXYY      -9.0632
      XYYY       0.0000   YYYY     -27.1897   XXXZ       0.0000
      XXYZ      -0.0000   XYYZ       0.0000   YYYZ      -0.0000
      XXZZ     -47.7002   XYZZ       0.0000   YYZZ     -47.7002
      XZZZ       0.0000   YZZZ       0.0000   ZZZZ    -231.8527
 -----------------------------------------------------------------
Archival summary:
1\1\n0081.mhg0\SP\ProcedureUnspecified\BasisUnspecified\111\yhljason\FriOct901:37:472020FriOct901:37:472020\0\\#,ProcedureUnspecified,BasisUnspecified,\\0,1\S\C,1,1.56\O,2,1.16,1,180\\\@

 Total job time:  162.74s(wall), 1279.81s(cpu) 
 Fri Oct  9 01:37:47 2020

        *************************************************************
        *                                                           *
        *  Thank you very much for using Q-Chem.  Have a nice day.  *
        *                                                           *
        *************************************************************


