Q-Chem Developer Version!
                  Welcome to Q-Chem
     A Quantum Leap Into The Future Of Chemistry


 Q-Chem 5.1, Q-Chem, Inc., Pleasanton, CA (2018)

 Yihan Shao,  Zhengting Gan,  E. Epifanovsky,  A. T. B. Gilbert,  M. Wormit,  
 J. Kussmann,  A. W. Lange,  A. Behn,  Jia Deng,  Xintian Feng,  D. Ghosh,  
 M. Goldey,  P. R. Horn,  L. D. Jacobson,  I. Kaliman,  T. Kus,  A. Landau,  
 Jie Liu,  E. I. Proynov,  R. M. Richard,  R. P. Steele,  E. J. Sundstrom,  
 H. L. Woodcock III,  P. M. Zimmerman,  D. Zuev,  B. Albrecht,  E. Alguire,  
 S. A. Baeppler,  D. Barton,  Z. Benda,  Y. A. Bernard,  E. J. Berquist,  
 K. B. Bravaya,  H. Burton,  D. Casanova,  Chun-Min Chang,  Yunqing Chen,  
 A. Chien,  K. D. Closser,  M. P. Coons,  S. Coriani,  S. Dasgupta,  
 A. L. Dempwolff,  M. Diedenhofen,  Hainam Do,  R. G. Edgar,  Po-Tung Fang,  
 S. Faraji,  S. Fatehi,  Qingguo Feng,  K. D. Fenk,  J. Fosso-Tande,  
 Qinghui Ge,  A. Ghysels,  G. Gidofalvi,  J. Gomes,  J. Gonthier,  A. Gunina,  
 D. Hait,  M. W. D. Hanson-Heine,  P. H. P. Harbach,  A. W. Hauser,  
 J. E. Herr,  E. G. Hohenstein,  Z. C. Holden,  Kerwin Hui,  B. C. Huynh,  
 T.-C. Jagau,  Hyunjun Ji,  B. Kaduk,  K. Khistyaev,  Jaehoon Kim,  
 P. Klunzinger,  K. Koh,  D. Kosenkov,  L. Koulias,  T. Kowalczyk,  
 C. M. Krauter,  A. Kunitsa,  Ka Un Lao,  A. Laurent,  K. V. Lawler,  
 Joonho Lee,  D. Lefrancois,  S. Lehtola,  D. S. Levine,  Yi-Pei Li,  
 You-Sheng Lin,  Fenglai Liu,  E. Livshits,  A. Luenser,  P. Manohar,  
 E. Mansoor,  S. F. Manzer,  Shan-Ping Mao,  Yuezhi Mao,  N. Mardirossian,  
 A. V. Marenich,  T. Markovich,  L. A. Martinez-Martinez,  S. A. Maurer,  
 N. J. Mayhall,  S. C. McKenzie,  J.-M. Mewes,  A. F. Morrison,  
 J. W. Mullinax,  K. Nanda,  T. S. Nguyen-Beck,  R. Olivares-Amaya,  
 J. A. Parkhill,  T. M. Perrine,  F. Plasser,  P. Pokhilko,  S. Prager,  
 A. Prociuk,  E. Ramos,  D. R. Rehn,  F. Rob,  M. Schneider,  N. Sergueev,  
 S. M. Sharada,  S. Sharma,  D. W. Small,  T. Stauch,  T. Stein,  
 Yu-Chuan Su,  A. J. W. Thom,  A. Tkatchenko,  T. Tsuchimochi,  N. M. Tubman,  
 L. Vogt,  M. L. Vidal,  O. Vydrov,  M. A. Watson,  J. Wenzel,  
 M. de Wergifosse,  T. A. Wesolowski,  A. White,  J. Witte,  A. Yamada,  
 Jun Yang,  K. Yao,  S. Yeganeh,  S. R. Yost,  Zhi-Qiang You,  A. Zech,  
 Igor Ying Zhang,  Xing Zhang,  Yan Zhao,  Ying Zhu,  B. R. Brooks,  
 G. K. L. Chan,  C. J. Cramer,  M. S. Gordon,  W. J. Hehre,  A. Klamt,  
 M. W. Schmidt,  C. D. Sherrill,  D. G. Truhlar,  A. Aspuru-Guzik,  R. Baer,  
 A. T. Bell,  N. A. Besley,  Jeng-Da Chai,  A. E. DePrince, III,  
 R. A. DiStasio Jr.,  A. Dreuw,  B. D. Dunietz,  T. R. Furlani,  
 Chao-Ping Hsu,  Yousung Jung,  Jing Kong,  D. S. Lambrecht,  WanZhen Liang,  
 C. Ochsenfeld,  V. A. Rassolov,  L. V. Slipchenko,  J. E. Subotnik,  
 T. Van Voorhis,  J. M. Herbert,  A. I. Krylov,  P. M. W. Gill,  M. Head-Gordon

 Contributors to earlier versions of Q-Chem not listed above: 
 R. D. Adamson,  B. Austin,  J. Baker,  G. J. O. Beran,  K. Brandhorst,  
 S. T. Brown,  E. F. C. Byrd,  A. K. Chakraborty,  C.-L. Cheng,  
 Siu Hung Chien,  D. M. Chipman,  D. L. Crittenden,  H. Dachsel,  
 R. J. Doerksen,  A. D. Dutoi,  L. Fusti-Molnar,  W. A. Goddard III,  
 A. Golubeva-Zadorozhnaya,  S. R. Gwaltney,  G. Hawkins,  A. Heyden,  
 S. Hirata,  G. Kedziora,  F. J. Keil,  C. Kelley,  Jihan Kim,  R. A. King,  
 R. Z. Khaliullin,  P. P. Korambath,  W. Kurlancheek,  A. M. Lee,  M. S. Lee,  
 S. V. Levchenko,  Ching Yeh Lin,  D. Liotard,  R. C. Lochan,  I. Lotan,  
 P. E. Maslen,  N. Nair,  D. P. O'Neill,  D. Neuhauser,  E. Neuscamman,  
 C. M. Oana,  R. Olson,  B. Peters,  R. Peverati,  P. A. Pieniazek,  
 Y. M. Rhee,  J. Ritchie,  M. A. Rohrdanz,  E. Rosta,  N. J. Russ,  
 H. F. Schaefer III,  N. E. Schultz,  N. Shenvi,  A. C. Simmonett,  A. Sodt,  
 D. Stuck,  K. S. Thanthiriwatte,  V. Vanovschi,  Tao Wang,  A. Warshel,  
 C. F. Williams,  Q. Wu,  X. Xu,  W. Zhang

 Please cite Q-Chem as follows:
 Y. Shao et al., Mol. Phys. 113, 184-215 (2015)
 DOI: 10.1080/00268976.2014.952696

 Q-Chem 5.1.1 for Intel X86 EM64T Linux

 Parts of Q-Chem use Armadillo 8.300.2 (Tropical Shenanigans).
 http://arma.sourceforge.net/

 Q-Chem begins on Fri Oct  9 01:15:42 2020  

Host: n0092.mhg0
0

     Scratch files written to /local/scratch/users/yhljason/H2CN_PWPB95-D3_aug-cc-pcV5Z.inp20201008191750//
Input Ideriv = 0
Curr. Ideriv = -1
Max.  Ideriv = 0
Input Ideriv = 0
Curr. Ideriv = 0
Max.  Ideriv = 0

Checking the input file for inconsistencies... 	...done.

--------------------------------------------------------------
User input:
--------------------------------------------------------------
$molecule
0 2
        C         0.0000000000    0.0000000000   -0.4906000000
        N         0.0000000000    0.0000000000    0.7226000000
        H         0.0000000000    0.9342000000   -1.0572000000
        H         0.0000000000   -0.9342000000   -1.0572000000
$end

$rem
jobtype sp
method PWPB95-D3
xc_grid 000099000590
basis aug-cc-pcV5Z
max_scf_cycles 200
thresh 14
scf_convergence 8
scf_algorithm gdm
symmetry false
sym_ignore true
unrestricted false
gen_scfman true
internal_stability_iter 15
internal_stability_davidson_iter 200
mem_total 128000
cc_memory 96000
cc_backend xm
mem_static 1500
n_frozen_core 1000
$end



--------------------------------------------------------------
 Adding empirical dispersion correction 
 ----------------------------------------------------------------
 Doing -D3(0) with
 s6  =   0.82000
 s8  =   0.70500
 rs6 =   1.55700
 rs8 =   1.00000
 -D3 energy without 3body term =     -0.0000684331 hartrees
 ----------------------------------------------------------------
             Standard Nuclear Orientation (Angstroms)
    I     Atom           X                Y                Z
 ----------------------------------------------------------------
    1      C       0.0000000000     0.0000000000    -0.4906000000
    2      N       0.0000000000     0.0000000000     0.7226000000
    3      H       0.0000000000     0.9342000000    -1.0572000000
    4      H       0.0000000000    -0.9342000000    -1.0572000000
 ----------------------------------------------------------------
 Nuclear Repulsion Energy =    28.1004727963 hartrees
 There are        8 alpha and        7 beta electrons
 Requested basis set is aug-cc-pCV5Z
 There are 122 shells and 522 basis functions

 Total QAlloc Memory Limit 128000 MB
 Mega-Array Size      1467 MB
 MEM_STATIC part      1500 MB

                       Distance Matrix (Angstroms)
             C (  1)   N (  2)   H (  3)
   N (  2)  1.213200
   H (  3)  1.092596  2.010079
   H (  4)  1.092596  2.010079  1.868400
 
 A cutoff of  1.0D-14 yielded   7281 shell pairs
 There are    135061 function pairs (    252783 Cartesian)
 
 -------------------------------------------------------
 OpenMP Integral Computing Module                       
 Release: version 1.0, May 2013, Q-Chem Inc. Pittsburgh 
 -------------------------------------------------------
 Integral Job Info:
 Integral job number is                      11
 Integral operator is                         1
 short-range coefficients                     0
 long-range coefficients              100000000
 Omega coefficients                           0
 if combine SR and LR in K                    0
 Integral screening is                        0
 Integral computing path is                   2
 max size of driver memory is           6400000
 size of driver memory is               5498286
 size of scratch memory is             29551430
 max col of scratch BK array             194481
 max len of scratch array in speh3         5572
 max len of scratch index in speh4           72
 max int batch size is                      520
 min int batch size is                       52
 fixed nKL is                                30
 max L of basis functions is                  5
 order of int derivative is                   0
 number of shells is                        122
 number of basis is                         712
 number of cartesian basis is               712
 number of contracted shell pairs          7281
 number of primitive shell pairs          12955
 maxK2 (contraction) of shell pair          100
 max number of K2 of shell pair               1
 max number of CS2 of shell pair            773
 max number of PS2 of shell pair            960
 mem total for path MDJ                 1328968
 -------------------------------------------------------
 Smallest overlap matrix eigenvalue = 2.42E-06

 Scale SEOQF with 1.000000e-01/1.000000e-01/1.000000e-01

 Standard Electronic Orientation quadrupole field applied
 Nucleus-field energy     =    -0.0000000007 hartrees
 Guess from superposition of atomic densities
 Warning:  Energy on first SCF cycle will be non-variational
 SAD guess density has 15.000000 electrons

 -----------------------------------------------------------------------
  General SCF calculation program by
  Eric Jon Sundstrom, Paul Horn, Yuezhi Mao, Dmitri Zuev, Alec White,
  David Stuck, Shaama M.S., Shane Yost, Joonho Lee, David Small,
  Daniel Levine, Susi Lehtola, Hugh Burton, Evgeny Epifanovsky
 -----------------------------------------------------------------------
 Exchange:     0.5000 Hartree-Fock + 1.0000 PWPB95-D3
 Correlation:  0.7310 PWPB95-D3
 Using Euler-Maclaurin-Lebedev (99,590) quadrature formula
 Dispersion:   Grimme D3
Running Object-Oriented ROKS (ROHF)
ROHF occupied orbitals are orthonormal
ROHF occupied orbitals are orthogonal to virtual orbitals
ROHF virtual orbitals are orthonormal
 LTot/LBra/LKet=          16           7           9

 Q-Chem warning:

 in GenH1, ket side, handled with new code

We will preform up to 15 macro iterations over saddle points until a stable solution is found
Energy prior to optimization (guess energy) = -93.221069671872
Begin Timing: Total SCF Calculation
Begin Timing: SCF Single Stationary Point Calculation
begin iterations for algorithm: GDM          
the SCF tolerance is set to 1.00e-08
 LTot/LBra/LBra=          20          10          10

 Q-Chem warning:

 in GenH1, bra side, handled with new code

    1     -93.2210696719      1.18e+00     00000  Descent step
    2     -93.6552695095      2.40e-01     00000  Descent step
    3     -93.8120741795      8.17e-02     00000  Dog-leg BFGS step
    4     -93.8603258497      5.64e-02     00000  Normal BFGS step
    5     -93.8634490937      3.60e-02     00000  Normal BFGS step
    6     -93.8642827716      8.31e-03     00000  Normal BFGS step
    7     -93.8643513715      2.13e-03     00000  Normal BFGS step
    8     -93.8643628875      1.30e-04     00000  Normal BFGS step
    9     -93.8643630337      4.55e-05     00000  Normal BFGS step
   10     -93.8643630477      7.08e-06     00000  Normal BFGS step
   11     -93.8643630480      1.97e-06     00000  Normal BFGS step
   12     -93.8643630480      5.55e-07     00000  Normal BFGS step
   13     -93.8643630480      4.95e-07     00000  Normal BFGS step
   14     -93.8643630480      7.00e-08     00000  Normal BFGS step
   15     -93.8643630480      3.06e-08     00000  Normal BFGS step
   16     -93.8643630480      1.96e-09     00000 Convergence criterion met
The disked orbital energies are calculated using alpha and beta Focks
Timing for Single Stationary Point: 11141.00s (wall), 89121.74s (cpu)
Begin Timing: Stability
===================================================
Beginning Test for Internal Stability
===================================================
generating davidson guess vectors based on koopmans-like excitations
    1      2.64e-01     00000 Davidson Iteration
    2      1.27e-01     00000 Davidson Iteration
    3      5.54e-02     00000 Davidson Iteration
    4      1.78e-02     00000 Davidson Iteration
    5      4.42e-03     00000 Davidson Iteration
    6      9.45e-04     00000 Davidson Iteration
    7      2.50e-04     00000 Davidson Iteration
    8      4.83e-05     00000 Davidson Converged
converged_eigenvalues
   0.2542
   0.3192
Threshold for negative eigenvalues: -1.0e-05
solution was a local minimum (stable)
===================================================
End Test for Internal Stability
===================================================
Our SCF solution is stable!
The disked orbital energies are calculated using alpha and beta Focks
Timing for Total SCF: 19142.00s (wall), 153074.89s (cpu)
 Total energy in the final basis set =      -93.8643630480
<S^2> =          0.750000000
    ==================================================
              The end of Object-Oriented SCFman       
    ==================================================

 Q-Chem fatal error occurred in module libmdc/qalloc.C, line 49:

 Illegal memory length in mega_alloc


 Please submit a crash report at q-chem.com/reporter 
 
 
 
User input: 2 of 2 
 
Q-Chem Developer Version!
                  Welcome to Q-Chem
     A Quantum Leap Into The Future Of Chemistry


 Q-Chem 5.1, Q-Chem, Inc., Pleasanton, CA (2018)

 Yihan Shao,  Zhengting Gan,  E. Epifanovsky,  A. T. B. Gilbert,  M. Wormit,  
 J. Kussmann,  A. W. Lange,  A. Behn,  Jia Deng,  Xintian Feng,  D. Ghosh,  
 M. Goldey,  P. R. Horn,  L. D. Jacobson,  I. Kaliman,  T. Kus,  A. Landau,  
 Jie Liu,  E. I. Proynov,  R. M. Richard,  R. P. Steele,  E. J. Sundstrom,  
 H. L. Woodcock III,  P. M. Zimmerman,  D. Zuev,  B. Albrecht,  E. Alguire,  
 S. A. Baeppler,  D. Barton,  Z. Benda,  Y. A. Bernard,  E. J. Berquist,  
 K. B. Bravaya,  H. Burton,  D. Casanova,  Chun-Min Chang,  Yunqing Chen,  
 A. Chien,  K. D. Closser,  M. P. Coons,  S. Coriani,  S. Dasgupta,  
 A. L. Dempwolff,  M. Diedenhofen,  Hainam Do,  R. G. Edgar,  Po-Tung Fang,  
 S. Faraji,  S. Fatehi,  Qingguo Feng,  K. D. Fenk,  J. Fosso-Tande,  
 Qinghui Ge,  A. Ghysels,  G. Gidofalvi,  J. Gomes,  J. Gonthier,  A. Gunina,  
 D. Hait,  M. W. D. Hanson-Heine,  P. H. P. Harbach,  A. W. Hauser,  
 J. E. Herr,  E. G. Hohenstein,  Z. C. Holden,  Kerwin Hui,  B. C. Huynh,  
 T.-C. Jagau,  Hyunjun Ji,  B. Kaduk,  K. Khistyaev,  Jaehoon Kim,  
 P. Klunzinger,  K. Koh,  D. Kosenkov,  L. Koulias,  T. Kowalczyk,  
 C. M. Krauter,  A. Kunitsa,  Ka Un Lao,  A. Laurent,  K. V. Lawler,  
 Joonho Lee,  D. Lefrancois,  S. Lehtola,  D. S. Levine,  Yi-Pei Li,  
 You-Sheng Lin,  Fenglai Liu,  E. Livshits,  A. Luenser,  P. Manohar,  
 E. Mansoor,  S. F. Manzer,  Shan-Ping Mao,  Yuezhi Mao,  N. Mardirossian,  
 A. V. Marenich,  T. Markovich,  L. A. Martinez-Martinez,  S. A. Maurer,  
 N. J. Mayhall,  S. C. McKenzie,  J.-M. Mewes,  A. F. Morrison,  
 J. W. Mullinax,  K. Nanda,  T. S. Nguyen-Beck,  R. Olivares-Amaya,  
 J. A. Parkhill,  T. M. Perrine,  F. Plasser,  P. Pokhilko,  S. Prager,  
 A. Prociuk,  E. Ramos,  D. R. Rehn,  F. Rob,  M. Schneider,  N. Sergueev,  
 S. M. Sharada,  S. Sharma,  D. W. Small,  T. Stauch,  T. Stein,  
 Yu-Chuan Su,  A. J. W. Thom,  A. Tkatchenko,  T. Tsuchimochi,  N. M. Tubman,  
 L. Vogt,  M. L. Vidal,  O. Vydrov,  M. A. Watson,  J. Wenzel,  
 M. de Wergifosse,  T. A. Wesolowski,  A. White,  J. Witte,  A. Yamada,  
 Jun Yang,  K. Yao,  S. Yeganeh,  S. R. Yost,  Zhi-Qiang You,  A. Zech,  
 Igor Ying Zhang,  Xing Zhang,  Yan Zhao,  Ying Zhu,  B. R. Brooks,  
 G. K. L. Chan,  C. J. Cramer,  M. S. Gordon,  W. J. Hehre,  A. Klamt,  
 M. W. Schmidt,  C. D. Sherrill,  D. G. Truhlar,  A. Aspuru-Guzik,  R. Baer,  
 A. T. Bell,  N. A. Besley,  Jeng-Da Chai,  A. E. DePrince, III,  
 R. A. DiStasio Jr.,  A. Dreuw,  B. D. Dunietz,  T. R. Furlani,  
 Chao-Ping Hsu,  Yousung Jung,  Jing Kong,  D. S. Lambrecht,  WanZhen Liang,  
 C. Ochsenfeld,  V. A. Rassolov,  L. V. Slipchenko,  J. E. Subotnik,  
 T. Van Voorhis,  J. M. Herbert,  A. I. Krylov,  P. M. W. Gill,  M. Head-Gordon

 Contributors to earlier versions of Q-Chem not listed above: 
 R. D. Adamson,  B. Austin,  J. Baker,  G. J. O. Beran,  K. Brandhorst,  
 S. T. Brown,  E. F. C. Byrd,  A. K. Chakraborty,  C.-L. Cheng,  
 Siu Hung Chien,  D. M. Chipman,  D. L. Crittenden,  H. Dachsel,  
 R. J. Doerksen,  A. D. Dutoi,  L. Fusti-Molnar,  W. A. Goddard III,  
 A. Golubeva-Zadorozhnaya,  S. R. Gwaltney,  G. Hawkins,  A. Heyden,  
 S. Hirata,  G. Kedziora,  F. J. Keil,  C. Kelley,  Jihan Kim,  R. A. King,  
 R. Z. Khaliullin,  P. P. Korambath,  W. Kurlancheek,  A. M. Lee,  M. S. Lee,  
 S. V. Levchenko,  Ching Yeh Lin,  D. Liotard,  R. C. Lochan,  I. Lotan,  
 P. E. Maslen,  N. Nair,  D. P. O'Neill,  D. Neuhauser,  E. Neuscamman,  
 C. M. Oana,  R. Olson,  B. Peters,  R. Peverati,  P. A. Pieniazek,  
 Y. M. Rhee,  J. Ritchie,  M. A. Rohrdanz,  E. Rosta,  N. J. Russ,  
 H. F. Schaefer III,  N. E. Schultz,  N. Shenvi,  A. C. Simmonett,  A. Sodt,  
 D. Stuck,  K. S. Thanthiriwatte,  V. Vanovschi,  Tao Wang,  A. Warshel,  
 C. F. Williams,  Q. Wu,  X. Xu,  W. Zhang

 Please cite Q-Chem as follows:
 Y. Shao et al., Mol. Phys. 113, 184-215 (2015)
 DOI: 10.1080/00268976.2014.952696

 Q-Chem 5.1.1 for Intel X86 EM64T Linux

 Parts of Q-Chem use Armadillo 8.300.2 (Tropical Shenanigans).
 http://arma.sourceforge.net/

 Q-Chem begins on Fri Oct  9 06:38:13 2020  

Host: n0092.mhg0
0

     Scratch files written to /local/scratch/users/yhljason/H2CN_PWPB95-D3_aug-cc-pcV5Z.inp20201008191750//
The previous job contains 0 fragments, simply inherited here
Input Ideriv = 1
Curr. Ideriv = -1
Max.  Ideriv = 1

Checking the input file for inconsistencies... 	...done.

--------------------------------------------------------------
User input:
--------------------------------------------------------------
$molecule
read
$end

$rem

jobtype sp
method HF
xc_grid 000099000590
basis aug-cc-pcV5Z
max_scf_cycles 0
scf_guess read
thresh 14
scf_convergence 8
mem_total 128000
cc_memory 96000
cc_backend xm
mem_static 1500
symmetry false
sym_ignore true
scf_guess read
unrestricted false
scf_algorithm gdm
n_frozen_core 0
$end


--------------------------------------------------------------
 ----------------------------------------------------------------
             Standard Nuclear Orientation (Angstroms)
    I     Atom           X                Y                Z
 ----------------------------------------------------------------
    1      C       0.0000000000     0.0000000000    -0.4906000000
    2      N       0.0000000000     0.0000000000     0.7226000000
    3      H       0.0000000000     0.9342000000    -1.0572000000
    4      H       0.0000000000    -0.9342000000    -1.0572000000
 ----------------------------------------------------------------
 Nuclear Repulsion Energy =    28.1005412294 hartrees
 There are        8 alpha and        7 beta electrons
 Requested basis set is aug-cc-pCV5Z
 There are 122 shells and 522 basis functions

 Total QAlloc Memory Limit 128000 MB
 Mega-Array Size      1467 MB
 MEM_STATIC part      1500 MB

                       Distance Matrix (Angstroms)
             C (  1)   N (  2)   H (  3)
   N (  2)  1.213200
   H (  3)  1.092596  2.010079
   H (  4)  1.092596  2.010079  1.868400
 
 A cutoff of  1.0D-14 yielded   7281 shell pairs
 There are    135061 function pairs (    252783 Cartesian)
 
 -------------------------------------------------------
 OpenMP Integral Computing Module                       
 Release: version 1.0, May 2013, Q-Chem Inc. Pittsburgh 
 -------------------------------------------------------
 Integral Job Info:
 Integral job number is                      11
 Integral operator is                         1
 short-range coefficients                     0
 long-range coefficients              100000000
 Omega coefficients                           0
 if combine SR and LR in K                    0
 Integral screening is                        0
 Integral computing path is                   2
 max size of driver memory is           6400000
 size of driver memory is               5498286
 size of scratch memory is             29551430
 max col of scratch BK array             194481
 max len of scratch array in speh3         5572
 max len of scratch index in speh4           72
 max int batch size is                      520
 min int batch size is                       52
 fixed nKL is                                30
 max L of basis functions is                  5
 order of int derivative is                   0
 number of shells is                        122
 number of basis is                         712
 number of cartesian basis is               712
 number of contracted shell pairs          7281
 number of primitive shell pairs          12955
 maxK2 (contraction) of shell pair          100
 max number of K2 of shell pair               1
 max number of CS2 of shell pair            773
 max number of PS2 of shell pair            960
 mem total for path MDJ                 1328968
 -------------------------------------------------------
 Smallest overlap matrix eigenvalue = 2.42E-06

 Scale SEOQF with 1.000000e-01/1.000000e-01/1.000000e-01

 Standard Electronic Orientation quadrupole field applied
 Nucleus-field energy     =    -0.0000000007 hartrees
 Guess MOs from SCF MO coefficient file
 Reading MOs from coefficient file
 Reading MOs from coefficient file
 The restricted Hartree-Fock energy will be evaluated
 The orbitals will not be altered
Using Q-Chem read-in guess as SCF_GUESS READ specified.

 using 8 threads for integral computing
 -------------------------------------------------------
 OpenMP Integral computing Module                
 Release: version 2.0, May 2017, Q-Chem Inc. Pleasanton 
 -------------------------------------------------------
 LTot/LBra/LKet=          20          10          10
 LTot/LBra/LKet=          20          10          10

 Q-Chem warning:

 in GenH1, ket side, handled with new code

 LTot/LBra/LKet=          20          10          10

 Q-Chem warning:

 in GenH1, ket side, handled with new code


 Q-Chem warning:

 in GenH1, ket side, handled with new code

 LTot/LBra/LBra=          20          10          10

 Q-Chem warning:

 in GenH1, bra side, handled with new code

TIMEINFO->: J/JK contribution 5073.36 sec.
Avoiding writing the new MOs to disk !!! 
 ---------------------------------------
  Cycle       Energy        RMS Gradient
 ---------------------------------------
    1     -93.4566664628      4.83E-02 Convergence criterion met
 ---------------------------------------
 SCF time:  CPU 5076.85 s  wall 642.45 s
 SCF   energy in the final basis set = -93.45666646
 Total energy in the final basis set = -93.45666646
 
 --------------------------------------------------------------
 
                    Orbital Energies (a.u.)
 --------------------------------------------------------------
 
 Alpha MOs
 -- Occupied --
-14.822 -10.617  -1.051  -0.690  -0.564  -0.463  -0.414  -0.339
 -- Virtual --
  0.007   0.024   0.021   0.039   0.054   0.079   0.078   0.084
  0.100   0.102   0.119   0.140   0.140   0.170   0.188   0.193
  0.204   0.214   0.226   0.231   0.240   0.244   0.267   0.267
  0.281   0.312   0.323   0.331   0.342   0.350   0.367   0.369
  0.396   0.398   0.420   0.473   0.488   0.488   0.501   0.518
  0.521   0.547   0.558   0.568   0.574   0.593   0.611   0.627
  0.638   0.635   0.657   0.675   0.682   0.703   0.728   0.734
  0.733   0.754   0.817   0.832   0.862   0.896   0.901   0.901
  0.916   0.916   0.927   0.945   0.997   1.005   0.999   1.020
  1.039   1.068   1.092   1.150   1.157   1.181   1.187   1.199
  1.199   1.240   1.249   1.268   1.298   1.333   1.338   1.355
  1.365   1.374   1.390   1.392   1.445   1.473   1.487   1.491
  1.499   1.548   1.600   1.605   1.609   1.637   1.651   1.742
  1.758   1.775   1.808   1.840   1.861   1.879   1.896   1.898
  1.934   1.950   1.955   1.993   2.010   2.059   2.064   2.120
  2.155   2.176   2.191   2.211   2.239   2.295   2.353   2.359
  2.391   2.435   2.447   2.431   2.451   2.492   2.525   2.538
  2.554   2.560   2.641   2.673   2.698   2.721   2.780   2.795
  2.823   2.835   2.872   2.895   2.917   2.945   3.004   3.002
  3.076   3.086   3.160   3.161   3.174   3.211   3.265   3.305
  3.317   3.325   3.356   3.353   3.358   3.387   3.405   3.410
  3.416   3.432   3.475   3.521   3.531   3.544   3.597   3.607
  3.714   3.714   3.741   3.772   3.785   3.859   3.884   3.932
  3.984   4.016   4.023   4.058   4.064   4.098   4.097   4.196
  4.224   4.232   4.243   4.270   4.350   4.398   4.413   4.456
  4.465   4.529   4.562   4.580   4.617   4.712   4.771   4.837
  4.840   4.862   4.975   4.991   5.021   5.064   5.102   5.171
  5.210   5.317   5.331   5.345   5.417   5.438   5.459   5.494
  5.567   5.578   5.584   5.605   5.603   5.617   5.640   5.737
  5.740   5.763   5.785   5.836   5.896   5.917   5.946   5.977
  5.997   6.052   6.120   6.109   6.139   6.171   6.207   6.241
  6.397   6.507   6.570   6.591   6.654   6.703   6.724   6.766
  6.783   6.925   7.092   7.105   7.130   7.188   7.227   7.250
  7.290   7.358   7.386   7.600   7.601   7.640   7.724   7.758
  7.803   7.905   8.004   8.114   8.127   8.180   8.217   8.482
  8.626   8.751   8.845   9.060   9.135   9.249   9.297   9.315
  9.377   9.535   9.604   9.837   9.876   9.936  10.083  10.135
 10.158  10.172  10.177  10.352  10.502  10.552  10.625  10.669
 10.829  10.867  11.019  11.086  11.104  11.208  11.416  11.449
 11.585  11.809  11.824  11.893  12.097  12.102  12.395  12.415
 12.610  12.800  12.864  12.879  12.879  12.935  12.955  12.967
 12.977  13.076  13.102  13.147  13.227  13.249  13.335  13.386
 13.394  13.427  13.539  13.697  13.700  13.776  13.832  13.824
 14.059  14.083  14.123  14.137  14.210  14.217  14.269  14.286
 14.274  14.331  14.347  14.363  14.393  14.437  14.434  14.522
 14.752  14.764  14.775  14.831  14.847  14.856  15.023  15.102
 15.145  15.215  15.266  15.366  15.381  15.476  15.568  15.668
 15.887  15.984  15.973  15.973  16.062  16.338  16.800  17.070
 17.273  17.533  17.571  17.712  17.784  17.850  17.860  17.938
 18.027  18.045  18.058  18.262  18.447  18.665  18.825  19.207
 19.319  19.554  20.303  21.140  21.367  21.705  23.915  24.543
 25.834  29.269  29.531  31.372  36.031  36.298  36.435  37.496
 37.567  46.798  46.865  46.956  47.154  47.296  47.318  47.945
 50.139  50.245  50.555  50.568  50.740  51.275  57.982  58.003
 58.382  58.451  58.750  59.021  59.152  59.272  61.229  61.624
 65.764  82.134  82.346  83.878 107.417 107.619 107.748 108.425
108.499 129.835 149.730 149.811 150.041 150.152 150.458 164.540
166.222 166.469 166.603 166.603 166.606 166.608 166.608 166.609
166.618 166.667 166.707 171.615 187.320 187.352 187.390 187.474
187.537 187.571 187.810 207.997 207.996 208.012 208.007 208.014
208.008 208.011 208.015 208.019 228.526 228.710 229.976 235.006
235.015 235.172 235.205 235.386 235.517 235.527 328.403 328.545
328.596 329.102 329.164 336.783 448.528 455.199 455.258 455.415
455.492 455.736 463.716 465.195 465.505 641.917 642.075 643.166
*******1574.403
 
 Beta MOs
 -- Occupied --
-14.803 -10.617  -1.006  -0.663  -0.530  -0.432  -0.400
 -- Virtual --
 -0.016   0.008   0.026   0.027   0.040   0.057   0.080   0.080
  0.086   0.105   0.105   0.122   0.142   0.142   0.174   0.189
  0.196   0.207   0.216   0.228   0.234   0.245   0.249   0.268
  0.269   0.290   0.316   0.326   0.335   0.344   0.354   0.369
  0.376   0.399   0.407   0.423   0.477   0.490   0.492   0.505
  0.521   0.523   0.548   0.561   0.572   0.582   0.595   0.624
  0.629   0.644   0.644   0.661   0.678   0.689   0.711   0.732
  0.736   0.736   0.756   0.822   0.839   0.866   0.899   0.902
  0.907   0.919   0.920   0.929   0.950   1.001   1.006   1.009
  1.025   1.045   1.071   1.094   1.158   1.160   1.185   1.199
  1.204   1.214   1.252   1.260   1.270   1.300   1.335   1.341
  1.364   1.369   1.378   1.395   1.395   1.449   1.475   1.491
  1.495   1.501   1.551   1.606   1.609   1.615   1.639   1.654
  1.755   1.763   1.782   1.810   1.861   1.866   1.886   1.901
  1.904   1.937   1.956   1.958   2.003   2.017   2.065   2.072
  2.129   2.160   2.178   2.196   2.218   2.244   2.305   2.361
  2.368   2.403   2.442   2.451   2.455   2.466   2.509   2.538
  2.545   2.558   2.570   2.646   2.678   2.702   2.732   2.792
  2.803   2.834   2.838   2.876   2.903   2.922   2.951   3.008
  3.012   3.083   3.090   3.166   3.168   3.178   3.224   3.270
  3.314   3.320   3.328   3.359   3.362   3.369   3.390   3.408
  3.415   3.421   3.437   3.483   3.526   3.540   3.550   3.613
  3.617   3.717   3.723   3.759   3.775   3.793   3.863   3.890
  3.937   3.990   4.025   4.029   4.065   4.078   4.103   4.107
  4.201   4.232   4.247   4.249   4.280   4.356   4.405   4.425
  4.460   4.470   4.539   4.568   4.586   4.625   4.721   4.777
  4.852   4.855   4.876   4.992   5.002   5.028   5.069   5.112
  5.184   5.218   5.331   5.339   5.365   5.428   5.455   5.467
  5.517   5.578   5.597   5.600   5.618   5.623   5.628   5.649
  5.751   5.754   5.779   5.790   5.848   5.905   5.925   5.960
  5.992   6.019   6.061   6.130   6.133   6.148   6.184   6.216
  6.248   6.414   6.527   6.578   6.605   6.664   6.720   6.731
  6.778   6.793   6.945   7.108   7.119   7.142   7.199   7.243
  7.259   7.307   7.377   7.400   7.608   7.608   7.656   7.730
  7.767   7.814   7.925   8.007   8.140   8.152   8.195   8.230
  8.486   8.633   8.758   8.866   9.080   9.137   9.254   9.301
  9.320   9.380   9.541   9.610   9.841   9.882   9.941  10.089
 10.141  10.161  10.174  10.180  10.362  10.506  10.560  10.640
 10.674  10.842  10.881  11.063  11.091  11.112  11.220  11.419
 11.453  11.595  11.812  11.832  11.904  12.133  12.138  12.425
 12.445  12.617  12.822  12.882  12.888  12.889  12.944  12.964
 12.976  12.986  13.082  13.114  13.155  13.242  13.257  13.348
 13.396  13.407  13.439  13.551  13.708  13.711  13.792  13.837
 13.840  14.072  14.098  14.140  14.150  14.226  14.235  14.287
 14.299  14.301  14.341  14.380  14.382  14.432  14.462  14.470
 14.539  14.767  14.787  14.801  14.856  14.864  14.867  15.034
 15.118  15.155  15.239  15.282  15.383  15.399  15.499  15.583
 15.683  15.898  15.995  15.998  16.004  16.073  16.356  16.817
 17.087  17.282  17.544  17.582  17.745  17.793  17.865  17.878
 17.980  18.059  18.074  18.080  18.283  18.460  18.678  18.834
 19.218  19.348  19.563  20.312  21.152  21.373  21.706  23.927
 24.545  25.855  29.290  29.599  31.393  36.031  36.299  36.436
 37.497  37.569  46.798  46.865  46.956  47.154  47.297  47.318
 47.945  50.182  50.290  50.557  50.580  50.785  51.293  58.028
 58.048  58.415  58.478  58.756  59.047  59.193  59.274  61.230
 61.626  65.796  82.145  82.388  83.890 107.417 107.619 107.748
108.425 108.499 129.835 149.750 149.831 150.046 150.173 150.467
164.540 166.222 166.469 166.603 166.604 166.606 166.608 166.608
166.609 166.618 166.667 166.707 171.633 187.320 187.352 187.390
187.474 187.538 187.571 187.810 208.016 208.016 208.019 208.021
208.023 208.024 208.026 208.036 208.037 228.532 228.731 229.982
235.021 235.029 235.183 235.215 235.389 235.531 235.535 328.403
328.545 328.596 329.102 329.164 336.783 448.536 455.207 455.266
455.416 455.500 455.740 463.716 465.195 465.505 641.919 642.083
643.1691174.5561574.406
 --------------------------------------------------------------
 
          Ground-State Mulliken Net Atomic Charges

     Atom                 Charge (a.u.)
  ----------------------------------------
      1 C                    -0.151047
      2 N                    -0.319208
      3 H                     0.235127
      4 H                     0.235127
  ----------------------------------------
  Sum of atomic charges =    -0.000000

 -----------------------------------------------------------------
                    Cartesian Multipole Moments
 -----------------------------------------------------------------
    Charge (ESU x 10^10)
                -0.0000
    Dipole Moment (Debye)
         X       0.0000      Y       0.0000      Z      -2.4949
       Tot       2.4949
    Quadrupole Moments (Debye-Ang)
        XX     -12.8243     XY       0.0000     YY     -11.0469
        XZ      -0.0000     YZ      -0.0000     ZZ     -12.9257
    Octopole Moments (Debye-Ang^2)
       XXX       0.0000    XXY       0.0000    XYY       0.0000
       YYY       0.0000    XXZ      -0.2081    XYZ      -0.0000
       YYZ      -1.6990    XZZ       0.0000    YZZ       0.0000
       ZZZ      -3.8933
    Hexadecapole Moments (Debye-Ang^3)
      XXXX     -13.5350   XXXY       0.0000   XXYY      -5.6560
      XYYY       0.0000   YYYY     -17.8071   XXXZ      -0.0000
      XXYZ      -0.0000   XYYZ      -0.0000   YYYZ      -0.0000
      XXZZ     -10.5496   XYZZ      -0.0000   YYZZ     -10.0343
      XZZZ      -0.0000   YZZZ      -0.0000   ZZZZ     -50.7853
 -----------------------------------------------------------------
Archival summary:
1\1\n0092.mhg0\SP\ROHF\BasisUnspecified\112(2)\yhljason\FriOct906:49:062020FriOct906:49:062020\0\\#,ROHF,BasisUnspecified,\\0,2\C\H,1,1.0926\H,1,1.0926,2,117.526\N,1,1.2132,2,121.237,3,-180,0\\HF=-93.4566665\\@

 Total job time:  653.38s(wall), 5096.09s(cpu) 
 Fri Oct  9 06:49:06 2020

        *************************************************************
        *                                                           *
        *  Thank you very much for using Q-Chem.  Have a nice day.  *
        *                                                           *
        *************************************************************


