Q-Chem Developer Version!
                  Welcome to Q-Chem
     A Quantum Leap Into The Future Of Chemistry


 Q-Chem 5.1, Q-Chem, Inc., Pleasanton, CA (2018)

 Yihan Shao,  Zhengting Gan,  E. Epifanovsky,  A. T. B. Gilbert,  M. Wormit,  
 J. Kussmann,  A. W. Lange,  A. Behn,  Jia Deng,  Xintian Feng,  D. Ghosh,  
 M. Goldey,  P. R. Horn,  L. D. Jacobson,  I. Kaliman,  T. Kus,  A. Landau,  
 Jie Liu,  E. I. Proynov,  R. M. Richard,  R. P. Steele,  E. J. Sundstrom,  
 H. L. Woodcock III,  P. M. Zimmerman,  D. Zuev,  B. Albrecht,  E. Alguire,  
 S. A. Baeppler,  D. Barton,  Z. Benda,  Y. A. Bernard,  E. J. Berquist,  
 K. B. Bravaya,  H. Burton,  D. Casanova,  Chun-Min Chang,  Yunqing Chen,  
 A. Chien,  K. D. Closser,  M. P. Coons,  S. Coriani,  S. Dasgupta,  
 A. L. Dempwolff,  M. Diedenhofen,  Hainam Do,  R. G. Edgar,  Po-Tung Fang,  
 S. Faraji,  S. Fatehi,  Qingguo Feng,  K. D. Fenk,  J. Fosso-Tande,  
 Qinghui Ge,  A. Ghysels,  G. Gidofalvi,  J. Gomes,  J. Gonthier,  A. Gunina,  
 D. Hait,  M. W. D. Hanson-Heine,  P. H. P. Harbach,  A. W. Hauser,  
 J. E. Herr,  E. G. Hohenstein,  Z. C. Holden,  Kerwin Hui,  B. C. Huynh,  
 T.-C. Jagau,  Hyunjun Ji,  B. Kaduk,  K. Khistyaev,  Jaehoon Kim,  
 P. Klunzinger,  K. Koh,  D. Kosenkov,  L. Koulias,  T. Kowalczyk,  
 C. M. Krauter,  A. Kunitsa,  Ka Un Lao,  A. Laurent,  K. V. Lawler,  
 Joonho Lee,  D. Lefrancois,  S. Lehtola,  D. S. Levine,  Yi-Pei Li,  
 You-Sheng Lin,  Fenglai Liu,  E. Livshits,  A. Luenser,  P. Manohar,  
 E. Mansoor,  S. F. Manzer,  Shan-Ping Mao,  Yuezhi Mao,  N. Mardirossian,  
 A. V. Marenich,  T. Markovich,  L. A. Martinez-Martinez,  S. A. Maurer,  
 N. J. Mayhall,  S. C. McKenzie,  J.-M. Mewes,  A. F. Morrison,  
 J. W. Mullinax,  K. Nanda,  T. S. Nguyen-Beck,  R. Olivares-Amaya,  
 J. A. Parkhill,  T. M. Perrine,  F. Plasser,  P. Pokhilko,  S. Prager,  
 A. Prociuk,  E. Ramos,  D. R. Rehn,  F. Rob,  M. Schneider,  N. Sergueev,  
 S. M. Sharada,  S. Sharma,  D. W. Small,  T. Stauch,  T. Stein,  
 Yu-Chuan Su,  A. J. W. Thom,  A. Tkatchenko,  T. Tsuchimochi,  N. M. Tubman,  
 L. Vogt,  M. L. Vidal,  O. Vydrov,  M. A. Watson,  J. Wenzel,  
 M. de Wergifosse,  T. A. Wesolowski,  A. White,  J. Witte,  A. Yamada,  
 Jun Yang,  K. Yao,  S. Yeganeh,  S. R. Yost,  Zhi-Qiang You,  A. Zech,  
 Igor Ying Zhang,  Xing Zhang,  Yan Zhao,  Ying Zhu,  B. R. Brooks,  
 G. K. L. Chan,  C. J. Cramer,  M. S. Gordon,  W. J. Hehre,  A. Klamt,  
 M. W. Schmidt,  C. D. Sherrill,  D. G. Truhlar,  A. Aspuru-Guzik,  R. Baer,  
 A. T. Bell,  N. A. Besley,  Jeng-Da Chai,  A. E. DePrince, III,  
 R. A. DiStasio Jr.,  A. Dreuw,  B. D. Dunietz,  T. R. Furlani,  
 Chao-Ping Hsu,  Yousung Jung,  Jing Kong,  D. S. Lambrecht,  WanZhen Liang,  
 C. Ochsenfeld,  V. A. Rassolov,  L. V. Slipchenko,  J. E. Subotnik,  
 T. Van Voorhis,  J. M. Herbert,  A. I. Krylov,  P. M. W. Gill,  M. Head-Gordon

 Contributors to earlier versions of Q-Chem not listed above: 
 R. D. Adamson,  B. Austin,  J. Baker,  G. J. O. Beran,  K. Brandhorst,  
 S. T. Brown,  E. F. C. Byrd,  A. K. Chakraborty,  C.-L. Cheng,  
 Siu Hung Chien,  D. M. Chipman,  D. L. Crittenden,  H. Dachsel,  
 R. J. Doerksen,  A. D. Dutoi,  L. Fusti-Molnar,  W. A. Goddard III,  
 A. Golubeva-Zadorozhnaya,  S. R. Gwaltney,  G. Hawkins,  A. Heyden,  
 S. Hirata,  G. Kedziora,  F. J. Keil,  C. Kelley,  Jihan Kim,  R. A. King,  
 R. Z. Khaliullin,  P. P. Korambath,  W. Kurlancheek,  A. M. Lee,  M. S. Lee,  
 S. V. Levchenko,  Ching Yeh Lin,  D. Liotard,  R. C. Lochan,  I. Lotan,  
 P. E. Maslen,  N. Nair,  D. P. O'Neill,  D. Neuhauser,  E. Neuscamman,  
 C. M. Oana,  R. Olson,  B. Peters,  R. Peverati,  P. A. Pieniazek,  
 Y. M. Rhee,  J. Ritchie,  M. A. Rohrdanz,  E. Rosta,  N. J. Russ,  
 H. F. Schaefer III,  N. E. Schultz,  N. Shenvi,  A. C. Simmonett,  A. Sodt,  
 D. Stuck,  K. S. Thanthiriwatte,  V. Vanovschi,  Tao Wang,  A. Warshel,  
 C. F. Williams,  Q. Wu,  X. Xu,  W. Zhang

 Please cite Q-Chem as follows:
 Y. Shao et al., Mol. Phys. 113, 184-215 (2015)
 DOI: 10.1080/00268976.2014.952696

 Q-Chem 5.1.1 for Intel X86 EM64T Linux

 Parts of Q-Chem use Armadillo 8.300.2 (Tropical Shenanigans).
 http://arma.sourceforge.net/

 Q-Chem begins on Fri Oct  9 01:22:27 2020  

Host: n0089.mhg0
0

     Scratch files written to /local/scratch/users/yhljason/Mg2_PWPB95-D3_aug-cc-pcVQZ.inp20201008191755//
Input Ideriv = 0
Curr. Ideriv = -1
Max.  Ideriv = 0
Analytic post-HF gradients are not available with non-HF exchange
Input Ideriv = 0
Curr. Ideriv = 0
Max.  Ideriv = 0

Checking the input file for inconsistencies... 	...done.

--------------------------------------------------------------
User input:
--------------------------------------------------------------
$molecule
0 1
Mg1	0.0000	0.0000	0.0000
Mg2	0.0000	0.0000	3.8905
$end

$rem
jobtype sp
method PWPB95-D3
xc_grid 000099000590
basis aug-cc-pcVQZ
max_scf_cycles 200
thresh 14
scf_convergence 8
scf_algorithm gdm
symmetry false
sym_ignore true
unrestricted false
gen_scfman true
internal_stability_iter 15
internal_stability_davidson_iter 200
mem_total 128000
cc_memory 96000
cc_backend xm
mem_static 1500
n_frozen_core 0
$end



--------------------------------------------------------------
 Adding empirical dispersion correction 
 ----------------------------------------------------------------
 Doing -D3(0) with
 s6  =   0.82000
 s8  =   0.70500
 rs6 =   1.55700
 rs8 =   1.00000
 -D3 energy without 3body term =     -0.0024555842 hartrees
 ----------------------------------------------------------------
             Standard Nuclear Orientation (Angstroms)
    I     Atom           X                Y                Z
 ----------------------------------------------------------------
    1      Mg      0.0000000000     0.0000000000     0.0000000000
    2      Mg      0.0000000000     0.0000000000     3.8905000000
 ----------------------------------------------------------------
 Nuclear Repulsion Energy =    19.5841061316 hartrees
 There are       12 alpha and       12 beta electrons
 Requested basis set is aug-cc-pCVQZ
 There are 68 shells and 268 basis functions

 Total QAlloc Memory Limit 128000 MB
 Mega-Array Size      1467 MB
 MEM_STATIC part      1500 MB

                       Distance Matrix (Angstroms)
             Mg(  1)
   Mg(  2)  3.890500
 
 A cutoff of  1.0D-14 yielded   2153 shell pairs
 There are     34009 function pairs (     57654 Cartesian)
 
 -------------------------------------------------------
 OpenMP Integral Computing Module                       
 Release: version 1.0, May 2013, Q-Chem Inc. Pittsburgh 
 -------------------------------------------------------
 Integral Job Info:
 Integral job number is                      11
 Integral operator is                         1
 short-range coefficients                     0
 long-range coefficients              100000000
 Omega coefficients                           0
 if combine SR and LR in K                    0
 Integral screening is                        0
 Integral computing path is                   2
 max size of driver memory is           3200000
 size of driver memory is               1704330
 size of scratch memory is             29417912
 max col of scratch BK array              50625
 max len of scratch array in speh3         2114
 max len of scratch index in speh4           50
 max int batch size is                      520
 min int batch size is                       52
 fixed nKL is                                16
 max L of basis functions is                  4
 order of int derivative is                   0
 number of shells is                         68
 number of basis is                         348
 number of cartesian basis is               348
 number of contracted shell pairs          2153
 number of primitive shell pairs          11329
 maxK2 (contraction) of shell pair          169
 max number of K2 of shell pair               1
 max number of CS2 of shell pair            186
 max number of PS2 of shell pair           2028
 mem total for path MDJ                  752464
 -------------------------------------------------------
 Smallest overlap matrix eigenvalue = 9.12E-05

 Scale SEOQF with 1.000000e-02/1.000000e-02/1.000000e-02

 Standard Electronic Orientation quadrupole field applied
 Nucleus-field energy     =    -0.0000000019 hartrees
 Guess from superposition of atomic densities
 Warning:  Energy on first SCF cycle will be non-variational
 SAD guess density has 24.000000 electrons

 -----------------------------------------------------------------------
  General SCF calculation program by
  Eric Jon Sundstrom, Paul Horn, Yuezhi Mao, Dmitri Zuev, Alec White,
  David Stuck, Shaama M.S., Shane Yost, Joonho Lee, David Small,
  Daniel Levine, Susi Lehtola, Hugh Burton, Evgeny Epifanovsky
 -----------------------------------------------------------------------
 Exchange:     0.5000 Hartree-Fock + 1.0000 PWPB95-D3
 Correlation:  0.7310 PWPB95-D3
 Using Euler-Maclaurin-Lebedev (99,590) quadrature formula
 Dispersion:   Grimme D3
Running Object-Oriented RKS (RHF)
We will preform up to 15 macro iterations over saddle points until a stable solution is found
Energy prior to optimization (guess energy) = -399.997332535538
Begin Timing: Total SCF Calculation
Begin Timing: SCF Single Stationary Point Calculation
begin iterations for algorithm: GDM          
the SCF tolerance is set to 1.00e-08
    1    -399.9973325355      8.05e-03     00000  Normal BFGS step
    2    -399.9974686965      1.55e-03     00000  Normal BFGS step
    3    -399.9974809345      1.46e-04     00000  Normal BFGS step
    4    -399.9974813181      4.03e-05     00000  Normal BFGS step
    5    -399.9974813280      7.50e-06     00000  Normal BFGS step
    6    -399.9974813288      1.14e-06     00000  Normal BFGS step
    7    -399.9974813288      2.03e-07     00000  Normal BFGS step
    8    -399.9974813288      3.57e-08     00000  Normal BFGS step
    9    -399.9974813288      1.88e-09     00000 Convergence criterion met
Timing for Single Stationary Point: 301.00s (wall), 2387.55s (cpu)
Begin Timing: Stability
===================================================
Beginning Test for Internal Stability
===================================================
generating davidson guess vectors based on koopmans excitations
    1      1.38e+00     00000 Davidson Iteration
    2      1.51e-01     00000 Davidson Iteration
    3      1.02e-01     00000 Davidson Iteration
    4      1.50e-02     00000 Davidson Iteration
    5      3.22e-03     00000 Davidson Iteration
    6      8.95e-04     00000 Davidson Iteration
    7      3.76e-04     00000 Davidson Iteration
    8      1.24e-04     00000 Davidson Iteration
    9      1.87e-05     00000 Davidson Iteration
   10      3.40e-04     00000 Davidson Iteration
   11      8.23e-05     00000 Davidson Converged
converged_eigenvalues
   0.4922
   0.5672
Threshold for negative eigenvalues: -1.0e-05
solution was a local minimum (stable)
===================================================
End Test for Internal Stability
===================================================
Our SCF solution is stable!
Timing for Total SCF: 754.00s (wall), 5978.68s (cpu)
 Total energy in the final basis set =     -399.9974813288
    ==================================================
              The end of Object-Oriented SCFman       
    ==================================================
 
 Components of the MP2 correlation energy:
        aaaa  correlation energy =         0.0000000000 au
        abab  correlation energy =        -0.1730647261 au
        bbbb  correlation energy =         0.0000000000 au
        non-Brillouin singles    =        -0.0000000000 au

 Total  MP2   correlation energy =                    -0.17306473 au
        MP2         total energy =                  -400.17054605 au
 
 --------------------------------------------------------------
 
                    Orbital Energies (a.u.)
 --------------------------------------------------------------
 
 Alpha MOs
 -- Occupied --
-47.637 -47.637  -3.343  -3.343  -2.004  -2.004  -2.004  -2.004
 -2.004  -2.004  -0.241  -0.196
 -- Virtual --
 -0.023  -0.022  -0.022   0.006   0.006   0.008   0.014   0.019
  0.019   0.021   0.028   0.028   0.035   0.051   0.068   0.068
  0.081   0.082   0.082   0.096   0.096   0.099   0.099   0.102
  0.102   0.104   0.108   0.132   0.139   0.139   0.146   0.198
  0.222   0.222   0.226   0.226   0.233   0.233   0.251   0.260
  0.260   0.263   0.263   0.277   0.277   0.297   0.297   0.306
  0.313   0.315   0.315   0.320   0.320   0.323   0.323   0.325
  0.325   0.351   0.421   0.421   0.429   0.436   0.439   0.583
  0.611   0.611   0.612   0.612   0.625   0.625   0.633   0.645
  0.645   0.668   0.668   0.678   0.678   0.688   0.688   0.702
  0.702   0.713   0.713   0.714   0.714   0.718   0.718   0.737
  0.737   0.738   0.738   0.761   0.761   0.765   0.791   0.791
  0.791   0.806   0.838   0.838   0.855   0.855   0.915   0.941
  0.952   0.952   0.954   0.954   1.031   1.062   1.062   1.340
  1.459   1.459   1.469   1.469   1.474   1.474   1.509   1.527
  1.527   1.611   1.720   1.720   1.729   1.729   1.736   1.736
  1.741   1.741   1.749   1.749   1.759   1.759   1.769   1.769
  1.770   1.770   1.773   1.773   1.783   1.795   1.795   1.812
  1.812   1.833   1.837   1.837   1.839   1.839   1.882   1.905
  1.905   2.017   2.622   2.736   4.248   4.248   4.255   4.255
  4.258   4.258   4.294   4.307   4.307   4.394   4.724   4.724
  4.745   4.745   4.760   5.016   9.475   9.475   9.475   9.475
  9.478   9.478   9.478   9.478   9.485   9.485   9.495   9.507
  9.507   9.530  10.949  11.096  13.633  13.633  13.639  13.639
 13.641  13.641  13.670  13.675  13.675  13.738  22.223  22.223
 22.237  22.237  22.252  22.417  24.889  24.889  24.889  24.889
 24.889  24.889  24.889  24.889  24.889  24.889  24.890  24.890
 24.890  24.890  24.890  24.890  24.890  24.891  32.205  32.205
 32.205  32.205  32.206  32.206  32.207  32.207  32.210  32.210
 32.216  32.222  32.222  32.236  35.632  35.755  41.345  41.345
 41.350  41.350  41.351  41.351  41.372  41.375  41.375  41.418
 90.036  90.036  90.046  90.046  90.057  90.177 153.939 154.147
 --------------------------------------------------------------
 
          Ground-State Mulliken Net Atomic Charges

     Atom                 Charge (a.u.)
  ----------------------------------------
      1 Mg                   -0.000000
      2 Mg                    0.000000
  ----------------------------------------
  Sum of atomic charges =    -0.000000

 -----------------------------------------------------------------
                    Cartesian Multipole Moments
 -----------------------------------------------------------------
    Charge (ESU x 10^10)
                -0.0000
    Dipole Moment (Debye)
         X      -0.0000      Y       0.0000      Z       0.0000
       Tot       0.0000
    Quadrupole Moments (Debye-Ang)
        XX     -25.2747     XY       0.0000     YY     -25.2747
        XZ      -0.0000     YZ       0.0000     ZZ     -26.8951
    Octopole Moments (Debye-Ang^2)
       XXX      -0.0000    XXY       0.0000    XYY      -0.0000
       YYY       0.0000    XXZ     -49.1657    XYZ       0.0000
       YYZ     -49.1657    XZZ      -0.0000    YZZ       0.0000
       ZZZ    -156.9528
    Hexadecapole Moments (Debye-Ang^3)
      XXXX     -74.1434   XXXY       0.0000   XXYY     -24.7145
      XYYY       0.0000   YYYY     -74.1434   XXXZ      -0.0000
      XXYZ       0.0000   XYYZ      -0.0000   YYYZ      -0.0000
      XXZZ    -220.1597   XYZZ       0.0000   YYZZ    -220.1597
      XZZZ      -0.0000   YZZZ      -0.0000   ZZZZ   -1297.1907
 -----------------------------------------------------------------
Archival summary:
1\1\n0089.mhg0\SP\ProcedureUnspecified\BasisUnspecified\g2\yhljason\FriOct901:42:112020FriOct901:42:112020\0\\#,ProcedureUnspecified,BasisUnspecified,\\0,1\Mg\Mg,1,3.8905\\\@

 Total job time:  1184.02s(wall), 9381.04s(cpu) 
 Fri Oct  9 01:42:11 2020

        *************************************************************
        *                                                           *
        *  Thank you very much for using Q-Chem.  Have a nice day.  *
        *                                                           *
        *************************************************************


 
User input: 2 of 83 of 8 
 
Q-Chem Developer Version!
                  Welcome to Q-Chem
     A Quantum Leap Into The Future Of Chemistry


 Q-Chem 5.1, Q-Chem, Inc., Pleasanton, CA (2018)

 Yihan Shao,  Zhengting Gan,  E. Epifanovsky,  A. T. B. Gilbert,  M. Wormit,  
 J. Kussmann,  A. W. Lange,  A. Behn,  Jia Deng,  Xintian Feng,  D. Ghosh,  
 M. Goldey,  P. R. Horn,  L. D. Jacobson,  I. Kaliman,  T. Kus,  A. Landau,  
 Jie Liu,  E. I. Proynov,  R. M. Richard,  R. P. Steele,  E. J. Sundstrom,  
 H. L. Woodcock III,  P. M. Zimmerman,  D. Zuev,  B. Albrecht,  E. Alguire,  
 S. A. Baeppler,  D. Barton,  Z. Benda,  Y. A. Bernard,  E. J. Berquist,  
 K. B. Bravaya,  H. Burton,  D. Casanova,  Chun-Min Chang,  Yunqing Chen,  
 A. Chien,  K. D. Closser,  M. P. Coons,  S. Coriani,  S. Dasgupta,  
 A. L. Dempwolff,  M. Diedenhofen,  Hainam Do,  R. G. Edgar,  Po-Tung Fang,  
 S. Faraji,  S. Fatehi,  Qingguo Feng,  K. D. Fenk,  J. Fosso-Tande,  
 Qinghui Ge,  A. Ghysels,  G. Gidofalvi,  J. Gomes,  J. Gonthier,  A. Gunina,  
 D. Hait,  M. W. D. Hanson-Heine,  P. H. P. Harbach,  A. W. Hauser,  
 J. E. Herr,  E. G. Hohenstein,  Z. C. Holden,  Kerwin Hui,  B. C. Huynh,  
 T.-C. Jagau,  Hyunjun Ji,  B. Kaduk,  K. Khistyaev,  Jaehoon Kim,  
 P. Klunzinger,  K. Koh,  D. Kosenkov,  L. Koulias,  T. Kowalczyk,  
 C. M. Krauter,  A. Kunitsa,  Ka Un Lao,  A. Laurent,  K. V. Lawler,  
 Joonho Lee,  D. Lefrancois,  S. Lehtola,  D. S. Levine,  Yi-Pei Li,  
 You-Sheng Lin,  Fenglai Liu,  E. Livshits,  A. Luenser,  P. Manohar,  
 E. Mansoor,  S. F. Manzer,  Shan-Ping Mao,  Yuezhi Mao,  N. Mardirossian,  
 A. V. Marenich,  T. Markovich,  L. A. Martinez-Martinez,  S. A. Maurer,  
 N. J. Mayhall,  S. C. McKenzie,  J.-M. Mewes,  A. F. Morrison,  
 J. W. Mullinax,  K. Nanda,  T. S. Nguyen-Beck,  R. Olivares-Amaya,  
 J. A. Parkhill,  T. M. Perrine,  F. Plasser,  P. Pokhilko,  S. Prager,  
 A. Prociuk,  E. Ramos,  D. R. Rehn,  F. Rob,  M. Schneider,  N. Sergueev,  
 S. M. Sharada,  S. Sharma,  D. W. Small,  T. Stauch,  T. Stein,  
 Yu-Chuan Su,  A. J. W. Thom,  A. Tkatchenko,  T. Tsuchimochi,  N. M. Tubman,  
 L. Vogt,  M. L. Vidal,  O. Vydrov,  M. A. Watson,  J. Wenzel,  
 M. de Wergifosse,  T. A. Wesolowski,  A. White,  J. Witte,  A. Yamada,  
 Jun Yang,  K. Yao,  S. Yeganeh,  S. R. Yost,  Zhi-Qiang You,  A. Zech,  
 Igor Ying Zhang,  Xing Zhang,  Yan Zhao,  Ying Zhu,  B. R. Brooks,  
 G. K. L. Chan,  C. J. Cramer,  M. S. Gordon,  W. J. Hehre,  A. Klamt,  
 M. W. Schmidt,  C. D. Sherrill,  D. G. Truhlar,  A. Aspuru-Guzik,  R. Baer,  
 A. T. Bell,  N. A. Besley,  Jeng-Da Chai,  A. E. DePrince, III,  
 R. A. DiStasio Jr.,  A. Dreuw,  B. D. Dunietz,  T. R. Furlani,  
 Chao-Ping Hsu,  Yousung Jung,  Jing Kong,  D. S. Lambrecht,  WanZhen Liang,  
 C. Ochsenfeld,  V. A. Rassolov,  L. V. Slipchenko,  J. E. Subotnik,  
 T. Van Voorhis,  J. M. Herbert,  A. I. Krylov,  P. M. W. Gill,  M. Head-Gordon

 Contributors to earlier versions of Q-Chem not listed above: 
 R. D. Adamson,  B. Austin,  J. Baker,  G. J. O. Beran,  K. Brandhorst,  
 S. T. Brown,  E. F. C. Byrd,  A. K. Chakraborty,  C.-L. Cheng,  
 Siu Hung Chien,  D. M. Chipman,  D. L. Crittenden,  H. Dachsel,  
 R. J. Doerksen,  A. D. Dutoi,  L. Fusti-Molnar,  W. A. Goddard III,  
 A. Golubeva-Zadorozhnaya,  S. R. Gwaltney,  G. Hawkins,  A. Heyden,  
 S. Hirata,  G. Kedziora,  F. J. Keil,  C. Kelley,  Jihan Kim,  R. A. King,  
 R. Z. Khaliullin,  P. P. Korambath,  W. Kurlancheek,  A. M. Lee,  M. S. Lee,  
 S. V. Levchenko,  Ching Yeh Lin,  D. Liotard,  R. C. Lochan,  I. Lotan,  
 P. E. Maslen,  N. Nair,  D. P. O'Neill,  D. Neuhauser,  E. Neuscamman,  
 C. M. Oana,  R. Olson,  B. Peters,  R. Peverati,  P. A. Pieniazek,  
 Y. M. Rhee,  J. Ritchie,  M. A. Rohrdanz,  E. Rosta,  N. J. Russ,  
 H. F. Schaefer III,  N. E. Schultz,  N. Shenvi,  A. C. Simmonett,  A. Sodt,  
 D. Stuck,  K. S. Thanthiriwatte,  V. Vanovschi,  Tao Wang,  A. Warshel,  
 C. F. Williams,  Q. Wu,  X. Xu,  W. Zhang

 Please cite Q-Chem as follows:
 Y. Shao et al., Mol. Phys. 113, 184-215 (2015)
 DOI: 10.1080/00268976.2014.952696

 Q-Chem 5.1.1 for Intel X86 EM64T Linux

 Parts of Q-Chem use Armadillo 8.300.2 (Tropical Shenanigans).
 http://arma.sourceforge.net/

 Q-Chem begins on Fri Oct  9 01:42:44 2020  

Host: n0089.mhg0
0

     Scratch files written to /local/scratch/users/yhljason/Mg2_PWPB95-D3_aug-cc-pcVQZ.inp20201008191755//
The previous job contains 0 fragments, simply inherited here
Input Ideriv = 0
Curr. Ideriv = -1
Max.  Ideriv = 0
Analytic post-HF gradients are not available with non-HF exchange
Input Ideriv = 0
Curr. Ideriv = 0
Max.  Ideriv = 0

Checking the input file for inconsistencies... 	...done.

--------------------------------------------------------------
User input:
--------------------------------------------------------------
$molecule
read
$end

$rem

jobtype sp
method PWPB95-D3
xc_grid 000099000590
basis aug-cc-pcVQZ
max_scf_cycles 200
thresh 14
scf_convergence 8
mem_total 128000
cc_memory 96000
cc_backend xm
mem_static 1500
symmetry false
sym_ignore true
scf_guess read
unrestricted false
scf_algorithm gdm
n_frozen_core 0
$end

$multipole_field
XX 0.0001
$end


--------------------------------------------------------------
 Adding empirical dispersion correction 
 ----------------------------------------------------------------
 Doing -D3(0) with
 s6  =   0.82000
 s8  =   0.70500
 rs6 =   1.55700
 rs8 =   1.00000
 -D3 energy without 3body term =     -0.0024555842 hartrees
 ----------------------------------------------------------------
             Standard Nuclear Orientation (Angstroms)
    I     Atom           X                Y                Z
 ----------------------------------------------------------------
    1      Mg      0.0000000000     0.0000000000     0.0000000000
    2      Mg      0.0000000000     0.0000000000     3.8905000000
 ----------------------------------------------------------------
 Nuclear Repulsion Energy =    19.5841061316 hartrees
 There are       12 alpha and       12 beta electrons
 Requested basis set is aug-cc-pCVQZ
 There are 68 shells and 268 basis functions

 Total QAlloc Memory Limit 128000 MB
 Mega-Array Size      1467 MB
 MEM_STATIC part      1500 MB

                       Distance Matrix (Angstroms)
             Mg(  1)
   Mg(  2)  3.890500
 
 Applying Cartesian multipole field
    Component          Value
    ---------          -----
     (2,0,0)        1.00000E-04
 A cutoff of  1.0D-14 yielded   2153 shell pairs
 There are     34009 function pairs (     57654 Cartesian)
 
 -------------------------------------------------------
 OpenMP Integral Computing Module                       
 Release: version 1.0, May 2013, Q-Chem Inc. Pittsburgh 
 -------------------------------------------------------
 Integral Job Info:
 Integral job number is                      11
 Integral operator is                         1
 short-range coefficients                     0
 long-range coefficients              100000000
 Omega coefficients                           0
 if combine SR and LR in K                    0
 Integral screening is                        0
 Integral computing path is                   2
 max size of driver memory is           3200000
 size of driver memory is               1704330
 size of scratch memory is             29417912
 max col of scratch BK array              50625
 max len of scratch array in speh3         2114
 max len of scratch index in speh4           50
 max int batch size is                      520
 min int batch size is                       52
 fixed nKL is                                16
 max L of basis functions is                  4
 order of int derivative is                   0
 number of shells is                         68
 number of basis is                         348
 number of cartesian basis is               348
 number of contracted shell pairs          2153
 number of primitive shell pairs          11329
 maxK2 (contraction) of shell pair          169
 max number of K2 of shell pair               1
 max number of CS2 of shell pair            186
 max number of PS2 of shell pair           2028
 mem total for path MDJ                  752464
 -------------------------------------------------------
 Smallest overlap matrix eigenvalue = 9.12E-05
 Guess MOs from SCF MO coefficient file

 -----------------------------------------------------------------------
  General SCF calculation program by
  Eric Jon Sundstrom, Paul Horn, Yuezhi Mao, Dmitri Zuev, Alec White,
  David Stuck, Shaama M.S., Shane Yost, Joonho Lee, David Small,
  Daniel Levine, Susi Lehtola, Hugh Burton, Evgeny Epifanovsky
 -----------------------------------------------------------------------
 Exchange:     0.5000 Hartree-Fock + 1.0000 PWPB95-D3
 Correlation:  0.7310 PWPB95-D3
 Using Euler-Maclaurin-Lebedev (99,590) quadrature formula
 Dispersion:   Grimme D3
 using 8 threads for integral computing
 -------------------------------------------------------
 OpenMP Integral computing Module                
 Release: version 2.0, May 2017, Q-Chem Inc. Pleasanton 
 -------------------------------------------------------
 -------------------------------------------------------
 OpenMP BLAS3 based DFT computing Module                
 Release: version 1.0, May 2013, Q-Chem Inc. Pittsburgh 
 -------------------------------------------------------
 A restricted SCF calculation will be
 performed using GDM
 SCF converges when RMS gradient is below 1.0e-08
 ---------------------------------------
  Cycle       Energy        RMS Gradient
 ---------------------------------------
    1    -399.9993604428      1.00e-03   Normal BFGS step
    2    -399.9993656977      2.36e-04   Normal BFGS step
    3    -399.9993659534      3.42e-05   Normal BFGS step
    4    -399.9993659602      7.63e-06   Normal BFGS step
    5    -399.9993659610      7.47e-07   Normal BFGS step
    6    -399.9993659610      4.23e-07   Normal BFGS step
    7    -399.9993659610      3.16e-08   Normal BFGS step
    8    -399.9993659610      5.34e-09  Convergence criterion met
 ---------------------------------------
 SCF time:   CPU 2406.07s  wall 303.00s 
 SCF   energy in the final basis set =     -399.9993659610
 Total energy in the final basis set =     -399.9993659610
 
 Components of the MP2 correlation energy:
        aaaa  correlation energy =         0.0000000000 au
        abab  correlation energy =        -0.1730466062 au
        bbbb  correlation energy =         0.0000000000 au
        non-Brillouin singles    =        -0.0000000000 au

 Total  MP2   correlation energy =                    -0.17304661 au
        MP2         total energy =                  -400.17241257 au
 
 --------------------------------------------------------------
 
                    Orbital Energies (a.u.)
 --------------------------------------------------------------
 
 Alpha MOs
 -- Occupied --
-47.637 -47.637  -3.344  -3.344  -2.004  -2.004  -2.004  -2.004
 -2.004  -2.004  -0.241  -0.196
 -- Virtual --
 -0.025  -0.024  -0.023   0.000   0.004   0.004   0.006   0.010
  0.015   0.016   0.018   0.024   0.031   0.047   0.065   0.066
  0.077   0.078   0.080   0.091   0.094   0.096   0.096   0.097
  0.100   0.101   0.104   0.129   0.136   0.138   0.145   0.196
  0.220   0.220   0.225   0.225   0.231   0.232   0.249   0.259
  0.259   0.261   0.261   0.276   0.276   0.295   0.296   0.304
  0.312   0.312   0.314   0.319   0.319   0.320   0.321   0.323
  0.324   0.350   0.420   0.421   0.427   0.435   0.438   0.582
  0.610   0.610   0.611   0.611   0.624   0.625   0.632   0.644
  0.644   0.667   0.667   0.676   0.676   0.687   0.687   0.701
  0.701   0.712   0.712   0.713   0.714   0.717   0.717   0.736
  0.736   0.737   0.737   0.760   0.760   0.764   0.790   0.790
  0.791   0.805   0.837   0.837   0.855   0.855   0.915   0.940
  0.950   0.951   0.952   0.953   1.030   1.061   1.061   1.339
  1.458   1.458   1.468   1.468   1.473   1.473   1.508   1.526
  1.527   1.611   1.720   1.720   1.728   1.728   1.736   1.736
  1.741   1.741   1.748   1.748   1.758   1.758   1.769   1.769
  1.769   1.769   1.772   1.772   1.782   1.795   1.795   1.811
  1.811   1.832   1.836   1.836   1.838   1.838   1.881   1.904
  1.905   2.016   2.621   2.736   4.247   4.247   4.254   4.254
  4.258   4.258   4.294   4.306   4.306   4.393   4.723   4.724
  4.744   4.744   4.760   5.015   9.474   9.474   9.474   9.474
  9.477   9.477   9.478   9.478   9.484   9.484   9.495   9.506
  9.506   9.530  10.948  11.095  13.633  13.633  13.639  13.639
 13.640  13.640  13.669  13.674  13.674  13.737  22.223  22.223
 22.237  22.237  22.251  22.417  24.888  24.888  24.888  24.888
 24.888  24.888  24.889  24.889  24.889  24.889  24.889  24.889
 24.889  24.890  24.890  24.890  24.890  24.890  32.204  32.204
 32.204  32.204  32.206  32.206  32.206  32.206  32.210  32.210
 32.215  32.222  32.222  32.236  35.631  35.754  41.345  41.345
 41.349  41.349  41.350  41.350  41.372  41.374  41.374  41.418
 90.036  90.036  90.046  90.046  90.056  90.176 153.938 154.146
 --------------------------------------------------------------
 
          Ground-State Mulliken Net Atomic Charges

     Atom                 Charge (a.u.)
  ----------------------------------------
      1 Mg                    0.000000
      2 Mg                   -0.000000
  ----------------------------------------
  Sum of atomic charges =    -0.000000

 -----------------------------------------------------------------
                    Cartesian Multipole Moments
 -----------------------------------------------------------------
    Charge (ESU x 10^10)
                -0.0000
    Dipole Moment (Debye)
         X      -0.0000      Y      -0.0000      Z      -0.0000
       Tot       0.0000
    Quadrupole Moments (Debye-Ang)
        XX     -25.4240     XY      -0.0000     YY     -25.2773
        XZ      -0.0000     YZ      -0.0000     ZZ     -26.8924
    Octopole Moments (Debye-Ang^2)
       XXX      -0.0000    XXY      -0.0000    XYY      -0.0000
       YYY      -0.0000    XXZ     -49.4561    XYZ      -0.0000
       YYZ     -49.1707    XZZ      -0.0000    YZZ      -0.0000
       ZZZ    -156.9372
    Hexadecapole Moments (Debye-Ang^3)
      XXXX     -75.5405   XXXY      -0.0000   XXYY     -24.9637
      XYYY      -0.0000   YYYY     -74.2454   XXXZ      -0.0000
      XXYZ      -0.0000   XYYZ      -0.0000   YYYZ      -0.0000
      XXZZ    -221.6154   XYZZ      -0.0000   YYZZ    -220.2212
      XZZZ      -0.0000   YZZZ      -0.0000   ZZZZ   -1297.2689
 -----------------------------------------------------------------
Archival summary:
1\1\n0089.mhg0\SP\ProcedureUnspecified\BasisUnspecified\g2\yhljason\FriOct901:54:152020FriOct901:54:152020\0\\#,ProcedureUnspecified,BasisUnspecified,\\0,1\Mg\Mg,1,3.8905\\\@

 Total job time:  690.98s(wall), 5457.13s(cpu) 
 Fri Oct  9 01:54:15 2020

        *************************************************************
        *                                                           *
        *  Thank you very much for using Q-Chem.  Have a nice day.  *
        *                                                           *
        *************************************************************


 
User input: 4 of 8 
 
Q-Chem Developer Version!
                  Welcome to Q-Chem
     A Quantum Leap Into The Future Of Chemistry


 Q-Chem 5.1, Q-Chem, Inc., Pleasanton, CA (2018)

 Yihan Shao,  Zhengting Gan,  E. Epifanovsky,  A. T. B. Gilbert,  M. Wormit,  
 J. Kussmann,  A. W. Lange,  A. Behn,  Jia Deng,  Xintian Feng,  D. Ghosh,  
 M. Goldey,  P. R. Horn,  L. D. Jacobson,  I. Kaliman,  T. Kus,  A. Landau,  
 Jie Liu,  E. I. Proynov,  R. M. Richard,  R. P. Steele,  E. J. Sundstrom,  
 H. L. Woodcock III,  P. M. Zimmerman,  D. Zuev,  B. Albrecht,  E. Alguire,  
 S. A. Baeppler,  D. Barton,  Z. Benda,  Y. A. Bernard,  E. J. Berquist,  
 K. B. Bravaya,  H. Burton,  D. Casanova,  Chun-Min Chang,  Yunqing Chen,  
 A. Chien,  K. D. Closser,  M. P. Coons,  S. Coriani,  S. Dasgupta,  
 A. L. Dempwolff,  M. Diedenhofen,  Hainam Do,  R. G. Edgar,  Po-Tung Fang,  
 S. Faraji,  S. Fatehi,  Qingguo Feng,  K. D. Fenk,  J. Fosso-Tande,  
 Qinghui Ge,  A. Ghysels,  G. Gidofalvi,  J. Gomes,  J. Gonthier,  A. Gunina,  
 D. Hait,  M. W. D. Hanson-Heine,  P. H. P. Harbach,  A. W. Hauser,  
 J. E. Herr,  E. G. Hohenstein,  Z. C. Holden,  Kerwin Hui,  B. C. Huynh,  
 T.-C. Jagau,  Hyunjun Ji,  B. Kaduk,  K. Khistyaev,  Jaehoon Kim,  
 P. Klunzinger,  K. Koh,  D. Kosenkov,  L. Koulias,  T. Kowalczyk,  
 C. M. Krauter,  A. Kunitsa,  Ka Un Lao,  A. Laurent,  K. V. Lawler,  
 Joonho Lee,  D. Lefrancois,  S. Lehtola,  D. S. Levine,  Yi-Pei Li,  
 You-Sheng Lin,  Fenglai Liu,  E. Livshits,  A. Luenser,  P. Manohar,  
 E. Mansoor,  S. F. Manzer,  Shan-Ping Mao,  Yuezhi Mao,  N. Mardirossian,  
 A. V. Marenich,  T. Markovich,  L. A. Martinez-Martinez,  S. A. Maurer,  
 N. J. Mayhall,  S. C. McKenzie,  J.-M. Mewes,  A. F. Morrison,  
 J. W. Mullinax,  K. Nanda,  T. S. Nguyen-Beck,  R. Olivares-Amaya,  
 J. A. Parkhill,  T. M. Perrine,  F. Plasser,  P. Pokhilko,  S. Prager,  
 A. Prociuk,  E. Ramos,  D. R. Rehn,  F. Rob,  M. Schneider,  N. Sergueev,  
 S. M. Sharada,  S. Sharma,  D. W. Small,  T. Stauch,  T. Stein,  
 Yu-Chuan Su,  A. J. W. Thom,  A. Tkatchenko,  T. Tsuchimochi,  N. M. Tubman,  
 L. Vogt,  M. L. Vidal,  O. Vydrov,  M. A. Watson,  J. Wenzel,  
 M. de Wergifosse,  T. A. Wesolowski,  A. White,  J. Witte,  A. Yamada,  
 Jun Yang,  K. Yao,  S. Yeganeh,  S. R. Yost,  Zhi-Qiang You,  A. Zech,  
 Igor Ying Zhang,  Xing Zhang,  Yan Zhao,  Ying Zhu,  B. R. Brooks,  
 G. K. L. Chan,  C. J. Cramer,  M. S. Gordon,  W. J. Hehre,  A. Klamt,  
 M. W. Schmidt,  C. D. Sherrill,  D. G. Truhlar,  A. Aspuru-Guzik,  R. Baer,  
 A. T. Bell,  N. A. Besley,  Jeng-Da Chai,  A. E. DePrince, III,  
 R. A. DiStasio Jr.,  A. Dreuw,  B. D. Dunietz,  T. R. Furlani,  
 Chao-Ping Hsu,  Yousung Jung,  Jing Kong,  D. S. Lambrecht,  WanZhen Liang,  
 C. Ochsenfeld,  V. A. Rassolov,  L. V. Slipchenko,  J. E. Subotnik,  
 T. Van Voorhis,  J. M. Herbert,  A. I. Krylov,  P. M. W. Gill,  M. Head-Gordon

 Contributors to earlier versions of Q-Chem not listed above: 
 R. D. Adamson,  B. Austin,  J. Baker,  G. J. O. Beran,  K. Brandhorst,  
 S. T. Brown,  E. F. C. Byrd,  A. K. Chakraborty,  C.-L. Cheng,  
 Siu Hung Chien,  D. M. Chipman,  D. L. Crittenden,  H. Dachsel,  
 R. J. Doerksen,  A. D. Dutoi,  L. Fusti-Molnar,  W. A. Goddard III,  
 A. Golubeva-Zadorozhnaya,  S. R. Gwaltney,  G. Hawkins,  A. Heyden,  
 S. Hirata,  G. Kedziora,  F. J. Keil,  C. Kelley,  Jihan Kim,  R. A. King,  
 R. Z. Khaliullin,  P. P. Korambath,  W. Kurlancheek,  A. M. Lee,  M. S. Lee,  
 S. V. Levchenko,  Ching Yeh Lin,  D. Liotard,  R. C. Lochan,  I. Lotan,  
 P. E. Maslen,  N. Nair,  D. P. O'Neill,  D. Neuhauser,  E. Neuscamman,  
 C. M. Oana,  R. Olson,  B. Peters,  R. Peverati,  P. A. Pieniazek,  
 Y. M. Rhee,  J. Ritchie,  M. A. Rohrdanz,  E. Rosta,  N. J. Russ,  
 H. F. Schaefer III,  N. E. Schultz,  N. Shenvi,  A. C. Simmonett,  A. Sodt,  
 D. Stuck,  K. S. Thanthiriwatte,  V. Vanovschi,  Tao Wang,  A. Warshel,  
 C. F. Williams,  Q. Wu,  X. Xu,  W. Zhang

 Please cite Q-Chem as follows:
 Y. Shao et al., Mol. Phys. 113, 184-215 (2015)
 DOI: 10.1080/00268976.2014.952696

 Q-Chem 5.1.1 for Intel X86 EM64T Linux

 Parts of Q-Chem use Armadillo 8.300.2 (Tropical Shenanigans).
 http://arma.sourceforge.net/

 Q-Chem begins on Fri Oct  9 01:54:16 2020  

Host: n0089.mhg0
0

     Scratch files written to /local/scratch/users/yhljason/Mg2_PWPB95-D3_aug-cc-pcVQZ.inp20201008191755//
The previous job contains 0 fragments, simply inherited here
Input Ideriv = 0
Curr. Ideriv = -1
Max.  Ideriv = 0
Analytic post-HF gradients are not available with non-HF exchange
Input Ideriv = 0
Curr. Ideriv = 0
Max.  Ideriv = 0

Checking the input file for inconsistencies... 	...done.

--------------------------------------------------------------
User input:
--------------------------------------------------------------
$molecule
read
$end

$rem

jobtype sp
method PWPB95-D3
xc_grid 000099000590
basis aug-cc-pcVQZ
max_scf_cycles 200
thresh 14
scf_convergence 8
mem_total 128000
cc_memory 96000
cc_backend xm
mem_static 1500
symmetry false
sym_ignore true
scf_guess read
unrestricted false
scf_algorithm gdm
n_frozen_core 0
$end

$multipole_field
XX -0.0001
$end


--------------------------------------------------------------
 Adding empirical dispersion correction 
 ----------------------------------------------------------------
 Doing -D3(0) with
 s6  =   0.82000
 s8  =   0.70500
 rs6 =   1.55700
 rs8 =   1.00000
 -D3 energy without 3body term =     -0.0024555842 hartrees
 ----------------------------------------------------------------
             Standard Nuclear Orientation (Angstroms)
    I     Atom           X                Y                Z
 ----------------------------------------------------------------
    1      Mg      0.0000000000     0.0000000000     0.0000000000
    2      Mg      0.0000000000     0.0000000000     3.8905000000
 ----------------------------------------------------------------
 Nuclear Repulsion Energy =    19.5841061316 hartrees
 There are       12 alpha and       12 beta electrons
 Requested basis set is aug-cc-pCVQZ
 There are 68 shells and 268 basis functions

 Total QAlloc Memory Limit 128000 MB
 Mega-Array Size      1467 MB
 MEM_STATIC part      1500 MB

                       Distance Matrix (Angstroms)
             Mg(  1)
   Mg(  2)  3.890500
 
 Applying Cartesian multipole field
    Component          Value
    ---------          -----
     (2,0,0)       -1.00000E-04
 A cutoff of  1.0D-14 yielded   2153 shell pairs
 There are     34009 function pairs (     57654 Cartesian)
 
 -------------------------------------------------------
 OpenMP Integral Computing Module                       
 Release: version 1.0, May 2013, Q-Chem Inc. Pittsburgh 
 -------------------------------------------------------
 Integral Job Info:
 Integral job number is                      11
 Integral operator is                         1
 short-range coefficients                     0
 long-range coefficients              100000000
 Omega coefficients                           0
 if combine SR and LR in K                    0
 Integral screening is                        0
 Integral computing path is                   2
 max size of driver memory is           3200000
 size of driver memory is               1704330
 size of scratch memory is             29417912
 max col of scratch BK array              50625
 max len of scratch array in speh3         2114
 max len of scratch index in speh4           50
 max int batch size is                      520
 min int batch size is                       52
 fixed nKL is                                16
 max L of basis functions is                  4
 order of int derivative is                   0
 number of shells is                         68
 number of basis is                         348
 number of cartesian basis is               348
 number of contracted shell pairs          2153
 number of primitive shell pairs          11329
 maxK2 (contraction) of shell pair          169
 max number of K2 of shell pair               1
 max number of CS2 of shell pair            186
 max number of PS2 of shell pair           2028
 mem total for path MDJ                  752464
 -------------------------------------------------------
 Smallest overlap matrix eigenvalue = 9.12E-05
 Guess MOs from SCF MO coefficient file

 -----------------------------------------------------------------------
  General SCF calculation program by
  Eric Jon Sundstrom, Paul Horn, Yuezhi Mao, Dmitri Zuev, Alec White,
  David Stuck, Shaama M.S., Shane Yost, Joonho Lee, David Small,
  Daniel Levine, Susi Lehtola, Hugh Burton, Evgeny Epifanovsky
 -----------------------------------------------------------------------
 Exchange:     0.5000 Hartree-Fock + 1.0000 PWPB95-D3
 Correlation:  0.7310 PWPB95-D3
 Using Euler-Maclaurin-Lebedev (99,590) quadrature formula
 Dispersion:   Grimme D3
 using 8 threads for integral computing
 -------------------------------------------------------
 OpenMP Integral computing Module                
 Release: version 2.0, May 2017, Q-Chem Inc. Pleasanton 
 -------------------------------------------------------
 -------------------------------------------------------
 OpenMP BLAS3 based DFT computing Module                
 Release: version 1.0, May 2013, Q-Chem Inc. Pittsburgh 
 -------------------------------------------------------
 A restricted SCF calculation will be
 performed using GDM
 SCF converges when RMS gradient is below 1.0e-08
 ---------------------------------------
  Cycle       Energy        RMS Gradient
 ---------------------------------------
    1    -399.9955855295      2.02e-03   Normal BFGS step
    2    -399.9956065837      4.72e-04   Normal BFGS step
    3    -399.9956075771      6.97e-05   Normal BFGS step
    4    -399.9956076040      1.52e-05   Normal BFGS step
    5    -399.9956076070      1.54e-06   Normal BFGS step
    6    -399.9956076071      8.43e-07   Normal BFGS step
    7    -399.9956076071      6.39e-08   Normal BFGS step
    8    -399.9956076071      1.01e-08   Normal BFGS step
    9    -399.9956076071      1.60e-09  Convergence criterion met
 ---------------------------------------
 SCF time:   CPU 2673.10s  wall 337.00s 
 SCF   energy in the final basis set =     -399.9956076071
 Total energy in the final basis set =     -399.9956076071
 
 Components of the MP2 correlation energy:
        aaaa  correlation energy =         0.0000000000 au
        abab  correlation energy =        -0.1730825282 au
        bbbb  correlation energy =         0.0000000000 au
        non-Brillouin singles    =        -0.0000000000 au

 Total  MP2   correlation energy =                    -0.17308253 au
        MP2         total energy =                  -400.16869014 au
 
 --------------------------------------------------------------
 
                    Orbital Energies (a.u.)
 --------------------------------------------------------------
 
 Alpha MOs
 -- Occupied --
-47.636 -47.636  -3.343  -3.343  -2.003  -2.003  -2.003  -2.003
 -2.003  -2.003  -0.240  -0.195
 -- Virtual --
 -0.022  -0.021  -0.020   0.007   0.009   0.012   0.018   0.024
  0.025   0.032   0.032   0.039   0.040   0.055   0.070   0.070
  0.083   0.083   0.086   0.097   0.101   0.101   0.101   0.104
  0.107   0.107   0.111   0.135   0.140   0.142   0.148   0.200
  0.224   0.224   0.228   0.228   0.234   0.234   0.252   0.262
  0.262   0.264   0.264   0.279   0.279   0.298   0.299   0.308
  0.315   0.316   0.317   0.321   0.321   0.324   0.325   0.325
  0.327   0.352   0.422   0.423   0.430   0.438   0.440   0.584
  0.612   0.612   0.613   0.613   0.626   0.626   0.634   0.646
  0.646   0.669   0.669   0.679   0.679   0.689   0.689   0.703
  0.703   0.714   0.714   0.715   0.715   0.719   0.719   0.737
  0.737   0.739   0.739   0.762   0.762   0.765   0.792   0.792
  0.792   0.807   0.839   0.839   0.856   0.856   0.916   0.942
  0.952   0.953   0.954   0.955   1.031   1.062   1.062   1.341
  1.460   1.460   1.469   1.470   1.475   1.475   1.510   1.528
  1.528   1.612   1.721   1.721   1.730   1.730   1.737   1.737
  1.742   1.742   1.750   1.750   1.760   1.760   1.770   1.770
  1.770   1.770   1.773   1.773   1.783   1.796   1.796   1.812
  1.812   1.834   1.837   1.838   1.839   1.839   1.883   1.906
  1.906   2.018   2.622   2.737   4.248   4.248   4.256   4.256
  4.259   4.259   4.295   4.307   4.307   4.395   4.725   4.725
  4.745   4.745   4.761   5.016   9.475   9.475   9.475   9.475
  9.478   9.478   9.479   9.479   9.485   9.485   9.496   9.508
  9.508   9.531  10.949  11.096  13.634  13.634  13.640  13.640
 13.641  13.641  13.671  13.675  13.675  13.738  22.224  22.224
 22.238  22.238  22.252  22.418  24.890  24.890  24.890  24.890
 24.890  24.890  24.890  24.890  24.890  24.890  24.890  24.891
 24.891  24.891  24.891  24.891  24.891  24.891  32.205  32.205
 32.206  32.206  32.207  32.207  32.207  32.207  32.211  32.211
 32.216  32.223  32.223  32.237  35.632  35.755  41.346  41.346
 41.350  41.350  41.351  41.351  41.373  41.375  41.375  41.419
 90.037  90.037  90.047  90.047  90.058  90.177 153.939 154.147
 --------------------------------------------------------------
 
          Ground-State Mulliken Net Atomic Charges

     Atom                 Charge (a.u.)
  ----------------------------------------
      1 Mg                   -0.000000
      2 Mg                    0.000000
  ----------------------------------------
  Sum of atomic charges =    -0.000000

 -----------------------------------------------------------------
                    Cartesian Multipole Moments
 -----------------------------------------------------------------
    Charge (ESU x 10^10)
                -0.0000
    Dipole Moment (Debye)
         X      -0.0000      Y      -0.0000      Z      -0.0000
       Tot       0.0000
    Quadrupole Moments (Debye-Ang)
        XX     -25.1305     XY      -0.0000     YY     -25.2727
        XZ      -0.0000     YZ      -0.0000     ZZ     -26.8982
    Octopole Moments (Debye-Ang^2)
       XXX      -0.0000    XXY      -0.0000    XYY      -0.0000
       YYY      -0.0000    XXZ     -48.8851    XYZ       0.0000
       YYZ     -49.1617    XZZ      -0.0000    YZZ      -0.0000
       ZZZ    -156.9712
    Hexadecapole Moments (Debye-Ang^3)
      XXXX     -72.8193   XXXY      -0.0000   XXYY     -24.4782
      XYYY      -0.0000   YYYY     -74.0535   XXXZ      -0.0000
      XXYZ      -0.0000   XYYZ      -0.0000   YYYZ      -0.0000
      XXZZ    -218.7585   XYZZ       0.0000   YYZZ    -220.1068
      XZZZ      -0.0000   YZZZ      -0.0000   ZZZZ   -1297.1443
 -----------------------------------------------------------------
Archival summary:
1\1\n0089.mhg0\SP\ProcedureUnspecified\BasisUnspecified\g2\yhljason\FriOct902:06:202020FriOct902:06:202020\0\\#,ProcedureUnspecified,BasisUnspecified,\\0,1\Mg\Mg,1,3.8905\\\@

 Total job time:  723.95s(wall), 5729.97s(cpu) 
 Fri Oct  9 02:06:20 2020

        *************************************************************
        *                                                           *
        *  Thank you very much for using Q-Chem.  Have a nice day.  *
        *                                                           *
        *************************************************************


 
User input: 5 of 8 
 
Q-Chem Developer Version!
                  Welcome to Q-Chem
     A Quantum Leap Into The Future Of Chemistry


 Q-Chem 5.1, Q-Chem, Inc., Pleasanton, CA (2018)

 Yihan Shao,  Zhengting Gan,  E. Epifanovsky,  A. T. B. Gilbert,  M. Wormit,  
 J. Kussmann,  A. W. Lange,  A. Behn,  Jia Deng,  Xintian Feng,  D. Ghosh,  
 M. Goldey,  P. R. Horn,  L. D. Jacobson,  I. Kaliman,  T. Kus,  A. Landau,  
 Jie Liu,  E. I. Proynov,  R. M. Richard,  R. P. Steele,  E. J. Sundstrom,  
 H. L. Woodcock III,  P. M. Zimmerman,  D. Zuev,  B. Albrecht,  E. Alguire,  
 S. A. Baeppler,  D. Barton,  Z. Benda,  Y. A. Bernard,  E. J. Berquist,  
 K. B. Bravaya,  H. Burton,  D. Casanova,  Chun-Min Chang,  Yunqing Chen,  
 A. Chien,  K. D. Closser,  M. P. Coons,  S. Coriani,  S. Dasgupta,  
 A. L. Dempwolff,  M. Diedenhofen,  Hainam Do,  R. G. Edgar,  Po-Tung Fang,  
 S. Faraji,  S. Fatehi,  Qingguo Feng,  K. D. Fenk,  J. Fosso-Tande,  
 Qinghui Ge,  A. Ghysels,  G. Gidofalvi,  J. Gomes,  J. Gonthier,  A. Gunina,  
 D. Hait,  M. W. D. Hanson-Heine,  P. H. P. Harbach,  A. W. Hauser,  
 J. E. Herr,  E. G. Hohenstein,  Z. C. Holden,  Kerwin Hui,  B. C. Huynh,  
 T.-C. Jagau,  Hyunjun Ji,  B. Kaduk,  K. Khistyaev,  Jaehoon Kim,  
 P. Klunzinger,  K. Koh,  D. Kosenkov,  L. Koulias,  T. Kowalczyk,  
 C. M. Krauter,  A. Kunitsa,  Ka Un Lao,  A. Laurent,  K. V. Lawler,  
 Joonho Lee,  D. Lefrancois,  S. Lehtola,  D. S. Levine,  Yi-Pei Li,  
 You-Sheng Lin,  Fenglai Liu,  E. Livshits,  A. Luenser,  P. Manohar,  
 E. Mansoor,  S. F. Manzer,  Shan-Ping Mao,  Yuezhi Mao,  N. Mardirossian,  
 A. V. Marenich,  T. Markovich,  L. A. Martinez-Martinez,  S. A. Maurer,  
 N. J. Mayhall,  S. C. McKenzie,  J.-M. Mewes,  A. F. Morrison,  
 J. W. Mullinax,  K. Nanda,  T. S. Nguyen-Beck,  R. Olivares-Amaya,  
 J. A. Parkhill,  T. M. Perrine,  F. Plasser,  P. Pokhilko,  S. Prager,  
 A. Prociuk,  E. Ramos,  D. R. Rehn,  F. Rob,  M. Schneider,  N. Sergueev,  
 S. M. Sharada,  S. Sharma,  D. W. Small,  T. Stauch,  T. Stein,  
 Yu-Chuan Su,  A. J. W. Thom,  A. Tkatchenko,  T. Tsuchimochi,  N. M. Tubman,  
 L. Vogt,  M. L. Vidal,  O. Vydrov,  M. A. Watson,  J. Wenzel,  
 M. de Wergifosse,  T. A. Wesolowski,  A. White,  J. Witte,  A. Yamada,  
 Jun Yang,  K. Yao,  S. Yeganeh,  S. R. Yost,  Zhi-Qiang You,  A. Zech,  
 Igor Ying Zhang,  Xing Zhang,  Yan Zhao,  Ying Zhu,  B. R. Brooks,  
 G. K. L. Chan,  C. J. Cramer,  M. S. Gordon,  W. J. Hehre,  A. Klamt,  
 M. W. Schmidt,  C. D. Sherrill,  D. G. Truhlar,  A. Aspuru-Guzik,  R. Baer,  
 A. T. Bell,  N. A. Besley,  Jeng-Da Chai,  A. E. DePrince, III,  
 R. A. DiStasio Jr.,  A. Dreuw,  B. D. Dunietz,  T. R. Furlani,  
 Chao-Ping Hsu,  Yousung Jung,  Jing Kong,  D. S. Lambrecht,  WanZhen Liang,  
 C. Ochsenfeld,  V. A. Rassolov,  L. V. Slipchenko,  J. E. Subotnik,  
 T. Van Voorhis,  J. M. Herbert,  A. I. Krylov,  P. M. W. Gill,  M. Head-Gordon

 Contributors to earlier versions of Q-Chem not listed above: 
 R. D. Adamson,  B. Austin,  J. Baker,  G. J. O. Beran,  K. Brandhorst,  
 S. T. Brown,  E. F. C. Byrd,  A. K. Chakraborty,  C.-L. Cheng,  
 Siu Hung Chien,  D. M. Chipman,  D. L. Crittenden,  H. Dachsel,  
 R. J. Doerksen,  A. D. Dutoi,  L. Fusti-Molnar,  W. A. Goddard III,  
 A. Golubeva-Zadorozhnaya,  S. R. Gwaltney,  G. Hawkins,  A. Heyden,  
 S. Hirata,  G. Kedziora,  F. J. Keil,  C. Kelley,  Jihan Kim,  R. A. King,  
 R. Z. Khaliullin,  P. P. Korambath,  W. Kurlancheek,  A. M. Lee,  M. S. Lee,  
 S. V. Levchenko,  Ching Yeh Lin,  D. Liotard,  R. C. Lochan,  I. Lotan,  
 P. E. Maslen,  N. Nair,  D. P. O'Neill,  D. Neuhauser,  E. Neuscamman,  
 C. M. Oana,  R. Olson,  B. Peters,  R. Peverati,  P. A. Pieniazek,  
 Y. M. Rhee,  J. Ritchie,  M. A. Rohrdanz,  E. Rosta,  N. J. Russ,  
 H. F. Schaefer III,  N. E. Schultz,  N. Shenvi,  A. C. Simmonett,  A. Sodt,  
 D. Stuck,  K. S. Thanthiriwatte,  V. Vanovschi,  Tao Wang,  A. Warshel,  
 C. F. Williams,  Q. Wu,  X. Xu,  W. Zhang

 Please cite Q-Chem as follows:
 Y. Shao et al., Mol. Phys. 113, 184-215 (2015)
 DOI: 10.1080/00268976.2014.952696

 Q-Chem 5.1.1 for Intel X86 EM64T Linux

 Parts of Q-Chem use Armadillo 8.300.2 (Tropical Shenanigans).
 http://arma.sourceforge.net/

 Q-Chem begins on Fri Oct  9 02:06:20 2020  

Host: n0089.mhg0
0

     Scratch files written to /local/scratch/users/yhljason/Mg2_PWPB95-D3_aug-cc-pcVQZ.inp20201008191755//
The previous job contains 0 fragments, simply inherited here
Input Ideriv = 0
Curr. Ideriv = -1
Max.  Ideriv = 0
Analytic post-HF gradients are not available with non-HF exchange
Input Ideriv = 0
Curr. Ideriv = 0
Max.  Ideriv = 0

Checking the input file for inconsistencies... 	...done.

--------------------------------------------------------------
User input:
--------------------------------------------------------------
$molecule
read
$end

$rem

jobtype sp
method PWPB95-D3
xc_grid 000099000590
basis aug-cc-pcVQZ
max_scf_cycles 200
thresh 14
scf_convergence 8
mem_total 128000
cc_memory 96000
cc_backend xm
mem_static 1500
symmetry false
sym_ignore true
scf_guess read
unrestricted false
scf_algorithm gdm
n_frozen_core 0
$end

$multipole_field
YY 0.0001
$end


--------------------------------------------------------------
 Adding empirical dispersion correction 
 ----------------------------------------------------------------
 Doing -D3(0) with
 s6  =   0.82000
 s8  =   0.70500
 rs6 =   1.55700
 rs8 =   1.00000
 -D3 energy without 3body term =     -0.0024555842 hartrees
 ----------------------------------------------------------------
             Standard Nuclear Orientation (Angstroms)
    I     Atom           X                Y                Z
 ----------------------------------------------------------------
    1      Mg      0.0000000000     0.0000000000     0.0000000000
    2      Mg      0.0000000000     0.0000000000     3.8905000000
 ----------------------------------------------------------------
 Nuclear Repulsion Energy =    19.5841061316 hartrees
 There are       12 alpha and       12 beta electrons
 Requested basis set is aug-cc-pCVQZ
 There are 68 shells and 268 basis functions

 Total QAlloc Memory Limit 128000 MB
 Mega-Array Size      1467 MB
 MEM_STATIC part      1500 MB

                       Distance Matrix (Angstroms)
             Mg(  1)
   Mg(  2)  3.890500
 
 Applying Cartesian multipole field
    Component          Value
    ---------          -----
     (0,2,0)        1.00000E-04
 A cutoff of  1.0D-14 yielded   2153 shell pairs
 There are     34009 function pairs (     57654 Cartesian)
 
 -------------------------------------------------------
 OpenMP Integral Computing Module                       
 Release: version 1.0, May 2013, Q-Chem Inc. Pittsburgh 
 -------------------------------------------------------
 Integral Job Info:
 Integral job number is                      11
 Integral operator is                         1
 short-range coefficients                     0
 long-range coefficients              100000000
 Omega coefficients                           0
 if combine SR and LR in K                    0
 Integral screening is                        0
 Integral computing path is                   2
 max size of driver memory is           3200000
 size of driver memory is               1704330
 size of scratch memory is             29417912
 max col of scratch BK array              50625
 max len of scratch array in speh3         2114
 max len of scratch index in speh4           50
 max int batch size is                      520
 min int batch size is                       52
 fixed nKL is                                16
 max L of basis functions is                  4
 order of int derivative is                   0
 number of shells is                         68
 number of basis is                         348
 number of cartesian basis is               348
 number of contracted shell pairs          2153
 number of primitive shell pairs          11329
 maxK2 (contraction) of shell pair          169
 max number of K2 of shell pair               1
 max number of CS2 of shell pair            186
 max number of PS2 of shell pair           2028
 mem total for path MDJ                  752464
 -------------------------------------------------------
 Smallest overlap matrix eigenvalue = 9.12E-05
 Guess MOs from SCF MO coefficient file

 -----------------------------------------------------------------------
  General SCF calculation program by
  Eric Jon Sundstrom, Paul Horn, Yuezhi Mao, Dmitri Zuev, Alec White,
  David Stuck, Shaama M.S., Shane Yost, Joonho Lee, David Small,
  Daniel Levine, Susi Lehtola, Hugh Burton, Evgeny Epifanovsky
 -----------------------------------------------------------------------
 Exchange:     0.5000 Hartree-Fock + 1.0000 PWPB95-D3
 Correlation:  0.7310 PWPB95-D3
 Using Euler-Maclaurin-Lebedev (99,590) quadrature formula
 Dispersion:   Grimme D3
 using 8 threads for integral computing
 -------------------------------------------------------
 OpenMP Integral computing Module                
 Release: version 2.0, May 2017, Q-Chem Inc. Pleasanton 
 -------------------------------------------------------
 -------------------------------------------------------
 OpenMP BLAS3 based DFT computing Module                
 Release: version 1.0, May 2013, Q-Chem Inc. Pittsburgh 
 -------------------------------------------------------
 A restricted SCF calculation will be
 performed using GDM
 SCF converges when RMS gradient is below 1.0e-08
 ---------------------------------------
  Cycle       Energy        RMS Gradient
 ---------------------------------------
    1    -399.9993549596      1.51e-03   Normal BFGS step
    2    -399.9993655671      3.08e-04   Normal BFGS step
    3    -399.9993659397      5.32e-05   Normal BFGS step
    4    -399.9993659600      8.54e-06   Normal BFGS step
    5    -399.9993659610      2.03e-06   Normal BFGS step
    6    -399.9993659610      7.53e-07   Normal BFGS step
    7    -399.9993659610      6.94e-08   Normal BFGS step
    8    -399.9993659610      1.12e-08   Normal BFGS step
    9    -399.9993659610      1.40e-09  Convergence criterion met
 ---------------------------------------
 SCF time:   CPU 2661.36s  wall 336.00s 
 SCF   energy in the final basis set =     -399.9993659610
 Total energy in the final basis set =     -399.9993659610
 
 Components of the MP2 correlation energy:
        aaaa  correlation energy =         0.0000000000 au
        abab  correlation energy =        -0.1730466062 au
        bbbb  correlation energy =         0.0000000000 au
        non-Brillouin singles    =        -0.0000000000 au

 Total  MP2   correlation energy =                    -0.17304661 au
        MP2         total energy =                  -400.17241257 au
 
 --------------------------------------------------------------
 
                    Orbital Energies (a.u.)
 --------------------------------------------------------------
 
 Alpha MOs
 -- Occupied --
-47.637 -47.637  -3.344  -3.344  -2.004  -2.004  -2.004  -2.004
 -2.004  -2.004  -0.241  -0.196
 -- Virtual --
 -0.025  -0.024  -0.023   0.000   0.004   0.004   0.006   0.010
  0.015   0.016   0.018   0.024   0.031   0.047   0.065   0.066
  0.077   0.078   0.080   0.091   0.094   0.096   0.096   0.097
  0.100   0.101   0.104   0.129   0.136   0.138   0.145   0.196
  0.220   0.220   0.225   0.225   0.231   0.232   0.249   0.259
  0.259   0.261   0.261   0.276   0.276   0.295   0.296   0.304
  0.312   0.312   0.314   0.319   0.319   0.320   0.321   0.323
  0.324   0.350   0.420   0.421   0.427   0.435   0.438   0.582
  0.610   0.610   0.611   0.611   0.624   0.625   0.632   0.644
  0.644   0.667   0.667   0.676   0.676   0.687   0.687   0.701
  0.701   0.712   0.712   0.713   0.714   0.717   0.717   0.736
  0.736   0.737   0.737   0.760   0.760   0.764   0.790   0.790
  0.791   0.805   0.837   0.837   0.855   0.855   0.915   0.940
  0.950   0.951   0.952   0.953   1.030   1.061   1.061   1.339
  1.458   1.458   1.468   1.468   1.473   1.473   1.508   1.526
  1.527   1.611   1.720   1.720   1.728   1.728   1.736   1.736
  1.741   1.741   1.748   1.748   1.758   1.758   1.769   1.769
  1.769   1.769   1.772   1.772   1.782   1.795   1.795   1.811
  1.811   1.832   1.836   1.836   1.838   1.838   1.881   1.904
  1.905   2.016   2.621   2.736   4.247   4.247   4.254   4.254
  4.258   4.258   4.294   4.306   4.306   4.393   4.723   4.724
  4.744   4.744   4.760   5.015   9.474   9.474   9.474   9.474
  9.477   9.477   9.478   9.478   9.484   9.484   9.495   9.506
  9.506   9.530  10.948  11.095  13.633  13.633  13.639  13.639
 13.640  13.640  13.669  13.674  13.674  13.737  22.223  22.223
 22.237  22.237  22.251  22.417  24.888  24.888  24.888  24.888
 24.888  24.888  24.889  24.889  24.889  24.889  24.889  24.889
 24.889  24.890  24.890  24.890  24.890  24.890  32.204  32.204
 32.204  32.204  32.206  32.206  32.206  32.206  32.210  32.210
 32.215  32.222  32.222  32.236  35.631  35.754  41.345  41.345
 41.349  41.349  41.350  41.350  41.372  41.374  41.374  41.418
 90.036  90.036  90.046  90.046  90.056  90.176 153.938 154.146
 --------------------------------------------------------------
 
          Ground-State Mulliken Net Atomic Charges

     Atom                 Charge (a.u.)
  ----------------------------------------
      1 Mg                    0.000000
      2 Mg                   -0.000000
  ----------------------------------------
  Sum of atomic charges =    -0.000000

 -----------------------------------------------------------------
                    Cartesian Multipole Moments
 -----------------------------------------------------------------
    Charge (ESU x 10^10)
                -0.0000
    Dipole Moment (Debye)
         X      -0.0000      Y       0.0000      Z      -0.0000
       Tot       0.0000
    Quadrupole Moments (Debye-Ang)
        XX     -25.2773     XY      -0.0000     YY     -25.4240
        XZ      -0.0000     YZ       0.0000     ZZ     -26.8924
    Octopole Moments (Debye-Ang^2)
       XXX      -0.0000    XXY      -0.0000    XYY      -0.0000
       YYY      -0.0000    XXZ     -49.1707    XYZ      -0.0000
       YYZ     -49.4561    XZZ      -0.0000    YZZ       0.0000
       ZZZ    -156.9372
    Hexadecapole Moments (Debye-Ang^3)
      XXXX     -74.2454   XXXY      -0.0000   XXYY     -24.9637
      XYYY      -0.0000   YYYY     -75.5405   XXXZ      -0.0000
      XXYZ      -0.0000   XYYZ      -0.0000   YYYZ      -0.0000
      XXZZ    -220.2212   XYZZ      -0.0000   YYZZ    -221.6154
      XZZZ      -0.0000   YZZZ       0.0000   ZZZZ   -1297.2689
 -----------------------------------------------------------------
Archival summary:
1\1\n0089.mhg0\SP\ProcedureUnspecified\BasisUnspecified\g2\yhljason\FriOct902:18:242020FriOct902:18:242020\0\\#,ProcedureUnspecified,BasisUnspecified,\\0,1\Mg\Mg,1,3.8905\\\@

 Total job time:  724.58s(wall), 5734.09s(cpu) 
 Fri Oct  9 02:18:24 2020

        *************************************************************
        *                                                           *
        *  Thank you very much for using Q-Chem.  Have a nice day.  *
        *                                                           *
        *************************************************************


 
User input: 6 of 8 
 
Q-Chem Developer Version!
                  Welcome to Q-Chem
     A Quantum Leap Into The Future Of Chemistry


 Q-Chem 5.1, Q-Chem, Inc., Pleasanton, CA (2018)

 Yihan Shao,  Zhengting Gan,  E. Epifanovsky,  A. T. B. Gilbert,  M. Wormit,  
 J. Kussmann,  A. W. Lange,  A. Behn,  Jia Deng,  Xintian Feng,  D. Ghosh,  
 M. Goldey,  P. R. Horn,  L. D. Jacobson,  I. Kaliman,  T. Kus,  A. Landau,  
 Jie Liu,  E. I. Proynov,  R. M. Richard,  R. P. Steele,  E. J. Sundstrom,  
 H. L. Woodcock III,  P. M. Zimmerman,  D. Zuev,  B. Albrecht,  E. Alguire,  
 S. A. Baeppler,  D. Barton,  Z. Benda,  Y. A. Bernard,  E. J. Berquist,  
 K. B. Bravaya,  H. Burton,  D. Casanova,  Chun-Min Chang,  Yunqing Chen,  
 A. Chien,  K. D. Closser,  M. P. Coons,  S. Coriani,  S. Dasgupta,  
 A. L. Dempwolff,  M. Diedenhofen,  Hainam Do,  R. G. Edgar,  Po-Tung Fang,  
 S. Faraji,  S. Fatehi,  Qingguo Feng,  K. D. Fenk,  J. Fosso-Tande,  
 Qinghui Ge,  A. Ghysels,  G. Gidofalvi,  J. Gomes,  J. Gonthier,  A. Gunina,  
 D. Hait,  M. W. D. Hanson-Heine,  P. H. P. Harbach,  A. W. Hauser,  
 J. E. Herr,  E. G. Hohenstein,  Z. C. Holden,  Kerwin Hui,  B. C. Huynh,  
 T.-C. Jagau,  Hyunjun Ji,  B. Kaduk,  K. Khistyaev,  Jaehoon Kim,  
 P. Klunzinger,  K. Koh,  D. Kosenkov,  L. Koulias,  T. Kowalczyk,  
 C. M. Krauter,  A. Kunitsa,  Ka Un Lao,  A. Laurent,  K. V. Lawler,  
 Joonho Lee,  D. Lefrancois,  S. Lehtola,  D. S. Levine,  Yi-Pei Li,  
 You-Sheng Lin,  Fenglai Liu,  E. Livshits,  A. Luenser,  P. Manohar,  
 E. Mansoor,  S. F. Manzer,  Shan-Ping Mao,  Yuezhi Mao,  N. Mardirossian,  
 A. V. Marenich,  T. Markovich,  L. A. Martinez-Martinez,  S. A. Maurer,  
 N. J. Mayhall,  S. C. McKenzie,  J.-M. Mewes,  A. F. Morrison,  
 J. W. Mullinax,  K. Nanda,  T. S. Nguyen-Beck,  R. Olivares-Amaya,  
 J. A. Parkhill,  T. M. Perrine,  F. Plasser,  P. Pokhilko,  S. Prager,  
 A. Prociuk,  E. Ramos,  D. R. Rehn,  F. Rob,  M. Schneider,  N. Sergueev,  
 S. M. Sharada,  S. Sharma,  D. W. Small,  T. Stauch,  T. Stein,  
 Yu-Chuan Su,  A. J. W. Thom,  A. Tkatchenko,  T. Tsuchimochi,  N. M. Tubman,  
 L. Vogt,  M. L. Vidal,  O. Vydrov,  M. A. Watson,  J. Wenzel,  
 M. de Wergifosse,  T. A. Wesolowski,  A. White,  J. Witte,  A. Yamada,  
 Jun Yang,  K. Yao,  S. Yeganeh,  S. R. Yost,  Zhi-Qiang You,  A. Zech,  
 Igor Ying Zhang,  Xing Zhang,  Yan Zhao,  Ying Zhu,  B. R. Brooks,  
 G. K. L. Chan,  C. J. Cramer,  M. S. Gordon,  W. J. Hehre,  A. Klamt,  
 M. W. Schmidt,  C. D. Sherrill,  D. G. Truhlar,  A. Aspuru-Guzik,  R. Baer,  
 A. T. Bell,  N. A. Besley,  Jeng-Da Chai,  A. E. DePrince, III,  
 R. A. DiStasio Jr.,  A. Dreuw,  B. D. Dunietz,  T. R. Furlani,  
 Chao-Ping Hsu,  Yousung Jung,  Jing Kong,  D. S. Lambrecht,  WanZhen Liang,  
 C. Ochsenfeld,  V. A. Rassolov,  L. V. Slipchenko,  J. E. Subotnik,  
 T. Van Voorhis,  J. M. Herbert,  A. I. Krylov,  P. M. W. Gill,  M. Head-Gordon

 Contributors to earlier versions of Q-Chem not listed above: 
 R. D. Adamson,  B. Austin,  J. Baker,  G. J. O. Beran,  K. Brandhorst,  
 S. T. Brown,  E. F. C. Byrd,  A. K. Chakraborty,  C.-L. Cheng,  
 Siu Hung Chien,  D. M. Chipman,  D. L. Crittenden,  H. Dachsel,  
 R. J. Doerksen,  A. D. Dutoi,  L. Fusti-Molnar,  W. A. Goddard III,  
 A. Golubeva-Zadorozhnaya,  S. R. Gwaltney,  G. Hawkins,  A. Heyden,  
 S. Hirata,  G. Kedziora,  F. J. Keil,  C. Kelley,  Jihan Kim,  R. A. King,  
 R. Z. Khaliullin,  P. P. Korambath,  W. Kurlancheek,  A. M. Lee,  M. S. Lee,  
 S. V. Levchenko,  Ching Yeh Lin,  D. Liotard,  R. C. Lochan,  I. Lotan,  
 P. E. Maslen,  N. Nair,  D. P. O'Neill,  D. Neuhauser,  E. Neuscamman,  
 C. M. Oana,  R. Olson,  B. Peters,  R. Peverati,  P. A. Pieniazek,  
 Y. M. Rhee,  J. Ritchie,  M. A. Rohrdanz,  E. Rosta,  N. J. Russ,  
 H. F. Schaefer III,  N. E. Schultz,  N. Shenvi,  A. C. Simmonett,  A. Sodt,  
 D. Stuck,  K. S. Thanthiriwatte,  V. Vanovschi,  Tao Wang,  A. Warshel,  
 C. F. Williams,  Q. Wu,  X. Xu,  W. Zhang

 Please cite Q-Chem as follows:
 Y. Shao et al., Mol. Phys. 113, 184-215 (2015)
 DOI: 10.1080/00268976.2014.952696

 Q-Chem 5.1.1 for Intel X86 EM64T Linux

 Parts of Q-Chem use Armadillo 8.300.2 (Tropical Shenanigans).
 http://arma.sourceforge.net/

 Q-Chem begins on Fri Oct  9 02:18:25 2020  

Host: n0089.mhg0
0

     Scratch files written to /local/scratch/users/yhljason/Mg2_PWPB95-D3_aug-cc-pcVQZ.inp20201008191755//
The previous job contains 0 fragments, simply inherited here
Input Ideriv = 0
Curr. Ideriv = -1
Max.  Ideriv = 0
Analytic post-HF gradients are not available with non-HF exchange
Input Ideriv = 0
Curr. Ideriv = 0
Max.  Ideriv = 0

Checking the input file for inconsistencies... 	...done.

--------------------------------------------------------------
User input:
--------------------------------------------------------------
$molecule
read
$end

$rem

jobtype sp
method PWPB95-D3
xc_grid 000099000590
basis aug-cc-pcVQZ
max_scf_cycles 200
thresh 14
scf_convergence 8
mem_total 128000
cc_memory 96000
cc_backend xm
mem_static 1500
symmetry false
sym_ignore true
scf_guess read
unrestricted false
scf_algorithm gdm
n_frozen_core 0
$end

$multipole_field
YY -0.0001
$end


--------------------------------------------------------------
 Adding empirical dispersion correction 
 ----------------------------------------------------------------
 Doing -D3(0) with
 s6  =   0.82000
 s8  =   0.70500
 rs6 =   1.55700
 rs8 =   1.00000
 -D3 energy without 3body term =     -0.0024555842 hartrees
 ----------------------------------------------------------------
             Standard Nuclear Orientation (Angstroms)
    I     Atom           X                Y                Z
 ----------------------------------------------------------------
    1      Mg      0.0000000000     0.0000000000     0.0000000000
    2      Mg      0.0000000000     0.0000000000     3.8905000000
 ----------------------------------------------------------------
 Nuclear Repulsion Energy =    19.5841061316 hartrees
 There are       12 alpha and       12 beta electrons
 Requested basis set is aug-cc-pCVQZ
 There are 68 shells and 268 basis functions

 Total QAlloc Memory Limit 128000 MB
 Mega-Array Size      1467 MB
 MEM_STATIC part      1500 MB

                       Distance Matrix (Angstroms)
             Mg(  1)
   Mg(  2)  3.890500
 
 Applying Cartesian multipole field
    Component          Value
    ---------          -----
     (0,2,0)       -1.00000E-04
 A cutoff of  1.0D-14 yielded   2153 shell pairs
 There are     34009 function pairs (     57654 Cartesian)
 
 -------------------------------------------------------
 OpenMP Integral Computing Module                       
 Release: version 1.0, May 2013, Q-Chem Inc. Pittsburgh 
 -------------------------------------------------------
 Integral Job Info:
 Integral job number is                      11
 Integral operator is                         1
 short-range coefficients                     0
 long-range coefficients              100000000
 Omega coefficients                           0
 if combine SR and LR in K                    0
 Integral screening is                        0
 Integral computing path is                   2
 max size of driver memory is           3200000
 size of driver memory is               1704330
 size of scratch memory is             29417912
 max col of scratch BK array              50625
 max len of scratch array in speh3         2114
 max len of scratch index in speh4           50
 max int batch size is                      520
 min int batch size is                       52
 fixed nKL is                                16
 max L of basis functions is                  4
 order of int derivative is                   0
 number of shells is                         68
 number of basis is                         348
 number of cartesian basis is               348
 number of contracted shell pairs          2153
 number of primitive shell pairs          11329
 maxK2 (contraction) of shell pair          169
 max number of K2 of shell pair               1
 max number of CS2 of shell pair            186
 max number of PS2 of shell pair           2028
 mem total for path MDJ                  752464
 -------------------------------------------------------
 Smallest overlap matrix eigenvalue = 9.12E-05
 Guess MOs from SCF MO coefficient file

 -----------------------------------------------------------------------
  General SCF calculation program by
  Eric Jon Sundstrom, Paul Horn, Yuezhi Mao, Dmitri Zuev, Alec White,
  David Stuck, Shaama M.S., Shane Yost, Joonho Lee, David Small,
  Daniel Levine, Susi Lehtola, Hugh Burton, Evgeny Epifanovsky
 -----------------------------------------------------------------------
 Exchange:     0.5000 Hartree-Fock + 1.0000 PWPB95-D3
 Correlation:  0.7310 PWPB95-D3
 Using Euler-Maclaurin-Lebedev (99,590) quadrature formula
 Dispersion:   Grimme D3
 using 8 threads for integral computing
 -------------------------------------------------------
 OpenMP Integral computing Module                
 Release: version 2.0, May 2017, Q-Chem Inc. Pleasanton 
 -------------------------------------------------------
 -------------------------------------------------------
 OpenMP BLAS3 based DFT computing Module                
 Release: version 1.0, May 2013, Q-Chem Inc. Pittsburgh 
 -------------------------------------------------------
 A restricted SCF calculation will be
 performed using GDM
 SCF converges when RMS gradient is below 1.0e-08
 ---------------------------------------
  Cycle       Energy        RMS Gradient
 ---------------------------------------
    1    -399.9955855295      2.02e-03   Normal BFGS step
    2    -399.9956065837      4.72e-04   Normal BFGS step
    3    -399.9956075771      6.97e-05   Normal BFGS step
    4    -399.9956076040      1.52e-05   Normal BFGS step
    5    -399.9956076070      1.54e-06   Normal BFGS step
    6    -399.9956076071      8.43e-07   Normal BFGS step
    7    -399.9956076071      6.39e-08   Normal BFGS step
    8    -399.9956076071      1.01e-08   Normal BFGS step
    9    -399.9956076071      1.60e-09  Convergence criterion met
 ---------------------------------------
 SCF time:   CPU 2654.43s  wall 334.00s 
 SCF   energy in the final basis set =     -399.9956076071
 Total energy in the final basis set =     -399.9956076071
 
 Components of the MP2 correlation energy:
        aaaa  correlation energy =         0.0000000000 au
        abab  correlation energy =        -0.1730825282 au
        bbbb  correlation energy =         0.0000000000 au
        non-Brillouin singles    =        -0.0000000000 au

 Total  MP2   correlation energy =                    -0.17308253 au
        MP2         total energy =                  -400.16869014 au
 
 --------------------------------------------------------------
 
                    Orbital Energies (a.u.)
 --------------------------------------------------------------
 
 Alpha MOs
 -- Occupied --
-47.636 -47.636  -3.343  -3.343  -2.003  -2.003  -2.003  -2.003
 -2.003  -2.003  -0.240  -0.195
 -- Virtual --
 -0.022  -0.021  -0.020   0.007   0.009   0.012   0.018   0.024
  0.025   0.032   0.032   0.039   0.040   0.055   0.070   0.070
  0.083   0.083   0.086   0.097   0.101   0.101   0.101   0.104
  0.107   0.107   0.111   0.135   0.140   0.142   0.148   0.200
  0.224   0.224   0.228   0.228   0.234   0.234   0.252   0.262
  0.262   0.264   0.264   0.279   0.279   0.298   0.299   0.308
  0.315   0.316   0.317   0.321   0.321   0.324   0.325   0.325
  0.327   0.352   0.422   0.423   0.430   0.438   0.440   0.584
  0.612   0.612   0.613   0.613   0.626   0.626   0.634   0.646
  0.646   0.669   0.669   0.679   0.679   0.689   0.689   0.703
  0.703   0.714   0.714   0.715   0.715   0.719   0.719   0.737
  0.737   0.739   0.739   0.762   0.762   0.765   0.792   0.792
  0.792   0.807   0.839   0.839   0.856   0.856   0.916   0.942
  0.952   0.953   0.954   0.955   1.031   1.062   1.062   1.341
  1.460   1.460   1.469   1.470   1.475   1.475   1.510   1.528
  1.528   1.612   1.721   1.721   1.730   1.730   1.737   1.737
  1.742   1.742   1.750   1.750   1.760   1.760   1.770   1.770
  1.770   1.770   1.773   1.773   1.783   1.796   1.796   1.812
  1.812   1.834   1.837   1.838   1.839   1.839   1.883   1.906
  1.906   2.018   2.622   2.737   4.248   4.248   4.256   4.256
  4.259   4.259   4.295   4.307   4.307   4.395   4.725   4.725
  4.745   4.745   4.761   5.016   9.475   9.475   9.475   9.475
  9.478   9.478   9.479   9.479   9.485   9.485   9.496   9.508
  9.508   9.531  10.949  11.096  13.634  13.634  13.640  13.640
 13.641  13.641  13.671  13.675  13.675  13.738  22.224  22.224
 22.238  22.238  22.252  22.418  24.890  24.890  24.890  24.890
 24.890  24.890  24.890  24.890  24.890  24.890  24.890  24.891
 24.891  24.891  24.891  24.891  24.891  24.891  32.205  32.205
 32.206  32.206  32.207  32.207  32.207  32.207  32.211  32.211
 32.216  32.223  32.223  32.237  35.632  35.755  41.346  41.346
 41.350  41.350  41.351  41.351  41.373  41.375  41.375  41.419
 90.037  90.037  90.047  90.047  90.058  90.177 153.939 154.147
 --------------------------------------------------------------
 
          Ground-State Mulliken Net Atomic Charges

     Atom                 Charge (a.u.)
  ----------------------------------------
      1 Mg                   -0.000000
      2 Mg                    0.000000
  ----------------------------------------
  Sum of atomic charges =    -0.000000

 -----------------------------------------------------------------
                    Cartesian Multipole Moments
 -----------------------------------------------------------------
    Charge (ESU x 10^10)
                -0.0000
    Dipole Moment (Debye)
         X       0.0000      Y      -0.0000      Z      -0.0000
       Tot       0.0000
    Quadrupole Moments (Debye-Ang)
        XX     -25.2727     XY      -0.0000     YY     -25.1305
        XZ       0.0000     YZ      -0.0000     ZZ     -26.8982
    Octopole Moments (Debye-Ang^2)
       XXX       0.0000    XXY      -0.0000    XYY       0.0000
       YYY      -0.0000    XXZ     -49.1617    XYZ      -0.0000
       YYZ     -48.8851    XZZ       0.0000    YZZ      -0.0000
       ZZZ    -156.9712
    Hexadecapole Moments (Debye-Ang^3)
      XXXX     -74.0535   XXXY      -0.0000   XXYY     -24.4782
      XYYY      -0.0000   YYYY     -72.8193   XXXZ       0.0000
      XXYZ      -0.0000   XYYZ       0.0000   YYYZ      -0.0000
      XXZZ    -220.1068   XYZZ       0.0000   YYZZ    -218.7585
      XZZZ       0.0000   YZZZ      -0.0000   ZZZZ   -1297.1443
 -----------------------------------------------------------------
Archival summary:
1\1\n0089.mhg0\SP\ProcedureUnspecified\BasisUnspecified\g2\yhljason\FriOct902:30:242020FriOct902:30:242020\0\\#,ProcedureUnspecified,BasisUnspecified,\\0,1\Mg\Mg,1,3.8905\\\@

 Total job time:  719.34s(wall), 5695.99s(cpu) 
 Fri Oct  9 02:30:24 2020

        *************************************************************
        *                                                           *
        *  Thank you very much for using Q-Chem.  Have a nice day.  *
        *                                                           *
        *************************************************************


 
User input: 7 of 8 
 
Q-Chem Developer Version!
                  Welcome to Q-Chem
     A Quantum Leap Into The Future Of Chemistry


 Q-Chem 5.1, Q-Chem, Inc., Pleasanton, CA (2018)

 Yihan Shao,  Zhengting Gan,  E. Epifanovsky,  A. T. B. Gilbert,  M. Wormit,  
 J. Kussmann,  A. W. Lange,  A. Behn,  Jia Deng,  Xintian Feng,  D. Ghosh,  
 M. Goldey,  P. R. Horn,  L. D. Jacobson,  I. Kaliman,  T. Kus,  A. Landau,  
 Jie Liu,  E. I. Proynov,  R. M. Richard,  R. P. Steele,  E. J. Sundstrom,  
 H. L. Woodcock III,  P. M. Zimmerman,  D. Zuev,  B. Albrecht,  E. Alguire,  
 S. A. Baeppler,  D. Barton,  Z. Benda,  Y. A. Bernard,  E. J. Berquist,  
 K. B. Bravaya,  H. Burton,  D. Casanova,  Chun-Min Chang,  Yunqing Chen,  
 A. Chien,  K. D. Closser,  M. P. Coons,  S. Coriani,  S. Dasgupta,  
 A. L. Dempwolff,  M. Diedenhofen,  Hainam Do,  R. G. Edgar,  Po-Tung Fang,  
 S. Faraji,  S. Fatehi,  Qingguo Feng,  K. D. Fenk,  J. Fosso-Tande,  
 Qinghui Ge,  A. Ghysels,  G. Gidofalvi,  J. Gomes,  J. Gonthier,  A. Gunina,  
 D. Hait,  M. W. D. Hanson-Heine,  P. H. P. Harbach,  A. W. Hauser,  
 J. E. Herr,  E. G. Hohenstein,  Z. C. Holden,  Kerwin Hui,  B. C. Huynh,  
 T.-C. Jagau,  Hyunjun Ji,  B. Kaduk,  K. Khistyaev,  Jaehoon Kim,  
 P. Klunzinger,  K. Koh,  D. Kosenkov,  L. Koulias,  T. Kowalczyk,  
 C. M. Krauter,  A. Kunitsa,  Ka Un Lao,  A. Laurent,  K. V. Lawler,  
 Joonho Lee,  D. Lefrancois,  S. Lehtola,  D. S. Levine,  Yi-Pei Li,  
 You-Sheng Lin,  Fenglai Liu,  E. Livshits,  A. Luenser,  P. Manohar,  
 E. Mansoor,  S. F. Manzer,  Shan-Ping Mao,  Yuezhi Mao,  N. Mardirossian,  
 A. V. Marenich,  T. Markovich,  L. A. Martinez-Martinez,  S. A. Maurer,  
 N. J. Mayhall,  S. C. McKenzie,  J.-M. Mewes,  A. F. Morrison,  
 J. W. Mullinax,  K. Nanda,  T. S. Nguyen-Beck,  R. Olivares-Amaya,  
 J. A. Parkhill,  T. M. Perrine,  F. Plasser,  P. Pokhilko,  S. Prager,  
 A. Prociuk,  E. Ramos,  D. R. Rehn,  F. Rob,  M. Schneider,  N. Sergueev,  
 S. M. Sharada,  S. Sharma,  D. W. Small,  T. Stauch,  T. Stein,  
 Yu-Chuan Su,  A. J. W. Thom,  A. Tkatchenko,  T. Tsuchimochi,  N. M. Tubman,  
 L. Vogt,  M. L. Vidal,  O. Vydrov,  M. A. Watson,  J. Wenzel,  
 M. de Wergifosse,  T. A. Wesolowski,  A. White,  J. Witte,  A. Yamada,  
 Jun Yang,  K. Yao,  S. Yeganeh,  S. R. Yost,  Zhi-Qiang You,  A. Zech,  
 Igor Ying Zhang,  Xing Zhang,  Yan Zhao,  Ying Zhu,  B. R. Brooks,  
 G. K. L. Chan,  C. J. Cramer,  M. S. Gordon,  W. J. Hehre,  A. Klamt,  
 M. W. Schmidt,  C. D. Sherrill,  D. G. Truhlar,  A. Aspuru-Guzik,  R. Baer,  
[...]
        MP2         total energy =                  -400.17261057 au
 
 --------------------------------------------------------------
 
                    Orbital Energies (a.u.)
 --------------------------------------------------------------
 
 Alpha MOs
 -- Occupied --
-47.642 -47.640  -3.349  -3.346  -2.009  -2.009  -2.009  -2.007
 -2.007  -2.007  -0.244  -0.200
 -- Virtual --
 -0.031  -0.026  -0.026  -0.018  -0.003  -0.003   0.002   0.010
  0.011   0.011   0.019   0.019   0.020   0.044   0.064   0.064
  0.070   0.075   0.075   0.091   0.091   0.094   0.094   0.096
  0.096   0.096   0.103   0.125   0.133   0.133   0.140   0.189
  0.218   0.218   0.222   0.222   0.228   0.228   0.245   0.257
  0.257   0.259   0.259   0.273   0.273   0.291   0.291   0.300
  0.308   0.310   0.310   0.315   0.315   0.318   0.318   0.320
  0.320   0.345   0.416   0.416   0.424   0.429   0.434   0.578
  0.607   0.607   0.608   0.608   0.621   0.621   0.628   0.641
  0.641   0.664   0.664   0.674   0.674   0.685   0.685   0.697
  0.697   0.709   0.709   0.710   0.710   0.714   0.714   0.732
  0.732   0.734   0.734   0.757   0.757   0.760   0.786   0.786
  0.786   0.802   0.834   0.834   0.851   0.851   0.911   0.935
  0.946   0.946   0.950   0.950   1.025   1.057   1.057   1.335
  1.455   1.455   1.464   1.464   1.470   1.470   1.505   1.523
  1.523   1.607   1.716   1.716   1.725   1.725   1.732   1.732
  1.738   1.738   1.745   1.745   1.755   1.755   1.765   1.765
  1.765   1.765   1.769   1.769   1.778   1.791   1.791   1.807
  1.807   1.829   1.832   1.832   1.835   1.835   1.878   1.901
  1.901   2.013   2.617   2.732   4.244   4.244   4.251   4.251
  4.254   4.254   4.290   4.303   4.303   4.390   4.720   4.720
  4.741   4.741   4.756   5.012   9.470   9.470   9.470   9.470
  9.474   9.474   9.474   9.474   9.481   9.481   9.491   9.503
  9.503   9.526  10.944  11.092  13.629  13.629  13.635  13.635
 13.637  13.637  13.666  13.671  13.671  13.734  22.219  22.219
 22.233  22.233  22.247  22.413  24.884  24.884  24.884  24.884
 24.884  24.884  24.885  24.885  24.885  24.886  24.886  24.886
 24.886  24.887  24.887  24.887  24.887  24.887  32.200  32.200
 32.201  32.201  32.203  32.203  32.203  32.203  32.206  32.206
 32.212  32.218  32.218  32.232  35.628  35.750  41.341  41.341
 41.346  41.346  41.347  41.347  41.368  41.371  41.371  41.414
 90.032  90.032  90.043  90.043  90.053  90.173 153.934 154.143
 --------------------------------------------------------------
 
          Ground-State Mulliken Net Atomic Charges

     Atom                 Charge (a.u.)
  ----------------------------------------
      1 Mg                    0.005198
      2 Mg                   -0.005198
  ----------------------------------------
  Sum of atomic charges =    -0.000000

 -----------------------------------------------------------------
                    Cartesian Multipole Moments
 -----------------------------------------------------------------
    Charge (ESU x 10^10)
                -0.0000
    Dipole Moment (Debye)
         X       0.0000      Y       0.0000      Z      -0.4452
       Tot       0.4452
    Quadrupole Moments (Debye-Ang)
        XX     -25.2749     XY      -0.0000     YY     -25.2749
        XZ       0.0000     YZ      -0.0000     ZZ     -29.7382
    Octopole Moments (Debye-Ang^2)
       XXX       0.0000    XXY       0.0000    XYY       0.0000
       YYY       0.0000    XXZ     -49.8780    XYZ      -0.0000
       YYZ     -49.8780    XZZ      -0.0000    YZZ      -0.0000
       ZZZ    -175.3231
    Hexadecapole Moments (Debye-Ang^3)
      XXXX     -74.2420   XXXY      -0.0000   XXYY     -24.7473
      XYYY      -0.0000   YYYY     -74.2420   XXXZ       0.0000
      XXYZ      -0.0000   XYYZ       0.0000   YYYZ       0.0000
      XXZZ    -224.6479   XYZZ      -0.0000   YYZZ    -224.6479
      XZZZ      -0.0000   YZZZ      -0.0000   ZZZZ   -1411.1998
 -----------------------------------------------------------------
Archival summary:
1\1\n0089.mhg0\SP\ProcedureUnspecified\BasisUnspecified\g2\yhljason\FriOct902:41:112020FriOct902:41:112020\0\\#,ProcedureUnspecified,BasisUnspecified,\\0,1\Mg\Mg,1,3.8905\\\@

 Total job time:  647.37s(wall), 5130.25s(cpu) 
 Fri Oct  9 02:41:11 2020

        *************************************************************
        *                                                           *
        *  Thank you very much for using Q-Chem.  Have a nice day.  *
        *                                                           *
        *************************************************************


 
User input: 8 of 8 
 
Q-Chem Developer Version!
                  Welcome to Q-Chem
     A Quantum Leap Into The Future Of Chemistry


 Q-Chem 5.1, Q-Chem, Inc., Pleasanton, CA (2018)

 Yihan Shao,  Zhengting Gan,  E. Epifanovsky,  A. T. B. Gilbert,  M. Wormit,  
 J. Kussmann,  A. W. Lange,  A. Behn,  Jia Deng,  Xintian Feng,  D. Ghosh,  
 M. Goldey,  P. R. Horn,  L. D. Jacobson,  I. Kaliman,  T. Kus,  A. Landau,  
 Jie Liu,  E. I. Proynov,  R. M. Richard,  R. P. Steele,  E. J. Sundstrom,  
 H. L. Woodcock III,  P. M. Zimmerman,  D. Zuev,  B. Albrecht,  E. Alguire,  
 S. A. Baeppler,  D. Barton,  Z. Benda,  Y. A. Bernard,  E. J. Berquist,  
 K. B. Bravaya,  H. Burton,  D. Casanova,  Chun-Min Chang,  Yunqing Chen,  
 A. Chien,  K. D. Closser,  M. P. Coons,  S. Coriani,  S. Dasgupta,  
 A. L. Dempwolff,  M. Diedenhofen,  Hainam Do,  R. G. Edgar,  Po-Tung Fang,  
 S. Faraji,  S. Fatehi,  Qingguo Feng,  K. D. Fenk,  J. Fosso-Tande,  
 Qinghui Ge,  A. Ghysels,  G. Gidofalvi,  J. Gomes,  J. Gonthier,  A. Gunina,  
 D. Hait,  M. W. D. Hanson-Heine,  P. H. P. Harbach,  A. W. Hauser,  
 J. E. Herr,  E. G. Hohenstein,  Z. C. Holden,  Kerwin Hui,  B. C. Huynh,  
 T.-C. Jagau,  Hyunjun Ji,  B. Kaduk,  K. Khistyaev,  Jaehoon Kim,  
 P. Klunzinger,  K. Koh,  D. Kosenkov,  L. Koulias,  T. Kowalczyk,  
 C. M. Krauter,  A. Kunitsa,  Ka Un Lao,  A. Laurent,  K. V. Lawler,  
 Joonho Lee,  D. Lefrancois,  S. Lehtola,  D. S. Levine,  Yi-Pei Li,  
 You-Sheng Lin,  Fenglai Liu,  E. Livshits,  A. Luenser,  P. Manohar,  
 E. Mansoor,  S. F. Manzer,  Shan-Ping Mao,  Yuezhi Mao,  N. Mardirossian,  
 A. V. Marenich,  T. Markovich,  L. A. Martinez-Martinez,  S. A. Maurer,  
 N. J. Mayhall,  S. C. McKenzie,  J.-M. Mewes,  A. F. Morrison,  
 J. W. Mullinax,  K. Nanda,  T. S. Nguyen-Beck,  R. Olivares-Amaya,  
 J. A. Parkhill,  T. M. Perrine,  F. Plasser,  P. Pokhilko,  S. Prager,  
 A. Prociuk,  E. Ramos,  D. R. Rehn,  F. Rob,  M. Schneider,  N. Sergueev,  
 S. M. Sharada,  S. Sharma,  D. W. Small,  T. Stauch,  T. Stein,  
 Yu-Chuan Su,  A. J. W. Thom,  A. Tkatchenko,  T. Tsuchimochi,  N. M. Tubman,  
 L. Vogt,  M. L. Vidal,  O. Vydrov,  M. A. Watson,  J. Wenzel,  
 M. de Wergifosse,  T. A. Wesolowski,  A. White,  J. Witte,  A. Yamada,  
 Jun Yang,  K. Yao,  S. Yeganeh,  S. R. Yost,  Zhi-Qiang You,  A. Zech,  
 Igor Ying Zhang,  Xing Zhang,  Yan Zhao,  Ying Zhu,  B. R. Brooks,  
 G. K. L. Chan,  C. J. Cramer,  M. S. Gordon,  W. J. Hehre,  A. Klamt,  
 M. W. Schmidt,  C. D. Sherrill,  D. G. Truhlar,  A. Aspuru-Guzik,  R. Baer,  
 A. T. Bell,  N. A. Besley,  Jeng-Da Chai,  A. E. DePrince, III,  
 R. A. DiStasio Jr.,  A. Dreuw,  B. D. Dunietz,  T. R. Furlani,  
 Chao-Ping Hsu,  Yousung Jung,  Jing Kong,  D. S. Lambrecht,  WanZhen Liang,  
 C. Ochsenfeld,  V. A. Rassolov,  L. V. Slipchenko,  J. E. Subotnik,  
 T. Van Voorhis,  J. M. Herbert,  A. I. Krylov,  P. M. W. Gill,  M. Head-Gordon

 Contributors to earlier versions of Q-Chem not listed above: 
 R. D. Adamson,  B. Austin,  J. Baker,  G. J. O. Beran,  K. Brandhorst,  
 S. T. Brown,  E. F. C. Byrd,  A. K. Chakraborty,  C.-L. Cheng,  
 Siu Hung Chien,  D. M. Chipman,  D. L. Crittenden,  H. Dachsel,  
 R. J. Doerksen,  A. D. Dutoi,  L. Fusti-Molnar,  W. A. Goddard III,  
 A. Golubeva-Zadorozhnaya,  S. R. Gwaltney,  G. Hawkins,  A. Heyden,  
 S. Hirata,  G. Kedziora,  F. J. Keil,  C. Kelley,  Jihan Kim,  R. A. King,  
 R. Z. Khaliullin,  P. P. Korambath,  W. Kurlancheek,  A. M. Lee,  M. S. Lee,  
 S. V. Levchenko,  Ching Yeh Lin,  D. Liotard,  R. C. Lochan,  I. Lotan,  
 P. E. Maslen,  N. Nair,  D. P. O'Neill,  D. Neuhauser,  E. Neuscamman,  
 C. M. Oana,  R. Olson,  B. Peters,  R. Peverati,  P. A. Pieniazek,  
 Y. M. Rhee,  J. Ritchie,  M. A. Rohrdanz,  E. Rosta,  N. J. Russ,  
 H. F. Schaefer III,  N. E. Schultz,  N. Shenvi,  A. C. Simmonett,  A. Sodt,  
 D. Stuck,  K. S. Thanthiriwatte,  V. Vanovschi,  Tao Wang,  A. Warshel,  
 C. F. Williams,  Q. Wu,  X. Xu,  W. Zhang

 Please cite Q-Chem as follows:
 Y. Shao et al., Mol. Phys. 113, 184-215 (2015)
 DOI: 10.1080/00268976.2014.952696

 Q-Chem 5.1.1 for Intel X86 EM64T Linux

 Parts of Q-Chem use Armadillo 8.300.2 (Tropical Shenanigans).
 http://arma.sourceforge.net/

 Q-Chem begins on Fri Oct  9 02:41:12 2020  

Host: n0089.mhg0
0

     Scratch files written to /local/scratch/users/yhljason/Mg2_PWPB95-D3_aug-cc-pcVQZ.inp20201008191755//
The previous job contains 0 fragments, simply inherited here
Input Ideriv = 0
Curr. Ideriv = -1
Max.  Ideriv = 0
Analytic post-HF gradients are not available with non-HF exchange
Input Ideriv = 0
Curr. Ideriv = 0
Max.  Ideriv = 0

Checking the input file for inconsistencies... 	...done.

--------------------------------------------------------------
User input:
--------------------------------------------------------------
$molecule
read
$end

$rem

jobtype sp
method PWPB95-D3
xc_grid 000099000590
basis aug-cc-pcVQZ
max_scf_cycles 200
thresh 14
scf_convergence 8
mem_total 128000
cc_memory 96000
cc_backend xm
mem_static 1500
symmetry false
sym_ignore true
scf_guess read
unrestricted false
scf_algorithm gdm
n_frozen_core 0
$end

$multipole_field
ZZ -0.0001
$end

--------------------------------------------------------------
 Adding empirical dispersion correction 
 ----------------------------------------------------------------
 Doing -D3(0) with
 s6  =   0.82000
 s8  =   0.70500
 rs6 =   1.55700
 rs8 =   1.00000
 -D3 energy without 3body term =     -0.0024555842 hartrees
 ----------------------------------------------------------------
             Standard Nuclear Orientation (Angstroms)
    I     Atom           X                Y                Z
 ----------------------------------------------------------------
    1      Mg      0.0000000000     0.0000000000     0.0000000000
    2      Mg      0.0000000000     0.0000000000     3.8905000000
 ----------------------------------------------------------------
 Nuclear Repulsion Energy =    19.5841061316 hartrees
 There are       12 alpha and       12 beta electrons
 Requested basis set is aug-cc-pCVQZ
 There are 68 shells and 268 basis functions

 Total QAlloc Memory Limit 128000 MB
 Mega-Array Size      1467 MB
 MEM_STATIC part      1500 MB

                       Distance Matrix (Angstroms)
             Mg(  1)
   Mg(  2)  3.890500
 
 Applying Cartesian multipole field
    Component          Value
    ---------          -----
     (0,0,2)       -1.00000E-04
 Nucleus-field energy     =    -0.0648619229 hartrees
 A cutoff of  1.0D-14 yielded   2153 shell pairs
 There are     34009 function pairs (     57654 Cartesian)
 
 -------------------------------------------------------
 OpenMP Integral Computing Module                       
 Release: version 1.0, May 2013, Q-Chem Inc. Pittsburgh 
 -------------------------------------------------------
 Integral Job Info:
 Integral job number is                      11
 Integral operator is                         1
 short-range coefficients                     0
 long-range coefficients              100000000
 Omega coefficients                           0
 if combine SR and LR in K                    0
 Integral screening is                        0
 Integral computing path is                   2
 max size of driver memory is           3200000
 size of driver memory is               1704330
 size of scratch memory is             29417912
 max col of scratch BK array              50625
 max len of scratch array in speh3         2114
 max len of scratch index in speh4           50
 max int batch size is                      520
 min int batch size is                       52
 fixed nKL is                                16
 max L of basis functions is                  4
 order of int derivative is                   0
 number of shells is                         68
 number of basis is                         348
 number of cartesian basis is               348
 number of contracted shell pairs          2153
 number of primitive shell pairs          11329
 maxK2 (contraction) of shell pair          169
 max number of K2 of shell pair               1
 max number of CS2 of shell pair            186
 max number of PS2 of shell pair           2028
 mem total for path MDJ                  752464
 -------------------------------------------------------
 Smallest overlap matrix eigenvalue = 9.12E-05
 Guess MOs from SCF MO coefficient file

 -----------------------------------------------------------------------
  General SCF calculation program by
  Eric Jon Sundstrom, Paul Horn, Yuezhi Mao, Dmitri Zuev, Alec White,
  David Stuck, Shaama M.S., Shane Yost, Joonho Lee, David Small,
  Daniel Levine, Susi Lehtola, Hugh Burton, Evgeny Epifanovsky
 -----------------------------------------------------------------------
 Exchange:     0.5000 Hartree-Fock + 1.0000 PWPB95-D3
 Correlation:  0.7310 PWPB95-D3
 Using Euler-Maclaurin-Lebedev (99,590) quadrature formula
 Dispersion:   Grimme D3
 using 8 threads for integral computing
 -------------------------------------------------------
 OpenMP Integral computing Module                
 Release: version 2.0, May 2017, Q-Chem Inc. Pleasanton 
 -------------------------------------------------------
 -------------------------------------------------------
 OpenMP BLAS3 based DFT computing Module                
 Release: version 1.0, May 2013, Q-Chem Inc. Pittsburgh 
 -------------------------------------------------------
 A restricted SCF calculation will be
 performed using GDM
 SCF converges when RMS gradient is below 1.0e-08
 ---------------------------------------
  Cycle       Energy        RMS Gradient
 ---------------------------------------
    1    -399.9951635880      1.48e-02   Normal BFGS step
    2    -399.9955521119      2.01e-03   Normal BFGS step
    3    -399.9955816088      2.56e-04   Normal BFGS step
    4    -399.9955824402      8.16e-05   Normal BFGS step
    5    -399.9955824732      7.59e-06   Normal BFGS step
    6    -399.9955824745      2.77e-06   Normal BFGS step
    7    -399.9955824745      4.56e-07   Normal BFGS step
    8    -399.9955824745      1.06e-07   Normal BFGS step
    9    -399.9955824745      1.22e-08   Normal BFGS step
   10    -399.9955824745      2.04e-09  Convergence criterion met
 ---------------------------------------
 SCF time:   CPU 2577.74s  wall 324.00s 
 SCF   energy in the final basis set =     -399.9955824745
 Total energy in the final basis set =     -399.9955824745
 
 Components of the MP2 correlation energy:
        aaaa  correlation energy =         0.0000000000 au
        abab  correlation energy =        -0.1730987693 au
        bbbb  correlation energy =         0.0000000000 au
        non-Brillouin singles    =        -0.0000000000 au

 Total  MP2   correlation energy =                    -0.17309877 au
        MP2         total energy =                  -400.16868124 au
 
 --------------------------------------------------------------
 
                    Orbital Energies (a.u.)
 --------------------------------------------------------------
 
 Alpha MOs
 -- Occupied --
-47.634 -47.632  -3.341  -3.338  -2.001  -2.001  -2.001  -1.999
 -1.999  -1.999  -0.237  -0.192
 -- Virtual --
 -0.018  -0.018  -0.017   0.012   0.012   0.017   0.023   0.025
  0.025   0.042   0.042   0.042   0.056   0.061   0.071   0.071
  0.088   0.088   0.092   0.099   0.099   0.103   0.103   0.109
  0.109   0.111   0.115   0.141   0.145   0.145   0.153   0.208
  0.225   0.225   0.231   0.231   0.238   0.238   0.257   0.264
  0.264   0.266   0.266   0.281   0.281   0.302   0.302   0.311
  0.319   0.319   0.320   0.325   0.325   0.327   0.327   0.330
  0.330   0.356   0.427   0.427   0.433   0.442   0.447   0.589
  0.615   0.615   0.616   0.616   0.629   0.629   0.637   0.648
  0.648   0.671   0.671   0.681   0.681   0.692   0.692   0.706
  0.706   0.717   0.717   0.719   0.719   0.721   0.721   0.741
  0.741   0.742   0.742   0.765   0.765   0.769   0.796   0.796
  0.796   0.810   0.842   0.842   0.860   0.860   0.920   0.947
  0.955   0.955   0.959   0.959   1.036   1.066   1.066   1.345
  1.463   1.463   1.473   1.473   1.478   1.478   1.513   1.531
  1.531   1.615   1.724   1.724   1.732   1.732   1.740   1.740
  1.745   1.745   1.753   1.753   1.763   1.763   1.773   1.773
  1.774   1.774   1.777   1.777   1.787   1.799   1.799   1.816
  1.816   1.837   1.840   1.840   1.844   1.844   1.886   1.909
  1.909   2.021   2.626   2.741   4.252   4.252   4.259   4.259
  4.262   4.262   4.298   4.311   4.311   4.398   4.728   4.728
  4.749   4.749   4.764   5.020   9.478   9.478   9.478   9.478
  9.482   9.482   9.482   9.482   9.489   9.489   9.499   9.511
  9.511   9.534  10.952  11.100  13.637  13.637  13.643  13.643
 13.645  13.645  13.674  13.679  13.679  13.742  22.227  22.227
 22.241  22.241  22.255  22.421  24.892  24.892  24.892  24.892
 24.892  24.892  24.893  24.893  24.893  24.894  24.894  24.894
 24.894  24.895  24.895  24.895  24.895  24.895  32.208  32.208
 32.209  32.209  32.211  32.211  32.211  32.211  32.214  32.214
 32.220  32.226  32.226  32.240  35.636  35.759  41.349  41.349
 41.354  41.354  41.355  41.355  41.376  41.379  41.379  41.422
 90.040  90.040  90.051  90.051  90.061  90.181 153.942 154.151
 --------------------------------------------------------------
 
          Ground-State Mulliken Net Atomic Charges

     Atom                 Charge (a.u.)
  ----------------------------------------
      1 Mg                   -0.007404
      2 Mg                    0.007404
  ----------------------------------------
  Sum of atomic charges =    -0.000000

 -----------------------------------------------------------------
                    Cartesian Multipole Moments
 -----------------------------------------------------------------
    Charge (ESU x 10^10)
                -0.0000
    Dipole Moment (Debye)
         X       0.0000      Y       0.0000      Z       0.4266
       Tot       0.4266
    Quadrupole Moments (Debye-Ang)
        XX     -25.2802     XY      -0.0000     YY     -25.2802
        XZ       0.0000     YZ       0.0000     ZZ     -24.2088
    Octopole Moments (Debye-Ang^2)
       XXX       0.0000    XXY       0.0000    XYY       0.0000
       YYY       0.0000    XXZ     -48.5139    XYZ      -0.0000
       YYZ     -48.5139    XZZ      -0.0000    YZZ       0.0000
       ZZZ    -139.8543
    Hexadecapole Moments (Debye-Ang^3)
      XXXX     -74.1162   XXXY      -0.0000   XXYY     -24.7054
      XYYY      -0.0000   YYYY     -74.1162   XXXZ       0.0000
      XXYZ       0.0000   XYYZ       0.0000   YYYZ       0.0000
      XXZZ    -216.1223   XYZZ      -0.0000   YYZZ    -216.1223
      XZZZ      -0.0000   YZZZ       0.0000   ZZZZ   -1192.8579
 -----------------------------------------------------------------
Archival summary:
1\1\n0089.mhg0\SP\ProcedureUnspecified\BasisUnspecified\g2\yhljason\FriOct902:52:112020FriOct902:52:112020\0\\#,ProcedureUnspecified,BasisUnspecified,\\0,1\Mg\Mg,1,3.8905\\\@

 Total job time:  659.72s(wall), 5232.86s(cpu) 
 Fri Oct  9 02:52:11 2020

        *************************************************************
        *                                                           *
        *  Thank you very much for using Q-Chem.  Have a nice day.  *
        *                                                           *
        *************************************************************


