Q-Chem Developer Version!
                  Welcome to Q-Chem
     A Quantum Leap Into The Future Of Chemistry


 Q-Chem 5.1, Q-Chem, Inc., Pleasanton, CA (2018)

 Yihan Shao,  Zhengting Gan,  E. Epifanovsky,  A. T. B. Gilbert,  M. Wormit,  
 J. Kussmann,  A. W. Lange,  A. Behn,  Jia Deng,  Xintian Feng,  D. Ghosh,  
 M. Goldey,  P. R. Horn,  L. D. Jacobson,  I. Kaliman,  T. Kus,  A. Landau,  
 Jie Liu,  E. I. Proynov,  R. M. Richard,  R. P. Steele,  E. J. Sundstrom,  
 H. L. Woodcock III,  P. M. Zimmerman,  D. Zuev,  B. Albrecht,  E. Alguire,  
 S. A. Baeppler,  D. Barton,  Z. Benda,  Y. A. Bernard,  E. J. Berquist,  
 K. B. Bravaya,  H. Burton,  D. Casanova,  Chun-Min Chang,  Yunqing Chen,  
 A. Chien,  K. D. Closser,  M. P. Coons,  S. Coriani,  S. Dasgupta,  
 A. L. Dempwolff,  M. Diedenhofen,  Hainam Do,  R. G. Edgar,  Po-Tung Fang,  
 S. Faraji,  S. Fatehi,  Qingguo Feng,  K. D. Fenk,  J. Fosso-Tande,  
 Qinghui Ge,  A. Ghysels,  G. Gidofalvi,  J. Gomes,  J. Gonthier,  A. Gunina,  
 D. Hait,  M. W. D. Hanson-Heine,  P. H. P. Harbach,  A. W. Hauser,  
 J. E. Herr,  E. G. Hohenstein,  Z. C. Holden,  Kerwin Hui,  B. C. Huynh,  
 T.-C. Jagau,  Hyunjun Ji,  B. Kaduk,  K. Khistyaev,  Jaehoon Kim,  
 P. Klunzinger,  K. Koh,  D. Kosenkov,  L. Koulias,  T. Kowalczyk,  
 C. M. Krauter,  A. Kunitsa,  Ka Un Lao,  A. Laurent,  K. V. Lawler,  
 Joonho Lee,  D. Lefrancois,  S. Lehtola,  D. S. Levine,  Yi-Pei Li,  
 You-Sheng Lin,  Fenglai Liu,  E. Livshits,  A. Luenser,  P. Manohar,  
 E. Mansoor,  S. F. Manzer,  Shan-Ping Mao,  Yuezhi Mao,  N. Mardirossian,  
 A. V. Marenich,  T. Markovich,  L. A. Martinez-Martinez,  S. A. Maurer,  
 N. J. Mayhall,  S. C. McKenzie,  J.-M. Mewes,  A. F. Morrison,  
 J. W. Mullinax,  K. Nanda,  T. S. Nguyen-Beck,  R. Olivares-Amaya,  
 J. A. Parkhill,  T. M. Perrine,  F. Plasser,  P. Pokhilko,  S. Prager,  
 A. Prociuk,  E. Ramos,  D. R. Rehn,  F. Rob,  M. Schneider,  N. Sergueev,  
 S. M. Sharada,  S. Sharma,  D. W. Small,  T. Stauch,  T. Stein,  
 Yu-Chuan Su,  A. J. W. Thom,  A. Tkatchenko,  T. Tsuchimochi,  N. M. Tubman,  
 L. Vogt,  M. L. Vidal,  O. Vydrov,  M. A. Watson,  J. Wenzel,  
 M. de Wergifosse,  T. A. Wesolowski,  A. White,  J. Witte,  A. Yamada,  
 Jun Yang,  K. Yao,  S. Yeganeh,  S. R. Yost,  Zhi-Qiang You,  A. Zech,  
 Igor Ying Zhang,  Xing Zhang,  Yan Zhao,  Ying Zhu,  B. R. Brooks,  
 G. K. L. Chan,  C. J. Cramer,  M. S. Gordon,  W. J. Hehre,  A. Klamt,  
 M. W. Schmidt,  C. D. Sherrill,  D. G. Truhlar,  A. Aspuru-Guzik,  R. Baer,  
 A. T. Bell,  N. A. Besley,  Jeng-Da Chai,  A. E. DePrince, III,  
 R. A. DiStasio Jr.,  A. Dreuw,  B. D. Dunietz,  T. R. Furlani,  
 Chao-Ping Hsu,  Yousung Jung,  Jing Kong,  D. S. Lambrecht,  WanZhen Liang,  
 C. Ochsenfeld,  V. A. Rassolov,  L. V. Slipchenko,  J. E. Subotnik,  
 T. Van Voorhis,  J. M. Herbert,  A. I. Krylov,  P. M. W. Gill,  M. Head-Gordon

 Contributors to earlier versions of Q-Chem not listed above: 
 R. D. Adamson,  B. Austin,  J. Baker,  G. J. O. Beran,  K. Brandhorst,  
 S. T. Brown,  E. F. C. Byrd,  A. K. Chakraborty,  C.-L. Cheng,  
 Siu Hung Chien,  D. M. Chipman,  D. L. Crittenden,  H. Dachsel,  
 R. J. Doerksen,  A. D. Dutoi,  L. Fusti-Molnar,  W. A. Goddard III,  
 A. Golubeva-Zadorozhnaya,  S. R. Gwaltney,  G. Hawkins,  A. Heyden,  
 S. Hirata,  G. Kedziora,  F. J. Keil,  C. Kelley,  Jihan Kim,  R. A. King,  
 R. Z. Khaliullin,  P. P. Korambath,  W. Kurlancheek,  A. M. Lee,  M. S. Lee,  
 S. V. Levchenko,  Ching Yeh Lin,  D. Liotard,  R. C. Lochan,  I. Lotan,  
 P. E. Maslen,  N. Nair,  D. P. O'Neill,  D. Neuhauser,  E. Neuscamman,  
 C. M. Oana,  R. Olson,  B. Peters,  R. Peverati,  P. A. Pieniazek,  
 Y. M. Rhee,  J. Ritchie,  M. A. Rohrdanz,  E. Rosta,  N. J. Russ,  
 H. F. Schaefer III,  N. E. Schultz,  N. Shenvi,  A. C. Simmonett,  A. Sodt,  
 D. Stuck,  K. S. Thanthiriwatte,  V. Vanovschi,  Tao Wang,  A. Warshel,  
 C. F. Williams,  Q. Wu,  X. Xu,  W. Zhang

 Please cite Q-Chem as follows:
 Y. Shao et al., Mol. Phys. 113, 184-215 (2015)
 DOI: 10.1080/00268976.2014.952696

 Q-Chem 5.1.1 for Intel X86 EM64T Linux

 Parts of Q-Chem use Armadillo 8.300.2 (Tropical Shenanigans).
 http://arma.sourceforge.net/

 Q-Chem begins on Fri Oct  9 01:28:26 2020  

Host: n0079.mhg0
0

     Scratch files written to /local/scratch/users/yhljason/NP_PWPB95-D3_aug-cc-pcVQZ.inp20201008191757//
Input Ideriv = 0
Curr. Ideriv = -1
Max.  Ideriv = 0
Analytic post-HF gradients are not available with non-HF exchange
Input Ideriv = 0
Curr. Ideriv = 0
Max.  Ideriv = 0

Checking the input file for inconsistencies... 	...done.

--------------------------------------------------------------
User input:
--------------------------------------------------------------
$molecule
0 1
N1	0.0000	0.0000	1.4909
P2	0.0000	0.0000	0.0000
$end

$rem
jobtype sp
method PWPB95-D3
xc_grid 000099000590
basis aug-cc-pcVQZ
max_scf_cycles 200
thresh 14
scf_convergence 8
scf_algorithm gdm
symmetry false
sym_ignore true
unrestricted false
gen_scfman true
internal_stability_iter 15
internal_stability_davidson_iter 200
mem_total 128000
cc_memory 96000
cc_backend xm
mem_static 1500
n_frozen_core 0
$end



--------------------------------------------------------------
 Adding empirical dispersion correction 
 ----------------------------------------------------------------
 Doing -D3(0) with
 s6  =   0.82000
 s8  =   0.70500
 rs6 =   1.55700
 rs8 =   1.00000
 -D3 energy without 3body term =     -0.0000006899 hartrees
 ----------------------------------------------------------------
             Standard Nuclear Orientation (Angstroms)
    I     Atom           X                Y                Z
 ----------------------------------------------------------------
    1      N       0.0000000000     0.0000000000     1.4909000000
    2      P       0.0000000000     0.0000000000     0.0000000000
 ----------------------------------------------------------------
 Nuclear Repulsion Energy =    37.2684996348 hartrees
 There are       11 alpha and       11 beta electrons
 Requested basis set is aug-cc-pCVQZ
 There are 63 shells and 243 basis functions

 Total QAlloc Memory Limit 128000 MB
 Mega-Array Size      1467 MB
 MEM_STATIC part      1500 MB

                       Distance Matrix (Angstroms)
             N (  1)
   P (  2)  1.490900
 
 A cutoff of  1.0D-14 yielded   1952 shell pairs
 There are     29276 function pairs (     48869 Cartesian)
 
 -------------------------------------------------------
 OpenMP Integral Computing Module                       
 Release: version 1.0, May 2013, Q-Chem Inc. Pittsburgh 
 -------------------------------------------------------
 Integral Job Info:
 Integral job number is                      11
 Integral operator is                         1
 short-range coefficients                     0
 long-range coefficients              100000000
 Omega coefficients                           0
 if combine SR and LR in K                    0
 Integral screening is                        0
 Integral computing path is                   2
 max size of driver memory is           3200000
 size of driver memory is               1704330
 size of scratch memory is             29435624
 max col of scratch BK array              50625
 max len of scratch array in speh3         2114
 max len of scratch index in speh4           50
 max int batch size is                      520
 min int batch size is                       52
 fixed nKL is                                22
 max L of basis functions is                  4
 order of int derivative is                   0
 number of shells is                         63
 number of basis is                         313
 number of cartesian basis is               313
 number of contracted shell pairs          1952
 number of primitive shell pairs           7587
 maxK2 (contraction) of shell pair          169
 max number of K2 of shell pair               1
 max number of CS2 of shell pair            190
 max number of PS2 of shell pair           1014
 mem total for path MDJ                  712981
 -------------------------------------------------------
 Smallest overlap matrix eigenvalue = 3.10E-05

 Scale SEOQF with 1.000000e-01/1.000000e-01/1.000000e-01

 Standard Electronic Orientation quadrupole field applied
 Nucleus-field energy     =    -0.0000000017 hartrees
 Guess from superposition of atomic densities
 Warning:  Energy on first SCF cycle will be non-variational
 SAD guess density has 22.000000 electrons

 -----------------------------------------------------------------------
  General SCF calculation program by
  Eric Jon Sundstrom, Paul Horn, Yuezhi Mao, Dmitri Zuev, Alec White,
  David Stuck, Shaama M.S., Shane Yost, Joonho Lee, David Small,
  Daniel Levine, Susi Lehtola, Hugh Burton, Evgeny Epifanovsky
 -----------------------------------------------------------------------
 Exchange:     0.5000 Hartree-Fock + 1.0000 PWPB95-D3
 Correlation:  0.7310 PWPB95-D3
 Using Euler-Maclaurin-Lebedev (99,590) quadrature formula
 Dispersion:   Grimme D3
Running Object-Oriented RKS (RHF)
We will preform up to 15 macro iterations over saddle points until a stable solution is found
Energy prior to optimization (guess energy) = -395.817262197999
Begin Timing: Total SCF Calculation
Begin Timing: SCF Single Stationary Point Calculation
begin iterations for algorithm: GDM          
the SCF tolerance is set to 1.00e-08
    1    -395.8172621980      3.81e-01     00000  Descent step
    2    -395.7671173682      4.63e-01     00000 Line search: overstep
    3    -395.9258090014      3.80e-02     00000  Normal BFGS step
    4    -395.9317168876      4.69e-03     00000  Normal BFGS step
    5    -395.9319792642      6.82e-04     00000  Normal BFGS step
    6    -395.9319837975      1.35e-04     00000  Normal BFGS step
    7    -395.9319840151      3.01e-05     00000  Normal BFGS step
    8    -395.9319840236      7.09e-06     00000  Normal BFGS step
    9    -395.9319840243      1.69e-06     00000  Normal BFGS step
   10    -395.9319840243      3.64e-07     00000  Normal BFGS step
   11    -395.9319840243      2.06e-07     00000  Normal BFGS step
   12    -395.9319840243      2.25e-07     00000  Normal BFGS step
   13    -395.9319840243      3.25e-08     00000  Normal BFGS step
   14    -395.9319840243      8.66e-09     00000 Convergence criterion met
Timing for Single Stationary Point: 287.00s (wall), 2275.31s (cpu)
Begin Timing: Stability
===================================================
Beginning Test for Internal Stability
===================================================
generating davidson guess vectors based on koopmans excitations
    1      3.35e+00     00000 Davidson Iteration
    2      1.48e+00     00000 Davidson Iteration
    3      1.04e+00     00000 Davidson Iteration
    4      7.43e-02     00000 Davidson Iteration
    5      2.06e-02     00000 Davidson Iteration
    6      4.62e-03     00000 Davidson Iteration
    7      1.20e-03     00000 Davidson Iteration
    8      1.69e-04     00000 Davidson Iteration
    9      3.39e-05     00000 Davidson Iteration
   10      8.47e-05     00000 Davidson Converged
converged_eigenvalues
   0.6285
   0.6285
Threshold for negative eigenvalues: -1.0e-05
solution was a local minimum (stable)
===================================================
End Test for Internal Stability
===================================================
Our SCF solution is stable!
Timing for Total SCF: 555.00s (wall), 4391.82s (cpu)
 Total energy in the final basis set =     -395.9319840243
    ==================================================
              The end of Object-Oriented SCFman       
    ==================================================
 
 Components of the MP2 correlation energy:
        aaaa  correlation energy =         0.0000000000 au
        abab  correlation energy =        -0.1932411873 au
        bbbb  correlation energy =         0.0000000000 au
        non-Brillouin singles    =        -0.0000000000 au

 Total  MP2   correlation energy =                    -0.19324119 au
        MP2         total energy =                  -396.12522521 au
 
 --------------------------------------------------------------
 
                    Orbital Energies (a.u.)
 --------------------------------------------------------------
 
 Alpha MOs
 -- Occupied --
-78.194 -14.828  -6.943  -5.006  -5.006  -5.003  -0.956  -0.561
 -0.389  -0.380  -0.380
 -- Virtual --
 -0.049  -0.049   0.023   0.029   0.049   0.049   0.091   0.115
  0.115   0.115   0.115   0.120   0.190   0.190   0.201   0.227
  0.285   0.285   0.310   0.325   0.325   0.350   0.363   0.363
  0.371   0.371   0.374   0.374   0.458   0.458   0.458   0.479
  0.479   0.512   0.512   0.541   0.653   0.715   0.715   0.825
  0.890   0.969   0.969   0.979   0.979   0.990   0.990   1.025
  1.025   1.027   1.071   1.071   1.093   1.093   1.119   1.119
  1.131   1.131   1.205   1.205   1.229   1.258   1.258   1.263
  1.263   1.283   1.302   1.302   1.394   1.651   1.651   1.658
  1.717   1.717   1.731   1.731   1.797   2.133   2.417   2.417
  2.602   2.602   2.618   2.684   2.684   2.739   2.739   2.753
  2.770   2.770   2.775   2.775   2.821   2.821   2.890   2.890
  2.976   2.981   2.981   3.071   3.071   3.082   3.082   3.083
  3.083   3.115   3.142   3.142   3.331   3.331   3.391   3.481
  3.481   3.551   3.551   3.849   3.990   3.990   4.068   4.068
  4.122   4.122   4.306   4.701   5.109   5.109   5.705   6.949
  7.606   7.606   7.940   7.940   8.060   8.061   8.061   8.122
  8.122   8.150   8.150   8.203   8.368   8.368   8.650   8.650
  8.822   8.822   9.012   9.012   9.109   9.406   9.406   9.490
  9.490   9.722   9.827   9.827  11.138  13.275  13.977  13.977
 14.676  15.913  15.913  15.984  15.984  16.301  16.301  16.580
 22.982  26.064  26.064  26.570  26.767  26.767  26.986  26.986
 27.704  36.451  36.451  36.658  36.658  37.325  39.657  39.657
 40.338  46.329  46.329  46.334  46.334  46.339  46.339  46.343
 46.343  46.346  48.160  56.463  56.463  56.500  56.500  56.652
 56.652  56.738  67.796  79.413  79.413  79.553  79.553  80.077
 91.017  91.017  91.408 111.273 111.273 111.288 111.288 111.313
111.313 111.319 124.668 124.668 125.212 155.709 155.709 155.824
155.824 156.167 164.280 307.867 307.867 308.185 324.422 684.006
 --------------------------------------------------------------
 
          Ground-State Mulliken Net Atomic Charges

     Atom                 Charge (a.u.)
  ----------------------------------------
      1 N                    -0.484392
      2 P                     0.484392
  ----------------------------------------
  Sum of atomic charges =     0.000000

 -----------------------------------------------------------------
                    Cartesian Multipole Moments
 -----------------------------------------------------------------
    Charge (ESU x 10^10)
                 0.0000
    Dipole Moment (Debye)
         X      -0.0000      Y       0.0000      Z      -3.0258
       Tot       3.0258
    Quadrupole Moments (Debye-Ang)
        XX     -17.6508     XY       0.0000     YY     -17.6508
        XZ      -0.0000     YZ       0.0000     ZZ     -22.8663
    Octopole Moments (Debye-Ang^2)
       XXX       0.0000    XXY      -0.0000    XYY       0.0000
       YYY      -0.0000    XXZ      -9.6191    XYZ       0.0000
       YYZ      -9.6191    XZZ      -0.0000    YZZ       0.0000
       ZZZ     -35.7960
    Hexadecapole Moments (Debye-Ang^3)
      XXXX     -23.0444   XXXY      -0.0000   XXYY      -7.6815
      XYYY      -0.0000   YYYY     -23.0444   XXXZ      -0.0000
      XXYZ      -0.0000   XYYZ      -0.0000   YYYZ      -0.0000
      XXZZ     -21.8233   XYZZ       0.0000   YYZZ     -21.8233
      XZZZ      -0.0000   YZZZ       0.0000   ZZZZ    -122.3656
 -----------------------------------------------------------------
Archival summary:
1\1\n0079.mhg0\SP\ProcedureUnspecified\BasisUnspecified\11\yhljason\FriOct901:41:432020FriOct901:41:432020\0\\#,ProcedureUnspecified,BasisUnspecified,\\0,1\N\P,1,1.4909\\\@

 Total job time:  797.40s(wall), 6301.73s(cpu) 
 Fri Oct  9 01:41:43 2020

        *************************************************************
        *                                                           *
        *  Thank you very much for using Q-Chem.  Have a nice day.  *
        *                                                           *
        *************************************************************


 
User input: 2 of 83 of 8 
 
Q-Chem Developer Version!
                  Welcome to Q-Chem
     A Quantum Leap Into The Future Of Chemistry


 Q-Chem 5.1, Q-Chem, Inc., Pleasanton, CA (2018)

 Yihan Shao,  Zhengting Gan,  E. Epifanovsky,  A. T. B. Gilbert,  M. Wormit,  
 J. Kussmann,  A. W. Lange,  A. Behn,  Jia Deng,  Xintian Feng,  D. Ghosh,  
 M. Goldey,  P. R. Horn,  L. D. Jacobson,  I. Kaliman,  T. Kus,  A. Landau,  
 Jie Liu,  E. I. Proynov,  R. M. Richard,  R. P. Steele,  E. J. Sundstrom,  
 H. L. Woodcock III,  P. M. Zimmerman,  D. Zuev,  B. Albrecht,  E. Alguire,  
 S. A. Baeppler,  D. Barton,  Z. Benda,  Y. A. Bernard,  E. J. Berquist,  
 K. B. Bravaya,  H. Burton,  D. Casanova,  Chun-Min Chang,  Yunqing Chen,  
 A. Chien,  K. D. Closser,  M. P. Coons,  S. Coriani,  S. Dasgupta,  
 A. L. Dempwolff,  M. Diedenhofen,  Hainam Do,  R. G. Edgar,  Po-Tung Fang,  
 S. Faraji,  S. Fatehi,  Qingguo Feng,  K. D. Fenk,  J. Fosso-Tande,  
 Qinghui Ge,  A. Ghysels,  G. Gidofalvi,  J. Gomes,  J. Gonthier,  A. Gunina,  
 D. Hait,  M. W. D. Hanson-Heine,  P. H. P. Harbach,  A. W. Hauser,  
 J. E. Herr,  E. G. Hohenstein,  Z. C. Holden,  Kerwin Hui,  B. C. Huynh,  
 T.-C. Jagau,  Hyunjun Ji,  B. Kaduk,  K. Khistyaev,  Jaehoon Kim,  
 P. Klunzinger,  K. Koh,  D. Kosenkov,  L. Koulias,  T. Kowalczyk,  
 C. M. Krauter,  A. Kunitsa,  Ka Un Lao,  A. Laurent,  K. V. Lawler,  
 Joonho Lee,  D. Lefrancois,  S. Lehtola,  D. S. Levine,  Yi-Pei Li,  
 You-Sheng Lin,  Fenglai Liu,  E. Livshits,  A. Luenser,  P. Manohar,  
 E. Mansoor,  S. F. Manzer,  Shan-Ping Mao,  Yuezhi Mao,  N. Mardirossian,  
 A. V. Marenich,  T. Markovich,  L. A. Martinez-Martinez,  S. A. Maurer,  
 N. J. Mayhall,  S. C. McKenzie,  J.-M. Mewes,  A. F. Morrison,  
 J. W. Mullinax,  K. Nanda,  T. S. Nguyen-Beck,  R. Olivares-Amaya,  
 J. A. Parkhill,  T. M. Perrine,  F. Plasser,  P. Pokhilko,  S. Prager,  
 A. Prociuk,  E. Ramos,  D. R. Rehn,  F. Rob,  M. Schneider,  N. Sergueev,  
 S. M. Sharada,  S. Sharma,  D. W. Small,  T. Stauch,  T. Stein,  
 Yu-Chuan Su,  A. J. W. Thom,  A. Tkatchenko,  T. Tsuchimochi,  N. M. Tubman,  
 L. Vogt,  M. L. Vidal,  O. Vydrov,  M. A. Watson,  J. Wenzel,  
 M. de Wergifosse,  T. A. Wesolowski,  A. White,  J. Witte,  A. Yamada,  
 Jun Yang,  K. Yao,  S. Yeganeh,  S. R. Yost,  Zhi-Qiang You,  A. Zech,  
 Igor Ying Zhang,  Xing Zhang,  Yan Zhao,  Ying Zhu,  B. R. Brooks,  
 G. K. L. Chan,  C. J. Cramer,  M. S. Gordon,  W. J. Hehre,  A. Klamt,  
 M. W. Schmidt,  C. D. Sherrill,  D. G. Truhlar,  A. Aspuru-Guzik,  R. Baer,  
 A. T. Bell,  N. A. Besley,  Jeng-Da Chai,  A. E. DePrince, III,  
 R. A. DiStasio Jr.,  A. Dreuw,  B. D. Dunietz,  T. R. Furlani,  
 Chao-Ping Hsu,  Yousung Jung,  Jing Kong,  D. S. Lambrecht,  WanZhen Liang,  
 C. Ochsenfeld,  V. A. Rassolov,  L. V. Slipchenko,  J. E. Subotnik,  
 T. Van Voorhis,  J. M. Herbert,  A. I. Krylov,  P. M. W. Gill,  M. Head-Gordon

 Contributors to earlier versions of Q-Chem not listed above: 
 R. D. Adamson,  B. Austin,  J. Baker,  G. J. O. Beran,  K. Brandhorst,  
 S. T. Brown,  E. F. C. Byrd,  A. K. Chakraborty,  C.-L. Cheng,  
 Siu Hung Chien,  D. M. Chipman,  D. L. Crittenden,  H. Dachsel,  
 R. J. Doerksen,  A. D. Dutoi,  L. Fusti-Molnar,  W. A. Goddard III,  
 A. Golubeva-Zadorozhnaya,  S. R. Gwaltney,  G. Hawkins,  A. Heyden,  
 S. Hirata,  G. Kedziora,  F. J. Keil,  C. Kelley,  Jihan Kim,  R. A. King,  
 R. Z. Khaliullin,  P. P. Korambath,  W. Kurlancheek,  A. M. Lee,  M. S. Lee,  
 S. V. Levchenko,  Ching Yeh Lin,  D. Liotard,  R. C. Lochan,  I. Lotan,  
 P. E. Maslen,  N. Nair,  D. P. O'Neill,  D. Neuhauser,  E. Neuscamman,  
 C. M. Oana,  R. Olson,  B. Peters,  R. Peverati,  P. A. Pieniazek,  
 Y. M. Rhee,  J. Ritchie,  M. A. Rohrdanz,  E. Rosta,  N. J. Russ,  
 H. F. Schaefer III,  N. E. Schultz,  N. Shenvi,  A. C. Simmonett,  A. Sodt,  
 D. Stuck,  K. S. Thanthiriwatte,  V. Vanovschi,  Tao Wang,  A. Warshel,  
 C. F. Williams,  Q. Wu,  X. Xu,  W. Zhang

 Please cite Q-Chem as follows:
 Y. Shao et al., Mol. Phys. 113, 184-215 (2015)
 DOI: 10.1080/00268976.2014.952696

 Q-Chem 5.1.1 for Intel X86 EM64T Linux

 Parts of Q-Chem use Armadillo 8.300.2 (Tropical Shenanigans).
 http://arma.sourceforge.net/

 Q-Chem begins on Fri Oct  9 01:42:04 2020  

Host: n0079.mhg0
0

     Scratch files written to /local/scratch/users/yhljason/NP_PWPB95-D3_aug-cc-pcVQZ.inp20201008191757//
The previous job contains 0 fragments, simply inherited here
Input Ideriv = 0
Curr. Ideriv = -1
Max.  Ideriv = 0
Analytic post-HF gradients are not available with non-HF exchange
Input Ideriv = 0
Curr. Ideriv = 0
Max.  Ideriv = 0

Checking the input file for inconsistencies... 	...done.

--------------------------------------------------------------
User input:
--------------------------------------------------------------
$molecule
read
$end

$rem

jobtype sp
method PWPB95-D3
xc_grid 000099000590
basis aug-cc-pcVQZ
max_scf_cycles 200
thresh 14
scf_convergence 8
mem_total 128000
cc_memory 96000
cc_backend xm
mem_static 1500
symmetry false
sym_ignore true
scf_guess read
unrestricted false
scf_algorithm gdm
n_frozen_core 0
$end

$multipole_field
XX 0.0001
$end


--------------------------------------------------------------
 Adding empirical dispersion correction 
 ----------------------------------------------------------------
 Doing -D3(0) with
 s6  =   0.82000
 s8  =   0.70500
 rs6 =   1.55700
 rs8 =   1.00000
 -D3 energy without 3body term =     -0.0000006899 hartrees
 ----------------------------------------------------------------
             Standard Nuclear Orientation (Angstroms)
    I     Atom           X                Y                Z
 ----------------------------------------------------------------
    1      N       0.0000000000     0.0000000000     1.4909000000
    2      P       0.0000000000     0.0000000000     0.0000000000
 ----------------------------------------------------------------
 Nuclear Repulsion Energy =    37.2684996348 hartrees
 There are       11 alpha and       11 beta electrons
 Requested basis set is aug-cc-pCVQZ
 There are 63 shells and 243 basis functions

 Total QAlloc Memory Limit 128000 MB
 Mega-Array Size      1467 MB
 MEM_STATIC part      1500 MB

                       Distance Matrix (Angstroms)
             N (  1)
   P (  2)  1.490900
 
 Applying Cartesian multipole field
    Component          Value
    ---------          -----
     (2,0,0)        1.00000E-04
 A cutoff of  1.0D-14 yielded   1952 shell pairs
 There are     29276 function pairs (     48869 Cartesian)
 
 -------------------------------------------------------
 OpenMP Integral Computing Module                       
 Release: version 1.0, May 2013, Q-Chem Inc. Pittsburgh 
 -------------------------------------------------------
 Integral Job Info:
 Integral job number is                      11
 Integral operator is                         1
 short-range coefficients                     0
 long-range coefficients              100000000
 Omega coefficients                           0
 if combine SR and LR in K                    0
 Integral screening is                        0
 Integral computing path is                   2
 max size of driver memory is           3200000
 size of driver memory is               1704330
 size of scratch memory is             29435624
 max col of scratch BK array              50625
 max len of scratch array in speh3         2114
 max len of scratch index in speh4           50
 max int batch size is                      520
 min int batch size is                       52
 fixed nKL is                                22
 max L of basis functions is                  4
 order of int derivative is                   0
 number of shells is                         63
 number of basis is                         313
 number of cartesian basis is               313
 number of contracted shell pairs          1952
 number of primitive shell pairs           7587
 maxK2 (contraction) of shell pair          169
 max number of K2 of shell pair               1
 max number of CS2 of shell pair            190
 max number of PS2 of shell pair           1014
 mem total for path MDJ                  712981
 -------------------------------------------------------
 Smallest overlap matrix eigenvalue = 3.10E-05
 Guess MOs from SCF MO coefficient file

 -----------------------------------------------------------------------
  General SCF calculation program by
  Eric Jon Sundstrom, Paul Horn, Yuezhi Mao, Dmitri Zuev, Alec White,
  David Stuck, Shaama M.S., Shane Yost, Joonho Lee, David Small,
  Daniel Levine, Susi Lehtola, Hugh Burton, Evgeny Epifanovsky
 -----------------------------------------------------------------------
 Exchange:     0.5000 Hartree-Fock + 1.0000 PWPB95-D3
 Correlation:  0.7310 PWPB95-D3
 Using Euler-Maclaurin-Lebedev (99,590) quadrature formula
 Dispersion:   Grimme D3
 using 8 threads for integral computing
 -------------------------------------------------------
 OpenMP Integral computing Module                
 Release: version 2.0, May 2017, Q-Chem Inc. Pleasanton 
 -------------------------------------------------------
 -------------------------------------------------------
 OpenMP BLAS3 based DFT computing Module                
 Release: version 1.0, May 2013, Q-Chem Inc. Pittsburgh 
 -------------------------------------------------------
 A restricted SCF calculation will be
 performed using GDM
 SCF converges when RMS gradient is below 1.0e-08
 ---------------------------------------
  Cycle       Energy        RMS Gradient
 ---------------------------------------
    1    -395.9332963163      2.95e-04   Normal BFGS step
    2    -395.9332968282      3.49e-04   Normal BFGS step
    3    -395.9332967628      3.81e-04  Line search: overstep
    4    -395.9332969495      6.05e-05   Normal BFGS step
    5    -395.9332969724      1.70e-05   Normal BFGS step
    6    -395.9332969753      1.30e-05   Normal BFGS step
    7    -395.9332969757      4.23e-06   Normal BFGS step
    8    -395.9332969758      4.47e-07   Normal BFGS step
    9    -395.9332969758      9.92e-08   Normal BFGS step
   10    -395.9332969758      1.64e-08   Normal BFGS step
   11    -395.9332969758      4.09e-09  Convergence criterion met
 ---------------------------------------
 SCF time:   CPU 1941.61s  wall 246.00s 
 SCF   energy in the final basis set =     -395.9332969758
 Total energy in the final basis set =     -395.9332969758
 
 Components of the MP2 correlation energy:
        aaaa  correlation energy =         0.0000000000 au
        abab  correlation energy =        -0.1932361338 au
        bbbb  correlation energy =         0.0000000000 au
        non-Brillouin singles    =        -0.0000000000 au

 Total  MP2   correlation energy =                    -0.19323613 au
        MP2         total energy =                  -396.12653311 au
 
 --------------------------------------------------------------
 
                    Orbital Energies (a.u.)
 --------------------------------------------------------------
 
 Alpha MOs
 -- Occupied --
-78.194 -14.829  -6.943  -5.006  -5.006  -5.003  -0.956  -0.561
 -0.389  -0.380  -0.380
 -- Virtual --
 -0.050  -0.049   0.022   0.027   0.045   0.048   0.090   0.112
  0.114   0.114   0.114   0.118   0.188   0.190   0.200   0.226
  0.283   0.284   0.309   0.324   0.324   0.349   0.362   0.362
  0.370   0.370   0.373   0.373   0.457   0.457   0.457   0.478
  0.478   0.511   0.511   0.540   0.652   0.714   0.715   0.824
  0.890   0.969   0.969   0.979   0.979   0.990   0.990   1.024
  1.024   1.026   1.071   1.071   1.092   1.092   1.119   1.119
  1.131   1.131   1.204   1.204   1.228   1.257   1.258   1.263
  1.263   1.283   1.301   1.301   1.394   1.651   1.651   1.658
  1.716   1.716   1.731   1.731   1.796   2.132   2.417   2.417
  2.602   2.602   2.617   2.684   2.684   2.739   2.739   2.753
  2.770   2.770   2.775   2.775   2.821   2.821   2.889   2.889
  2.976   2.980   2.980   3.071   3.071   3.082   3.082   3.083
  3.083   3.115   3.142   3.142   3.331   3.331   3.391   3.480
  3.480   3.551   3.551   3.849   3.989   3.990   4.068   4.068
  4.121   4.121   4.306   4.701   5.109   5.109   5.705   6.949
  7.606   7.606   7.939   7.939   8.060   8.060   8.060   8.122
  8.122   8.149   8.149   8.203   8.368   8.368   8.650   8.650
  8.822   8.822   9.012   9.012   9.108   9.405   9.405   9.490
  9.490   9.721   9.827   9.827  11.138  13.275  13.976  13.976
 14.675  15.913  15.913  15.984  15.984  16.301  16.301  16.579
 22.982  26.064  26.064  26.570  26.766  26.766  26.985  26.985
 27.704  36.450  36.450  36.657  36.657  37.325  39.657  39.657
 40.338  46.329  46.329  46.334  46.334  46.339  46.339  46.343
 46.343  46.346  48.160  56.463  56.463  56.500  56.500  56.652
 56.652  56.738  67.796  79.413  79.413  79.553  79.553  80.077
 91.016  91.016  91.408 111.273 111.273 111.287 111.287 111.312
111.312 111.319 124.667 124.667 125.212 155.709 155.709 155.824
155.824 156.167 164.280 307.867 307.867 308.185 324.422 684.006
 --------------------------------------------------------------
 
          Ground-State Mulliken Net Atomic Charges

     Atom                 Charge (a.u.)
  ----------------------------------------
      1 N                    -0.483782
      2 P                     0.483782
  ----------------------------------------
  Sum of atomic charges =    -0.000000

 -----------------------------------------------------------------
                    Cartesian Multipole Moments
 -----------------------------------------------------------------
    Charge (ESU x 10^10)
                -0.0000
    Dipole Moment (Debye)
         X       0.0000      Y      -0.0000      Z      -3.0246
       Tot       3.0246
    Quadrupole Moments (Debye-Ang)
        XX     -17.6685     XY      -0.0000     YY     -17.6526
        XZ      -0.0000     YZ      -0.0000     ZZ     -22.8644
    Octopole Moments (Debye-Ang^2)
       XXX       0.0000    XXY      -0.0000    XYY       0.0000
       YYY      -0.0000    XXZ      -9.6243    XYZ      -0.0000
       YYZ      -9.6209    XZZ       0.0000    YZZ       0.0000
       ZZZ     -35.7930
    Hexadecapole Moments (Debye-Ang^3)
      XXXX     -23.1292   XXXY      -0.0000   XXYY      -7.6973
      XYYY      -0.0000   YYYY     -23.0549   XXXZ      -0.0000
      XXYZ      -0.0000   XYYZ      -0.0000   YYYZ      -0.0000
      XXZZ     -21.8454   XYZZ      -0.0000   YYZZ     -21.8279
      XZZZ      -0.0000   YZZZ       0.0000   ZZZZ    -122.3663
 -----------------------------------------------------------------
Archival summary:
1\1\n0079.mhg0\SP\ProcedureUnspecified\BasisUnspecified\11\yhljason\FriOct901:49:442020FriOct901:49:442020\0\\#,ProcedureUnspecified,BasisUnspecified,\\0,1\N\P,1,1.4909\\\@

 Total job time:  460.14s(wall), 3631.69s(cpu) 
 Fri Oct  9 01:49:44 2020

        *************************************************************
        *                                                           *
        *  Thank you very much for using Q-Chem.  Have a nice day.  *
        *                                                           *
        *************************************************************


 
User input: 4 of 8 
 
Q-Chem Developer Version!
                  Welcome to Q-Chem
     A Quantum Leap Into The Future Of Chemistry


 Q-Chem 5.1, Q-Chem, Inc., Pleasanton, CA (2018)

 Yihan Shao,  Zhengting Gan,  E. Epifanovsky,  A. T. B. Gilbert,  M. Wormit,  
 J. Kussmann,  A. W. Lange,  A. Behn,  Jia Deng,  Xintian Feng,  D. Ghosh,  
 M. Goldey,  P. R. Horn,  L. D. Jacobson,  I. Kaliman,  T. Kus,  A. Landau,  
 Jie Liu,  E. I. Proynov,  R. M. Richard,  R. P. Steele,  E. J. Sundstrom,  
 H. L. Woodcock III,  P. M. Zimmerman,  D. Zuev,  B. Albrecht,  E. Alguire,  
 S. A. Baeppler,  D. Barton,  Z. Benda,  Y. A. Bernard,  E. J. Berquist,  
 K. B. Bravaya,  H. Burton,  D. Casanova,  Chun-Min Chang,  Yunqing Chen,  
 A. Chien,  K. D. Closser,  M. P. Coons,  S. Coriani,  S. Dasgupta,  
 A. L. Dempwolff,  M. Diedenhofen,  Hainam Do,  R. G. Edgar,  Po-Tung Fang,  
 S. Faraji,  S. Fatehi,  Qingguo Feng,  K. D. Fenk,  J. Fosso-Tande,  
 Qinghui Ge,  A. Ghysels,  G. Gidofalvi,  J. Gomes,  J. Gonthier,  A. Gunina,  
 D. Hait,  M. W. D. Hanson-Heine,  P. H. P. Harbach,  A. W. Hauser,  
 J. E. Herr,  E. G. Hohenstein,  Z. C. Holden,  Kerwin Hui,  B. C. Huynh,  
 T.-C. Jagau,  Hyunjun Ji,  B. Kaduk,  K. Khistyaev,  Jaehoon Kim,  
 P. Klunzinger,  K. Koh,  D. Kosenkov,  L. Koulias,  T. Kowalczyk,  
 C. M. Krauter,  A. Kunitsa,  Ka Un Lao,  A. Laurent,  K. V. Lawler,  
 Joonho Lee,  D. Lefrancois,  S. Lehtola,  D. S. Levine,  Yi-Pei Li,  
 You-Sheng Lin,  Fenglai Liu,  E. Livshits,  A. Luenser,  P. Manohar,  
 E. Mansoor,  S. F. Manzer,  Shan-Ping Mao,  Yuezhi Mao,  N. Mardirossian,  
 A. V. Marenich,  T. Markovich,  L. A. Martinez-Martinez,  S. A. Maurer,  
 N. J. Mayhall,  S. C. McKenzie,  J.-M. Mewes,  A. F. Morrison,  
 J. W. Mullinax,  K. Nanda,  T. S. Nguyen-Beck,  R. Olivares-Amaya,  
 J. A. Parkhill,  T. M. Perrine,  F. Plasser,  P. Pokhilko,  S. Prager,  
 A. Prociuk,  E. Ramos,  D. R. Rehn,  F. Rob,  M. Schneider,  N. Sergueev,  
 S. M. Sharada,  S. Sharma,  D. W. Small,  T. Stauch,  T. Stein,  
 Yu-Chuan Su,  A. J. W. Thom,  A. Tkatchenko,  T. Tsuchimochi,  N. M. Tubman,  
 L. Vogt,  M. L. Vidal,  O. Vydrov,  M. A. Watson,  J. Wenzel,  
 M. de Wergifosse,  T. A. Wesolowski,  A. White,  J. Witte,  A. Yamada,  
 Jun Yang,  K. Yao,  S. Yeganeh,  S. R. Yost,  Zhi-Qiang You,  A. Zech,  
 Igor Ying Zhang,  Xing Zhang,  Yan Zhao,  Ying Zhu,  B. R. Brooks,  
 G. K. L. Chan,  C. J. Cramer,  M. S. Gordon,  W. J. Hehre,  A. Klamt,  
 M. W. Schmidt,  C. D. Sherrill,  D. G. Truhlar,  A. Aspuru-Guzik,  R. Baer,  
 A. T. Bell,  N. A. Besley,  Jeng-Da Chai,  A. E. DePrince, III,  
 R. A. DiStasio Jr.,  A. Dreuw,  B. D. Dunietz,  T. R. Furlani,  
 Chao-Ping Hsu,  Yousung Jung,  Jing Kong,  D. S. Lambrecht,  WanZhen Liang,  
 C. Ochsenfeld,  V. A. Rassolov,  L. V. Slipchenko,  J. E. Subotnik,  
 T. Van Voorhis,  J. M. Herbert,  A. I. Krylov,  P. M. W. Gill,  M. Head-Gordon

 Contributors to earlier versions of Q-Chem not listed above: 
 R. D. Adamson,  B. Austin,  J. Baker,  G. J. O. Beran,  K. Brandhorst,  
 S. T. Brown,  E. F. C. Byrd,  A. K. Chakraborty,  C.-L. Cheng,  
 Siu Hung Chien,  D. M. Chipman,  D. L. Crittenden,  H. Dachsel,  
 R. J. Doerksen,  A. D. Dutoi,  L. Fusti-Molnar,  W. A. Goddard III,  
 A. Golubeva-Zadorozhnaya,  S. R. Gwaltney,  G. Hawkins,  A. Heyden,  
 S. Hirata,  G. Kedziora,  F. J. Keil,  C. Kelley,  Jihan Kim,  R. A. King,  
 R. Z. Khaliullin,  P. P. Korambath,  W. Kurlancheek,  A. M. Lee,  M. S. Lee,  
 S. V. Levchenko,  Ching Yeh Lin,  D. Liotard,  R. C. Lochan,  I. Lotan,  
 P. E. Maslen,  N. Nair,  D. P. O'Neill,  D. Neuhauser,  E. Neuscamman,  
 C. M. Oana,  R. Olson,  B. Peters,  R. Peverati,  P. A. Pieniazek,  
 Y. M. Rhee,  J. Ritchie,  M. A. Rohrdanz,  E. Rosta,  N. J. Russ,  
 H. F. Schaefer III,  N. E. Schultz,  N. Shenvi,  A. C. Simmonett,  A. Sodt,  
 D. Stuck,  K. S. Thanthiriwatte,  V. Vanovschi,  Tao Wang,  A. Warshel,  
 C. F. Williams,  Q. Wu,  X. Xu,  W. Zhang

 Please cite Q-Chem as follows:
 Y. Shao et al., Mol. Phys. 113, 184-215 (2015)
 DOI: 10.1080/00268976.2014.952696

 Q-Chem 5.1.1 for Intel X86 EM64T Linux

 Parts of Q-Chem use Armadillo 8.300.2 (Tropical Shenanigans).
 http://arma.sourceforge.net/

 Q-Chem begins on Fri Oct  9 01:49:44 2020  

Host: n0079.mhg0
0

     Scratch files written to /local/scratch/users/yhljason/NP_PWPB95-D3_aug-cc-pcVQZ.inp20201008191757//
The previous job contains 0 fragments, simply inherited here
Input Ideriv = 0
Curr. Ideriv = -1
Max.  Ideriv = 0
Analytic post-HF gradients are not available with non-HF exchange
Input Ideriv = 0
Curr. Ideriv = 0
Max.  Ideriv = 0

Checking the input file for inconsistencies... 	...done.

--------------------------------------------------------------
User input:
--------------------------------------------------------------
$molecule
read
$end

$rem

jobtype sp
method PWPB95-D3
xc_grid 000099000590
basis aug-cc-pcVQZ
max_scf_cycles 200
thresh 14
scf_convergence 8
mem_total 128000
cc_memory 96000
cc_backend xm
mem_static 1500
symmetry false
sym_ignore true
scf_guess read
unrestricted false
scf_algorithm gdm
n_frozen_core 0
$end

$multipole_field
XX -0.0001
$end


--------------------------------------------------------------
 Adding empirical dispersion correction 
 ----------------------------------------------------------------
 Doing -D3(0) with
 s6  =   0.82000
 s8  =   0.70500
 rs6 =   1.55700
 rs8 =   1.00000
 -D3 energy without 3body term =     -0.0000006899 hartrees
 ----------------------------------------------------------------
             Standard Nuclear Orientation (Angstroms)
    I     Atom           X                Y                Z
 ----------------------------------------------------------------
    1      N       0.0000000000     0.0000000000     1.4909000000
    2      P       0.0000000000     0.0000000000     0.0000000000
 ----------------------------------------------------------------
 Nuclear Repulsion Energy =    37.2684996348 hartrees
 There are       11 alpha and       11 beta electrons
 Requested basis set is aug-cc-pCVQZ
 There are 63 shells and 243 basis functions

 Total QAlloc Memory Limit 128000 MB
 Mega-Array Size      1467 MB
 MEM_STATIC part      1500 MB

                       Distance Matrix (Angstroms)
             N (  1)
   P (  2)  1.490900
 
 Applying Cartesian multipole field
    Component          Value
    ---------          -----
     (2,0,0)       -1.00000E-04
 A cutoff of  1.0D-14 yielded   1952 shell pairs
 There are     29276 function pairs (     48869 Cartesian)
 
 -------------------------------------------------------
 OpenMP Integral Computing Module                       
 Release: version 1.0, May 2013, Q-Chem Inc. Pittsburgh 
 -------------------------------------------------------
 Integral Job Info:
 Integral job number is                      11
 Integral operator is                         1
 short-range coefficients                     0
 long-range coefficients              100000000
 Omega coefficients                           0
 if combine SR and LR in K                    0
 Integral screening is                        0
 Integral computing path is                   2
 max size of driver memory is           3200000
 size of driver memory is               1704330
 size of scratch memory is             29435624
 max col of scratch BK array              50625
 max len of scratch array in speh3         2114
 max len of scratch index in speh4           50
 max int batch size is                      520
 min int batch size is                       52
 fixed nKL is                                22
 max L of basis functions is                  4
 order of int derivative is                   0
 number of shells is                         63
 number of basis is                         313
 number of cartesian basis is               313
 number of contracted shell pairs          1952
 number of primitive shell pairs           7587
 maxK2 (contraction) of shell pair          169
 max number of K2 of shell pair               1
 max number of CS2 of shell pair            190
 max number of PS2 of shell pair           1014
 mem total for path MDJ                  712981
 -------------------------------------------------------
 Smallest overlap matrix eigenvalue = 3.10E-05
 Guess MOs from SCF MO coefficient file

 -----------------------------------------------------------------------
  General SCF calculation program by
  Eric Jon Sundstrom, Paul Horn, Yuezhi Mao, Dmitri Zuev, Alec White,
  David Stuck, Shaama M.S., Shane Yost, Joonho Lee, David Small,
  Daniel Levine, Susi Lehtola, Hugh Burton, Evgeny Epifanovsky
 -----------------------------------------------------------------------
 Exchange:     0.5000 Hartree-Fock + 1.0000 PWPB95-D3
 Correlation:  0.7310 PWPB95-D3
 Using Euler-Maclaurin-Lebedev (99,590) quadrature formula
 Dispersion:   Grimme D3
 using 8 threads for integral computing
 -------------------------------------------------------
 OpenMP Integral computing Module                
 Release: version 2.0, May 2017, Q-Chem Inc. Pleasanton 
 -------------------------------------------------------
 -------------------------------------------------------
 OpenMP BLAS3 based DFT computing Module                
 Release: version 1.0, May 2013, Q-Chem Inc. Pittsburgh 
 -------------------------------------------------------
 A restricted SCF calculation will be
 performed using GDM
 SCF converges when RMS gradient is below 1.0e-08
 ---------------------------------------
  Cycle       Energy        RMS Gradient
 ---------------------------------------
    1    -395.9306697502      6.01e-04   Normal BFGS step
    2    -395.9306718001      6.97e-04   Normal BFGS step
    3    -395.9306715345      7.67e-04  Line search: overstep
    4    -395.9306722835      1.22e-04   Normal BFGS step
    5    -395.9306723749      3.42e-05   Normal BFGS step
    6    -395.9306723865      2.62e-05   Normal BFGS step
    7    -395.9306723881      8.53e-06   Normal BFGS step
    8    -395.9306723883      8.91e-07   Normal BFGS step
    9    -395.9306723883      1.94e-07   Normal BFGS step
   10    -395.9306723883      3.26e-08   Normal BFGS step
   11    -395.9306723883      8.20e-09  Convergence criterion met
 ---------------------------------------
 SCF time:   CPU 1950.05s  wall 247.00s 
 SCF   energy in the final basis set =     -395.9306723883
 Total energy in the final basis set =     -395.9306723883
 
 Components of the MP2 correlation energy:
        aaaa  correlation energy =         0.0000000000 au
        abab  correlation energy =        -0.1932462112 au
        bbbb  correlation energy =         0.0000000000 au
        non-Brillouin singles    =        -0.0000000000 au

 Total  MP2   correlation energy =                    -0.19324621 au
        MP2         total energy =                  -396.12391860 au
 
 --------------------------------------------------------------
 
                    Orbital Energies (a.u.)
 --------------------------------------------------------------
 
 Alpha MOs
 -- Occupied --
-78.193 -14.828  -6.942  -5.006  -5.006  -5.002  -0.955  -0.561
 -0.388  -0.380  -0.380
 -- Virtual --
 -0.049  -0.049   0.024   0.030   0.050   0.053   0.092   0.116
  0.116   0.116   0.118   0.121   0.191   0.192   0.202   0.228
  0.285   0.286   0.310   0.326   0.326   0.350   0.363   0.363
  0.372   0.372   0.374   0.375   0.458   0.459   0.459   0.479
  0.479   0.512   0.512   0.542   0.653   0.716   0.716   0.825
  0.890   0.970   0.970   0.980   0.980   0.991   0.991   1.025
  1.025   1.027   1.072   1.072   1.093   1.093   1.120   1.120
  1.132   1.132   1.205   1.205   1.229   1.258   1.259   1.264
  1.264   1.283   1.302   1.302   1.395   1.652   1.652   1.659
  1.717   1.717   1.732   1.732   1.797   2.133   2.418   2.418
  2.603   2.603   2.618   2.685   2.685   2.740   2.740   2.754
  2.771   2.771   2.775   2.776   2.821   2.821   2.890   2.890
  2.977   2.981   2.981   3.071   3.071   3.082   3.082   3.083
  3.083   3.115   3.142   3.142   3.331   3.331   3.391   3.481
  3.481   3.552   3.552   3.849   3.990   3.990   4.069   4.069
  4.122   4.122   4.306   4.702   5.110   5.110   5.706   6.950
  7.607   7.607   7.940   7.940   8.060   8.061   8.061   8.123
  8.123   8.150   8.150   8.203   8.368   8.368   8.650   8.650
  8.822   8.822   9.013   9.013   9.109   9.406   9.406   9.490
  9.490   9.722   9.827   9.827  11.139  13.275  13.977  13.977
 14.676  15.913  15.913  15.984  15.984  16.301  16.301  16.580
 22.983  26.065  26.065  26.571  26.767  26.767  26.986  26.986
 27.705  36.451  36.451  36.658  36.658  37.325  39.657  39.657
 40.339  46.329  46.329  46.334  46.334  46.340  46.340  46.343
 46.343  46.347  48.161  56.464  56.464  56.500  56.500  56.652
 56.652  56.739  67.797  79.414  79.414  79.554  79.554  80.077
 91.017  91.017  91.409 111.274 111.274 111.288 111.288 111.313
111.313 111.319 124.668 124.668 125.212 155.710 155.710 155.825
155.825 156.167 164.281 307.867 307.867 308.185 324.422 684.007
 --------------------------------------------------------------
 
          Ground-State Mulliken Net Atomic Charges

     Atom                 Charge (a.u.)
  ----------------------------------------
      1 N                    -0.484987
      2 P                     0.484987
  ----------------------------------------
  Sum of atomic charges =    -0.000000

 -----------------------------------------------------------------
                    Cartesian Multipole Moments
 -----------------------------------------------------------------
    Charge (ESU x 10^10)
                -0.0000
    Dipole Moment (Debye)
         X      -0.0000      Y      -0.0000      Z      -3.0270
       Tot       3.0270
    Quadrupole Moments (Debye-Ang)
        XX     -17.6332     XY      -0.0000     YY     -17.6489
        XZ      -0.0000     YZ      -0.0000     ZZ     -22.8682
    Octopole Moments (Debye-Ang^2)
       XXX      -0.0000    XXY      -0.0000    XYY      -0.0000
       YYY      -0.0000    XXZ      -9.6138    XYZ       0.0000
       YYZ      -9.6172    XZZ      -0.0000    YZZ      -0.0000
       ZZZ     -35.7990
    Hexadecapole Moments (Debye-Ang^3)
      XXXX     -22.9609   XXXY      -0.0000   XXYY      -7.6658
      XYYY      -0.0000   YYYY     -23.0340   XXXZ       0.0000
      XXYZ      -0.0000   XYYZ      -0.0000   YYYZ      -0.0000
      XXZZ     -21.8014   XYZZ      -0.0000   YYZZ     -21.8186
      XZZZ       0.0000   YZZZ      -0.0000   ZZZZ    -122.3648
 -----------------------------------------------------------------
Archival summary:
1\1\n0079.mhg0\SP\ProcedureUnspecified\BasisUnspecified\11\yhljason\FriOct901:57:262020FriOct901:57:262020\0\\#,ProcedureUnspecified,BasisUnspecified,\\0,1\N\P,1,1.4909\\\@

 Total job time:  461.84s(wall), 3644.74s(cpu) 
 Fri Oct  9 01:57:26 2020

        *************************************************************
        *                                                           *
        *  Thank you very much for using Q-Chem.  Have a nice day.  *
        *                                                           *
        *************************************************************


 
User input: 5 of 8 
 
Q-Chem Developer Version!
                  Welcome to Q-Chem
     A Quantum Leap Into The Future Of Chemistry


 Q-Chem 5.1, Q-Chem, Inc., Pleasanton, CA (2018)

 Yihan Shao,  Zhengting Gan,  E. Epifanovsky,  A. T. B. Gilbert,  M. Wormit,  
 J. Kussmann,  A. W. Lange,  A. Behn,  Jia Deng,  Xintian Feng,  D. Ghosh,  
 M. Goldey,  P. R. Horn,  L. D. Jacobson,  I. Kaliman,  T. Kus,  A. Landau,  
 Jie Liu,  E. I. Proynov,  R. M. Richard,  R. P. Steele,  E. J. Sundstrom,  
 H. L. Woodcock III,  P. M. Zimmerman,  D. Zuev,  B. Albrecht,  E. Alguire,  
 S. A. Baeppler,  D. Barton,  Z. Benda,  Y. A. Bernard,  E. J. Berquist,  
 K. B. Bravaya,  H. Burton,  D. Casanova,  Chun-Min Chang,  Yunqing Chen,  
 A. Chien,  K. D. Closser,  M. P. Coons,  S. Coriani,  S. Dasgupta,  
 A. L. Dempwolff,  M. Diedenhofen,  Hainam Do,  R. G. Edgar,  Po-Tung Fang,  
 S. Faraji,  S. Fatehi,  Qingguo Feng,  K. D. Fenk,  J. Fosso-Tande,  
 Qinghui Ge,  A. Ghysels,  G. Gidofalvi,  J. Gomes,  J. Gonthier,  A. Gunina,  
 D. Hait,  M. W. D. Hanson-Heine,  P. H. P. Harbach,  A. W. Hauser,  
 J. E. Herr,  E. G. Hohenstein,  Z. C. Holden,  Kerwin Hui,  B. C. Huynh,  
 T.-C. Jagau,  Hyunjun Ji,  B. Kaduk,  K. Khistyaev,  Jaehoon Kim,  
 P. Klunzinger,  K. Koh,  D. Kosenkov,  L. Koulias,  T. Kowalczyk,  
 C. M. Krauter,  A. Kunitsa,  Ka Un Lao,  A. Laurent,  K. V. Lawler,  
 Joonho Lee,  D. Lefrancois,  S. Lehtola,  D. S. Levine,  Yi-Pei Li,  
 You-Sheng Lin,  Fenglai Liu,  E. Livshits,  A. Luenser,  P. Manohar,  
 E. Mansoor,  S. F. Manzer,  Shan-Ping Mao,  Yuezhi Mao,  N. Mardirossian,  
 A. V. Marenich,  T. Markovich,  L. A. Martinez-Martinez,  S. A. Maurer,  
 N. J. Mayhall,  S. C. McKenzie,  J.-M. Mewes,  A. F. Morrison,  
 J. W. Mullinax,  K. Nanda,  T. S. Nguyen-Beck,  R. Olivares-Amaya,  
 J. A. Parkhill,  T. M. Perrine,  F. Plasser,  P. Pokhilko,  S. Prager,  
 A. Prociuk,  E. Ramos,  D. R. Rehn,  F. Rob,  M. Schneider,  N. Sergueev,  
 S. M. Sharada,  S. Sharma,  D. W. Small,  T. Stauch,  T. Stein,  
 Yu-Chuan Su,  A. J. W. Thom,  A. Tkatchenko,  T. Tsuchimochi,  N. M. Tubman,  
 L. Vogt,  M. L. Vidal,  O. Vydrov,  M. A. Watson,  J. Wenzel,  
 M. de Wergifosse,  T. A. Wesolowski,  A. White,  J. Witte,  A. Yamada,  
 Jun Yang,  K. Yao,  S. Yeganeh,  S. R. Yost,  Zhi-Qiang You,  A. Zech,  
 Igor Ying Zhang,  Xing Zhang,  Yan Zhao,  Ying Zhu,  B. R. Brooks,  
 G. K. L. Chan,  C. J. Cramer,  M. S. Gordon,  W. J. Hehre,  A. Klamt,  
 M. W. Schmidt,  C. D. Sherrill,  D. G. Truhlar,  A. Aspuru-Guzik,  R. Baer,  
 A. T. Bell,  N. A. Besley,  Jeng-Da Chai,  A. E. DePrince, III,  
 R. A. DiStasio Jr.,  A. Dreuw,  B. D. Dunietz,  T. R. Furlani,  
 Chao-Ping Hsu,  Yousung Jung,  Jing Kong,  D. S. Lambrecht,  WanZhen Liang,  
 C. Ochsenfeld,  V. A. Rassolov,  L. V. Slipchenko,  J. E. Subotnik,  
 T. Van Voorhis,  J. M. Herbert,  A. I. Krylov,  P. M. W. Gill,  M. Head-Gordon

 Contributors to earlier versions of Q-Chem not listed above: 
 R. D. Adamson,  B. Austin,  J. Baker,  G. J. O. Beran,  K. Brandhorst,  
 S. T. Brown,  E. F. C. Byrd,  A. K. Chakraborty,  C.-L. Cheng,  
 Siu Hung Chien,  D. M. Chipman,  D. L. Crittenden,  H. Dachsel,  
 R. J. Doerksen,  A. D. Dutoi,  L. Fusti-Molnar,  W. A. Goddard III,  
 A. Golubeva-Zadorozhnaya,  S. R. Gwaltney,  G. Hawkins,  A. Heyden,  
 S. Hirata,  G. Kedziora,  F. J. Keil,  C. Kelley,  Jihan Kim,  R. A. King,  
 R. Z. Khaliullin,  P. P. Korambath,  W. Kurlancheek,  A. M. Lee,  M. S. Lee,  
 S. V. Levchenko,  Ching Yeh Lin,  D. Liotard,  R. C. Lochan,  I. Lotan,  
 P. E. Maslen,  N. Nair,  D. P. O'Neill,  D. Neuhauser,  E. Neuscamman,  
 C. M. Oana,  R. Olson,  B. Peters,  R. Peverati,  P. A. Pieniazek,  
 Y. M. Rhee,  J. Ritchie,  M. A. Rohrdanz,  E. Rosta,  N. J. Russ,  
 H. F. Schaefer III,  N. E. Schultz,  N. Shenvi,  A. C. Simmonett,  A. Sodt,  
 D. Stuck,  K. S. Thanthiriwatte,  V. Vanovschi,  Tao Wang,  A. Warshel,  
 C. F. Williams,  Q. Wu,  X. Xu,  W. Zhang

 Please cite Q-Chem as follows:
 Y. Shao et al., Mol. Phys. 113, 184-215 (2015)
 DOI: 10.1080/00268976.2014.952696

 Q-Chem 5.1.1 for Intel X86 EM64T Linux

 Parts of Q-Chem use Armadillo 8.300.2 (Tropical Shenanigans).
 http://arma.sourceforge.net/

 Q-Chem begins on Fri Oct  9 01:57:26 2020  

Host: n0079.mhg0
0

     Scratch files written to /local/scratch/users/yhljason/NP_PWPB95-D3_aug-cc-pcVQZ.inp20201008191757//
The previous job contains 0 fragments, simply inherited here
Input Ideriv = 0
Curr. Ideriv = -1
Max.  Ideriv = 0
Analytic post-HF gradients are not available with non-HF exchange
Input Ideriv = 0
Curr. Ideriv = 0
Max.  Ideriv = 0

Checking the input file for inconsistencies... 	...done.

--------------------------------------------------------------
User input:
--------------------------------------------------------------
$molecule
read
$end

$rem

jobtype sp
method PWPB95-D3
xc_grid 000099000590
basis aug-cc-pcVQZ
max_scf_cycles 200
thresh 14
scf_convergence 8
mem_total 128000
cc_memory 96000
cc_backend xm
mem_static 1500
symmetry false
sym_ignore true
scf_guess read
unrestricted false
scf_algorithm gdm
n_frozen_core 0
$end

$multipole_field
YY 0.0001
$end


--------------------------------------------------------------
 Adding empirical dispersion correction 
 ----------------------------------------------------------------
 Doing -D3(0) with
 s6  =   0.82000
 s8  =   0.70500
 rs6 =   1.55700
 rs8 =   1.00000
 -D3 energy without 3body term =     -0.0000006899 hartrees
 ----------------------------------------------------------------
             Standard Nuclear Orientation (Angstroms)
    I     Atom           X                Y                Z
 ----------------------------------------------------------------
    1      N       0.0000000000     0.0000000000     1.4909000000
    2      P       0.0000000000     0.0000000000     0.0000000000
 ----------------------------------------------------------------
 Nuclear Repulsion Energy =    37.2684996348 hartrees
 There are       11 alpha and       11 beta electrons
 Requested basis set is aug-cc-pCVQZ
 There are 63 shells and 243 basis functions

 Total QAlloc Memory Limit 128000 MB
 Mega-Array Size      1467 MB
 MEM_STATIC part      1500 MB

                       Distance Matrix (Angstroms)
             N (  1)
   P (  2)  1.490900
 
 Applying Cartesian multipole field
    Component          Value
    ---------          -----
     (0,2,0)        1.00000E-04
 A cutoff of  1.0D-14 yielded   1952 shell pairs
 There are     29276 function pairs (     48869 Cartesian)
 
 -------------------------------------------------------
 OpenMP Integral Computing Module                       
 Release: version 1.0, May 2013, Q-Chem Inc. Pittsburgh 
 -------------------------------------------------------
 Integral Job Info:
 Integral job number is                      11
 Integral operator is                         1
 short-range coefficients                     0
 long-range coefficients              100000000
 Omega coefficients                           0
 if combine SR and LR in K                    0
 Integral screening is                        0
 Integral computing path is                   2
 max size of driver memory is           3200000
 size of driver memory is               1704330
 size of scratch memory is             29435624
 max col of scratch BK array              50625
 max len of scratch array in speh3         2114
 max len of scratch index in speh4           50
 max int batch size is                      520
 min int batch size is                       52
 fixed nKL is                                22
 max L of basis functions is                  4
 order of int derivative is                   0
 number of shells is                         63
 number of basis is                         313
 number of cartesian basis is               313
 number of contracted shell pairs          1952
 number of primitive shell pairs           7587
 maxK2 (contraction) of shell pair          169
 max number of K2 of shell pair               1
 max number of CS2 of shell pair            190
 max number of PS2 of shell pair           1014
 mem total for path MDJ                  712981
 -------------------------------------------------------
 Smallest overlap matrix eigenvalue = 3.10E-05
 Guess MOs from SCF MO coefficient file

 -----------------------------------------------------------------------
  General SCF calculation program by
  Eric Jon Sundstrom, Paul Horn, Yuezhi Mao, Dmitri Zuev, Alec White,
  David Stuck, Shaama M.S., Shane Yost, Joonho Lee, David Small,
  Daniel Levine, Susi Lehtola, Hugh Burton, Evgeny Epifanovsky
 -----------------------------------------------------------------------
 Exchange:     0.5000 Hartree-Fock + 1.0000 PWPB95-D3
 Correlation:  0.7310 PWPB95-D3
 Using Euler-Maclaurin-Lebedev (99,590) quadrature formula
 Dispersion:   Grimme D3
 using 8 threads for integral computing
 -------------------------------------------------------
 OpenMP Integral computing Module                
 Release: version 2.0, May 2017, Q-Chem Inc. Pleasanton 
 -------------------------------------------------------
 -------------------------------------------------------
 OpenMP BLAS3 based DFT computing Module                
 Release: version 1.0, May 2013, Q-Chem Inc. Pittsburgh 
 -------------------------------------------------------
 A restricted SCF calculation will be
 performed using GDM
 SCF converges when RMS gradient is below 1.0e-08
 ---------------------------------------
  Cycle       Energy        RMS Gradient
 ---------------------------------------
    1    -395.9332955252      3.94e-04   Normal BFGS step
    2    -395.9332964598      6.03e-04   Normal BFGS step
    3    -395.9332965449      4.99e-04   Normal BFGS step
    4    -395.9332969639      3.63e-05   Normal BFGS step
    5    -395.9332969748      1.04e-05   Normal BFGS step
    6    -395.9332969758      1.11e-06   Normal BFGS step
    7    -395.9332969758      3.63e-07   Normal BFGS step
    8    -395.9332969758      7.36e-08   Normal BFGS step
    9    -395.9332969758      6.34e-09  Convergence criterion met
 ---------------------------------------
 SCF time:   CPU 1628.51s  wall 206.00s 
 SCF   energy in the final basis set =     -395.9332969758
 Total energy in the final basis set =     -395.9332969758
 
 Components of the MP2 correlation energy:
        aaaa  correlation energy =         0.0000000000 au
        abab  correlation energy =        -0.1932361338 au
        bbbb  correlation energy =         0.0000000000 au
        non-Brillouin singles    =        -0.0000000000 au

 Total  MP2   correlation energy =                    -0.19323613 au
        MP2         total energy =                  -396.12653311 au
 
 --------------------------------------------------------------
 
                    Orbital Energies (a.u.)
 --------------------------------------------------------------
 
 Alpha MOs
 -- Occupied --
-78.194 -14.829  -6.943  -5.006  -5.006  -5.003  -0.956  -0.561
 -0.389  -0.380  -0.380
 -- Virtual --
 -0.050  -0.049   0.022   0.027   0.045   0.048   0.090   0.112
  0.114   0.114   0.114   0.118   0.188   0.190   0.200   0.226
  0.283   0.284   0.309   0.324   0.324   0.349   0.362   0.362
  0.370   0.370   0.373   0.373   0.457   0.457   0.457   0.478
  0.478   0.511   0.511   0.540   0.652   0.714   0.715   0.824
  0.890   0.969   0.969   0.979   0.979   0.990   0.990   1.024
  1.024   1.026   1.071   1.071   1.092   1.092   1.119   1.119
  1.131   1.131   1.204   1.204   1.228   1.257   1.258   1.263
  1.263   1.283   1.301   1.301   1.394   1.651   1.651   1.658
  1.716   1.716   1.731   1.731   1.796   2.132   2.417   2.417
  2.602   2.602   2.617   2.684   2.684   2.739   2.739   2.753
  2.770   2.770   2.775   2.775   2.821   2.821   2.889   2.889
  2.976   2.980   2.980   3.071   3.071   3.082   3.082   3.083
  3.083   3.115   3.142   3.142   3.331   3.331   3.391   3.480
  3.480   3.551   3.551   3.849   3.989   3.990   4.068   4.068
  4.121   4.121   4.306   4.701   5.109   5.109   5.705   6.949
  7.606   7.606   7.939   7.939   8.060   8.060   8.060   8.122
  8.122   8.149   8.149   8.203   8.368   8.368   8.650   8.650
  8.822   8.822   9.012   9.012   9.108   9.405   9.405   9.490
  9.490   9.721   9.827   9.827  11.138  13.275  13.976  13.976
 14.675  15.913  15.913  15.984  15.984  16.301  16.301  16.579
 22.982  26.064  26.064  26.570  26.766  26.766  26.985  26.985
 27.704  36.450  36.450  36.657  36.657  37.325  39.657  39.657
 40.338  46.329  46.329  46.334  46.334  46.339  46.339  46.343
 46.343  46.346  48.160  56.463  56.463  56.500  56.500  56.652
 56.652  56.738  67.796  79.413  79.413  79.553  79.553  80.077
 91.016  91.016  91.408 111.273 111.273 111.287 111.287 111.312
111.312 111.319 124.667 124.667 125.212 155.709 155.709 155.824
155.824 156.167 164.280 307.867 307.867 308.185 324.422 684.006
 --------------------------------------------------------------
 
          Ground-State Mulliken Net Atomic Charges

     Atom                 Charge (a.u.)
  ----------------------------------------
      1 N                    -0.483782
      2 P                     0.483782
  ----------------------------------------
  Sum of atomic charges =    -0.000000

 -----------------------------------------------------------------
                    Cartesian Multipole Moments
 -----------------------------------------------------------------
    Charge (ESU x 10^10)
                -0.0000
    Dipole Moment (Debye)
         X       0.0000      Y       0.0000      Z      -3.0246
       Tot       3.0246
    Quadrupole Moments (Debye-Ang)
        XX     -17.6526     XY       0.0000     YY     -17.6685
        XZ       0.0000     YZ       0.0000     ZZ     -22.8644
    Octopole Moments (Debye-Ang^2)
       XXX       0.0000    XXY      -0.0000    XYY       0.0000
       YYY      -0.0000    XXZ      -9.6209    XYZ      -0.0000
       YYZ      -9.6243    XZZ       0.0000    YZZ       0.0000
       ZZZ     -35.7930
    Hexadecapole Moments (Debye-Ang^3)
      XXXX     -23.0549   XXXY       0.0000   XXYY      -7.6973
      XYYY       0.0000   YYYY     -23.1292   XXXZ       0.0000
      XXYZ      -0.0000   XYYZ       0.0000   YYYZ      -0.0000
      XXZZ     -21.8279   XYZZ       0.0000   YYZZ     -21.8454
      XZZZ       0.0000   YZZZ       0.0000   ZZZZ    -122.3663
 -----------------------------------------------------------------
Archival summary:
1\1\n0079.mhg0\SP\ProcedureUnspecified\BasisUnspecified\11\yhljason\FriOct902:04:252020FriOct902:04:252020\0\\#,ProcedureUnspecified,BasisUnspecified,\\0,1\N\P,1,1.4909\\\@

 Total job time:  418.43s(wall), 3300.02s(cpu) 
 Fri Oct  9 02:04:25 2020

        *************************************************************
        *                                                           *
        *  Thank you very much for using Q-Chem.  Have a nice day.  *
        *                                                           *
        *************************************************************


 
User input: 6 of 8 
 
Q-Chem Developer Version!
                  Welcome to Q-Chem
     A Quantum Leap Into The Future Of Chemistry


 Q-Chem 5.1, Q-Chem, Inc., Pleasanton, CA (2018)

 Yihan Shao,  Zhengting Gan,  E. Epifanovsky,  A. T. B. Gilbert,  M. Wormit,  
 J. Kussmann,  A. W. Lange,  A. Behn,  Jia Deng,  Xintian Feng,  D. Ghosh,  
 M. Goldey,  P. R. Horn,  L. D. Jacobson,  I. Kaliman,  T. Kus,  A. Landau,  
 Jie Liu,  E. I. Proynov,  R. M. Richard,  R. P. Steele,  E. J. Sundstrom,  
 H. L. Woodcock III,  P. M. Zimmerman,  D. Zuev,  B. Albrecht,  E. Alguire,  
 S. A. Baeppler,  D. Barton,  Z. Benda,  Y. A. Bernard,  E. J. Berquist,  
 K. B. Bravaya,  H. Burton,  D. Casanova,  Chun-Min Chang,  Yunqing Chen,  
 A. Chien,  K. D. Closser,  M. P. Coons,  S. Coriani,  S. Dasgupta,  
 A. L. Dempwolff,  M. Diedenhofen,  Hainam Do,  R. G. Edgar,  Po-Tung Fang,  
 S. Faraji,  S. Fatehi,  Qingguo Feng,  K. D. Fenk,  J. Fosso-Tande,  
 Qinghui Ge,  A. Ghysels,  G. Gidofalvi,  J. Gomes,  J. Gonthier,  A. Gunina,  
 D. Hait,  M. W. D. Hanson-Heine,  P. H. P. Harbach,  A. W. Hauser,  
 J. E. Herr,  E. G. Hohenstein,  Z. C. Holden,  Kerwin Hui,  B. C. Huynh,  
 T.-C. Jagau,  Hyunjun Ji,  B. Kaduk,  K. Khistyaev,  Jaehoon Kim,  
 P. Klunzinger,  K. Koh,  D. Kosenkov,  L. Koulias,  T. Kowalczyk,  
 C. M. Krauter,  A. Kunitsa,  Ka Un Lao,  A. Laurent,  K. V. Lawler,  
 Joonho Lee,  D. Lefrancois,  S. Lehtola,  D. S. Levine,  Yi-Pei Li,  
 You-Sheng Lin,  Fenglai Liu,  E. Livshits,  A. Luenser,  P. Manohar,  
 E. Mansoor,  S. F. Manzer,  Shan-Ping Mao,  Yuezhi Mao,  N. Mardirossian,  
 A. V. Marenich,  T. Markovich,  L. A. Martinez-Martinez,  S. A. Maurer,  
 N. J. Mayhall,  S. C. McKenzie,  J.-M. Mewes,  A. F. Morrison,  
 J. W. Mullinax,  K. Nanda,  T. S. Nguyen-Beck,  R. Olivares-Amaya,  
 J. A. Parkhill,  T. M. Perrine,  F. Plasser,  P. Pokhilko,  S. Prager,  
 A. Prociuk,  E. Ramos,  D. R. Rehn,  F. Rob,  M. Schneider,  N. Sergueev,  
 S. M. Sharada,  S. Sharma,  D. W. Small,  T. Stauch,  T. Stein,  
 Yu-Chuan Su,  A. J. W. Thom,  A. Tkatchenko,  T. Tsuchimochi,  N. M. Tubman,  
 L. Vogt,  M. L. Vidal,  O. Vydrov,  M. A. Watson,  J. Wenzel,  
 M. de Wergifosse,  T. A. Wesolowski,  A. White,  J. Witte,  A. Yamada,  
 Jun Yang,  K. Yao,  S. Yeganeh,  S. R. Yost,  Zhi-Qiang You,  A. Zech,  
 Igor Ying Zhang,  Xing Zhang,  Yan Zhao,  Ying Zhu,  B. R. Brooks,  
 G. K. L. Chan,  C. J. Cramer,  M. S. Gordon,  W. J. Hehre,  A. Klamt,  
 M. W. Schmidt,  C. D. Sherrill,  D. G. Truhlar,  A. Aspuru-Guzik,  R. Baer,  
 A. T. Bell,  N. A. Besley,  Jeng-Da Chai,  A. E. DePrince, III,  
 R. A. DiStasio Jr.,  A. Dreuw,  B. D. Dunietz,  T. R. Furlani,  
 Chao-Ping Hsu,  Yousung Jung,  Jing Kong,  D. S. Lambrecht,  WanZhen Liang,  
 C. Ochsenfeld,  V. A. Rassolov,  L. V. Slipchenko,  J. E. Subotnik,  
 T. Van Voorhis,  J. M. Herbert,  A. I. Krylov,  P. M. W. Gill,  M. Head-Gordon

 Contributors to earlier versions of Q-Chem not listed above: 
 R. D. Adamson,  B. Austin,  J. Baker,  G. J. O. Beran,  K. Brandhorst,  
 S. T. Brown,  E. F. C. Byrd,  A. K. Chakraborty,  C.-L. Cheng,  
 Siu Hung Chien,  D. M. Chipman,  D. L. Crittenden,  H. Dachsel,  
 R. J. Doerksen,  A. D. Dutoi,  L. Fusti-Molnar,  W. A. Goddard III,  
 A. Golubeva-Zadorozhnaya,  S. R. Gwaltney,  G. Hawkins,  A. Heyden,  
 S. Hirata,  G. Kedziora,  F. J. Keil,  C. Kelley,  Jihan Kim,  R. A. King,  
 R. Z. Khaliullin,  P. P. Korambath,  W. Kurlancheek,  A. M. Lee,  M. S. Lee,  
 S. V. Levchenko,  Ching Yeh Lin,  D. Liotard,  R. C. Lochan,  I. Lotan,  
 P. E. Maslen,  N. Nair,  D. P. O'Neill,  D. Neuhauser,  E. Neuscamman,  
 C. M. Oana,  R. Olson,  B. Peters,  R. Peverati,  P. A. Pieniazek,  
 Y. M. Rhee,  J. Ritchie,  M. A. Rohrdanz,  E. Rosta,  N. J. Russ,  
 H. F. Schaefer III,  N. E. Schultz,  N. Shenvi,  A. C. Simmonett,  A. Sodt,  
 D. Stuck,  K. S. Thanthiriwatte,  V. Vanovschi,  Tao Wang,  A. Warshel,  
 C. F. Williams,  Q. Wu,  X. Xu,  W. Zhang

 Please cite Q-Chem as follows:
 Y. Shao et al., Mol. Phys. 113, 184-215 (2015)
 DOI: 10.1080/00268976.2014.952696

 Q-Chem 5.1.1 for Intel X86 EM64T Linux

 Parts of Q-Chem use Armadillo 8.300.2 (Tropical Shenanigans).
 http://arma.sourceforge.net/

 Q-Chem begins on Fri Oct  9 02:04:25 2020  

Host: n0079.mhg0
0

     Scratch files written to /local/scratch/users/yhljason/NP_PWPB95-D3_aug-cc-pcVQZ.inp20201008191757//
The previous job contains 0 fragments, simply inherited here
Input Ideriv = 0
Curr. Ideriv = -1
Max.  Ideriv = 0
Analytic post-HF gradients are not available with non-HF exchange
Input Ideriv = 0
Curr. Ideriv = 0
Max.  Ideriv = 0

Checking the input file for inconsistencies... 	...done.

--------------------------------------------------------------
User input:
--------------------------------------------------------------
$molecule
read
$end

$rem

jobtype sp
method PWPB95-D3
xc_grid 000099000590
basis aug-cc-pcVQZ
max_scf_cycles 200
thresh 14
scf_convergence 8
mem_total 128000
cc_memory 96000
cc_backend xm
mem_static 1500
symmetry false
sym_ignore true
scf_guess read
unrestricted false
scf_algorithm gdm
n_frozen_core 0
$end

$multipole_field
YY -0.0001
$end


--------------------------------------------------------------
 Adding empirical dispersion correction 
 ----------------------------------------------------------------
 Doing -D3(0) with
 s6  =   0.82000
 s8  =   0.70500
 rs6 =   1.55700
 rs8 =   1.00000
 -D3 energy without 3body term =     -0.0000006899 hartrees
 ----------------------------------------------------------------
             Standard Nuclear Orientation (Angstroms)
    I     Atom           X                Y                Z
 ----------------------------------------------------------------
    1      N       0.0000000000     0.0000000000     1.4909000000
    2      P       0.0000000000     0.0000000000     0.0000000000
 ----------------------------------------------------------------
 Nuclear Repulsion Energy =    37.2684996348 hartrees
 There are       11 alpha and       11 beta electrons
 Requested basis set is aug-cc-pCVQZ
 There are 63 shells and 243 basis functions

 Total QAlloc Memory Limit 128000 MB
 Mega-Array Size      1467 MB
 MEM_STATIC part      1500 MB

                       Distance Matrix (Angstroms)
             N (  1)
   P (  2)  1.490900
 
 Applying Cartesian multipole field
    Component          Value
    ---------          -----
     (0,2,0)       -1.00000E-04
 A cutoff of  1.0D-14 yielded   1952 shell pairs
 There are     29276 function pairs (     48869 Cartesian)
 
 -------------------------------------------------------
 OpenMP Integral Computing Module                       
 Release: version 1.0, May 2013, Q-Chem Inc. Pittsburgh 
 -------------------------------------------------------
 Integral Job Info:
 Integral job number is                      11
 Integral operator is                         1
 short-range coefficients                     0
 long-range coefficients              100000000
 Omega coefficients                           0
 if combine SR and LR in K                    0
 Integral screening is                        0
 Integral computing path is                   2
 max size of driver memory is           3200000
 size of driver memory is               1704330
 size of scratch memory is             29435624
 max col of scratch BK array              50625
 max len of scratch array in speh3         2114
 max len of scratch index in speh4           50
 max int batch size is                      520
 min int batch size is                       52
 fixed nKL is                                22
 max L of basis functions is                  4
 order of int derivative is                   0
 number of shells is                         63
 number of basis is                         313
 number of cartesian basis is               313
 number of contracted shell pairs          1952
 number of primitive shell pairs           7587
 maxK2 (contraction) of shell pair          169
 max number of K2 of shell pair               1
 max number of CS2 of shell pair            190
 max number of PS2 of shell pair           1014
 mem total for path MDJ                  712981
 -------------------------------------------------------
 Smallest overlap matrix eigenvalue = 3.10E-05
 Guess MOs from SCF MO coefficient file

 -----------------------------------------------------------------------
  General SCF calculation program by
  Eric Jon Sundstrom, Paul Horn, Yuezhi Mao, Dmitri Zuev, Alec White,
  David Stuck, Shaama M.S., Shane Yost, Joonho Lee, David Small,
  Daniel Levine, Susi Lehtola, Hugh Burton, Evgeny Epifanovsky
 -----------------------------------------------------------------------
 Exchange:     0.5000 Hartree-Fock + 1.0000 PWPB95-D3
 Correlation:  0.7310 PWPB95-D3
 Using Euler-Maclaurin-Lebedev (99,590) quadrature formula
 Dispersion:   Grimme D3
 using 8 threads for integral computing
 -------------------------------------------------------
 OpenMP Integral computing Module                
 Release: version 2.0, May 2017, Q-Chem Inc. Pleasanton 
 -------------------------------------------------------
 -------------------------------------------------------
 OpenMP BLAS3 based DFT computing Module                
 Release: version 1.0, May 2013, Q-Chem Inc. Pittsburgh 
 -------------------------------------------------------
 A restricted SCF calculation will be
 performed using GDM
 SCF converges when RMS gradient is below 1.0e-08
 ---------------------------------------
  Cycle       Energy        RMS Gradient
 ---------------------------------------
    1    -395.9306697502      6.01e-04   Normal BFGS step
    2    -395.9306718001      6.97e-04   Normal BFGS step
    3    -395.9306715345      7.67e-04  Line search: overstep
    4    -395.9306722835      1.22e-04   Normal BFGS step
    5    -395.9306723749      3.42e-05   Normal BFGS step
    6    -395.9306723865      2.62e-05   Normal BFGS step
    7    -395.9306723881      8.53e-06   Normal BFGS step
    8    -395.9306723883      8.91e-07   Normal BFGS step
    9    -395.9306723883      1.94e-07   Normal BFGS step
   10    -395.9306723883      3.26e-08   Normal BFGS step
   11    -395.9306723883      8.20e-09  Convergence criterion met
 ---------------------------------------
 SCF time:   CPU 1954.32s  wall 247.00s 
 SCF   energy in the final basis set =     -395.9306723883
 Total energy in the final basis set =     -395.9306723883
 
 Components of the MP2 correlation energy:
        aaaa  correlation energy =         0.0000000000 au
        abab  correlation energy =        -0.1932462112 au
        bbbb  correlation energy =         0.0000000000 au
        non-Brillouin singles    =        -0.0000000000 au

 Total  MP2   correlation energy =                    -0.19324621 au
        MP2         total energy =                  -396.12391860 au
 
 --------------------------------------------------------------
 
                    Orbital Energies (a.u.)
 --------------------------------------------------------------
 
 Alpha MOs
 -- Occupied --
-78.193 -14.828  -6.942  -5.006  -5.006  -5.002  -0.955  -0.561
 -0.388  -0.380  -0.380
 -- Virtual --
 -0.049  -0.049   0.024   0.030   0.050   0.053   0.092   0.116
  0.116   0.116   0.118   0.121   0.191   0.192   0.202   0.228
  0.285   0.286   0.310   0.326   0.326   0.350   0.363   0.363
  0.372   0.372   0.374   0.375   0.458   0.459   0.459   0.479
  0.479   0.512   0.512   0.542   0.653   0.716   0.716   0.825
  0.890   0.970   0.970   0.980   0.980   0.991   0.991   1.025
  1.025   1.027   1.072   1.072   1.093   1.093   1.120   1.120
  1.132   1.132   1.205   1.205   1.229   1.258   1.259   1.264
  1.264   1.283   1.302   1.302   1.395   1.652   1.652   1.659
  1.717   1.717   1.732   1.732   1.797   2.133   2.418   2.418
  2.603   2.603   2.618   2.685   2.685   2.740   2.740   2.754
  2.771   2.771   2.775   2.776   2.821   2.821   2.890   2.890
  2.977   2.981   2.981   3.071   3.071   3.082   3.082   3.083
  3.083   3.115   3.142   3.142   3.331   3.331   3.391   3.481
  3.481   3.552   3.552   3.849   3.990   3.990   4.069   4.069
  4.122   4.122   4.306   4.702   5.110   5.110   5.706   6.950
  7.607   7.607   7.940   7.940   8.060   8.061   8.061   8.123
  8.123   8.150   8.150   8.203   8.368   8.368   8.650   8.650
  8.822   8.822   9.013   9.013   9.109   9.406   9.406   9.490
  9.490   9.722   9.827   9.827  11.139  13.275  13.977  13.977
 14.676  15.913  15.913  15.984  15.984  16.301  16.301  16.580
 22.983  26.065  26.065  26.571  26.767  26.767  26.986  26.986
 27.705  36.451  36.451  36.658  36.658  37.325  39.657  39.657
 40.339  46.329  46.329  46.334  46.334  46.340  46.340  46.343
 46.343  46.347  48.161  56.464  56.464  56.500  56.500  56.652
 56.652  56.739  67.797  79.414  79.414  79.554  79.554  80.077
 91.017  91.017  91.409 111.274 111.274 111.288 111.288 111.313
111.313 111.319 124.668 124.668 125.212 155.710 155.710 155.825
155.825 156.167 164.281 307.867 307.867 308.185 324.422 684.007
 --------------------------------------------------------------
 
          Ground-State Mulliken Net Atomic Charges

     Atom                 Charge (a.u.)
  ----------------------------------------
      1 N                    -0.484987
      2 P                     0.484987
  ----------------------------------------
  Sum of atomic charges =    -0.000000

 -----------------------------------------------------------------
                    Cartesian Multipole Moments
 -----------------------------------------------------------------
    Charge (ESU x 10^10)
                -0.0000
    Dipole Moment (Debye)
         X      -0.0000      Y       0.0000      Z      -3.0270
       Tot       3.0270
    Quadrupole Moments (Debye-Ang)
        XX     -17.6489     XY       0.0000     YY     -17.6332
        XZ       0.0000     YZ      -0.0000     ZZ     -22.8682
    Octopole Moments (Debye-Ang^2)
       XXX      -0.0000    XXY       0.0000    XYY      -0.0000
       YYY      -0.0000    XXZ      -9.6172    XYZ      -0.0000
       YYZ      -9.6138    XZZ      -0.0000    YZZ       0.0000
       ZZZ     -35.7990
    Hexadecapole Moments (Debye-Ang^3)
      XXXX     -23.0340   XXXY       0.0000   XXYY      -7.6658
      XYYY       0.0000   YYYY     -22.9609   XXXZ       0.0000
      XXYZ      -0.0000   XYYZ       0.0000   YYYZ      -0.0000
      XXZZ     -21.8186   XYZZ       0.0000   YYZZ     -21.8014
      XZZZ       0.0000   YZZZ      -0.0000   ZZZZ    -122.3648
 -----------------------------------------------------------------
Archival summary:
1\1\n0079.mhg0\SP\ProcedureUnspecified\BasisUnspecified\11\yhljason\FriOct902:12:062020FriOct902:12:062020\0\\#,ProcedureUnspecified,BasisUnspecified,\\0,1\N\P,1,1.4909\\\@

 Total job time:  461.12s(wall), 3640.70s(cpu) 
 Fri Oct  9 02:12:06 2020

        *************************************************************
        *                                                           *
        *  Thank you very much for using Q-Chem.  Have a nice day.  *
        *                                                           *
        *************************************************************


 
User input: 7 of 8 
 
Q-Chem Developer Version!
                  Welcome to Q-Chem
     A Quantum Leap Into The Future Of Chemistry


 Q-Chem 5.1, Q-Chem, Inc., Pleasanton, CA (2018)

 Yihan Shao,  Zhengting Gan,  E. Epifanovsky,  A. T. B. Gilbert,  M. Wormit,  
 J. Kussmann,  A. W. Lange,  A. Behn,  Jia Deng,  Xintian Feng,  D. Ghosh,  
 M. Goldey,  P. R. Horn,  L. D. Jacobson,  I. Kaliman,  T. Kus,  A. Landau,  
 Jie Liu,  E. I. Proynov,  R. M. Richard,  R. P. Steele,  E. J. Sundstrom,  
 H. L. Woodcock III,  P. M. Zimmerman,  D. Zuev,  B. Albrecht,  E. Alguire,  
 S. A. Baeppler,  D. Barton,  Z. Benda,  Y. A. Bernard,  E. J. Berquist,  
 K. B. Bravaya,  H. Burton,  D. Casanova,  Chun-Min Chang,  Yunqing Chen,  
 A. Chien,  K. D. Closser,  M. P. Coons,  S. Coriani,  S. Dasgupta,  
 A. L. Dempwolff,  M. Diedenhofen,  Hainam Do,  R. G. Edgar,  Po-Tung Fang,  
 S. Faraji,  S. Fatehi,  Qingguo Feng,  K. D. Fenk,  J. Fosso-Tande,  
 Qinghui Ge,  A. Ghysels,  G. Gidofalvi,  J. Gomes,  J. Gonthier,  A. Gunina,  
 D. Hait,  M. W. D. Hanson-Heine,  P. H. P. Harbach,  A. W. Hauser,  
 J. E. Herr,  E. G. Hohenstein,  Z. C. Holden,  Kerwin Hui,  B. C. Huynh,  
 T.-C. Jagau,  Hyunjun Ji,  B. Kaduk,  K. Khistyaev,  Jaehoon Kim,  
 P. Klunzinger,  K. Koh,  D. Kosenkov,  L. Koulias,  T. Kowalczyk,  
 C. M. Krauter,  A. Kunitsa,  Ka Un Lao,  A. Laurent,  K. V. Lawler,  
 Joonho Lee,  D. Lefrancois,  S. Lehtola,  D. S. Levine,  Yi-Pei Li,  
 You-Sheng Lin,  Fenglai Liu,  E. Livshits,  A. Luenser,  P. Manohar,  
 E. Mansoor,  S. F. Manzer,  Shan-Ping Mao,  Yuezhi Mao,  N. Mardirossian,  
 A. V. Marenich,  T. Markovich,  L. A. Martinez-Martinez,  S. A. Maurer,  
 N. J. Mayhall,  S. C. McKenzie,  J.-M. Mewes,  A. F. Morrison,  
 J. W. Mullinax,  K. Nanda,  T. S. Nguyen-Beck,  R. Olivares-Amaya,  
 J. A. Parkhill,  T. M. Perrine,  F. Plasser,  P. Pokhilko,  S. Prager,  
 A. Prociuk,  E. Ramos,  D. R. Rehn,  F. Rob,  M. Schneider,  N. Sergueev,  
 S. M. Sharada,  S. Sharma,  D. W. Small,  T. Stauch,  T. Stein,  
 Yu-Chuan Su,  A. J. W. Thom,  A. Tkatchenko,  T. Tsuchimochi,  N. M. Tubman,  
 L. Vogt,  M. L. Vidal,  O. Vydrov,  M. A. Watson,  J. Wenzel,  
 M. de Wergifosse,  T. A. Wesolowski,  A. White,  J. Witte,  A. Yamada,  
 Jun Yang,  K. Yao,  S. Yeganeh,  S. R. Yost,  Zhi-Qiang You,  A. Zech,  
 Igor Ying Zhang,  Xing Zhang,  Yan Zhao,  Ying Zhu,  B. R. Brooks,  
 G. K. L. Chan,  C. J. Cramer,  M. S. Gordon,  W. J. Hehre,  A. Klamt,  
 M. W. Schmidt,  C. D. Sherrill,  D. G. Truhlar,  A. Aspuru-Guzik,  R. Baer,  
 A. T. Bell,  N. A. Besley,  Jeng-Da Chai,  A. E. DePrince, III,  
 R. A. DiStasio Jr.,  A. Dreuw,  B. D. Dunietz,  T. R. Furlani,  
 Chao-Ping Hsu,  Yousung Jung,  Jing Kong,  D. S. Lambrecht,  WanZhen Liang,  
 C. Ochsenfeld,  V. A. Rassolov,  L. V. Slipchenko,  J. E. Subotnik,  
[...]
 Total energy in the final basis set =     -395.9336863904
 
 Components of the MP2 correlation energy:
        aaaa  correlation energy =         0.0000000000 au
        abab  correlation energy =        -0.1932306800 au
        bbbb  correlation energy =         0.0000000000 au
        non-Brillouin singles    =        -0.0000000000 au

 Total  MP2   correlation energy =                    -0.19323068 au
        MP2         total energy =                  -396.12691707 au
 
 --------------------------------------------------------------
 
                    Orbital Energies (a.u.)
 --------------------------------------------------------------
 
 Alpha MOs
 -- Occupied --
-78.194 -14.829  -6.943  -5.007  -5.007  -5.003  -0.956  -0.562
 -0.389  -0.381  -0.381
 -- Virtual --
 -0.050  -0.050   0.021   0.026   0.048   0.048   0.087   0.112
  0.112   0.115   0.115   0.116   0.189   0.189   0.198   0.225
  0.283   0.283   0.308   0.324   0.324   0.346   0.362   0.362
  0.371   0.371   0.372   0.372   0.456   0.456   0.456   0.477
  0.477   0.511   0.511   0.539   0.650   0.713   0.713   0.823
  0.888   0.969   0.969   0.979   0.979   0.990   0.990   1.024
  1.024   1.026   1.070   1.070   1.092   1.092   1.119   1.119
  1.130   1.130   1.204   1.204   1.227   1.257   1.257   1.262
  1.262   1.282   1.301   1.301   1.393   1.650   1.650   1.657
  1.716   1.716   1.730   1.730   1.796   2.132   2.417   2.417
  2.602   2.602   2.617   2.684   2.684   2.739   2.739   2.752
  2.770   2.770   2.775   2.775   2.820   2.820   2.889   2.889
  2.975   2.980   2.980   3.071   3.071   3.081   3.081   3.082
  3.082   3.114   3.141   3.141   3.330   3.330   3.390   3.480
  3.480   3.550   3.550   3.848   3.989   3.989   4.068   4.068
  4.121   4.121   4.305   4.701   5.109   5.109   5.704   6.949
  7.606   7.606   7.939   7.939   8.059   8.060   8.060   8.122
  8.122   8.149   8.149   8.202   8.367   8.367   8.649   8.649
  8.821   8.821   9.012   9.012   9.108   9.405   9.405   9.489
  9.489   9.721   9.826   9.826  11.138  13.274  13.976  13.976
 14.675  15.912  15.912  15.983  15.983  16.300  16.300  16.579
 22.982  26.064  26.064  26.570  26.766  26.766  26.985  26.985
 27.704  36.450  36.450  36.657  36.657  37.324  39.656  39.656
 40.338  46.328  46.328  46.333  46.333  46.339  46.339  46.342
 46.342  46.346  48.160  56.463  56.463  56.499  56.499  56.651
 56.651  56.738  67.796  79.413  79.413  79.553  79.553  80.076
 91.016  91.016  91.408 111.273 111.273 111.287 111.287 111.312
111.312 111.318 124.667 124.667 125.211 155.709 155.709 155.824
155.824 156.166 164.280 307.866 307.866 308.184 324.421 684.006
 --------------------------------------------------------------
 
          Ground-State Mulliken Net Atomic Charges

     Atom                 Charge (a.u.)
  ----------------------------------------
      1 N                    -0.487826
      2 P                     0.487826
  ----------------------------------------
  Sum of atomic charges =    -0.000000

 -----------------------------------------------------------------
                    Cartesian Multipole Moments
 -----------------------------------------------------------------
    Charge (ESU x 10^10)
                -0.0000
    Dipole Moment (Debye)
         X      -0.0000      Y      -0.0000      Z      -3.0457
       Tot       3.0457
    Quadrupole Moments (Debye-Ang)
        XX     -17.6489     XY      -0.0000     YY     -17.6489
        XZ      -0.0000     YZ       0.0000     ZZ     -22.9286
    Octopole Moments (Debye-Ang^2)
       XXX      -0.0000    XXY      -0.0000    XYY      -0.0000
       YYY       0.0000    XXZ      -9.6335    XYZ      -0.0000
       YYZ      -9.6335    XZZ       0.0000    YZZ       0.0000
       ZZZ     -35.9416
    Hexadecapole Moments (Debye-Ang^3)
      XXXX     -23.0405   XXXY      -0.0000   XXYY      -7.6802
      XYYY      -0.0000   YYYY     -23.0405   XXXZ       0.0000
      XXYZ       0.0000   XYYZ      -0.0000   YYYZ      -0.0000
      XXZZ     -21.8672   XYZZ      -0.0000   YYZZ     -21.8672
      XZZZ       0.0000   YZZZ      -0.0000   ZZZZ    -122.8393
 -----------------------------------------------------------------
Archival summary:
1\1\n0079.mhg0\SP\ProcedureUnspecified\BasisUnspecified\11\yhljason\FriOct902:19:262020FriOct902:19:262020\0\\#,ProcedureUnspecified,BasisUnspecified,\\0,1\N\P,1,1.4909\\\@

 Total job time:  439.59s(wall), 3470.13s(cpu) 
 Fri Oct  9 02:19:26 2020

        *************************************************************
        *                                                           *
        *  Thank you very much for using Q-Chem.  Have a nice day.  *
        *                                                           *
        *************************************************************


 
User input: 8 of 8 
 
Q-Chem Developer Version!
                  Welcome to Q-Chem
     A Quantum Leap Into The Future Of Chemistry


 Q-Chem 5.1, Q-Chem, Inc., Pleasanton, CA (2018)

 Yihan Shao,  Zhengting Gan,  E. Epifanovsky,  A. T. B. Gilbert,  M. Wormit,  
 J. Kussmann,  A. W. Lange,  A. Behn,  Jia Deng,  Xintian Feng,  D. Ghosh,  
 M. Goldey,  P. R. Horn,  L. D. Jacobson,  I. Kaliman,  T. Kus,  A. Landau,  
 Jie Liu,  E. I. Proynov,  R. M. Richard,  R. P. Steele,  E. J. Sundstrom,  
 H. L. Woodcock III,  P. M. Zimmerman,  D. Zuev,  B. Albrecht,  E. Alguire,  
 S. A. Baeppler,  D. Barton,  Z. Benda,  Y. A. Bernard,  E. J. Berquist,  
 K. B. Bravaya,  H. Burton,  D. Casanova,  Chun-Min Chang,  Yunqing Chen,  
 A. Chien,  K. D. Closser,  M. P. Coons,  S. Coriani,  S. Dasgupta,  
 A. L. Dempwolff,  M. Diedenhofen,  Hainam Do,  R. G. Edgar,  Po-Tung Fang,  
 S. Faraji,  S. Fatehi,  Qingguo Feng,  K. D. Fenk,  J. Fosso-Tande,  
 Qinghui Ge,  A. Ghysels,  G. Gidofalvi,  J. Gomes,  J. Gonthier,  A. Gunina,  
 D. Hait,  M. W. D. Hanson-Heine,  P. H. P. Harbach,  A. W. Hauser,  
 J. E. Herr,  E. G. Hohenstein,  Z. C. Holden,  Kerwin Hui,  B. C. Huynh,  
 T.-C. Jagau,  Hyunjun Ji,  B. Kaduk,  K. Khistyaev,  Jaehoon Kim,  
 P. Klunzinger,  K. Koh,  D. Kosenkov,  L. Koulias,  T. Kowalczyk,  
 C. M. Krauter,  A. Kunitsa,  Ka Un Lao,  A. Laurent,  K. V. Lawler,  
 Joonho Lee,  D. Lefrancois,  S. Lehtola,  D. S. Levine,  Yi-Pei Li,  
 You-Sheng Lin,  Fenglai Liu,  E. Livshits,  A. Luenser,  P. Manohar,  
 E. Mansoor,  S. F. Manzer,  Shan-Ping Mao,  Yuezhi Mao,  N. Mardirossian,  
 A. V. Marenich,  T. Markovich,  L. A. Martinez-Martinez,  S. A. Maurer,  
 N. J. Mayhall,  S. C. McKenzie,  J.-M. Mewes,  A. F. Morrison,  
 J. W. Mullinax,  K. Nanda,  T. S. Nguyen-Beck,  R. Olivares-Amaya,  
 J. A. Parkhill,  T. M. Perrine,  F. Plasser,  P. Pokhilko,  S. Prager,  
 A. Prociuk,  E. Ramos,  D. R. Rehn,  F. Rob,  M. Schneider,  N. Sergueev,  
 S. M. Sharada,  S. Sharma,  D. W. Small,  T. Stauch,  T. Stein,  
 Yu-Chuan Su,  A. J. W. Thom,  A. Tkatchenko,  T. Tsuchimochi,  N. M. Tubman,  
 L. Vogt,  M. L. Vidal,  O. Vydrov,  M. A. Watson,  J. Wenzel,  
 M. de Wergifosse,  T. A. Wesolowski,  A. White,  J. Witte,  A. Yamada,  
 Jun Yang,  K. Yao,  S. Yeganeh,  S. R. Yost,  Zhi-Qiang You,  A. Zech,  
 Igor Ying Zhang,  Xing Zhang,  Yan Zhao,  Ying Zhu,  B. R. Brooks,  
 G. K. L. Chan,  C. J. Cramer,  M. S. Gordon,  W. J. Hehre,  A. Klamt,  
 M. W. Schmidt,  C. D. Sherrill,  D. G. Truhlar,  A. Aspuru-Guzik,  R. Baer,  
 A. T. Bell,  N. A. Besley,  Jeng-Da Chai,  A. E. DePrince, III,  
 R. A. DiStasio Jr.,  A. Dreuw,  B. D. Dunietz,  T. R. Furlani,  
 Chao-Ping Hsu,  Yousung Jung,  Jing Kong,  D. S. Lambrecht,  WanZhen Liang,  
 C. Ochsenfeld,  V. A. Rassolov,  L. V. Slipchenko,  J. E. Subotnik,  
 T. Van Voorhis,  J. M. Herbert,  A. I. Krylov,  P. M. W. Gill,  M. Head-Gordon

 Contributors to earlier versions of Q-Chem not listed above: 
 R. D. Adamson,  B. Austin,  J. Baker,  G. J. O. Beran,  K. Brandhorst,  
 S. T. Brown,  E. F. C. Byrd,  A. K. Chakraborty,  C.-L. Cheng,  
 Siu Hung Chien,  D. M. Chipman,  D. L. Crittenden,  H. Dachsel,  
 R. J. Doerksen,  A. D. Dutoi,  L. Fusti-Molnar,  W. A. Goddard III,  
 A. Golubeva-Zadorozhnaya,  S. R. Gwaltney,  G. Hawkins,  A. Heyden,  
 S. Hirata,  G. Kedziora,  F. J. Keil,  C. Kelley,  Jihan Kim,  R. A. King,  
 R. Z. Khaliullin,  P. P. Korambath,  W. Kurlancheek,  A. M. Lee,  M. S. Lee,  
 S. V. Levchenko,  Ching Yeh Lin,  D. Liotard,  R. C. Lochan,  I. Lotan,  
 P. E. Maslen,  N. Nair,  D. P. O'Neill,  D. Neuhauser,  E. Neuscamman,  
 C. M. Oana,  R. Olson,  B. Peters,  R. Peverati,  P. A. Pieniazek,  
 Y. M. Rhee,  J. Ritchie,  M. A. Rohrdanz,  E. Rosta,  N. J. Russ,  
 H. F. Schaefer III,  N. E. Schultz,  N. Shenvi,  A. C. Simmonett,  A. Sodt,  
 D. Stuck,  K. S. Thanthiriwatte,  V. Vanovschi,  Tao Wang,  A. Warshel,  
 C. F. Williams,  Q. Wu,  X. Xu,  W. Zhang

 Please cite Q-Chem as follows:
 Y. Shao et al., Mol. Phys. 113, 184-215 (2015)
 DOI: 10.1080/00268976.2014.952696

 Q-Chem 5.1.1 for Intel X86 EM64T Linux

 Parts of Q-Chem use Armadillo 8.300.2 (Tropical Shenanigans).
 http://arma.sourceforge.net/

 Q-Chem begins on Fri Oct  9 02:19:26 2020  

Host: n0079.mhg0
0

     Scratch files written to /local/scratch/users/yhljason/NP_PWPB95-D3_aug-cc-pcVQZ.inp20201008191757//
The previous job contains 0 fragments, simply inherited here
Input Ideriv = 0
Curr. Ideriv = -1
Max.  Ideriv = 0
Analytic post-HF gradients are not available with non-HF exchange
Input Ideriv = 0
Curr. Ideriv = 0
Max.  Ideriv = 0

Checking the input file for inconsistencies... 	...done.

--------------------------------------------------------------
User input:
--------------------------------------------------------------
$molecule
read
$end

$rem

jobtype sp
method PWPB95-D3
xc_grid 000099000590
basis aug-cc-pcVQZ
max_scf_cycles 200
thresh 14
scf_convergence 8
mem_total 128000
cc_memory 96000
cc_backend xm
mem_static 1500
symmetry false
sym_ignore true
scf_guess read
unrestricted false
scf_algorithm gdm
n_frozen_core 0
$end

$multipole_field
ZZ -0.0001
$end

--------------------------------------------------------------
 Adding empirical dispersion correction 
 ----------------------------------------------------------------
 Doing -D3(0) with
 s6  =   0.82000
 s8  =   0.70500
 rs6 =   1.55700
 rs8 =   1.00000
 -D3 energy without 3body term =     -0.0000006899 hartrees
 ----------------------------------------------------------------
             Standard Nuclear Orientation (Angstroms)
    I     Atom           X                Y                Z
 ----------------------------------------------------------------
    1      N       0.0000000000     0.0000000000     1.4909000000
    2      P       0.0000000000     0.0000000000     0.0000000000
 ----------------------------------------------------------------
 Nuclear Repulsion Energy =    37.2684996348 hartrees
 There are       11 alpha and       11 beta electrons
 Requested basis set is aug-cc-pCVQZ
 There are 63 shells and 243 basis functions

 Total QAlloc Memory Limit 128000 MB
 Mega-Array Size      1467 MB
 MEM_STATIC part      1500 MB

                       Distance Matrix (Angstroms)
             N (  1)
   P (  2)  1.490900
 
 Applying Cartesian multipole field
    Component          Value
    ---------          -----
     (0,0,2)       -1.00000E-04
 Nucleus-field energy     =    -0.0055563911 hartrees
 A cutoff of  1.0D-14 yielded   1952 shell pairs
 There are     29276 function pairs (     48869 Cartesian)
 
 -------------------------------------------------------
 OpenMP Integral Computing Module                       
 Release: version 1.0, May 2013, Q-Chem Inc. Pittsburgh 
 -------------------------------------------------------
 Integral Job Info:
 Integral job number is                      11
 Integral operator is                         1
 short-range coefficients                     0
 long-range coefficients              100000000
 Omega coefficients                           0
 if combine SR and LR in K                    0
 Integral screening is                        0
 Integral computing path is                   2
 max size of driver memory is           3200000
 size of driver memory is               1704330
 size of scratch memory is             29435624
 max col of scratch BK array              50625
 max len of scratch array in speh3         2114
 max len of scratch index in speh4           50
 max int batch size is                      520
 min int batch size is                       52
 fixed nKL is                                22
 max L of basis functions is                  4
 order of int derivative is                   0
 number of shells is                         63
 number of basis is                         313
 number of cartesian basis is               313
 number of contracted shell pairs          1952
 number of primitive shell pairs           7587
 maxK2 (contraction) of shell pair          169
 max number of K2 of shell pair               1
 max number of CS2 of shell pair            190
 max number of PS2 of shell pair           1014
 mem total for path MDJ                  712981
 -------------------------------------------------------
 Smallest overlap matrix eigenvalue = 3.10E-05
 Guess MOs from SCF MO coefficient file

 -----------------------------------------------------------------------
  General SCF calculation program by
  Eric Jon Sundstrom, Paul Horn, Yuezhi Mao, Dmitri Zuev, Alec White,
  David Stuck, Shaama M.S., Shane Yost, Joonho Lee, David Small,
  Daniel Levine, Susi Lehtola, Hugh Burton, Evgeny Epifanovsky
 -----------------------------------------------------------------------
 Exchange:     0.5000 Hartree-Fock + 1.0000 PWPB95-D3
 Correlation:  0.7310 PWPB95-D3
 Using Euler-Maclaurin-Lebedev (99,590) quadrature formula
 Dispersion:   Grimme D3
 using 8 threads for integral computing
 -------------------------------------------------------
 OpenMP Integral computing Module                
 Release: version 2.0, May 2017, Q-Chem Inc. Pleasanton 
 -------------------------------------------------------
 -------------------------------------------------------
 OpenMP BLAS3 based DFT computing Module                
 Release: version 1.0, May 2013, Q-Chem Inc. Pittsburgh 
 -------------------------------------------------------
 A restricted SCF calculation will be
 performed using GDM
 SCF converges when RMS gradient is below 1.0e-08
 ---------------------------------------
  Cycle       Energy        RMS Gradient
 ---------------------------------------
    1    -395.9302770221      1.51e-03   Normal BFGS step
    2    -395.9302797022      2.34e-03   Normal BFGS step
    3    -395.9302844663      7.37e-04   Normal BFGS step
    4    -395.9302860780      1.17e-04   Normal BFGS step
    5    -395.9302862669      3.33e-05   Normal BFGS step
    6    -395.9302862710      2.67e-06   Normal BFGS step
    7    -395.9302862711      1.36e-06   Normal BFGS step
    8    -395.9302862711      2.18e-07   Normal BFGS step
    9    -395.9302862711      1.67e-08   Normal BFGS step
   10    -395.9302862711      2.25e-09  Convergence criterion met
 ---------------------------------------
 SCF time:   CPU 1742.55s  wall 225.00s 
 SCF   energy in the final basis set =     -395.9302862711
 Total energy in the final basis set =     -395.9302862711
 
 Components of the MP2 correlation energy:
        aaaa  correlation energy =         0.0000000000 au
        abab  correlation energy =        -0.1932517062 au
        bbbb  correlation energy =         0.0000000000 au
        non-Brillouin singles    =        -0.0000000000 au

 Total  MP2   correlation energy =                    -0.19325171 au
        MP2         total energy =                  -396.12353798 au
 
 --------------------------------------------------------------
 
                    Orbital Energies (a.u.)
 --------------------------------------------------------------
 
 Alpha MOs
 -- Occupied --
-78.193 -14.828  -6.942  -5.005  -5.005  -5.002  -0.955  -0.560
 -0.388  -0.379  -0.379
 -- Virtual --
 -0.048  -0.048   0.025   0.031   0.050   0.050   0.095   0.116
  0.116   0.118   0.118   0.123   0.192   0.192   0.204   0.229
  0.286   0.286   0.311   0.326   0.326   0.353   0.363   0.363
  0.371   0.371   0.376   0.376   0.460   0.460   0.460   0.480
  0.480   0.513   0.513   0.543   0.655   0.717   0.717   0.826
  0.892   0.970   0.970   0.980   0.980   0.991   0.991   1.026
  1.026   1.028   1.073   1.073   1.093   1.093   1.120   1.120
  1.133   1.133   1.206   1.206   1.230   1.259   1.259   1.264
  1.264   1.284   1.302   1.302   1.396   1.652   1.652   1.659
  1.718   1.718   1.733   1.733   1.798   2.134   2.418   2.418
  2.603   2.603   2.618   2.685   2.685   2.740   2.740   2.754
  2.771   2.771   2.776   2.776   2.822   2.822   2.890   2.890
  2.977   2.982   2.982   3.072   3.072   3.083   3.083   3.084
  3.084   3.116   3.143   3.143   3.332   3.332   3.392   3.482
  3.482   3.552   3.552   3.850   3.991   3.991   4.069   4.069
  4.122   4.122   4.307   4.702   5.110   5.110   5.706   6.950
  7.607   7.607   7.940   7.940   8.061   8.061   8.061   8.123
  8.123   8.150   8.150   8.204   8.369   8.369   8.651   8.651
  8.823   8.823   9.013   9.013   9.109   9.406   9.406   9.491
  9.491   9.722   9.828   9.828  11.139  13.276  13.977  13.977
 14.676  15.914  15.914  15.985  15.985  16.302  16.302  16.580
 22.983  26.065  26.065  26.571  26.767  26.767  26.986  26.986
 27.705  36.451  36.451  36.658  36.658  37.326  39.658  39.658
 40.339  46.330  46.330  46.335  46.335  46.340  46.340  46.344
 46.344  46.347  48.161  56.464  56.464  56.501  56.501  56.653
 56.653  56.739  67.797  79.414  79.414  79.554  79.554  80.078
 91.017  91.017  91.409 111.274 111.274 111.288 111.288 111.313
111.313 111.320 124.668 124.668 125.213 155.710 155.710 155.825
155.825 156.168 164.281 307.868 307.868 308.186 324.423 684.007
 --------------------------------------------------------------
 
          Ground-State Mulliken Net Atomic Charges

     Atom                 Charge (a.u.)
  ----------------------------------------
      1 N                    -0.480993
      2 P                     0.480993
  ----------------------------------------
  Sum of atomic charges =    -0.000000

 -----------------------------------------------------------------
                    Cartesian Multipole Moments
 -----------------------------------------------------------------
    Charge (ESU x 10^10)
                -0.0000
    Dipole Moment (Debye)
         X       0.0000      Y      -0.0000      Z      -3.0060
       Tot       3.0060
    Quadrupole Moments (Debye-Ang)
        XX     -17.6527     XY       0.0000     YY     -17.6527
        XZ      -0.0000     YZ       0.0000     ZZ     -22.8045
    Octopole Moments (Debye-Ang^2)
       XXX       0.0000    XXY      -0.0000    XYY       0.0000
       YYY      -0.0000    XXZ      -9.6048    XYZ      -0.0000
       YYZ      -9.6048    XZZ      -0.0000    YZZ      -0.0000
       ZZZ     -35.6520
    Hexadecapole Moments (Debye-Ang^3)
      XXXX     -23.0485   XXXY       0.0000   XXYY      -7.6828
      XYYY       0.0000   YYYY     -23.0485   XXXZ       0.0000
      XXYZ      -0.0000   XYYZ       0.0000   YYYZ      -0.0000
      XXZZ     -21.7799   XYZZ      -0.0000   YYZZ     -21.7799
      XZZZ      -0.0000   YZZZ       0.0000   ZZZZ    -121.8981
 -----------------------------------------------------------------
Archival summary:
1\1\n0079.mhg0\SP\ProcedureUnspecified\BasisUnspecified\11\yhljason\FriOct902:26:432020FriOct902:26:432020\0\\#,ProcedureUnspecified,BasisUnspecified,\\0,1\N\P,1,1.4909\\\@

 Total job time:  437.09s(wall), 3415.44s(cpu) 
 Fri Oct  9 02:26:43 2020

        *************************************************************
        *                                                           *
        *  Thank you very much for using Q-Chem.  Have a nice day.  *
        *                                                           *
        *************************************************************


