Q-Chem Developer Version!
                  Welcome to Q-Chem
     A Quantum Leap Into The Future Of Chemistry


 Q-Chem 5.1, Q-Chem, Inc., Pleasanton, CA (2018)

 Yihan Shao,  Zhengting Gan,  E. Epifanovsky,  A. T. B. Gilbert,  M. Wormit,  
 J. Kussmann,  A. W. Lange,  A. Behn,  Jia Deng,  Xintian Feng,  D. Ghosh,  
 M. Goldey,  P. R. Horn,  L. D. Jacobson,  I. Kaliman,  T. Kus,  A. Landau,  
 Jie Liu,  E. I. Proynov,  R. M. Richard,  R. P. Steele,  E. J. Sundstrom,  
 H. L. Woodcock III,  P. M. Zimmerman,  D. Zuev,  B. Albrecht,  E. Alguire,  
 S. A. Baeppler,  D. Barton,  Z. Benda,  Y. A. Bernard,  E. J. Berquist,  
 K. B. Bravaya,  H. Burton,  D. Casanova,  Chun-Min Chang,  Yunqing Chen,  
 A. Chien,  K. D. Closser,  M. P. Coons,  S. Coriani,  S. Dasgupta,  
 A. L. Dempwolff,  M. Diedenhofen,  Hainam Do,  R. G. Edgar,  Po-Tung Fang,  
 S. Faraji,  S. Fatehi,  Qingguo Feng,  K. D. Fenk,  J. Fosso-Tande,  
 Qinghui Ge,  A. Ghysels,  G. Gidofalvi,  J. Gomes,  J. Gonthier,  A. Gunina,  
 D. Hait,  M. W. D. Hanson-Heine,  P. H. P. Harbach,  A. W. Hauser,  
 J. E. Herr,  E. G. Hohenstein,  Z. C. Holden,  Kerwin Hui,  B. C. Huynh,  
 T.-C. Jagau,  Hyunjun Ji,  B. Kaduk,  K. Khistyaev,  Jaehoon Kim,  
 P. Klunzinger,  K. Koh,  D. Kosenkov,  L. Koulias,  T. Kowalczyk,  
 C. M. Krauter,  A. Kunitsa,  Ka Un Lao,  A. Laurent,  K. V. Lawler,  
 Joonho Lee,  D. Lefrancois,  S. Lehtola,  D. S. Levine,  Yi-Pei Li,  
 You-Sheng Lin,  Fenglai Liu,  E. Livshits,  A. Luenser,  P. Manohar,  
 E. Mansoor,  S. F. Manzer,  Shan-Ping Mao,  Yuezhi Mao,  N. Mardirossian,  
 A. V. Marenich,  T. Markovich,  L. A. Martinez-Martinez,  S. A. Maurer,  
 N. J. Mayhall,  S. C. McKenzie,  J.-M. Mewes,  A. F. Morrison,  
 J. W. Mullinax,  K. Nanda,  T. S. Nguyen-Beck,  R. Olivares-Amaya,  
 J. A. Parkhill,  T. M. Perrine,  F. Plasser,  P. Pokhilko,  S. Prager,  
 A. Prociuk,  E. Ramos,  D. R. Rehn,  F. Rob,  M. Schneider,  N. Sergueev,  
 S. M. Sharada,  S. Sharma,  D. W. Small,  T. Stauch,  T. Stein,  
 Yu-Chuan Su,  A. J. W. Thom,  A. Tkatchenko,  T. Tsuchimochi,  N. M. Tubman,  
 L. Vogt,  M. L. Vidal,  O. Vydrov,  M. A. Watson,  J. Wenzel,  
 M. de Wergifosse,  T. A. Wesolowski,  A. White,  J. Witte,  A. Yamada,  
 Jun Yang,  K. Yao,  S. Yeganeh,  S. R. Yost,  Zhi-Qiang You,  A. Zech,  
 Igor Ying Zhang,  Xing Zhang,  Yan Zhao,  Ying Zhu,  B. R. Brooks,  
 G. K. L. Chan,  C. J. Cramer,  M. S. Gordon,  W. J. Hehre,  A. Klamt,  
 M. W. Schmidt,  C. D. Sherrill,  D. G. Truhlar,  A. Aspuru-Guzik,  R. Baer,  
 A. T. Bell,  N. A. Besley,  Jeng-Da Chai,  A. E. DePrince, III,  
 R. A. DiStasio Jr.,  A. Dreuw,  B. D. Dunietz,  T. R. Furlani,  
 Chao-Ping Hsu,  Yousung Jung,  Jing Kong,  D. S. Lambrecht,  WanZhen Liang,  
 C. Ochsenfeld,  V. A. Rassolov,  L. V. Slipchenko,  J. E. Subotnik,  
 T. Van Voorhis,  J. M. Herbert,  A. I. Krylov,  P. M. W. Gill,  M. Head-Gordon

 Contributors to earlier versions of Q-Chem not listed above: 
 R. D. Adamson,  B. Austin,  J. Baker,  G. J. O. Beran,  K. Brandhorst,  
 S. T. Brown,  E. F. C. Byrd,  A. K. Chakraborty,  C.-L. Cheng,  
 Siu Hung Chien,  D. M. Chipman,  D. L. Crittenden,  H. Dachsel,  
 R. J. Doerksen,  A. D. Dutoi,  L. Fusti-Molnar,  W. A. Goddard III,  
 A. Golubeva-Zadorozhnaya,  S. R. Gwaltney,  G. Hawkins,  A. Heyden,  
 S. Hirata,  G. Kedziora,  F. J. Keil,  C. Kelley,  Jihan Kim,  R. A. King,  
 R. Z. Khaliullin,  P. P. Korambath,  W. Kurlancheek,  A. M. Lee,  M. S. Lee,  
 S. V. Levchenko,  Ching Yeh Lin,  D. Liotard,  R. C. Lochan,  I. Lotan,  
 P. E. Maslen,  N. Nair,  D. P. O'Neill,  D. Neuhauser,  E. Neuscamman,  
 C. M. Oana,  R. Olson,  B. Peters,  R. Peverati,  P. A. Pieniazek,  
 Y. M. Rhee,  J. Ritchie,  M. A. Rohrdanz,  E. Rosta,  N. J. Russ,  
 H. F. Schaefer III,  N. E. Schultz,  N. Shenvi,  A. C. Simmonett,  A. Sodt,  
 D. Stuck,  K. S. Thanthiriwatte,  V. Vanovschi,  Tao Wang,  A. Warshel,  
 C. F. Williams,  Q. Wu,  X. Xu,  W. Zhang

 Please cite Q-Chem as follows:
 Y. Shao et al., Mol. Phys. 113, 184-215 (2015)
 DOI: 10.1080/00268976.2014.952696

 Q-Chem 5.1.1 for Intel X86 EM64T Linux

 Parts of Q-Chem use Armadillo 8.300.2 (Tropical Shenanigans).
 http://arma.sourceforge.net/

 Q-Chem begins on Fri Oct  9 01:39:42 2020  

Host: n0080.mhg0
0

     Scratch files written to /local/scratch/users/yhljason/P_PWPB95-D3_aug-cc-pcVQZ.inp20201008191801//
Input Ideriv = 0
Curr. Ideriv = -1
Max.  Ideriv = 0
Input Ideriv = 1
Curr. Ideriv = 0
Max.  Ideriv = 0

Checking the input file for inconsistencies... 	...done.

--------------------------------------------------------------
User input:
--------------------------------------------------------------
$molecule
0 4
P
$end

$rem
jobtype sp
method PWPB95-D3
xc_grid 000099000590
basis aug-cc-pcVQZ
max_scf_cycles 200
thresh 14
scf_convergence 8
scf_algorithm gdm
symmetry false
sym_ignore true
unrestricted false
gen_scfman true
internal_stability_iter 15
internal_stability_davidson_iter 200
mem_total 128000
cc_memory 96000
cc_backend xm
mem_static 1500
n_frozen_core 0
$end



--------------------------------------------------------------
 Adding empirical dispersion correction 
 ----------------------------------------------------------------
 Doing -D3(0) with
 s6  =   0.82000
 s8  =   0.70500
 rs6 =   1.55700
 rs8 =   1.00000
 -D3 energy without 3body term =      0.0000000000 hartrees
 ----------------------------------------------------------------
             Standard Nuclear Orientation (Angstroms)
    I     Atom           X                Y                Z
 ----------------------------------------------------------------
    1      P       0.0000000000     0.0000000000     0.0000000000
 ----------------------------------------------------------------
 Nuclear Repulsion Energy =     0.0000000000 hartrees
 There are        9 alpha and        6 beta electrons
 Requested basis set is aug-cc-pCVQZ
 There are 34 shells and 134 basis functions

 Total QAlloc Memory Limit 128000 MB
 Mega-Array Size      1467 MB
 MEM_STATIC part      1500 MB
 A cutoff of  1.0D-14 yielded    595 shell pairs
 There are      9355 function pairs (     15897 Cartesian)
 
 -------------------------------------------------------
 OpenMP Integral Computing Module                       
 Release: version 1.0, May 2013, Q-Chem Inc. Pittsburgh 
 -------------------------------------------------------
 Integral Job Info:
 Integral job number is                      11
 Integral operator is                         1
 short-range coefficients                     0
 long-range coefficients              100000000
 Omega coefficients                           0
 if combine SR and LR in K                    0
 Integral screening is                        0
 Integral computing path is                   2
 max size of driver memory is           3200000
 size of driver memory is               1704330
 size of scratch memory is             29435624
 max col of scratch BK array              50625
 max len of scratch array in speh3         2114
 max len of scratch index in speh4           50
 max int batch size is                      520
 min int batch size is                       52
 fixed nKL is                                22
 max L of basis functions is                  4
 order of int derivative is                   0
 number of shells is                         34
 number of basis is                         174
 number of cartesian basis is               174
 number of contracted shell pairs           595
 number of primitive shell pairs           3860
 maxK2 (contraction) of shell pair          169
 max number of K2 of shell pair               1
 max number of CS2 of shell pair             49
 max number of PS2 of shell pair           1014
 mem total for path MDJ                  631630
 -------------------------------------------------------
 Smallest overlap matrix eigenvalue = 3.31E-05

 Scale SEOQF with 1.000000e-01/1.000000e-01/1.000000e-01

 Standard Electronic Orientation quadrupole field applied
 Guess from superposition of atomic densities
 Warning:  Energy on first SCF cycle will be non-variational
 SAD guess density has 15.000000 electrons

 -----------------------------------------------------------------------
  General SCF calculation program by
  Eric Jon Sundstrom, Paul Horn, Yuezhi Mao, Dmitri Zuev, Alec White,
  David Stuck, Shaama M.S., Shane Yost, Joonho Lee, David Small,
  Daniel Levine, Susi Lehtola, Hugh Burton, Evgeny Epifanovsky
 -----------------------------------------------------------------------
 Exchange:     0.5000 Hartree-Fock + 1.0000 PWPB95-D3
 Correlation:  0.7310 PWPB95-D3
 Using Euler-Maclaurin-Lebedev (99,590) quadrature formula
 Dispersion:   Grimme D3
Running Object-Oriented ROKS (ROHF)
ROHF occupied orbitals are orthonormal
ROHF occupied orbitals are orthogonal to virtual orbitals
ROHF virtual orbitals are orthonormal
We will preform up to 15 macro iterations over saddle points until a stable solution is found
Energy prior to optimization (guess energy) = -341.192268003508
Begin Timing: Total SCF Calculation
Begin Timing: SCF Single Stationary Point Calculation
begin iterations for algorithm: GDM          
the SCF tolerance is set to 1.00e-08
    1    -341.1922680035      2.11e-02     00000  Normal BFGS step
    2    -341.1950382705      2.20e-03     00000  Normal BFGS step
    3    -341.1950566783      5.08e-04     00000  Normal BFGS step
    4    -341.1950578556      7.61e-05     00000  Normal BFGS step
    5    -341.1950578798      9.77e-06     00000  Normal BFGS step
    6    -341.1950578803      1.43e-06     00000  Normal BFGS step
    7    -341.1950578803      1.68e-07     00000  Normal BFGS step
    8    -341.1950578803      1.36e-08     00000  Normal BFGS step
    9    -341.1950578803      1.53e-09     00000 Convergence criterion met
The disked orbital energies are calculated using alpha and beta Focks
Timing for Single Stationary Point: 21.00s (wall), 171.17s (cpu)
Begin Timing: Stability
===================================================
Beginning Test for Internal Stability
===================================================
generating davidson guess vectors based on koopmans-like excitations
    1      9.84e-01     00000 Davidson Iteration
    2      1.60e-01     00000 Davidson Iteration
    3      1.38e-01     00000 Davidson Iteration
    4      1.12e-01     00000 Davidson Iteration
    5      1.18e-02     00000 Davidson Iteration
    6      2.22e-03     00000 Davidson Iteration
    7      6.68e-04     00000 Davidson Iteration
    8      1.06e-04     00000 Davidson Iteration
    9      2.41e-05     00000 Davidson Converged
converged_eigenvalues
   0.4307
   0.4307
Threshold for negative eigenvalues: -1.0e-05
solution was a local minimum (stable)
===================================================
End Test for Internal Stability
===================================================
Our SCF solution is stable!
The disked orbital energies are calculated using alpha and beta Focks
Timing for Total SCF: 63.00s (wall), 506.94s (cpu)
 Total energy in the final basis set =     -341.1950578803
<S^2> =          3.750000000
    ==================================================
              The end of Object-Oriented SCFman       
    ==================================================
 
 Components of the MP2 correlation energy:
        aaaa  correlation energy =         0.0000000000 au
        abab  correlation energy =        -0.1024748818 au
        bbbb  correlation energy =         0.0000000000 au
        non-Brillouin singles    =        -0.0003321923 au

 Total  MP2   correlation energy =                    -0.10280707 au
        MP2         total energy =                  -341.29786495 au
 
 --------------------------------------------------------------
 
                    Orbital Energies (a.u.)
 --------------------------------------------------------------
 
 Alpha MOs
 -- Occupied --
-78.188  -6.931  -4.998  -4.998  -4.998  -0.684  -0.310  -0.310
 -0.310
 -- Virtual --
  0.029   0.048   0.048   0.048   0.119   0.119   0.119   0.119
  0.119   0.294   0.294   0.294   0.333   0.378   0.378   0.378
  0.378   0.378   0.378   0.378   0.341   0.341   0.341   0.341
  0.341   0.984   0.984   0.984   0.984   0.984   1.093   1.093
  1.093   1.093   1.093   1.093   1.093   1.124   1.124   1.124
  1.124   1.124   1.124   1.124   1.124   1.124   1.165   1.165
  1.165   1.440   2.644   2.644   2.644   2.644   2.644   2.784
  2.784   2.784   2.784   2.784   2.784   2.784   3.072   3.072
  3.072   3.072   3.072   3.072   3.072   3.072   3.072   4.242
  4.242   4.242   6.187   8.303   8.303   8.303   8.303   8.303
 13.773  13.773  13.773  15.937  15.937  15.937  15.937  15.937
 15.937  15.937  22.365  26.758  26.758  26.758  26.758  26.758
 39.481  39.481  39.481  46.352  46.352  46.352  46.352  46.352
 46.352  46.352  46.352  46.352  56.478  56.478  56.478  56.478
 56.478  56.478  56.478  67.074  79.408  79.408  79.408  79.408
 79.408 124.537 124.537 124.537 321.454
 
 Beta MOs
 -- Occupied --
-78.173  -6.916  -4.972  -4.972  -4.972  -0.513
 -- Virtual --
 -0.045  -0.045  -0.045   0.050   0.067   0.067   0.067   0.144
  0.144   0.144   0.144   0.144   0.323   0.323   0.323   0.368
  0.390   0.390   0.390   0.390   0.390   0.390   0.390   0.416
  0.416   0.416   0.416   0.416   1.051   1.051   1.051   1.051
  1.051   1.152   1.152   1.152   1.152   1.152   1.152   1.152
  1.153   1.153   1.153   1.153   1.153   1.153   1.153   1.153
  1.153   1.228   1.228   1.228   1.499   2.696   2.696   2.696
  2.696   2.696   2.870   2.870   2.870   2.870   2.870   2.870
  2.870   3.156   3.156   3.156   3.156   3.156   3.156   3.156
  3.156   3.156   4.306   4.306   4.306   6.243   8.350   8.350
  8.350   8.350   8.350  13.827  13.827  13.827  15.944  15.944
 15.944  15.944  15.944  15.944  15.944  22.398  26.785  26.785
 26.785  26.785  26.785  39.509  39.509  39.509  46.355  46.355
 46.355  46.355  46.355  46.355  46.355  46.355  46.355  56.491
 56.491  56.491  56.491  56.491  56.491  56.491  67.096  79.429
 79.429  79.429  79.429  79.429 124.551 124.551 124.551 321.467
 --------------------------------------------------------------
 
          Ground-State Mulliken Net Atomic Charges

     Atom                 Charge (a.u.)
  ----------------------------------------
      1 P                     0.000000
  ----------------------------------------
  Sum of atomic charges =     0.000000

 -----------------------------------------------------------------
                    Cartesian Multipole Moments
 -----------------------------------------------------------------
    Charge (ESU x 10^10)
                 0.0000
    Dipole Moment (Debye)
         X      -0.0000      Y       0.0000      Z       0.0000
       Tot       0.0000
    Quadrupole Moments (Debye-Ang)
        XX     -13.5070     XY      -0.0000     YY     -13.5070
        XZ       0.0000     YZ       0.0000     ZZ     -13.5070
    Octopole Moments (Debye-Ang^2)
       XXX      -0.0000    XXY       0.0000    XYY      -0.0000
       YYY       0.0000    XXZ       0.0000    XYZ      -0.0000
       YYZ      -0.0000    XZZ      -0.0000    YZZ       0.0000
       ZZZ      -0.0000
    Hexadecapole Moments (Debye-Ang^3)
      XXXX     -22.0838   XXXY      -0.0000   XXYY      -7.3613
      XYYY      -0.0000   YYYY     -22.0838   XXXZ       0.0000
      XXYZ      -0.0000   XYYZ       0.0000   YYYZ       0.0000
      XXZZ      -7.3613   XYZZ      -0.0000   YYZZ      -7.3613
      XZZZ      -0.0000   YZZZ       0.0000   ZZZZ     -22.0838
 -----------------------------------------------------------------

 STANDARD THERMODYNAMIC QUANTITIES AT   298.15 K  AND     1.00 ATM

   Translational Enthalpy:        0.889 kcal/mol
   Rotational Enthalpy:           0.000 kcal/mol
   Vibrational Enthalpy:          0.000 kcal/mol
   gas constant (RT):             0.592 kcal/mol
   Translational Entropy:        36.224  cal/mol.K
   Rotational Entropy:            0.000  cal/mol.K
   Vibrational Entropy:           0.000  cal/mol.K

   Total Enthalpy:                1.481 kcal/mol
   Total Entropy:                36.224  cal/mol.K

 -----------------------------------------------------------------

Archival summary:
1\1\n0080.mhg0\SP\ROProcedureUnspecified\BasisUnspecified\1(4)\yhljason\FriOct901:41:542020FriOct901:41:542020\0\\#,ROProcedureUnspecified,BasisUnspecified,\\0,4\P\\\@

 Total job time:  131.66s(wall), 1051.30s(cpu) 
 Fri Oct  9 01:41:54 2020

        *************************************************************
        *                                                           *
        *  Thank you very much for using Q-Chem.  Have a nice day.  *
        *                                                           *
        *************************************************************


 
User input: 2 of 83 of 8 
 
Q-Chem Developer Version!
                  Welcome to Q-Chem
     A Quantum Leap Into The Future Of Chemistry


 Q-Chem 5.1, Q-Chem, Inc., Pleasanton, CA (2018)

 Yihan Shao,  Zhengting Gan,  E. Epifanovsky,  A. T. B. Gilbert,  M. Wormit,  
 J. Kussmann,  A. W. Lange,  A. Behn,  Jia Deng,  Xintian Feng,  D. Ghosh,  
 M. Goldey,  P. R. Horn,  L. D. Jacobson,  I. Kaliman,  T. Kus,  A. Landau,  
 Jie Liu,  E. I. Proynov,  R. M. Richard,  R. P. Steele,  E. J. Sundstrom,  
 H. L. Woodcock III,  P. M. Zimmerman,  D. Zuev,  B. Albrecht,  E. Alguire,  
 S. A. Baeppler,  D. Barton,  Z. Benda,  Y. A. Bernard,  E. J. Berquist,  
 K. B. Bravaya,  H. Burton,  D. Casanova,  Chun-Min Chang,  Yunqing Chen,  
 A. Chien,  K. D. Closser,  M. P. Coons,  S. Coriani,  S. Dasgupta,  
 A. L. Dempwolff,  M. Diedenhofen,  Hainam Do,  R. G. Edgar,  Po-Tung Fang,  
 S. Faraji,  S. Fatehi,  Qingguo Feng,  K. D. Fenk,  J. Fosso-Tande,  
 Qinghui Ge,  A. Ghysels,  G. Gidofalvi,  J. Gomes,  J. Gonthier,  A. Gunina,  
 D. Hait,  M. W. D. Hanson-Heine,  P. H. P. Harbach,  A. W. Hauser,  
 J. E. Herr,  E. G. Hohenstein,  Z. C. Holden,  Kerwin Hui,  B. C. Huynh,  
 T.-C. Jagau,  Hyunjun Ji,  B. Kaduk,  K. Khistyaev,  Jaehoon Kim,  
 P. Klunzinger,  K. Koh,  D. Kosenkov,  L. Koulias,  T. Kowalczyk,  
 C. M. Krauter,  A. Kunitsa,  Ka Un Lao,  A. Laurent,  K. V. Lawler,  
 Joonho Lee,  D. Lefrancois,  S. Lehtola,  D. S. Levine,  Yi-Pei Li,  
 You-Sheng Lin,  Fenglai Liu,  E. Livshits,  A. Luenser,  P. Manohar,  
 E. Mansoor,  S. F. Manzer,  Shan-Ping Mao,  Yuezhi Mao,  N. Mardirossian,  
 A. V. Marenich,  T. Markovich,  L. A. Martinez-Martinez,  S. A. Maurer,  
 N. J. Mayhall,  S. C. McKenzie,  J.-M. Mewes,  A. F. Morrison,  
 J. W. Mullinax,  K. Nanda,  T. S. Nguyen-Beck,  R. Olivares-Amaya,  
 J. A. Parkhill,  T. M. Perrine,  F. Plasser,  P. Pokhilko,  S. Prager,  
 A. Prociuk,  E. Ramos,  D. R. Rehn,  F. Rob,  M. Schneider,  N. Sergueev,  
 S. M. Sharada,  S. Sharma,  D. W. Small,  T. Stauch,  T. Stein,  
 Yu-Chuan Su,  A. J. W. Thom,  A. Tkatchenko,  T. Tsuchimochi,  N. M. Tubman,  
 L. Vogt,  M. L. Vidal,  O. Vydrov,  M. A. Watson,  J. Wenzel,  
 M. de Wergifosse,  T. A. Wesolowski,  A. White,  J. Witte,  A. Yamada,  
 Jun Yang,  K. Yao,  S. Yeganeh,  S. R. Yost,  Zhi-Qiang You,  A. Zech,  
 Igor Ying Zhang,  Xing Zhang,  Yan Zhao,  Ying Zhu,  B. R. Brooks,  
 G. K. L. Chan,  C. J. Cramer,  M. S. Gordon,  W. J. Hehre,  A. Klamt,  
 M. W. Schmidt,  C. D. Sherrill,  D. G. Truhlar,  A. Aspuru-Guzik,  R. Baer,  
 A. T. Bell,  N. A. Besley,  Jeng-Da Chai,  A. E. DePrince, III,  
 R. A. DiStasio Jr.,  A. Dreuw,  B. D. Dunietz,  T. R. Furlani,  
 Chao-Ping Hsu,  Yousung Jung,  Jing Kong,  D. S. Lambrecht,  WanZhen Liang,  
 C. Ochsenfeld,  V. A. Rassolov,  L. V. Slipchenko,  J. E. Subotnik,  
 T. Van Voorhis,  J. M. Herbert,  A. I. Krylov,  P. M. W. Gill,  M. Head-Gordon

 Contributors to earlier versions of Q-Chem not listed above: 
 R. D. Adamson,  B. Austin,  J. Baker,  G. J. O. Beran,  K. Brandhorst,  
 S. T. Brown,  E. F. C. Byrd,  A. K. Chakraborty,  C.-L. Cheng,  
 Siu Hung Chien,  D. M. Chipman,  D. L. Crittenden,  H. Dachsel,  
 R. J. Doerksen,  A. D. Dutoi,  L. Fusti-Molnar,  W. A. Goddard III,  
 A. Golubeva-Zadorozhnaya,  S. R. Gwaltney,  G. Hawkins,  A. Heyden,  
 S. Hirata,  G. Kedziora,  F. J. Keil,  C. Kelley,  Jihan Kim,  R. A. King,  
 R. Z. Khaliullin,  P. P. Korambath,  W. Kurlancheek,  A. M. Lee,  M. S. Lee,  
 S. V. Levchenko,  Ching Yeh Lin,  D. Liotard,  R. C. Lochan,  I. Lotan,  
 P. E. Maslen,  N. Nair,  D. P. O'Neill,  D. Neuhauser,  E. Neuscamman,  
 C. M. Oana,  R. Olson,  B. Peters,  R. Peverati,  P. A. Pieniazek,  
 Y. M. Rhee,  J. Ritchie,  M. A. Rohrdanz,  E. Rosta,  N. J. Russ,  
 H. F. Schaefer III,  N. E. Schultz,  N. Shenvi,  A. C. Simmonett,  A. Sodt,  
 D. Stuck,  K. S. Thanthiriwatte,  V. Vanovschi,  Tao Wang,  A. Warshel,  
 C. F. Williams,  Q. Wu,  X. Xu,  W. Zhang

 Please cite Q-Chem as follows:
 Y. Shao et al., Mol. Phys. 113, 184-215 (2015)
 DOI: 10.1080/00268976.2014.952696

 Q-Chem 5.1.1 for Intel X86 EM64T Linux

 Parts of Q-Chem use Armadillo 8.300.2 (Tropical Shenanigans).
 http://arma.sourceforge.net/

 Q-Chem begins on Fri Oct  9 01:41:57 2020  

Host: n0080.mhg0
0

     Scratch files written to /local/scratch/users/yhljason/P_PWPB95-D3_aug-cc-pcVQZ.inp20201008191801//
The previous job contains 0 fragments, simply inherited here
Input Ideriv = 0
Curr. Ideriv = -1
Max.  Ideriv = 0
Input Ideriv = 1
Curr. Ideriv = 0
Max.  Ideriv = 0

Checking the input file for inconsistencies... 	...done.

--------------------------------------------------------------
User input:
--------------------------------------------------------------
$molecule
read
$end

$rem

jobtype sp
method PWPB95-D3
xc_grid 000099000590
basis aug-cc-pcVQZ
max_scf_cycles 200
thresh 14
scf_convergence 8
mem_total 128000
cc_memory 96000
cc_backend xm
mem_static 1500
symmetry false
sym_ignore true
scf_guess read
unrestricted false
scf_algorithm gdm
n_frozen_core 0
$end

$multipole_field
XX 0.0001
$end


--------------------------------------------------------------
 Adding empirical dispersion correction 
 ----------------------------------------------------------------
 Doing -D3(0) with
 s6  =   0.82000
 s8  =   0.70500
 rs6 =   1.55700
 rs8 =   1.00000
 -D3 energy without 3body term =      0.0000000000 hartrees
 ----------------------------------------------------------------
             Standard Nuclear Orientation (Angstroms)
    I     Atom           X                Y                Z
 ----------------------------------------------------------------
    1      P       0.0000000000     0.0000000000     0.0000000000
 ----------------------------------------------------------------
 Nuclear Repulsion Energy =     0.0000000000 hartrees
 There are        9 alpha and        6 beta electrons
 Requested basis set is aug-cc-pCVQZ
 There are 34 shells and 134 basis functions

 Total QAlloc Memory Limit 128000 MB
 Mega-Array Size      1467 MB
 MEM_STATIC part      1500 MB
 Applying Cartesian multipole field
    Component          Value
    ---------          -----
     (2,0,0)        1.00000E-04
 A cutoff of  1.0D-14 yielded    595 shell pairs
 There are      9355 function pairs (     15897 Cartesian)
 
 -------------------------------------------------------
 OpenMP Integral Computing Module                       
 Release: version 1.0, May 2013, Q-Chem Inc. Pittsburgh 
 -------------------------------------------------------
 Integral Job Info:
 Integral job number is                      11
 Integral operator is                         1
 short-range coefficients                     0
 long-range coefficients              100000000
 Omega coefficients                           0
 if combine SR and LR in K                    0
 Integral screening is                        0
 Integral computing path is                   2
 max size of driver memory is           3200000
 size of driver memory is               1704330
 size of scratch memory is             29435624
 max col of scratch BK array              50625
 max len of scratch array in speh3         2114
 max len of scratch index in speh4           50
 max int batch size is                      520
 min int batch size is                       52
 fixed nKL is                                22
 max L of basis functions is                  4
 order of int derivative is                   0
 number of shells is                         34
 number of basis is                         174
 number of cartesian basis is               174
 number of contracted shell pairs           595
 number of primitive shell pairs           3860
 maxK2 (contraction) of shell pair          169
 max number of K2 of shell pair               1
 max number of CS2 of shell pair             49
 max number of PS2 of shell pair           1014
 mem total for path MDJ                  631630
 -------------------------------------------------------
 Smallest overlap matrix eigenvalue = 3.31E-05
 Guess MOs from SCF MO coefficient file
 Reading MOs from coefficient file
 Reading MOs from coefficient file
 A restricted hybrid HF-DFT SCF calculation will be
 performed using Geometric Direct Minimization
 Exchange:     0.5000 Hartree-Fock + 1.0000 PWPB95-D3
 Correlation:  0.7310 PWPB95-D3
 Using Euler-Maclaurin-Lebedev (99,590) quadrature formula
 Dispersion:   Grimme D3
 SCF converges when RMS gradient is below 1.0E-08
Using Q-Chem read-in guess as SCF_GUESS READ specified.

 using 8 threads for integral computing
 -------------------------------------------------------
 OpenMP Integral computing Module                
 Release: version 2.0, May 2017, Q-Chem Inc. Pleasanton 
 -------------------------------------------------------
TIMEINFO->: J/JK contribution 12.46 sec.
 -------------------------------------------------------
 OpenMP BLAS3 based DFT computing Module                
 Release: version 1.0, May 2013, Q-Chem Inc. Pittsburgh 
 -------------------------------------------------------
 ---------------------------------------
  Cycle       Energy        RMS Gradient
 ---------------------------------------
    1    -341.1960620905      8.94E-04 Normal BFGS step
TIMEINFO->: J/JK contribution 21.47 sec.
    2    -341.1960625624      6.56E-04 Normal BFGS step
TIMEINFO->: J/JK contribution 22.32 sec.
    3    -341.1960627874      4.59E-05 Normal BFGS step
TIMEINFO->: J/JK contribution 22.22 sec.
    4    -341.1960627918      1.58E-05 Normal BFGS step
TIMEINFO->: J/JK contribution 21.17 sec.
    5    -341.1960627922      5.57E-06 Normal BFGS step
TIMEINFO->: J/JK contribution 20.53 sec.
    6    -341.1960627922      1.26E-06 Normal BFGS step
TIMEINFO->: J/JK contribution 19.03 sec.
    7    -341.1960627922      6.25E-08 Normal BFGS step
TIMEINFO->: J/JK contribution 16.56 sec.
   GDM::WARNING energy changes are now smaller than effective accuracy.
   GDM::        calculation will continue, but THRESH should be increased
   GDM::        or SCF_CONVERGENCE decreased.
   GDM::        effective_thresh =   9.000000000000000E-011
    8    -341.1960627922      1.22E-08 Normal BFGS step
TIMEINFO->: J/JK contribution 15.25 sec.
    9    -341.1960627922      1.92E-09 Convergence criterion met
 ---------------------------------------
 SCF time:  CPU 220.67 s  wall 27.93 s
 SCF   energy in the final basis set = -341.19606279
 Total energy in the final basis set = -341.19606279
 
 Components of the MP2 correlation energy:
        aaaa  correlation energy =         0.0000000000 au
        abab  correlation energy =        -0.1024721773 au
        bbbb  correlation energy =         0.0000000000 au
        non-Brillouin singles    =        -0.0003318776 au

 Total  MP2   correlation energy =                    -0.10280405 au
        MP2         total energy =                  -341.29886685 au
 
 --------------------------------------------------------------
 
                    Orbital Energies (a.u.)
 --------------------------------------------------------------
 
 Alpha MOs
 -- Occupied --
-78.188  -6.931  -4.999  -4.999  -4.999  -0.684  -0.310  -0.310
 -0.310
 -- Virtual --
  0.028   0.044   0.046   0.046   0.115   0.116   0.116   0.117
  0.117   0.292   0.293   0.293   0.332   0.340   0.341   0.341
  0.341   0.341   0.377   0.377   0.377   0.377   0.377   0.378
  0.378   0.985   0.985   0.985   0.986   0.986   1.092   1.092
  1.092   1.092   1.092   1.092   1.092   1.124   1.124   1.124
  1.124   1.124   1.124   1.124   1.124   1.124   1.165   1.166
  1.166   1.440   2.643   2.643   2.643   2.644   2.644   2.784
  2.784   2.784   2.784   2.784   2.784   2.784   3.072   3.072
  3.072   3.072   3.072   3.072   3.072   3.072   3.072   4.242
  4.242   4.242   6.187   8.303   8.303   8.303   8.303   8.303
 13.773  13.773  13.773  15.936  15.936  15.936  15.936  15.936
 15.936  15.936  22.365  26.758  26.758  26.758  26.758  26.758
 39.480  39.480  39.480  46.351  46.351  46.351  46.351  46.351
 46.351  46.351  46.351  46.351  56.477  56.477  56.477  56.477
 56.477  56.477  56.477  67.074  79.408  79.408  79.408  79.408
 79.408 124.537 124.537 124.537 321.453
 
 Beta MOs
 -- Occupied --
-78.173  -6.916  -4.973  -4.973  -4.973  -0.513
 -- Virtual --
 -0.045  -0.045  -0.045   0.049   0.064   0.066   0.066   0.144
  0.144   0.144   0.145   0.145   0.321   0.323   0.323   0.367
  0.415   0.415   0.415   0.416   0.416   0.389   0.389   0.389
  0.389   0.389   0.390   0.390   1.049   1.049   1.049   1.049
  1.049   1.151   1.151   1.151   1.151   1.151   1.152   1.152
  1.153   1.153   1.153   1.153   1.153   1.153   1.153   1.153
  1.153   1.227   1.227   1.227   1.498   2.695   2.695   2.695
  2.696   2.696   2.869   2.869   2.869   2.869   2.869   2.869
  2.869   3.156   3.156   3.156   3.156   3.156   3.156   3.156
  3.156   3.156   4.306   4.306   4.306   6.242   8.349   8.349
  8.349   8.349   8.349  13.826  13.826  13.826  15.944  15.944
 15.944  15.944  15.944  15.944  15.944  22.398  26.785  26.785
 26.785  26.785  26.785  39.509  39.509  39.509  46.355  46.355
 46.355  46.355  46.355  46.355  46.355  46.355  46.355  56.491
 56.491  56.491  56.491  56.491  56.491  56.491  67.096  79.428
 79.428  79.428  79.428  79.428 124.551 124.551 124.551 321.467
 --------------------------------------------------------------
 
          Ground-State Mulliken Net Atomic Charges

     Atom                 Charge (a.u.)
  ----------------------------------------
      1 P                     0.000000
  ----------------------------------------
  Sum of atomic charges =     0.000000

 -----------------------------------------------------------------
                    Cartesian Multipole Moments
 -----------------------------------------------------------------
    Charge (ESU x 10^10)
                 0.0000
    Dipole Moment (Debye)
         X       0.0000      Y       0.0000      Z       0.0000
       Tot       0.0000
    Quadrupole Moments (Debye-Ang)
        XX     -13.5259     XY      -0.0000     YY     -13.5097
        XZ      -0.0000     YZ       0.0000     ZZ     -13.5097
    Octopole Moments (Debye-Ang^2)
       XXX      -0.0000    XXY      -0.0000    XYY       0.0000
       YYY      -0.0000    XXZ       0.0000    XYZ      -0.0000
       YYZ      -0.0000    XZZ      -0.0000    YZZ       0.0000
       ZZZ      -0.0000
    Hexadecapole Moments (Debye-Ang^3)
      XXXX     -22.1930   XXXY      -0.0000   XXYY      -7.3826
      XYYY      -0.0000   YYYY     -22.1026   XXXZ       0.0000
      XXYZ       0.0000   XYYZ      -0.0000   YYYZ       0.0000
      XXZZ      -7.3826   XYZZ       0.0000   YYZZ      -7.3675
      XZZZ       0.0000   YZZZ       0.0000   ZZZZ     -22.1026
 -----------------------------------------------------------------

 STANDARD THERMODYNAMIC QUANTITIES AT   298.15 K  AND     1.00 ATM

   Translational Enthalpy:        0.889 kcal/mol
   Rotational Enthalpy:           0.000 kcal/mol
   Vibrational Enthalpy:          0.000 kcal/mol
   gas constant (RT):             0.592 kcal/mol
   Translational Entropy:        36.224  cal/mol.K
   Rotational Entropy:            0.000  cal/mol.K
   Vibrational Entropy:           0.000  cal/mol.K

   Total Enthalpy:                1.481 kcal/mol
   Total Entropy:                36.224  cal/mol.K

 -----------------------------------------------------------------

Archival summary:
1\1\n0080.mhg0\SP\ROProcedureUnspecified\BasisUnspecified\1(4)\yhljason\FriOct901:43:302020FriOct901:43:302020\0\\#,ROProcedureUnspecified,BasisUnspecified,\\0,4\P\\\@

 Total job time:  93.95s(wall), 745.70s(cpu) 
 Fri Oct  9 01:43:30 2020

        *************************************************************
        *                                                           *
        *  Thank you very much for using Q-Chem.  Have a nice day.  *
        *                                                           *
        *************************************************************


 
User input: 4 of 8 
 
Q-Chem Developer Version!
                  Welcome to Q-Chem
     A Quantum Leap Into The Future Of Chemistry


 Q-Chem 5.1, Q-Chem, Inc., Pleasanton, CA (2018)

 Yihan Shao,  Zhengting Gan,  E. Epifanovsky,  A. T. B. Gilbert,  M. Wormit,  
 J. Kussmann,  A. W. Lange,  A. Behn,  Jia Deng,  Xintian Feng,  D. Ghosh,  
 M. Goldey,  P. R. Horn,  L. D. Jacobson,  I. Kaliman,  T. Kus,  A. Landau,  
 Jie Liu,  E. I. Proynov,  R. M. Richard,  R. P. Steele,  E. J. Sundstrom,  
 H. L. Woodcock III,  P. M. Zimmerman,  D. Zuev,  B. Albrecht,  E. Alguire,  
 S. A. Baeppler,  D. Barton,  Z. Benda,  Y. A. Bernard,  E. J. Berquist,  
 K. B. Bravaya,  H. Burton,  D. Casanova,  Chun-Min Chang,  Yunqing Chen,  
 A. Chien,  K. D. Closser,  M. P. Coons,  S. Coriani,  S. Dasgupta,  
 A. L. Dempwolff,  M. Diedenhofen,  Hainam Do,  R. G. Edgar,  Po-Tung Fang,  
 S. Faraji,  S. Fatehi,  Qingguo Feng,  K. D. Fenk,  J. Fosso-Tande,  
 Qinghui Ge,  A. Ghysels,  G. Gidofalvi,  J. Gomes,  J. Gonthier,  A. Gunina,  
 D. Hait,  M. W. D. Hanson-Heine,  P. H. P. Harbach,  A. W. Hauser,  
 J. E. Herr,  E. G. Hohenstein,  Z. C. Holden,  Kerwin Hui,  B. C. Huynh,  
 T.-C. Jagau,  Hyunjun Ji,  B. Kaduk,  K. Khistyaev,  Jaehoon Kim,  
 P. Klunzinger,  K. Koh,  D. Kosenkov,  L. Koulias,  T. Kowalczyk,  
 C. M. Krauter,  A. Kunitsa,  Ka Un Lao,  A. Laurent,  K. V. Lawler,  
 Joonho Lee,  D. Lefrancois,  S. Lehtola,  D. S. Levine,  Yi-Pei Li,  
 You-Sheng Lin,  Fenglai Liu,  E. Livshits,  A. Luenser,  P. Manohar,  
 E. Mansoor,  S. F. Manzer,  Shan-Ping Mao,  Yuezhi Mao,  N. Mardirossian,  
 A. V. Marenich,  T. Markovich,  L. A. Martinez-Martinez,  S. A. Maurer,  
 N. J. Mayhall,  S. C. McKenzie,  J.-M. Mewes,  A. F. Morrison,  
 J. W. Mullinax,  K. Nanda,  T. S. Nguyen-Beck,  R. Olivares-Amaya,  
 J. A. Parkhill,  T. M. Perrine,  F. Plasser,  P. Pokhilko,  S. Prager,  
 A. Prociuk,  E. Ramos,  D. R. Rehn,  F. Rob,  M. Schneider,  N. Sergueev,  
 S. M. Sharada,  S. Sharma,  D. W. Small,  T. Stauch,  T. Stein,  
 Yu-Chuan Su,  A. J. W. Thom,  A. Tkatchenko,  T. Tsuchimochi,  N. M. Tubman,  
 L. Vogt,  M. L. Vidal,  O. Vydrov,  M. A. Watson,  J. Wenzel,  
 M. de Wergifosse,  T. A. Wesolowski,  A. White,  J. Witte,  A. Yamada,  
 Jun Yang,  K. Yao,  S. Yeganeh,  S. R. Yost,  Zhi-Qiang You,  A. Zech,  
 Igor Ying Zhang,  Xing Zhang,  Yan Zhao,  Ying Zhu,  B. R. Brooks,  
 G. K. L. Chan,  C. J. Cramer,  M. S. Gordon,  W. J. Hehre,  A. Klamt,  
 M. W. Schmidt,  C. D. Sherrill,  D. G. Truhlar,  A. Aspuru-Guzik,  R. Baer,  
 A. T. Bell,  N. A. Besley,  Jeng-Da Chai,  A. E. DePrince, III,  
 R. A. DiStasio Jr.,  A. Dreuw,  B. D. Dunietz,  T. R. Furlani,  
 Chao-Ping Hsu,  Yousung Jung,  Jing Kong,  D. S. Lambrecht,  WanZhen Liang,  
 C. Ochsenfeld,  V. A. Rassolov,  L. V. Slipchenko,  J. E. Subotnik,  
 T. Van Voorhis,  J. M. Herbert,  A. I. Krylov,  P. M. W. Gill,  M. Head-Gordon

 Contributors to earlier versions of Q-Chem not listed above: 
 R. D. Adamson,  B. Austin,  J. Baker,  G. J. O. Beran,  K. Brandhorst,  
 S. T. Brown,  E. F. C. Byrd,  A. K. Chakraborty,  C.-L. Cheng,  
 Siu Hung Chien,  D. M. Chipman,  D. L. Crittenden,  H. Dachsel,  
 R. J. Doerksen,  A. D. Dutoi,  L. Fusti-Molnar,  W. A. Goddard III,  
 A. Golubeva-Zadorozhnaya,  S. R. Gwaltney,  G. Hawkins,  A. Heyden,  
 S. Hirata,  G. Kedziora,  F. J. Keil,  C. Kelley,  Jihan Kim,  R. A. King,  
 R. Z. Khaliullin,  P. P. Korambath,  W. Kurlancheek,  A. M. Lee,  M. S. Lee,  
 S. V. Levchenko,  Ching Yeh Lin,  D. Liotard,  R. C. Lochan,  I. Lotan,  
 P. E. Maslen,  N. Nair,  D. P. O'Neill,  D. Neuhauser,  E. Neuscamman,  
 C. M. Oana,  R. Olson,  B. Peters,  R. Peverati,  P. A. Pieniazek,  
 Y. M. Rhee,  J. Ritchie,  M. A. Rohrdanz,  E. Rosta,  N. J. Russ,  
 H. F. Schaefer III,  N. E. Schultz,  N. Shenvi,  A. C. Simmonett,  A. Sodt,  
 D. Stuck,  K. S. Thanthiriwatte,  V. Vanovschi,  Tao Wang,  A. Warshel,  
 C. F. Williams,  Q. Wu,  X. Xu,  W. Zhang

 Please cite Q-Chem as follows:
 Y. Shao et al., Mol. Phys. 113, 184-215 (2015)
 DOI: 10.1080/00268976.2014.952696

 Q-Chem 5.1.1 for Intel X86 EM64T Linux

 Parts of Q-Chem use Armadillo 8.300.2 (Tropical Shenanigans).
 http://arma.sourceforge.net/

 Q-Chem begins on Fri Oct  9 01:43:31 2020  

Host: n0080.mhg0
0

     Scratch files written to /local/scratch/users/yhljason/P_PWPB95-D3_aug-cc-pcVQZ.inp20201008191801//
The previous job contains 0 fragments, simply inherited here
Input Ideriv = 0
Curr. Ideriv = -1
Max.  Ideriv = 0
Input Ideriv = 1
Curr. Ideriv = 0
Max.  Ideriv = 0

Checking the input file for inconsistencies... 	...done.

--------------------------------------------------------------
User input:
--------------------------------------------------------------
$molecule
read
$end

$rem

jobtype sp
method PWPB95-D3
xc_grid 000099000590
basis aug-cc-pcVQZ
max_scf_cycles 200
thresh 14
scf_convergence 8
mem_total 128000
cc_memory 96000
cc_backend xm
mem_static 1500
symmetry false
sym_ignore true
scf_guess read
unrestricted false
scf_algorithm gdm
n_frozen_core 0
$end

$multipole_field
XX -0.0001
$end


--------------------------------------------------------------
 Adding empirical dispersion correction 
 ----------------------------------------------------------------
 Doing -D3(0) with
 s6  =   0.82000
 s8  =   0.70500
 rs6 =   1.55700
 rs8 =   1.00000
 -D3 energy without 3body term =      0.0000000000 hartrees
 ----------------------------------------------------------------
             Standard Nuclear Orientation (Angstroms)
    I     Atom           X                Y                Z
 ----------------------------------------------------------------
    1      P       0.0000000000     0.0000000000     0.0000000000
 ----------------------------------------------------------------
 Nuclear Repulsion Energy =     0.0000000000 hartrees
 There are        9 alpha and        6 beta electrons
 Requested basis set is aug-cc-pCVQZ
 There are 34 shells and 134 basis functions

 Total QAlloc Memory Limit 128000 MB
 Mega-Array Size      1467 MB
 MEM_STATIC part      1500 MB
 Applying Cartesian multipole field
    Component          Value
    ---------          -----
     (2,0,0)       -1.00000E-04
 A cutoff of  1.0D-14 yielded    595 shell pairs
 There are      9355 function pairs (     15897 Cartesian)
 
 -------------------------------------------------------
 OpenMP Integral Computing Module                       
 Release: version 1.0, May 2013, Q-Chem Inc. Pittsburgh 
 -------------------------------------------------------
 Integral Job Info:
 Integral job number is                      11
 Integral operator is                         1
 short-range coefficients                     0
 long-range coefficients              100000000
 Omega coefficients                           0
 if combine SR and LR in K                    0
 Integral screening is                        0
 Integral computing path is                   2
 max size of driver memory is           3200000
 size of driver memory is               1704330
 size of scratch memory is             29435624
 max col of scratch BK array              50625
 max len of scratch array in speh3         2114
 max len of scratch index in speh4           50
 max int batch size is                      520
 min int batch size is                       52
 fixed nKL is                                22
 max L of basis functions is                  4
 order of int derivative is                   0
 number of shells is                         34
 number of basis is                         174
 number of cartesian basis is               174
 number of contracted shell pairs           595
 number of primitive shell pairs           3860
 maxK2 (contraction) of shell pair          169
 max number of K2 of shell pair               1
 max number of CS2 of shell pair             49
 max number of PS2 of shell pair           1014
 mem total for path MDJ                  631630
 -------------------------------------------------------
 Smallest overlap matrix eigenvalue = 3.31E-05
 Guess MOs from SCF MO coefficient file
 Reading MOs from coefficient file
 Reading MOs from coefficient file
 A restricted hybrid HF-DFT SCF calculation will be
 performed using Geometric Direct Minimization
 Exchange:     0.5000 Hartree-Fock + 1.0000 PWPB95-D3
 Correlation:  0.7310 PWPB95-D3
 Using Euler-Maclaurin-Lebedev (99,590) quadrature formula
 Dispersion:   Grimme D3
 SCF converges when RMS gradient is below 1.0E-08
Using Q-Chem read-in guess as SCF_GUESS READ specified.

 using 8 threads for integral computing
 -------------------------------------------------------
 OpenMP Integral computing Module                
 Release: version 2.0, May 2017, Q-Chem Inc. Pleasanton 
 -------------------------------------------------------
TIMEINFO->: J/JK contribution 22.05 sec.
 -------------------------------------------------------
 OpenMP BLAS3 based DFT computing Module                
 Release: version 1.0, May 2013, Q-Chem Inc. Pittsburgh 
 -------------------------------------------------------
 ---------------------------------------
  Cycle       Energy        RMS Gradient
 ---------------------------------------
    1    -341.1940515594      1.78E-03 Normal BFGS step
TIMEINFO->: J/JK contribution 22.15 sec.
    2    -341.1940534925      1.25E-03 Normal BFGS step
TIMEINFO->: J/JK contribution 21.65 sec.
    3    -341.1940543475      1.03E-04 Normal BFGS step
TIMEINFO->: J/JK contribution 21.16 sec.
    4    -341.1940543645      3.46E-05 Normal BFGS step
TIMEINFO->: J/JK contribution 20.74 sec.
    5    -341.1940543662      1.10E-05 Normal BFGS step
TIMEINFO->: J/JK contribution 20.99 sec.
    6    -341.1940543662      2.23E-06 Normal BFGS step
TIMEINFO->: J/JK contribution 21.53 sec.
    7    -341.1940543662      7.81E-08 Normal BFGS step
TIMEINFO->: J/JK contribution 17.78 sec.
    8    -341.1940543662      2.40E-08 Normal BFGS step
TIMEINFO->: J/JK contribution 16.17 sec.
    9    -341.1940543662      2.83E-09 Convergence criterion met
 ---------------------------------------
 SCF time:  CPU 234.61 s  wall 29.40 s
 SCF   energy in the final basis set = -341.19405437
 Total energy in the final basis set = -341.19405437
 
 Components of the MP2 correlation energy:
        aaaa  correlation energy =         0.0000000000 au
        abab  correlation energy =        -0.1024775790 au
        bbbb  correlation energy =         0.0000000000 au
        non-Brillouin singles    =        -0.0003325045 au

 Total  MP2   correlation energy =                    -0.10281008 au
        MP2         total energy =                  -341.29686445 au
 
 --------------------------------------------------------------
 
                    Orbital Energies (a.u.)
 --------------------------------------------------------------
 
 Alpha MOs
 -- Occupied --
-78.187  -6.931  -4.998  -4.998  -4.998  -0.684  -0.310  -0.310
 -0.309
 -- Virtual --
  0.030   0.049   0.049   0.051   0.117   0.117   0.118   0.118
  0.119   0.294   0.294   0.296   0.334   0.342   0.342   0.342
  0.342   0.342   0.378   0.378   0.379   0.379   0.379   0.379
  0.379   0.986   0.986   0.987   0.987   0.987   1.093   1.093
  1.093   1.093   1.093   1.093   1.093   1.124   1.124   1.125
  1.125   1.125   1.125   1.125   1.125   1.125   1.167   1.167
  1.167   1.441   2.644   2.644   2.644   2.644   2.644   2.785
  2.785   2.785   2.785   2.785   2.785   2.785   3.073   3.073
  3.073   3.073   3.073   3.073   3.073   3.073   3.073   4.243
  4.243   4.243   6.187   8.303   8.303   8.303   8.303   8.304
 13.773  13.773  13.773  15.937  15.937  15.937  15.937  15.937
 15.937  15.937  22.366  26.759  26.759  26.759  26.759  26.759
 39.481  39.481  39.481  46.352  46.352  46.352  46.352  46.352
 46.352  46.352  46.352  46.352  56.478  56.478  56.478  56.478
 56.478  56.478  56.478  67.074  79.409  79.409  79.409  79.409
 79.409 124.538 124.538 124.538 321.454
 
 Beta MOs
 -- Occupied --
-78.172  -6.915  -4.972  -4.972  -4.972  -0.513
 -- Virtual --
 -0.044  -0.044  -0.044   0.051   0.069   0.069   0.071   0.146
  0.146   0.147   0.147   0.147   0.324   0.324   0.325   0.369
  0.416   0.416   0.417   0.417   0.417   0.391   0.391   0.391
  0.391   0.391   0.391   0.391   1.050   1.050   1.050   1.050
  1.050   1.152   1.152   1.152   1.152   1.152   1.152   1.152
  1.154   1.154   1.154   1.154   1.154   1.154   1.154   1.154
  1.154   1.228   1.228   1.228   1.499   2.696   2.696   2.696
  2.696   2.696   2.870   2.870   2.870   2.870   2.870   2.870
  2.870   3.157   3.157   3.157   3.157   3.157   3.157   3.157
  3.157   3.157   4.306   4.306   4.307   6.243   8.350   8.350
  8.350   8.350   8.350  13.827  13.827  13.827  15.945  15.945
 15.945  15.945  15.945  15.945  15.945  22.398  26.786  26.786
 26.786  26.786  26.786  39.509  39.509  39.510  46.356  46.356
 46.356  46.356  46.356  46.356  46.356  46.356  46.356  56.492
 56.492  56.492  56.492  56.492  56.492  56.492  67.097  79.429
 79.429  79.429  79.429  79.429 124.552 124.552 124.552 321.468
 --------------------------------------------------------------
 
          Ground-State Mulliken Net Atomic Charges

     Atom                 Charge (a.u.)
  ----------------------------------------
      1 P                    -0.000000
  ----------------------------------------
  Sum of atomic charges =    -0.000000

 -----------------------------------------------------------------
                    Cartesian Multipole Moments
 -----------------------------------------------------------------
    Charge (ESU x 10^10)
                -0.0000
    Dipole Moment (Debye)
         X       0.0000      Y       0.0000      Z      -0.0000
       Tot       0.0000
    Quadrupole Moments (Debye-Ang)
        XX     -13.4883     XY       0.0000     YY     -13.5043
        XZ      -0.0000     YZ       0.0000     ZZ     -13.5043
    Octopole Moments (Debye-Ang^2)
       XXX       0.0000    XXY       0.0000    XYY      -0.0000
       YYY       0.0000    XXZ      -0.0000    XYZ      -0.0000
       YYZ      -0.0000    XZZ       0.0000    YZZ      -0.0000
       ZZZ      -0.0000
    Hexadecapole Moments (Debye-Ang^3)
      XXXX     -21.9767   XXXY       0.0000   XXYY      -7.3403
      XYYY       0.0000   YYYY     -22.0654   XXXZ      -0.0000
      XXYZ       0.0000   XYYZ      -0.0000   YYYZ       0.0000
      XXZZ      -7.3403   XYZZ       0.0000   YYZZ      -7.3551
      XZZZ      -0.0000   YZZZ       0.0000   ZZZZ     -22.0654
 -----------------------------------------------------------------

 STANDARD THERMODYNAMIC QUANTITIES AT   298.15 K  AND     1.00 ATM

   Translational Enthalpy:        0.889 kcal/mol
   Rotational Enthalpy:           0.000 kcal/mol
   Vibrational Enthalpy:          0.000 kcal/mol
   gas constant (RT):             0.592 kcal/mol
   Translational Entropy:        36.224  cal/mol.K
   Rotational Entropy:            0.000  cal/mol.K
   Vibrational Entropy:           0.000  cal/mol.K

   Total Enthalpy:                1.481 kcal/mol
   Total Entropy:                36.224  cal/mol.K

 -----------------------------------------------------------------

Archival summary:
1\1\n0080.mhg0\SP\ROProcedureUnspecified\BasisUnspecified\1(4)\yhljason\FriOct901:45:062020FriOct901:45:062020\0\\#,ROProcedureUnspecified,BasisUnspecified,\\0,4\P\\\@

 Total job time:  95.41s(wall), 760.37s(cpu) 
 Fri Oct  9 01:45:06 2020

        *************************************************************
        *                                                           *
        *  Thank you very much for using Q-Chem.  Have a nice day.  *
        *                                                           *
        *************************************************************


 
User input: 5 of 8 
 
Q-Chem Developer Version!
                  Welcome to Q-Chem
     A Quantum Leap Into The Future Of Chemistry


 Q-Chem 5.1, Q-Chem, Inc., Pleasanton, CA (2018)

 Yihan Shao,  Zhengting Gan,  E. Epifanovsky,  A. T. B. Gilbert,  M. Wormit,  
 J. Kussmann,  A. W. Lange,  A. Behn,  Jia Deng,  Xintian Feng,  D. Ghosh,  
 M. Goldey,  P. R. Horn,  L. D. Jacobson,  I. Kaliman,  T. Kus,  A. Landau,  
 Jie Liu,  E. I. Proynov,  R. M. Richard,  R. P. Steele,  E. J. Sundstrom,  
 H. L. Woodcock III,  P. M. Zimmerman,  D. Zuev,  B. Albrecht,  E. Alguire,  
 S. A. Baeppler,  D. Barton,  Z. Benda,  Y. A. Bernard,  E. J. Berquist,  
 K. B. Bravaya,  H. Burton,  D. Casanova,  Chun-Min Chang,  Yunqing Chen,  
 A. Chien,  K. D. Closser,  M. P. Coons,  S. Coriani,  S. Dasgupta,  
 A. L. Dempwolff,  M. Diedenhofen,  Hainam Do,  R. G. Edgar,  Po-Tung Fang,  
 S. Faraji,  S. Fatehi,  Qingguo Feng,  K. D. Fenk,  J. Fosso-Tande,  
 Qinghui Ge,  A. Ghysels,  G. Gidofalvi,  J. Gomes,  J. Gonthier,  A. Gunina,  
 D. Hait,  M. W. D. Hanson-Heine,  P. H. P. Harbach,  A. W. Hauser,  
 J. E. Herr,  E. G. Hohenstein,  Z. C. Holden,  Kerwin Hui,  B. C. Huynh,  
 T.-C. Jagau,  Hyunjun Ji,  B. Kaduk,  K. Khistyaev,  Jaehoon Kim,  
 P. Klunzinger,  K. Koh,  D. Kosenkov,  L. Koulias,  T. Kowalczyk,  
 C. M. Krauter,  A. Kunitsa,  Ka Un Lao,  A. Laurent,  K. V. Lawler,  
 Joonho Lee,  D. Lefrancois,  S. Lehtola,  D. S. Levine,  Yi-Pei Li,  
 You-Sheng Lin,  Fenglai Liu,  E. Livshits,  A. Luenser,  P. Manohar,  
 E. Mansoor,  S. F. Manzer,  Shan-Ping Mao,  Yuezhi Mao,  N. Mardirossian,  
 A. V. Marenich,  T. Markovich,  L. A. Martinez-Martinez,  S. A. Maurer,  
 N. J. Mayhall,  S. C. McKenzie,  J.-M. Mewes,  A. F. Morrison,  
 J. W. Mullinax,  K. Nanda,  T. S. Nguyen-Beck,  R. Olivares-Amaya,  
 J. A. Parkhill,  T. M. Perrine,  F. Plasser,  P. Pokhilko,  S. Prager,  
 A. Prociuk,  E. Ramos,  D. R. Rehn,  F. Rob,  M. Schneider,  N. Sergueev,  
 S. M. Sharada,  S. Sharma,  D. W. Small,  T. Stauch,  T. Stein,  
 Yu-Chuan Su,  A. J. W. Thom,  A. Tkatchenko,  T. Tsuchimochi,  N. M. Tubman,  
 L. Vogt,  M. L. Vidal,  O. Vydrov,  M. A. Watson,  J. Wenzel,  
 M. de Wergifosse,  T. A. Wesolowski,  A. White,  J. Witte,  A. Yamada,  
 Jun Yang,  K. Yao,  S. Yeganeh,  S. R. Yost,  Zhi-Qiang You,  A. Zech,  
 Igor Ying Zhang,  Xing Zhang,  Yan Zhao,  Ying Zhu,  B. R. Brooks,  
 G. K. L. Chan,  C. J. Cramer,  M. S. Gordon,  W. J. Hehre,  A. Klamt,  
 M. W. Schmidt,  C. D. Sherrill,  D. G. Truhlar,  A. Aspuru-Guzik,  R. Baer,  
 A. T. Bell,  N. A. Besley,  Jeng-Da Chai,  A. E. DePrince, III,  
 R. A. DiStasio Jr.,  A. Dreuw,  B. D. Dunietz,  T. R. Furlani,  
 Chao-Ping Hsu,  Yousung Jung,  Jing Kong,  D. S. Lambrecht,  WanZhen Liang,  
 C. Ochsenfeld,  V. A. Rassolov,  L. V. Slipchenko,  J. E. Subotnik,  
 T. Van Voorhis,  J. M. Herbert,  A. I. Krylov,  P. M. W. Gill,  M. Head-Gordon

 Contributors to earlier versions of Q-Chem not listed above: 
 R. D. Adamson,  B. Austin,  J. Baker,  G. J. O. Beran,  K. Brandhorst,  
 S. T. Brown,  E. F. C. Byrd,  A. K. Chakraborty,  C.-L. Cheng,  
 Siu Hung Chien,  D. M. Chipman,  D. L. Crittenden,  H. Dachsel,  
 R. J. Doerksen,  A. D. Dutoi,  L. Fusti-Molnar,  W. A. Goddard III,  
 A. Golubeva-Zadorozhnaya,  S. R. Gwaltney,  G. Hawkins,  A. Heyden,  
 S. Hirata,  G. Kedziora,  F. J. Keil,  C. Kelley,  Jihan Kim,  R. A. King,  
 R. Z. Khaliullin,  P. P. Korambath,  W. Kurlancheek,  A. M. Lee,  M. S. Lee,  
 S. V. Levchenko,  Ching Yeh Lin,  D. Liotard,  R. C. Lochan,  I. Lotan,  
 P. E. Maslen,  N. Nair,  D. P. O'Neill,  D. Neuhauser,  E. Neuscamman,  
 C. M. Oana,  R. Olson,  B. Peters,  R. Peverati,  P. A. Pieniazek,  
 Y. M. Rhee,  J. Ritchie,  M. A. Rohrdanz,  E. Rosta,  N. J. Russ,  
 H. F. Schaefer III,  N. E. Schultz,  N. Shenvi,  A. C. Simmonett,  A. Sodt,  
 D. Stuck,  K. S. Thanthiriwatte,  V. Vanovschi,  Tao Wang,  A. Warshel,  
 C. F. Williams,  Q. Wu,  X. Xu,  W. Zhang

 Please cite Q-Chem as follows:
 Y. Shao et al., Mol. Phys. 113, 184-215 (2015)
 DOI: 10.1080/00268976.2014.952696

 Q-Chem 5.1.1 for Intel X86 EM64T Linux

 Parts of Q-Chem use Armadillo 8.300.2 (Tropical Shenanigans).
 http://arma.sourceforge.net/

 Q-Chem begins on Fri Oct  9 01:45:06 2020  

Host: n0080.mhg0
0

     Scratch files written to /local/scratch/users/yhljason/P_PWPB95-D3_aug-cc-pcVQZ.inp20201008191801//
The previous job contains 0 fragments, simply inherited here
Input Ideriv = 0
Curr. Ideriv = -1
Max.  Ideriv = 0
Input Ideriv = 1
Curr. Ideriv = 0
Max.  Ideriv = 0

Checking the input file for inconsistencies... 	...done.

--------------------------------------------------------------
User input:
--------------------------------------------------------------
$molecule
read
$end

$rem

jobtype sp
method PWPB95-D3
xc_grid 000099000590
basis aug-cc-pcVQZ
max_scf_cycles 200
thresh 14
scf_convergence 8
mem_total 128000
cc_memory 96000
cc_backend xm
mem_static 1500
symmetry false
sym_ignore true
scf_guess read
unrestricted false
scf_algorithm gdm
n_frozen_core 0
$end

$multipole_field
YY 0.0001
$end


--------------------------------------------------------------
 Adding empirical dispersion correction 
 ----------------------------------------------------------------
 Doing -D3(0) with
 s6  =   0.82000
 s8  =   0.70500
 rs6 =   1.55700
 rs8 =   1.00000
 -D3 energy without 3body term =      0.0000000000 hartrees
 ----------------------------------------------------------------
             Standard Nuclear Orientation (Angstroms)
    I     Atom           X                Y                Z
 ----------------------------------------------------------------
    1      P       0.0000000000     0.0000000000     0.0000000000
 ----------------------------------------------------------------
 Nuclear Repulsion Energy =     0.0000000000 hartrees
 There are        9 alpha and        6 beta electrons
 Requested basis set is aug-cc-pCVQZ
 There are 34 shells and 134 basis functions

 Total QAlloc Memory Limit 128000 MB
 Mega-Array Size      1467 MB
 MEM_STATIC part      1500 MB
 Applying Cartesian multipole field
    Component          Value
    ---------          -----
     (0,2,0)        1.00000E-04
 A cutoff of  1.0D-14 yielded    595 shell pairs
 There are      9355 function pairs (     15897 Cartesian)
 
 -------------------------------------------------------
 OpenMP Integral Computing Module                       
 Release: version 1.0, May 2013, Q-Chem Inc. Pittsburgh 
 -------------------------------------------------------
 Integral Job Info:
 Integral job number is                      11
 Integral operator is                         1
 short-range coefficients                     0
 long-range coefficients              100000000
 Omega coefficients                           0
 if combine SR and LR in K                    0
 Integral screening is                        0
 Integral computing path is                   2
 max size of driver memory is           3200000
 size of driver memory is               1704330
 size of scratch memory is             29435624
 max col of scratch BK array              50625
 max len of scratch array in speh3         2114
 max len of scratch index in speh4           50
 max int batch size is                      520
 min int batch size is                       52
 fixed nKL is                                22
 max L of basis functions is                  4
 order of int derivative is                   0
 number of shells is                         34
 number of basis is                         174
 number of cartesian basis is               174
 number of contracted shell pairs           595
 number of primitive shell pairs           3860
 maxK2 (contraction) of shell pair          169
 max number of K2 of shell pair               1
 max number of CS2 of shell pair             49
 max number of PS2 of shell pair           1014
 mem total for path MDJ                  631630
 -------------------------------------------------------
 Smallest overlap matrix eigenvalue = 3.31E-05
 Guess MOs from SCF MO coefficient file
 Reading MOs from coefficient file
 Reading MOs from coefficient file
 A restricted hybrid HF-DFT SCF calculation will be
 performed using Geometric Direct Minimization
 Exchange:     0.5000 Hartree-Fock + 1.0000 PWPB95-D3
 Correlation:  0.7310 PWPB95-D3
 Using Euler-Maclaurin-Lebedev (99,590) quadrature formula
 Dispersion:   Grimme D3
 SCF converges when RMS gradient is below 1.0E-08
Using Q-Chem read-in guess as SCF_GUESS READ specified.

 using 8 threads for integral computing
 -------------------------------------------------------
 OpenMP Integral computing Module                
 Release: version 2.0, May 2017, Q-Chem Inc. Pleasanton 
 -------------------------------------------------------
TIMEINFO->: J/JK contribution 22.96 sec.
 -------------------------------------------------------
 OpenMP BLAS3 based DFT computing Module                
 Release: version 1.0, May 2013, Q-Chem Inc. Pittsburgh 
 -------------------------------------------------------
 ---------------------------------------
  Cycle       Energy        RMS Gradient
 ---------------------------------------
    1    -341.1960612011      1.19E-03 Normal BFGS step
TIMEINFO->: J/JK contribution 22.73 sec.
    2    -341.1960619663      9.87E-04 Normal BFGS step
TIMEINFO->: J/JK contribution 21.90 sec.
    3    -341.1960627887      5.12E-05 Normal BFGS step
TIMEINFO->: J/JK contribution 21.34 sec.
    4    -341.1960627918      2.33E-05 Normal BFGS step
TIMEINFO->: J/JK contribution 19.91 sec.
    5    -341.1960627922      4.57E-06 Normal BFGS step
TIMEINFO->: J/JK contribution 19.31 sec.
    6    -341.1960627922      1.06E-06 Normal BFGS step
TIMEINFO->: J/JK contribution 18.45 sec.
    7    -341.1960627922      6.60E-08 Normal BFGS step
TIMEINFO->: J/JK contribution 16.66 sec.
   GDM::WARNING energy changes are now smaller than effective accuracy.
   GDM::        calculation will continue, but THRESH should be increased
   GDM::        or SCF_CONVERGENCE decreased.
   GDM::        effective_thresh =   9.000000000000000E-011
    8    -341.1960627922      1.63E-08 Normal BFGS step
TIMEINFO->: J/JK contribution 16.33 sec.
    9    -341.1960627922      1.68E-09 Convergence criterion met
 ---------------------------------------
 SCF time:  CPU 229.31 s  wall 28.68 s
 SCF   energy in the final basis set = -341.19606279
 Total energy in the final basis set = -341.19606279
 
 Components of the MP2 correlation energy:
        aaaa  correlation energy =         0.0000000000 au
        abab  correlation energy =        -0.1024721773 au
        bbbb  correlation energy =         0.0000000000 au
        non-Brillouin singles    =        -0.0003318776 au

 Total  MP2   correlation energy =                    -0.10280405 au
        MP2         total energy =                  -341.29886685 au
 
 --------------------------------------------------------------
 
                    Orbital Energies (a.u.)
 --------------------------------------------------------------
 
 Alpha MOs
 -- Occupied --
-78.188  -6.931  -4.999  -4.999  -4.999  -0.684  -0.310  -0.310
 -0.310
 -- Virtual --
  0.028   0.044   0.046   0.046   0.115   0.116   0.116   0.117
  0.117   0.292   0.293   0.293   0.332   0.340   0.341   0.341
  0.341   0.341   0.377   0.377   0.377   0.377   0.377   0.378
  0.378   0.985   0.985   0.985   0.986   0.986   1.092   1.092
  1.092   1.092   1.092   1.092   1.092   1.124   1.124   1.124
  1.124   1.124   1.124   1.124   1.124   1.124   1.165   1.166
  1.166   1.440   2.643   2.643   2.643   2.644   2.644   2.784
  2.784   2.784   2.784   2.784   2.784   2.784   3.072   3.072
  3.072   3.072   3.072   3.072   3.072   3.072   3.072   4.242
  4.242   4.242   6.187   8.303   8.303   8.303   8.303   8.303
 13.773  13.773  13.773  15.936  15.936  15.936  15.936  15.936
 15.936  15.936  22.365  26.758  26.758  26.758  26.758  26.758
 39.480  39.480  39.480  46.351  46.351  46.351  46.351  46.351
 46.351  46.351  46.351  46.351  56.477  56.477  56.477  56.477
 56.477  56.477  56.477  67.074  79.408  79.408  79.408  79.408
 79.408 124.537 124.537 124.537 321.453
 
 Beta MOs
 -- Occupied --
-78.173  -6.916  -4.973  -4.973  -4.973  -0.513
 -- Virtual --
 -0.045  -0.045  -0.045   0.049   0.064   0.066   0.066   0.144
  0.144   0.144   0.145   0.145   0.321   0.323   0.323   0.367
  0.415   0.415   0.415   0.416   0.416   0.389   0.389   0.389
  0.389   0.389   0.390   0.390   1.049   1.049   1.049   1.049
  1.049   1.151   1.151   1.151   1.151   1.151   1.152   1.152
  1.153   1.153   1.153   1.153   1.153   1.153   1.153   1.153
  1.153   1.227   1.227   1.227   1.498   2.695   2.695   2.695
  2.696   2.696   2.869   2.869   2.869   2.869   2.869   2.869
  2.869   3.156   3.156   3.156   3.156   3.156   3.156   3.156
  3.156   3.156   4.306   4.306   4.306   6.242   8.349   8.349
  8.349   8.349   8.349  13.826  13.826  13.826  15.944  15.944
 15.944  15.944  15.944  15.944  15.944  22.398  26.785  26.785
 26.785  26.785  26.785  39.509  39.509  39.509  46.355  46.355
 46.355  46.355  46.355  46.355  46.355  46.355  46.355  56.491
 56.491  56.491  56.491  56.491  56.491  56.491  67.096  79.428
 79.428  79.428  79.428  79.428 124.551 124.551 124.551 321.467
 --------------------------------------------------------------
 
          Ground-State Mulliken Net Atomic Charges

     Atom                 Charge (a.u.)
  ----------------------------------------
      1 P                    -0.000000
  ----------------------------------------
  Sum of atomic charges =    -0.000000

 -----------------------------------------------------------------
                    Cartesian Multipole Moments
 -----------------------------------------------------------------
    Charge (ESU x 10^10)
                -0.0000
    Dipole Moment (Debye)
         X      -0.0000      Y      -0.0000      Z      -0.0000
       Tot       0.0000
    Quadrupole Moments (Debye-Ang)
        XX     -13.5097     XY      -0.0000     YY     -13.5259
        XZ       0.0000     YZ      -0.0000     ZZ     -13.5097
    Octopole Moments (Debye-Ang^2)
       XXX      -0.0000    XXY      -0.0000    XYY      -0.0000
       YYY      -0.0000    XXZ       0.0000    XYZ      -0.0000
       YYZ       0.0000    XZZ       0.0000    YZZ       0.0000
       ZZZ       0.0000
    Hexadecapole Moments (Debye-Ang^3)
      XXXX     -22.1026   XXXY       0.0000   XXYY      -7.3826
      XYYY       0.0000   YYYY     -22.1930   XXXZ       0.0000
      XXYZ       0.0000   XYYZ       0.0000   YYYZ       0.0000
      XXZZ      -7.3675   XYZZ       0.0000   YYZZ      -7.3826
      XZZZ       0.0000   YZZZ       0.0000   ZZZZ     -22.1026
 -----------------------------------------------------------------

 STANDARD THERMODYNAMIC QUANTITIES AT   298.15 K  AND     1.00 ATM

   Translational Enthalpy:        0.889 kcal/mol
   Rotational Enthalpy:           0.000 kcal/mol
   Vibrational Enthalpy:          0.000 kcal/mol
   gas constant (RT):             0.592 kcal/mol
   Translational Entropy:        36.224  cal/mol.K
   Rotational Entropy:            0.000  cal/mol.K
   Vibrational Entropy:           0.000  cal/mol.K

   Total Enthalpy:                1.481 kcal/mol
   Total Entropy:                36.224  cal/mol.K

 -----------------------------------------------------------------

Archival summary:
1\1\n0080.mhg0\SP\ROProcedureUnspecified\BasisUnspecified\1(4)\yhljason\FriOct901:46:412020FriOct901:46:412020\0\\#,ROProcedureUnspecified,BasisUnspecified,\\0,4\P\\\@

 Total job time:  94.46s(wall), 751.94s(cpu) 
 Fri Oct  9 01:46:41 2020

        *************************************************************
        *                                                           *
        *  Thank you very much for using Q-Chem.  Have a nice day.  *
        *                                                           *
        *************************************************************


 
User input: 6 of 8 
 
Q-Chem Developer Version!
                  Welcome to Q-Chem
     A Quantum Leap Into The Future Of Chemistry


 Q-Chem 5.1, Q-Chem, Inc., Pleasanton, CA (2018)

 Yihan Shao,  Zhengting Gan,  E. Epifanovsky,  A. T. B. Gilbert,  M. Wormit,  
 J. Kussmann,  A. W. Lange,  A. Behn,  Jia Deng,  Xintian Feng,  D. Ghosh,  
 M. Goldey,  P. R. Horn,  L. D. Jacobson,  I. Kaliman,  T. Kus,  A. Landau,  
 Jie Liu,  E. I. Proynov,  R. M. Richard,  R. P. Steele,  E. J. Sundstrom,  
 H. L. Woodcock III,  P. M. Zimmerman,  D. Zuev,  B. Albrecht,  E. Alguire,  
 S. A. Baeppler,  D. Barton,  Z. Benda,  Y. A. Bernard,  E. J. Berquist,  
 K. B. Bravaya,  H. Burton,  D. Casanova,  Chun-Min Chang,  Yunqing Chen,  
 A. Chien,  K. D. Closser,  M. P. Coons,  S. Coriani,  S. Dasgupta,  
 A. L. Dempwolff,  M. Diedenhofen,  Hainam Do,  R. G. Edgar,  Po-Tung Fang,  
 S. Faraji,  S. Fatehi,  Qingguo Feng,  K. D. Fenk,  J. Fosso-Tande,  
 Qinghui Ge,  A. Ghysels,  G. Gidofalvi,  J. Gomes,  J. Gonthier,  A. Gunina,  
 D. Hait,  M. W. D. Hanson-Heine,  P. H. P. Harbach,  A. W. Hauser,  
 J. E. Herr,  E. G. Hohenstein,  Z. C. Holden,  Kerwin Hui,  B. C. Huynh,  
 T.-C. Jagau,  Hyunjun Ji,  B. Kaduk,  K. Khistyaev,  Jaehoon Kim,  
 P. Klunzinger,  K. Koh,  D. Kosenkov,  L. Koulias,  T. Kowalczyk,  
 C. M. Krauter,  A. Kunitsa,  Ka Un Lao,  A. Laurent,  K. V. Lawler,  
 Joonho Lee,  D. Lefrancois,  S. Lehtola,  D. S. Levine,  Yi-Pei Li,  
 You-Sheng Lin,  Fenglai Liu,  E. Livshits,  A. Luenser,  P. Manohar,  
 E. Mansoor,  S. F. Manzer,  Shan-Ping Mao,  Yuezhi Mao,  N. Mardirossian,  
 A. V. Marenich,  T. Markovich,  L. A. Martinez-Martinez,  S. A. Maurer,  
 N. J. Mayhall,  S. C. McKenzie,  J.-M. Mewes,  A. F. Morrison,  
 J. W. Mullinax,  K. Nanda,  T. S. Nguyen-Beck,  R. Olivares-Amaya,  
 J. A. Parkhill,  T. M. Perrine,  F. Plasser,  P. Pokhilko,  S. Prager,  
 A. Prociuk,  E. Ramos,  D. R. Rehn,  F. Rob,  M. Schneider,  N. Sergueev,  
 S. M. Sharada,  S. Sharma,  D. W. Small,  T. Stauch,  T. Stein,  
 Yu-Chuan Su,  A. J. W. Thom,  A. Tkatchenko,  T. Tsuchimochi,  N. M. Tubman,  
 L. Vogt,  M. L. Vidal,  O. Vydrov,  M. A. Watson,  J. Wenzel,  
 M. de Wergifosse,  T. A. Wesolowski,  A. White,  J. Witte,  A. Yamada,  
 Jun Yang,  K. Yao,  S. Yeganeh,  S. R. Yost,  Zhi-Qiang You,  A. Zech,  
 Igor Ying Zhang,  Xing Zhang,  Yan Zhao,  Ying Zhu,  B. R. Brooks,  
 G. K. L. Chan,  C. J. Cramer,  M. S. Gordon,  W. J. Hehre,  A. Klamt,  
 M. W. Schmidt,  C. D. Sherrill,  D. G. Truhlar,  A. Aspuru-Guzik,  R. Baer,  
 A. T. Bell,  N. A. Besley,  Jeng-Da Chai,  A. E. DePrince, III,  
 R. A. DiStasio Jr.,  A. Dreuw,  B. D. Dunietz,  T. R. Furlani,  
 Chao-Ping Hsu,  Yousung Jung,  Jing Kong,  D. S. Lambrecht,  WanZhen Liang,  
 C. Ochsenfeld,  V. A. Rassolov,  L. V. Slipchenko,  J. E. Subotnik,  
 T. Van Voorhis,  J. M. Herbert,  A. I. Krylov,  P. M. W. Gill,  M. Head-Gordon

 Contributors to earlier versions of Q-Chem not listed above: 
 R. D. Adamson,  B. Austin,  J. Baker,  G. J. O. Beran,  K. Brandhorst,  
 S. T. Brown,  E. F. C. Byrd,  A. K. Chakraborty,  C.-L. Cheng,  
 Siu Hung Chien,  D. M. Chipman,  D. L. Crittenden,  H. Dachsel,  
 R. J. Doerksen,  A. D. Dutoi,  L. Fusti-Molnar,  W. A. Goddard III,  
 A. Golubeva-Zadorozhnaya,  S. R. Gwaltney,  G. Hawkins,  A. Heyden,  
 S. Hirata,  G. Kedziora,  F. J. Keil,  C. Kelley,  Jihan Kim,  R. A. King,  
 R. Z. Khaliullin,  P. P. Korambath,  W. Kurlancheek,  A. M. Lee,  M. S. Lee,  
 S. V. Levchenko,  Ching Yeh Lin,  D. Liotard,  R. C. Lochan,  I. Lotan,  
 P. E. Maslen,  N. Nair,  D. P. O'Neill,  D. Neuhauser,  E. Neuscamman,  
 C. M. Oana,  R. Olson,  B. Peters,  R. Peverati,  P. A. Pieniazek,  
 Y. M. Rhee,  J. Ritchie,  M. A. Rohrdanz,  E. Rosta,  N. J. Russ,  
 H. F. Schaefer III,  N. E. Schultz,  N. Shenvi,  A. C. Simmonett,  A. Sodt,  
 D. Stuck,  K. S. Thanthiriwatte,  V. Vanovschi,  Tao Wang,  A. Warshel,  
 C. F. Williams,  Q. Wu,  X. Xu,  W. Zhang

 Please cite Q-Chem as follows:
 Y. Shao et al., Mol. Phys. 113, 184-215 (2015)
 DOI: 10.1080/00268976.2014.952696

 Q-Chem 5.1.1 for Intel X86 EM64T Linux

 Parts of Q-Chem use Armadillo 8.300.2 (Tropical Shenanigans).
 http://arma.sourceforge.net/

 Q-Chem begins on Fri Oct  9 01:46:41 2020  

Host: n0080.mhg0
0

     Scratch files written to /local/scratch/users/yhljason/P_PWPB95-D3_aug-cc-pcVQZ.inp20201008191801//
The previous job contains 0 fragments, simply inherited here
Input Ideriv = 0
Curr. Ideriv = -1
Max.  Ideriv = 0
Input Ideriv = 1
Curr. Ideriv = 0
Max.  Ideriv = 0

Checking the input file for inconsistencies... 	...done.

--------------------------------------------------------------
User input:
--------------------------------------------------------------
$molecule
read
$end

$rem

jobtype sp
method PWPB95-D3
xc_grid 000099000590
basis aug-cc-pcVQZ
max_scf_cycles 200
thresh 14
scf_convergence 8
mem_total 128000
cc_memory 96000
cc_backend xm
mem_static 1500
symmetry false
sym_ignore true
scf_guess read
unrestricted false
scf_algorithm gdm
n_frozen_core 0
$end

$multipole_field
YY -0.0001
$end


--------------------------------------------------------------
 Adding empirical dispersion correction 
 ----------------------------------------------------------------
 Doing -D3(0) with
 s6  =   0.82000
 s8  =   0.70500
 rs6 =   1.55700
 rs8 =   1.00000
 -D3 energy without 3body term =      0.0000000000 hartrees
 ----------------------------------------------------------------
             Standard Nuclear Orientation (Angstroms)
    I     Atom           X                Y                Z
 ----------------------------------------------------------------
    1      P       0.0000000000     0.0000000000     0.0000000000
 ----------------------------------------------------------------
 Nuclear Repulsion Energy =     0.0000000000 hartrees
 There are        9 alpha and        6 beta electrons
 Requested basis set is aug-cc-pCVQZ
 There are 34 shells and 134 basis functions

 Total QAlloc Memory Limit 128000 MB
 Mega-Array Size      1467 MB
 MEM_STATIC part      1500 MB
 Applying Cartesian multipole field
    Component          Value
    ---------          -----
     (0,2,0)       -1.00000E-04
 A cutoff of  1.0D-14 yielded    595 shell pairs
 There are      9355 function pairs (     15897 Cartesian)
 
 -------------------------------------------------------
 OpenMP Integral Computing Module                       
 Release: version 1.0, May 2013, Q-Chem Inc. Pittsburgh 
 -------------------------------------------------------
 Integral Job Info:
 Integral job number is                      11
 Integral operator is                         1
 short-range coefficients                     0
 long-range coefficients              100000000
 Omega coefficients                           0
 if combine SR and LR in K                    0
 Integral screening is                        0
 Integral computing path is                   2
 max size of driver memory is           3200000
 size of driver memory is               1704330
 size of scratch memory is             29435624
 max col of scratch BK array              50625
 max len of scratch array in speh3         2114
 max len of scratch index in speh4           50
 max int batch size is                      520
 min int batch size is                       52
 fixed nKL is                                22
 max L of basis functions is                  4
 order of int derivative is                   0
 number of shells is                         34
 number of basis is                         174
 number of cartesian basis is               174
 number of contracted shell pairs           595
 number of primitive shell pairs           3860
 maxK2 (contraction) of shell pair          169
 max number of K2 of shell pair               1
 max number of CS2 of shell pair             49
 max number of PS2 of shell pair           1014
 mem total for path MDJ                  631630
 -------------------------------------------------------
 Smallest overlap matrix eigenvalue = 3.31E-05
 Guess MOs from SCF MO coefficient file
 Reading MOs from coefficient file
 Reading MOs from coefficient file
 A restricted hybrid HF-DFT SCF calculation will be
 performed using Geometric Direct Minimization
 Exchange:     0.5000 Hartree-Fock + 1.0000 PWPB95-D3
 Correlation:  0.7310 PWPB95-D3
 Using Euler-Maclaurin-Lebedev (99,590) quadrature formula
 Dispersion:   Grimme D3
 SCF converges when RMS gradient is below 1.0E-08
Using Q-Chem read-in guess as SCF_GUESS READ specified.

 using 8 threads for integral computing
 -------------------------------------------------------
 OpenMP Integral computing Module                
 Release: version 2.0, May 2017, Q-Chem Inc. Pleasanton 
 -------------------------------------------------------
TIMEINFO->: J/JK contribution 23.16 sec.
 -------------------------------------------------------
 OpenMP BLAS3 based DFT computing Module                
 Release: version 1.0, May 2013, Q-Chem Inc. Pittsburgh 
 -------------------------------------------------------
 ---------------------------------------
  Cycle       Energy        RMS Gradient
 ---------------------------------------
    1    -341.1940515594      1.78E-03 Normal BFGS step
TIMEINFO->: J/JK contribution 22.88 sec.
    2    -341.1940534925      1.25E-03 Normal BFGS step
TIMEINFO->: J/JK contribution 22.87 sec.
    3    -341.1940543475      1.03E-04 Normal BFGS step
TIMEINFO->: J/JK contribution 21.63 sec.
    4    -341.1940543645      3.46E-05 Normal BFGS step
TIMEINFO->: J/JK contribution 20.88 sec.
    5    -341.1940543662      1.10E-05 Normal BFGS step
TIMEINFO->: J/JK contribution 19.74 sec.
    6    -341.1940543662      2.23E-06 Normal BFGS step
TIMEINFO->: J/JK contribution 19.39 sec.
    7    -341.1940543662      9.39E-08 Normal BFGS step
TIMEINFO->: J/JK contribution 16.99 sec.
    8    -341.1940543662      2.22E-08 Normal BFGS step
TIMEINFO->: J/JK contribution 15.56 sec.
   GDM::WARNING energy changes are now smaller than effective accuracy.
   GDM::        calculation will continue, but THRESH should be increased
   GDM::        or SCF_CONVERGENCE decreased.
   GDM::        effective_thresh =   9.000000000000000E-011
    9    -341.1940543662      2.83E-09 Convergence criterion met
 ---------------------------------------
 SCF time:  CPU 232.72 s  wall 29.10 s
 SCF   energy in the final basis set = -341.19405437
 Total energy in the final basis set = -341.19405437
 
 Components of the MP2 correlation energy:
        aaaa  correlation energy =         0.0000000000 au
        abab  correlation energy =        -0.1024775790 au
        bbbb  correlation energy =         0.0000000000 au
        non-Brillouin singles    =        -0.0003325045 au

 Total  MP2   correlation energy =                    -0.10281008 au
        MP2         total energy =                  -341.29686445 au
 
 --------------------------------------------------------------
 
                    Orbital Energies (a.u.)
 --------------------------------------------------------------
 
 Alpha MOs
 -- Occupied --
-78.187  -6.931  -4.998  -4.998  -4.998  -0.684  -0.310  -0.310
 -0.309
 -- Virtual --
  0.030   0.049   0.049   0.051   0.117   0.117   0.118   0.118
  0.119   0.294   0.294   0.296   0.334   0.342   0.342   0.342
  0.342   0.342   0.378   0.378   0.379   0.379   0.379   0.379
  0.379   0.986   0.986   0.987   0.987   0.987   1.093   1.093
  1.093   1.093   1.093   1.093   1.093   1.124   1.124   1.125
  1.125   1.125   1.125   1.125   1.125   1.125   1.167   1.167
  1.167   1.441   2.644   2.644   2.644   2.644   2.644   2.785
  2.785   2.785   2.785   2.785   2.785   2.785   3.073   3.073
  3.073   3.073   3.073   3.073   3.073   3.073   3.073   4.243
  4.243   4.243   6.187   8.303   8.303   8.303   8.303   8.304
 13.773  13.773  13.773  15.937  15.937  15.937  15.937  15.937
 15.937  15.937  22.366  26.759  26.759  26.759  26.759  26.759
 39.481  39.481  39.481  46.352  46.352  46.352  46.352  46.352
 46.352  46.352  46.352  46.352  56.478  56.478  56.478  56.478
 56.478  56.478  56.478  67.074  79.409  79.409  79.409  79.409
 79.409 124.538 124.538 124.538 321.454
 
 Beta MOs
 -- Occupied --
-78.172  -6.915  -4.972  -4.972  -4.972  -0.513
 -- Virtual --
 -0.044  -0.044  -0.044   0.051   0.069   0.069   0.071   0.146
  0.146   0.147   0.147   0.147   0.324   0.324   0.325   0.369
  0.416   0.416   0.417   0.417   0.417   0.391   0.391   0.391
  0.391   0.391   0.391   0.391   1.050   1.050   1.050   1.050
  1.050   1.152   1.152   1.152   1.152   1.152   1.152   1.152
  1.154   1.154   1.154   1.154   1.154   1.154   1.154   1.154
  1.154   1.228   1.228   1.228   1.499   2.696   2.696   2.696
  2.696   2.696   2.870   2.870   2.870   2.870   2.870   2.870
  2.870   3.157   3.157   3.157   3.157   3.157   3.157   3.157
  3.157   3.157   4.306   4.306   4.307   6.243   8.350   8.350
  8.350   8.350   8.350  13.827  13.827  13.827  15.945  15.945
 15.945  15.945  15.945  15.945  15.945  22.398  26.786  26.786
 26.786  26.786  26.786  39.509  39.509  39.510  46.356  46.356
 46.356  46.356  46.356  46.356  46.356  46.356  46.356  56.492
 56.492  56.492  56.492  56.492  56.492  56.492  67.097  79.429
 79.429  79.429  79.429  79.429 124.552 124.552 124.552 321.468
 --------------------------------------------------------------
 
          Ground-State Mulliken Net Atomic Charges

     Atom                 Charge (a.u.)
  ----------------------------------------
      1 P                     0.000000
  ----------------------------------------
  Sum of atomic charges =     0.000000

 -----------------------------------------------------------------
                    Cartesian Multipole Moments
 -----------------------------------------------------------------
    Charge (ESU x 10^10)
                 0.0000
    Dipole Moment (Debye)
         X       0.0000      Y       0.0000      Z      -0.0000
       Tot       0.0000
    Quadrupole Moments (Debye-Ang)
        XX     -13.5043     XY       0.0000     YY     -13.4883
        XZ       0.0000     YZ       0.0000     ZZ     -13.5043
    Octopole Moments (Debye-Ang^2)
       XXX      -0.0000    XXY      -0.0000    XYY       0.0000
       YYY      -0.0000    XXZ       0.0000    XYZ      -0.0000
       YYZ       0.0000    XZZ       0.0000    YZZ       0.0000
       ZZZ      -0.0000
    Hexadecapole Moments (Debye-Ang^3)
      XXXX     -22.0654   XXXY      -0.0000   XXYY      -7.3403
      XYYY      -0.0000   YYYY     -21.9767   XXXZ       0.0000
      XXYZ       0.0000   XYYZ      -0.0000   YYYZ       0.0000
      XXZZ      -7.3551   XYZZ      -0.0000   YYZZ      -7.3403
      XZZZ      -0.0000   YZZZ       0.0000   ZZZZ     -22.0654
 -----------------------------------------------------------------

 STANDARD THERMODYNAMIC QUANTITIES AT   298.15 K  AND     1.00 ATM

   Translational Enthalpy:        0.889 kcal/mol
   Rotational Enthalpy:           0.000 kcal/mol
   Vibrational Enthalpy:          0.000 kcal/mol
   gas constant (RT):             0.592 kcal/mol
   Translational Entropy:        36.224  cal/mol.K
   Rotational Entropy:            0.000  cal/mol.K
   Vibrational Entropy:           0.000  cal/mol.K

   Total Enthalpy:                1.481 kcal/mol
   Total Entropy:                36.224  cal/mol.K

 -----------------------------------------------------------------
[...]
 13.773  13.773  13.773  15.936  15.936  15.936  15.936  15.936
 15.936  15.936  22.365  26.758  26.758  26.758  26.758  26.758
 39.480  39.480  39.480  46.351  46.351  46.351  46.351  46.351
 46.351  46.351  46.351  46.351  56.477  56.477  56.477  56.477
 56.477  56.477  56.477  67.074  79.408  79.408  79.408  79.408
 79.408 124.537 124.537 124.537 321.453
 
 Beta MOs
 -- Occupied --
-78.173  -6.916  -4.973  -4.973  -4.973  -0.513
 -- Virtual --
 -0.045  -0.045  -0.045   0.049   0.064   0.066   0.066   0.144
  0.144   0.144   0.145   0.145   0.321   0.323   0.323   0.367
  0.415   0.415   0.415   0.416   0.416   0.389   0.389   0.389
  0.389   0.389   0.390   0.390   1.049   1.049   1.049   1.049
  1.049   1.151   1.151   1.151   1.151   1.151   1.152   1.152
  1.153   1.153   1.153   1.153   1.153   1.153   1.153   1.153
  1.153   1.227   1.227   1.227   1.498   2.695   2.695   2.695
  2.696   2.696   2.869   2.869   2.869   2.869   2.869   2.869
  2.869   3.156   3.156   3.156   3.156   3.156   3.156   3.156
  3.156   3.156   4.306   4.306   4.306   6.242   8.349   8.349
  8.349   8.349   8.349  13.826  13.826  13.826  15.944  15.944
 15.944  15.944  15.944  15.944  15.944  22.398  26.785  26.785
 26.785  26.785  26.785  39.509  39.509  39.509  46.355  46.355
 46.355  46.355  46.355  46.355  46.355  46.355  46.355  56.491
 56.491  56.491  56.491  56.491  56.491  56.491  67.096  79.428
 79.428  79.428  79.428  79.428 124.551 124.551 124.551 321.467
 --------------------------------------------------------------
 
          Ground-State Mulliken Net Atomic Charges

     Atom                 Charge (a.u.)
  ----------------------------------------
      1 P                    -0.000000
  ----------------------------------------
  Sum of atomic charges =    -0.000000

 -----------------------------------------------------------------
                    Cartesian Multipole Moments
 -----------------------------------------------------------------
    Charge (ESU x 10^10)
                -0.0000
    Dipole Moment (Debye)
         X      -0.0000      Y       0.0000      Z      -0.0000
       Tot       0.0000
    Quadrupole Moments (Debye-Ang)
        XX     -13.5097     XY       0.0000     YY     -13.5097
        XZ      -0.0000     YZ       0.0000     ZZ     -13.5259
    Octopole Moments (Debye-Ang^2)
       XXX      -0.0000    XXY      -0.0000    XYY      -0.0000
       YYY      -0.0000    XXZ      -0.0000    XYZ      -0.0000
       YYZ       0.0000    XZZ      -0.0000    YZZ       0.0000
       ZZZ      -0.0000
    Hexadecapole Moments (Debye-Ang^3)
      XXXX     -22.1026   XXXY       0.0000   XXYY      -7.3675
      XYYY       0.0000   YYYY     -22.1026   XXXZ      -0.0000
      XXYZ       0.0000   XYYZ      -0.0000   YYYZ       0.0000
      XXZZ      -7.3826   XYZZ       0.0000   YYZZ      -7.3826
      XZZZ      -0.0000   YZZZ       0.0000   ZZZZ     -22.1930
 -----------------------------------------------------------------

 STANDARD THERMODYNAMIC QUANTITIES AT   298.15 K  AND     1.00 ATM

   Translational Enthalpy:        0.889 kcal/mol
   Rotational Enthalpy:           0.000 kcal/mol
   Vibrational Enthalpy:          0.000 kcal/mol
   gas constant (RT):             0.592 kcal/mol
   Translational Entropy:        36.224  cal/mol.K
   Rotational Entropy:            0.000  cal/mol.K
   Vibrational Entropy:           0.000  cal/mol.K

   Total Enthalpy:                1.481 kcal/mol
   Total Entropy:                36.224  cal/mol.K

 -----------------------------------------------------------------

Archival summary:
1\1\n0080.mhg0\SP\ROProcedureUnspecified\BasisUnspecified\1(4)\yhljason\FriOct901:49:512020FriOct901:49:512020\0\\#,ROProcedureUnspecified,BasisUnspecified,\\0,4\P\\\@

 Total job time:  94.81s(wall), 756.08s(cpu) 
 Fri Oct  9 01:49:51 2020

        *************************************************************
        *                                                           *
        *  Thank you very much for using Q-Chem.  Have a nice day.  *
        *                                                           *
        *************************************************************


 
User input: 8 of 8 
 
Q-Chem Developer Version!
                  Welcome to Q-Chem
     A Quantum Leap Into The Future Of Chemistry


 Q-Chem 5.1, Q-Chem, Inc., Pleasanton, CA (2018)

 Yihan Shao,  Zhengting Gan,  E. Epifanovsky,  A. T. B. Gilbert,  M. Wormit,  
 J. Kussmann,  A. W. Lange,  A. Behn,  Jia Deng,  Xintian Feng,  D. Ghosh,  
 M. Goldey,  P. R. Horn,  L. D. Jacobson,  I. Kaliman,  T. Kus,  A. Landau,  
 Jie Liu,  E. I. Proynov,  R. M. Richard,  R. P. Steele,  E. J. Sundstrom,  
 H. L. Woodcock III,  P. M. Zimmerman,  D. Zuev,  B. Albrecht,  E. Alguire,  
 S. A. Baeppler,  D. Barton,  Z. Benda,  Y. A. Bernard,  E. J. Berquist,  
 K. B. Bravaya,  H. Burton,  D. Casanova,  Chun-Min Chang,  Yunqing Chen,  
 A. Chien,  K. D. Closser,  M. P. Coons,  S. Coriani,  S. Dasgupta,  
 A. L. Dempwolff,  M. Diedenhofen,  Hainam Do,  R. G. Edgar,  Po-Tung Fang,  
 S. Faraji,  S. Fatehi,  Qingguo Feng,  K. D. Fenk,  J. Fosso-Tande,  
 Qinghui Ge,  A. Ghysels,  G. Gidofalvi,  J. Gomes,  J. Gonthier,  A. Gunina,  
 D. Hait,  M. W. D. Hanson-Heine,  P. H. P. Harbach,  A. W. Hauser,  
 J. E. Herr,  E. G. Hohenstein,  Z. C. Holden,  Kerwin Hui,  B. C. Huynh,  
 T.-C. Jagau,  Hyunjun Ji,  B. Kaduk,  K. Khistyaev,  Jaehoon Kim,  
 P. Klunzinger,  K. Koh,  D. Kosenkov,  L. Koulias,  T. Kowalczyk,  
 C. M. Krauter,  A. Kunitsa,  Ka Un Lao,  A. Laurent,  K. V. Lawler,  
 Joonho Lee,  D. Lefrancois,  S. Lehtola,  D. S. Levine,  Yi-Pei Li,  
 You-Sheng Lin,  Fenglai Liu,  E. Livshits,  A. Luenser,  P. Manohar,  
 E. Mansoor,  S. F. Manzer,  Shan-Ping Mao,  Yuezhi Mao,  N. Mardirossian,  
 A. V. Marenich,  T. Markovich,  L. A. Martinez-Martinez,  S. A. Maurer,  
 N. J. Mayhall,  S. C. McKenzie,  J.-M. Mewes,  A. F. Morrison,  
 J. W. Mullinax,  K. Nanda,  T. S. Nguyen-Beck,  R. Olivares-Amaya,  
 J. A. Parkhill,  T. M. Perrine,  F. Plasser,  P. Pokhilko,  S. Prager,  
 A. Prociuk,  E. Ramos,  D. R. Rehn,  F. Rob,  M. Schneider,  N. Sergueev,  
 S. M. Sharada,  S. Sharma,  D. W. Small,  T. Stauch,  T. Stein,  
 Yu-Chuan Su,  A. J. W. Thom,  A. Tkatchenko,  T. Tsuchimochi,  N. M. Tubman,  
 L. Vogt,  M. L. Vidal,  O. Vydrov,  M. A. Watson,  J. Wenzel,  
 M. de Wergifosse,  T. A. Wesolowski,  A. White,  J. Witte,  A. Yamada,  
 Jun Yang,  K. Yao,  S. Yeganeh,  S. R. Yost,  Zhi-Qiang You,  A. Zech,  
 Igor Ying Zhang,  Xing Zhang,  Yan Zhao,  Ying Zhu,  B. R. Brooks,  
 G. K. L. Chan,  C. J. Cramer,  M. S. Gordon,  W. J. Hehre,  A. Klamt,  
 M. W. Schmidt,  C. D. Sherrill,  D. G. Truhlar,  A. Aspuru-Guzik,  R. Baer,  
 A. T. Bell,  N. A. Besley,  Jeng-Da Chai,  A. E. DePrince, III,  
 R. A. DiStasio Jr.,  A. Dreuw,  B. D. Dunietz,  T. R. Furlani,  
 Chao-Ping Hsu,  Yousung Jung,  Jing Kong,  D. S. Lambrecht,  WanZhen Liang,  
 C. Ochsenfeld,  V. A. Rassolov,  L. V. Slipchenko,  J. E. Subotnik,  
 T. Van Voorhis,  J. M. Herbert,  A. I. Krylov,  P. M. W. Gill,  M. Head-Gordon

 Contributors to earlier versions of Q-Chem not listed above: 
 R. D. Adamson,  B. Austin,  J. Baker,  G. J. O. Beran,  K. Brandhorst,  
 S. T. Brown,  E. F. C. Byrd,  A. K. Chakraborty,  C.-L. Cheng,  
 Siu Hung Chien,  D. M. Chipman,  D. L. Crittenden,  H. Dachsel,  
 R. J. Doerksen,  A. D. Dutoi,  L. Fusti-Molnar,  W. A. Goddard III,  
 A. Golubeva-Zadorozhnaya,  S. R. Gwaltney,  G. Hawkins,  A. Heyden,  
 S. Hirata,  G. Kedziora,  F. J. Keil,  C. Kelley,  Jihan Kim,  R. A. King,  
 R. Z. Khaliullin,  P. P. Korambath,  W. Kurlancheek,  A. M. Lee,  M. S. Lee,  
 S. V. Levchenko,  Ching Yeh Lin,  D. Liotard,  R. C. Lochan,  I. Lotan,  
 P. E. Maslen,  N. Nair,  D. P. O'Neill,  D. Neuhauser,  E. Neuscamman,  
 C. M. Oana,  R. Olson,  B. Peters,  R. Peverati,  P. A. Pieniazek,  
 Y. M. Rhee,  J. Ritchie,  M. A. Rohrdanz,  E. Rosta,  N. J. Russ,  
 H. F. Schaefer III,  N. E. Schultz,  N. Shenvi,  A. C. Simmonett,  A. Sodt,  
 D. Stuck,  K. S. Thanthiriwatte,  V. Vanovschi,  Tao Wang,  A. Warshel,  
 C. F. Williams,  Q. Wu,  X. Xu,  W. Zhang

 Please cite Q-Chem as follows:
 Y. Shao et al., Mol. Phys. 113, 184-215 (2015)
 DOI: 10.1080/00268976.2014.952696

 Q-Chem 5.1.1 for Intel X86 EM64T Linux

 Parts of Q-Chem use Armadillo 8.300.2 (Tropical Shenanigans).
 http://arma.sourceforge.net/

 Q-Chem begins on Fri Oct  9 01:49:51 2020  

Host: n0080.mhg0
0

     Scratch files written to /local/scratch/users/yhljason/P_PWPB95-D3_aug-cc-pcVQZ.inp20201008191801//
The previous job contains 0 fragments, simply inherited here
Input Ideriv = 0
Curr. Ideriv = -1
Max.  Ideriv = 0
Input Ideriv = 1
Curr. Ideriv = 0
Max.  Ideriv = 0

Checking the input file for inconsistencies... 	...done.

--------------------------------------------------------------
User input:
--------------------------------------------------------------
$molecule
read
$end

$rem

jobtype sp
method PWPB95-D3
xc_grid 000099000590
basis aug-cc-pcVQZ
max_scf_cycles 200
thresh 14
scf_convergence 8
mem_total 128000
cc_memory 96000
cc_backend xm
mem_static 1500
symmetry false
sym_ignore true
scf_guess read
unrestricted false
scf_algorithm gdm
n_frozen_core 0
$end

$multipole_field
ZZ -0.0001
$end

--------------------------------------------------------------
 Adding empirical dispersion correction 
 ----------------------------------------------------------------
 Doing -D3(0) with
 s6  =   0.82000
 s8  =   0.70500
 rs6 =   1.55700
 rs8 =   1.00000
 -D3 energy without 3body term =      0.0000000000 hartrees
 ----------------------------------------------------------------
             Standard Nuclear Orientation (Angstroms)
    I     Atom           X                Y                Z
 ----------------------------------------------------------------
    1      P       0.0000000000     0.0000000000     0.0000000000
 ----------------------------------------------------------------
 Nuclear Repulsion Energy =     0.0000000000 hartrees
 There are        9 alpha and        6 beta electrons
 Requested basis set is aug-cc-pCVQZ
 There are 34 shells and 134 basis functions

 Total QAlloc Memory Limit 128000 MB
 Mega-Array Size      1467 MB
 MEM_STATIC part      1500 MB
 Applying Cartesian multipole field
    Component          Value
    ---------          -----
     (0,0,2)       -1.00000E-04
 A cutoff of  1.0D-14 yielded    595 shell pairs
 There are      9355 function pairs (     15897 Cartesian)
 
 -------------------------------------------------------
 OpenMP Integral Computing Module                       
 Release: version 1.0, May 2013, Q-Chem Inc. Pittsburgh 
 -------------------------------------------------------
 Integral Job Info:
 Integral job number is                      11
 Integral operator is                         1
 short-range coefficients                     0
 long-range coefficients              100000000
 Omega coefficients                           0
 if combine SR and LR in K                    0
 Integral screening is                        0
 Integral computing path is                   2
 max size of driver memory is           3200000
 size of driver memory is               1704330
 size of scratch memory is             29435624
 max col of scratch BK array              50625
 max len of scratch array in speh3         2114
 max len of scratch index in speh4           50
 max int batch size is                      520
 min int batch size is                       52
 fixed nKL is                                22
 max L of basis functions is                  4
 order of int derivative is                   0
 number of shells is                         34
 number of basis is                         174
 number of cartesian basis is               174
 number of contracted shell pairs           595
 number of primitive shell pairs           3860
 maxK2 (contraction) of shell pair          169
 max number of K2 of shell pair               1
 max number of CS2 of shell pair             49
 max number of PS2 of shell pair           1014
 mem total for path MDJ                  631630
 -------------------------------------------------------
 Smallest overlap matrix eigenvalue = 3.31E-05
 Guess MOs from SCF MO coefficient file
 Reading MOs from coefficient file
 Reading MOs from coefficient file
 A restricted hybrid HF-DFT SCF calculation will be
 performed using Geometric Direct Minimization
 Exchange:     0.5000 Hartree-Fock + 1.0000 PWPB95-D3
 Correlation:  0.7310 PWPB95-D3
 Using Euler-Maclaurin-Lebedev (99,590) quadrature formula
 Dispersion:   Grimme D3
 SCF converges when RMS gradient is below 1.0E-08
Using Q-Chem read-in guess as SCF_GUESS READ specified.

 using 8 threads for integral computing
 -------------------------------------------------------
 OpenMP Integral computing Module                
 Release: version 2.0, May 2017, Q-Chem Inc. Pleasanton 
 -------------------------------------------------------
TIMEINFO->: J/JK contribution 21.98 sec.
 -------------------------------------------------------
 OpenMP BLAS3 based DFT computing Module                
 Release: version 1.0, May 2013, Q-Chem Inc. Pittsburgh 
 -------------------------------------------------------
 ---------------------------------------
  Cycle       Energy        RMS Gradient
 ---------------------------------------
    1    -341.1940515594      1.78E-03 Normal BFGS step
TIMEINFO->: J/JK contribution 21.96 sec.
    2    -341.1940534925      1.25E-03 Normal BFGS step
TIMEINFO->: J/JK contribution 21.73 sec.
    3    -341.1940543475      1.03E-04 Normal BFGS step
TIMEINFO->: J/JK contribution 21.01 sec.
    4    -341.1940543645      3.46E-05 Normal BFGS step
TIMEINFO->: J/JK contribution 20.19 sec.
    5    -341.1940543662      1.10E-05 Normal BFGS step
TIMEINFO->: J/JK contribution 20.41 sec.
    6    -341.1940543662      2.23E-06 Normal BFGS step
TIMEINFO->: J/JK contribution 20.26 sec.
    7    -341.1940543662      1.01E-07 Normal BFGS step
TIMEINFO->: J/JK contribution 17.79 sec.
    8    -341.1940543662      2.07E-08 Normal BFGS step
TIMEINFO->: J/JK contribution 16.27 sec.
    9    -341.1940543662      2.83E-09 Convergence criterion met
 ---------------------------------------
 SCF time:  CPU 231.72 s  wall 28.98 s
 SCF   energy in the final basis set = -341.19405437
 Total energy in the final basis set = -341.19405437
 
 Components of the MP2 correlation energy:
        aaaa  correlation energy =         0.0000000000 au
        abab  correlation energy =        -0.1024775790 au
        bbbb  correlation energy =         0.0000000000 au
        non-Brillouin singles    =        -0.0003325045 au

 Total  MP2   correlation energy =                    -0.10281008 au
        MP2         total energy =                  -341.29686445 au
 
 --------------------------------------------------------------
 
                    Orbital Energies (a.u.)
 --------------------------------------------------------------
 
 Alpha MOs
 -- Occupied --
-78.187  -6.931  -4.998  -4.998  -4.998  -0.684  -0.310  -0.310
 -0.309
 -- Virtual --
  0.030   0.049   0.049   0.051   0.117   0.117   0.118   0.118
  0.119   0.294   0.294   0.296   0.334   0.342   0.342   0.342
  0.342   0.342   0.378   0.378   0.379   0.379   0.379   0.379
  0.379   0.986   0.986   0.987   0.987   0.987   1.093   1.093
  1.093   1.093   1.093   1.093   1.093   1.124   1.124   1.125
  1.125   1.125   1.125   1.125   1.125   1.125   1.167   1.167
  1.167   1.441   2.644   2.644   2.644   2.644   2.644   2.785
  2.785   2.785   2.785   2.785   2.785   2.785   3.073   3.073
  3.073   3.073   3.073   3.073   3.073   3.073   3.073   4.243
  4.243   4.243   6.187   8.303   8.303   8.303   8.303   8.304
 13.773  13.773  13.773  15.937  15.937  15.937  15.937  15.937
 15.937  15.937  22.366  26.759  26.759  26.759  26.759  26.759
 39.481  39.481  39.481  46.352  46.352  46.352  46.352  46.352
 46.352  46.352  46.352  46.352  56.478  56.478  56.478  56.478
 56.478  56.478  56.478  67.074  79.409  79.409  79.409  79.409
 79.409 124.538 124.538 124.538 321.454
 
 Beta MOs
 -- Occupied --
-78.172  -6.915  -4.972  -4.972  -4.972  -0.513
 -- Virtual --
 -0.044  -0.044  -0.044   0.051   0.069   0.069   0.071   0.146
  0.146   0.147   0.147   0.147   0.324   0.324   0.325   0.369
  0.416   0.416   0.417   0.417   0.417   0.391   0.391   0.391
  0.391   0.391   0.391   0.391   1.050   1.050   1.050   1.050
  1.050   1.152   1.152   1.152   1.152   1.152   1.152   1.152
  1.154   1.154   1.154   1.154   1.154   1.154   1.154   1.154
  1.154   1.228   1.228   1.228   1.499   2.696   2.696   2.696
  2.696   2.696   2.870   2.870   2.870   2.870   2.870   2.870
  2.870   3.157   3.157   3.157   3.157   3.157   3.157   3.157
  3.157   3.157   4.306   4.306   4.307   6.243   8.350   8.350
  8.350   8.350   8.350  13.827  13.827  13.827  15.945  15.945
 15.945  15.945  15.945  15.945  15.945  22.398  26.786  26.786
 26.786  26.786  26.786  39.509  39.509  39.510  46.356  46.356
 46.356  46.356  46.356  46.356  46.356  46.356  46.356  56.492
 56.492  56.492  56.492  56.492  56.492  56.492  67.097  79.429
 79.429  79.429  79.429  79.429 124.552 124.552 124.552 321.468
 --------------------------------------------------------------
 
          Ground-State Mulliken Net Atomic Charges

     Atom                 Charge (a.u.)
  ----------------------------------------
      1 P                    -0.000000
  ----------------------------------------
  Sum of atomic charges =    -0.000000

 -----------------------------------------------------------------
                    Cartesian Multipole Moments
 -----------------------------------------------------------------
    Charge (ESU x 10^10)
                -0.0000
    Dipole Moment (Debye)
         X       0.0000      Y       0.0000      Z       0.0000
       Tot       0.0000
    Quadrupole Moments (Debye-Ang)
        XX     -13.5043     XY      -0.0000     YY     -13.5043
        XZ       0.0000     YZ       0.0000     ZZ     -13.4883
    Octopole Moments (Debye-Ang^2)
       XXX       0.0000    XXY       0.0000    XYY       0.0000
       YYY       0.0000    XXZ      -0.0000    XYZ      -0.0000
       YYZ      -0.0000    XZZ      -0.0000    YZZ       0.0000
       ZZZ       0.0000
    Hexadecapole Moments (Debye-Ang^3)
      XXXX     -22.0654   XXXY      -0.0000   XXYY      -7.3551
      XYYY      -0.0000   YYYY     -22.0654   XXXZ       0.0000
      XXYZ       0.0000   XYYZ      -0.0000   YYYZ       0.0000
      XXZZ      -7.3403   XYZZ      -0.0000   YYZZ      -7.3403
      XZZZ       0.0000   YZZZ       0.0000   ZZZZ     -21.9767
 -----------------------------------------------------------------

 STANDARD THERMODYNAMIC QUANTITIES AT   298.15 K  AND     1.00 ATM

   Translational Enthalpy:        0.889 kcal/mol
   Rotational Enthalpy:           0.000 kcal/mol
   Vibrational Enthalpy:          0.000 kcal/mol
   gas constant (RT):             0.592 kcal/mol
   Translational Entropy:        36.224  cal/mol.K
   Rotational Entropy:            0.000  cal/mol.K
   Vibrational Entropy:           0.000  cal/mol.K

   Total Enthalpy:                1.481 kcal/mol
   Total Entropy:                36.224  cal/mol.K

 -----------------------------------------------------------------

Archival summary:
1\1\n0080.mhg0\SP\ROProcedureUnspecified\BasisUnspecified\1(4)\yhljason\FriOct901:51:262020FriOct901:51:262020\0\\#,ROProcedureUnspecified,BasisUnspecified,\\0,4\P\\\@

 Total job time:  94.58s(wall), 754.50s(cpu) 
 Fri Oct  9 01:51:26 2020

        *************************************************************
        *                                                           *
        *  Thank you very much for using Q-Chem.  Have a nice day.  *
        *                                                           *
        *************************************************************


