Q-Chem Developer Version!
                  Welcome to Q-Chem
     A Quantum Leap Into The Future Of Chemistry


 Q-Chem 5.1, Q-Chem, Inc., Pleasanton, CA (2018)

 Yihan Shao,  Zhengting Gan,  E. Epifanovsky,  A. T. B. Gilbert,  M. Wormit,  
 J. Kussmann,  A. W. Lange,  A. Behn,  Jia Deng,  Xintian Feng,  D. Ghosh,  
 M. Goldey,  P. R. Horn,  L. D. Jacobson,  I. Kaliman,  T. Kus,  A. Landau,  
 Jie Liu,  E. I. Proynov,  R. M. Richard,  R. P. Steele,  E. J. Sundstrom,  
 H. L. Woodcock III,  P. M. Zimmerman,  D. Zuev,  B. Albrecht,  E. Alguire,  
 S. A. Baeppler,  D. Barton,  Z. Benda,  Y. A. Bernard,  E. J. Berquist,  
 K. B. Bravaya,  H. Burton,  D. Casanova,  Chun-Min Chang,  Yunqing Chen,  
 A. Chien,  K. D. Closser,  M. P. Coons,  S. Coriani,  S. Dasgupta,  
 A. L. Dempwolff,  M. Diedenhofen,  Hainam Do,  R. G. Edgar,  Po-Tung Fang,  
 S. Faraji,  S. Fatehi,  Qingguo Feng,  K. D. Fenk,  J. Fosso-Tande,  
 Qinghui Ge,  A. Ghysels,  G. Gidofalvi,  J. Gomes,  J. Gonthier,  A. Gunina,  
 D. Hait,  M. W. D. Hanson-Heine,  P. H. P. Harbach,  A. W. Hauser,  
 J. E. Herr,  E. G. Hohenstein,  Z. C. Holden,  Kerwin Hui,  B. C. Huynh,  
 T.-C. Jagau,  Hyunjun Ji,  B. Kaduk,  K. Khistyaev,  Jaehoon Kim,  
 P. Klunzinger,  K. Koh,  D. Kosenkov,  L. Koulias,  T. Kowalczyk,  
 C. M. Krauter,  A. Kunitsa,  Ka Un Lao,  A. Laurent,  K. V. Lawler,  
 Joonho Lee,  D. Lefrancois,  S. Lehtola,  D. S. Levine,  Yi-Pei Li,  
 You-Sheng Lin,  Fenglai Liu,  E. Livshits,  A. Luenser,  P. Manohar,  
 E. Mansoor,  S. F. Manzer,  Shan-Ping Mao,  Yuezhi Mao,  N. Mardirossian,  
 A. V. Marenich,  T. Markovich,  L. A. Martinez-Martinez,  S. A. Maurer,  
 N. J. Mayhall,  S. C. McKenzie,  J.-M. Mewes,  A. F. Morrison,  
 J. W. Mullinax,  K. Nanda,  T. S. Nguyen-Beck,  R. Olivares-Amaya,  
 J. A. Parkhill,  T. M. Perrine,  F. Plasser,  P. Pokhilko,  S. Prager,  
 A. Prociuk,  E. Ramos,  D. R. Rehn,  F. Rob,  M. Schneider,  N. Sergueev,  
 S. M. Sharada,  S. Sharma,  D. W. Small,  T. Stauch,  T. Stein,  
 Yu-Chuan Su,  A. J. W. Thom,  A. Tkatchenko,  T. Tsuchimochi,  N. M. Tubman,  
 L. Vogt,  M. L. Vidal,  O. Vydrov,  M. A. Watson,  J. Wenzel,  
 M. de Wergifosse,  T. A. Wesolowski,  A. White,  J. Witte,  A. Yamada,  
 Jun Yang,  K. Yao,  S. Yeganeh,  S. R. Yost,  Zhi-Qiang You,  A. Zech,  
 Igor Ying Zhang,  Xing Zhang,  Yan Zhao,  Ying Zhu,  B. R. Brooks,  
 G. K. L. Chan,  C. J. Cramer,  M. S. Gordon,  W. J. Hehre,  A. Klamt,  
 M. W. Schmidt,  C. D. Sherrill,  D. G. Truhlar,  A. Aspuru-Guzik,  R. Baer,  
 A. T. Bell,  N. A. Besley,  Jeng-Da Chai,  A. E. DePrince, III,  
 R. A. DiStasio Jr.,  A. Dreuw,  B. D. Dunietz,  T. R. Furlani,  
 Chao-Ping Hsu,  Yousung Jung,  Jing Kong,  D. S. Lambrecht,  WanZhen Liang,  
 C. Ochsenfeld,  V. A. Rassolov,  L. V. Slipchenko,  J. E. Subotnik,  
 T. Van Voorhis,  J. M. Herbert,  A. I. Krylov,  P. M. W. Gill,  M. Head-Gordon

 Contributors to earlier versions of Q-Chem not listed above: 
 R. D. Adamson,  B. Austin,  J. Baker,  G. J. O. Beran,  K. Brandhorst,  
 S. T. Brown,  E. F. C. Byrd,  A. K. Chakraborty,  C.-L. Cheng,  
 Siu Hung Chien,  D. M. Chipman,  D. L. Crittenden,  H. Dachsel,  
 R. J. Doerksen,  A. D. Dutoi,  L. Fusti-Molnar,  W. A. Goddard III,  
 A. Golubeva-Zadorozhnaya,  S. R. Gwaltney,  G. Hawkins,  A. Heyden,  
 S. Hirata,  G. Kedziora,  F. J. Keil,  C. Kelley,  Jihan Kim,  R. A. King,  
 R. Z. Khaliullin,  P. P. Korambath,  W. Kurlancheek,  A. M. Lee,  M. S. Lee,  
 S. V. Levchenko,  Ching Yeh Lin,  D. Liotard,  R. C. Lochan,  I. Lotan,  
 P. E. Maslen,  N. Nair,  D. P. O'Neill,  D. Neuhauser,  E. Neuscamman,  
 C. M. Oana,  R. Olson,  B. Peters,  R. Peverati,  P. A. Pieniazek,  
 Y. M. Rhee,  J. Ritchie,  M. A. Rohrdanz,  E. Rosta,  N. J. Russ,  
 H. F. Schaefer III,  N. E. Schultz,  N. Shenvi,  A. C. Simmonett,  A. Sodt,  
 D. Stuck,  K. S. Thanthiriwatte,  V. Vanovschi,  Tao Wang,  A. Warshel,  
 C. F. Williams,  Q. Wu,  X. Xu,  W. Zhang

 Please cite Q-Chem as follows:
 Y. Shao et al., Mol. Phys. 113, 184-215 (2015)
 DOI: 10.1080/00268976.2014.952696

 Q-Chem 5.1.1 for Intel X86 EM64T Linux

 Parts of Q-Chem use Armadillo 8.300.2 (Tropical Shenanigans).
 http://arma.sourceforge.net/

 Q-Chem begins on Fri Oct  9 01:38:57 2020  

Host: n0045.mhg0
0

     Scratch files written to /local/scratch/users/yhljason/PH_PWPB95-D3_aug-cc-pcVTZ.inp20201008191800//
Input Ideriv = 0
Curr. Ideriv = -1
Max.  Ideriv = 0
Input Ideriv = 1
Curr. Ideriv = 0
Max.  Ideriv = 0

Checking the input file for inconsistencies... 	...done.

--------------------------------------------------------------
User input:
--------------------------------------------------------------
$molecule
0 3
H1	0.0000	0.0000	0.0000
P2	0.0000	0.0000	1.4223
$end

$rem
jobtype sp
method PWPB95-D3
xc_grid 000099000590
basis aug-cc-pcVTZ
max_scf_cycles 200
thresh 14
scf_convergence 8
scf_algorithm gdm
symmetry false
sym_ignore true
unrestricted false
gen_scfman true
internal_stability_iter 15
internal_stability_davidson_iter 200
mem_total 128000
cc_memory 96000
cc_backend xm
mem_static 1500
n_frozen_core 0
$end



--------------------------------------------------------------
 Adding empirical dispersion correction 
 ----------------------------------------------------------------
 Doing -D3(0) with
 s6  =   0.82000
 s8  =   0.70500
 rs6 =   1.55700
 rs8 =   1.00000
 -D3 energy without 3body term =     -0.0000004324 hartrees
 ----------------------------------------------------------------
             Standard Nuclear Orientation (Angstroms)
    I     Atom           X                Y                Z
 ----------------------------------------------------------------
    1      H       0.0000000000     0.0000000000     0.0000000000
    2      P       0.0000000000     0.0000000000     1.4223000000
 ----------------------------------------------------------------
 Nuclear Repulsion Energy =     5.5808602595 hartrees
 There are        9 alpha and        7 beta electrons
 Requested basis set is aug-cc-pCVTZ
 There are 32 shells and 98 basis functions

 Total QAlloc Memory Limit 128000 MB
 Mega-Array Size      1467 MB
 MEM_STATIC part      1500 MB

                       Distance Matrix (Angstroms)
             H (  1)
   P (  2)  1.422300
 
 A cutoff of  1.0D-14 yielded    528 shell pairs
 There are      5014 function pairs (      6825 Cartesian)
 
 -------------------------------------------------------
 OpenMP Integral Computing Module                       
 Release: version 1.0, May 2013, Q-Chem Inc. Pittsburgh 
 -------------------------------------------------------
 Integral Job Info:
 Integral job number is                      11
 Integral operator is                         1
 short-range coefficients                     0
 long-range coefficients              100000000
 Omega coefficients                           0
 if combine SR and LR in K                    0
 Integral screening is                        0
 Integral computing path is                   2
 max size of driver memory is            800000
 size of driver memory is                776718
 size of scratch memory is             29531563
 max col of scratch BK array              10000
 max len of scratch array in speh3          662
 max len of scratch index in speh4           32
 max int batch size is                      520
 min int batch size is                       52
 fixed nKL is                                31
 max L of basis functions is                  3
 order of int derivative is                   0
 number of shells is                         32
 number of basis is                         114
 number of cartesian basis is               114
 number of contracted shell pairs           528
 number of primitive shell pairs           3609
 maxK2 (contraction) of shell pair          169
 max number of K2 of shell pair               1
 max number of CS2 of shell pair             64
 max number of PS2 of shell pair           1014
 mem total for path MDJ                  541522
 -------------------------------------------------------
 Smallest overlap matrix eigenvalue = 2.52E-04

 Scale SEOQF with 1.000000e-01/1.000000e-01/1.000000e-01

 Standard Electronic Orientation quadrupole field applied
 Nucleus-field energy     =    -0.0000000033 hartrees
 Guess from superposition of atomic densities
 Warning:  Energy on first SCF cycle will be non-variational
 SAD guess density has 16.000000 electrons

 -----------------------------------------------------------------------
  General SCF calculation program by
  Eric Jon Sundstrom, Paul Horn, Yuezhi Mao, Dmitri Zuev, Alec White,
  David Stuck, Shaama M.S., Shane Yost, Joonho Lee, David Small,
  Daniel Levine, Susi Lehtola, Hugh Burton, Evgeny Epifanovsky
 -----------------------------------------------------------------------
 Exchange:     0.5000 Hartree-Fock + 1.0000 PWPB95-D3
 Correlation:  0.7310 PWPB95-D3
 Using Euler-Maclaurin-Lebedev (99,590) quadrature formula
 Dispersion:   Grimme D3
Running Object-Oriented ROKS (ROHF)
ROHF occupied orbitals are orthonormal
ROHF occupied orbitals are orthogonal to virtual orbitals
ROHF virtual orbitals are orthonormal
We will preform up to 15 macro iterations over saddle points until a stable solution is found
Energy prior to optimization (guess energy) = -341.718518646579
Begin Timing: Total SCF Calculation
Begin Timing: SCF Single Stationary Point Calculation
begin iterations for algorithm: GDM          
the SCF tolerance is set to 1.00e-08
    1    -341.7185186466      1.76e-01     00000  Descent step
    2    -341.7940842176      2.18e-02     00000  Normal BFGS step
    3    -341.7978035920      6.28e-03     00000  Normal BFGS step
    4    -341.7979433732      1.06e-03     00000  Normal BFGS step
    5    -341.7979511660      2.10e-04     00000  Normal BFGS step
    6    -341.7979515821      6.04e-05     00000  Normal BFGS step
    7    -341.7979516057      1.34e-05     00000  Normal BFGS step
    8    -341.7979516068      2.73e-06     00000  Normal BFGS step
    9    -341.7979516068      4.17e-07     00000  Normal BFGS step
   10    -341.7979516068      9.20e-08     00000  Normal BFGS step
   11    -341.7979516068      1.60e-08     00000  Normal BFGS step
   12    -341.7979516068      2.75e-09     00000 Convergence criterion met
The disked orbital energies are calculated using alpha and beta Focks
Timing for Single Stationary Point: 19.00s (wall), 145.37s (cpu)
Begin Timing: Stability
===================================================
Beginning Test for Internal Stability
===================================================
generating davidson guess vectors based on koopmans-like excitations
    1      5.85e-01     00000 Davidson Iteration
    2      1.73e-01     00000 Davidson Iteration
    3      1.44e-01     00000 Davidson Iteration
    4      5.26e-02     00000 Davidson Iteration
    5      1.46e-02     00000 Davidson Iteration
    6      4.52e-03     00000 Davidson Iteration
    7      9.26e-04     00000 Davidson Iteration
    8      1.69e-04     00000 Davidson Iteration
    9      3.15e-05     00000 Davidson Converged
converged_eigenvalues
   0.2455
   0.2455
Threshold for negative eigenvalues: -1.0e-05
solution was a local minimum (stable)
===================================================
End Test for Internal Stability
===================================================
Our SCF solution is stable!
The disked orbital energies are calculated using alpha and beta Focks
Timing for Total SCF: 43.00s (wall), 338.10s (cpu)
 Total energy in the final basis set =     -341.7979516068
<S^2> =          2.000000000
    ==================================================
              The end of Object-Oriented SCFman       
    ==================================================
 
 Components of the MP2 correlation energy:
        aaaa  correlation energy =         0.0000000000 au
        abab  correlation energy =        -0.0981225776 au
        bbbb  correlation energy =         0.0000000000 au
        non-Brillouin singles    =        -0.0019276589 au

 Total  MP2   correlation energy =                    -0.10005024 au
        MP2         total energy =                  -341.89800184 au
 
 --------------------------------------------------------------
 
                    Orbital Energies (a.u.)
 --------------------------------------------------------------
 
 Alpha MOs
 -- Occupied --
-78.176  -6.921  -4.989  -4.989  -4.979  -0.703  -0.404  -0.302
 -0.302
 -- Virtual --
  0.009   0.052   0.058   0.058   0.080   0.113   0.142   0.142
  0.148   0.148   0.249   0.262   0.286   0.286   0.421   0.414
  0.414   0.449   0.447   0.447   0.446   0.446   0.559   0.559
  0.559   0.559   0.612   0.674   0.674   0.707   0.846   0.949
  0.949   0.946   0.946   1.066   1.361   1.361   1.410   1.402
  1.402   1.387   1.387   1.670   1.678   1.678   1.674   1.674
  1.833   1.833   1.991   2.135   2.135   2.203   2.461   3.132
  3.745   3.745   3.969   3.969   4.180   4.180   4.252   4.848
  7.120   7.120   7.175   7.175   7.842   9.678   9.678   9.946
 11.955  26.610  26.610  26.613  26.613  26.622  26.622  26.627
 32.861  32.861  32.886  32.886  33.211  41.273  41.273  41.563
 70.498
 
 Beta MOs
 -- Occupied --
-78.166  -6.911  -4.967  -4.967  -4.974  -0.614  -0.363
 -- Virtual --
 -0.058  -0.058   0.017   0.059   0.075   0.075   0.101   0.120
  0.157   0.157   0.173   0.173   0.258   0.274   0.292   0.292
  0.431   0.450   0.450   0.474   0.489   0.489   0.520   0.520
  0.576   0.576   0.583   0.583   0.630   0.689   0.689   0.725
  0.860   0.955   0.955   0.956   0.956   1.082   1.382   1.382
  1.428   1.435   1.435   1.441   1.441   1.698   1.731   1.731
  1.747   1.747   1.880   1.880   2.011   2.182   2.182   2.238
  2.491   3.146   3.756   3.756   3.983   3.983   4.188   4.188
  4.260   4.857   7.139   7.139   7.188   7.188   7.858   9.716
  9.716   9.964  11.985  26.615  26.615  26.617  26.617  26.625
 26.625  26.630  32.882  32.882  32.898  32.898  33.220  41.291
 41.291  41.570  70.514
 --------------------------------------------------------------
 
          Ground-State Mulliken Net Atomic Charges

     Atom                 Charge (a.u.)
  ----------------------------------------
      1 H                     0.071812
      2 P                    -0.071812
  ----------------------------------------
  Sum of atomic charges =    -0.000000

 -----------------------------------------------------------------
                    Cartesian Multipole Moments
 -----------------------------------------------------------------
    Charge (ESU x 10^10)
                -0.0000
    Dipole Moment (Debye)
         X      -0.0000      Y      -0.0000      Z      -0.4378
       Tot       0.4378
    Quadrupole Moments (Debye-Ang)
        XX     -14.3978     XY      -0.0000     YY     -14.3978
        XZ      -0.0000     YZ      -0.0000     ZZ     -15.1267
    Octopole Moments (Debye-Ang^2)
       XXX      -0.0000    XXY      -0.0000    XYY      -0.0000
       YYY      -0.0000    XXZ     -19.4054    XYZ       0.0000
       YYZ     -19.4054    XZZ      -0.0000    YZZ      -0.0000
       ZZZ     -58.6170
    Hexadecapole Moments (Debye-Ang^3)
      XXXX     -23.1251   XXXY      -0.0000   XXYY      -7.7084
      XYYY      -0.0000   YYYY     -23.1251   XXXZ      -0.0000
      XXYZ      -0.0000   XYYZ      -0.0000   YYYZ      -0.0000
      XXZZ     -35.5008   XYZZ       0.0000   YYZZ     -35.5008
      XZZZ      -0.0000   YZZZ      -0.0000   ZZZZ    -186.0380
 -----------------------------------------------------------------
Archival summary:
1\1\n0045.mhg0\SP\ROProcedureUnspecified\BasisUnspecified\11(3)\yhljason\FriOct901:39:532020FriOct901:39:532020\0\\#,ROProcedureUnspecified,BasisUnspecified,\\0,3\H\P,1,1.4223\\\@

 Total job time:  55.36s(wall), 439.18s(cpu) 
 Fri Oct  9 01:39:53 2020

        *************************************************************
        *                                                           *
        *  Thank you very much for using Q-Chem.  Have a nice day.  *
        *                                                           *
        *************************************************************


 
User input: 2 of 83 of 8 
 
Q-Chem Developer Version!
                  Welcome to Q-Chem
     A Quantum Leap Into The Future Of Chemistry


 Q-Chem 5.1, Q-Chem, Inc., Pleasanton, CA (2018)

 Yihan Shao,  Zhengting Gan,  E. Epifanovsky,  A. T. B. Gilbert,  M. Wormit,  
 J. Kussmann,  A. W. Lange,  A. Behn,  Jia Deng,  Xintian Feng,  D. Ghosh,  
 M. Goldey,  P. R. Horn,  L. D. Jacobson,  I. Kaliman,  T. Kus,  A. Landau,  
 Jie Liu,  E. I. Proynov,  R. M. Richard,  R. P. Steele,  E. J. Sundstrom,  
 H. L. Woodcock III,  P. M. Zimmerman,  D. Zuev,  B. Albrecht,  E. Alguire,  
 S. A. Baeppler,  D. Barton,  Z. Benda,  Y. A. Bernard,  E. J. Berquist,  
 K. B. Bravaya,  H. Burton,  D. Casanova,  Chun-Min Chang,  Yunqing Chen,  
 A. Chien,  K. D. Closser,  M. P. Coons,  S. Coriani,  S. Dasgupta,  
 A. L. Dempwolff,  M. Diedenhofen,  Hainam Do,  R. G. Edgar,  Po-Tung Fang,  
 S. Faraji,  S. Fatehi,  Qingguo Feng,  K. D. Fenk,  J. Fosso-Tande,  
 Qinghui Ge,  A. Ghysels,  G. Gidofalvi,  J. Gomes,  J. Gonthier,  A. Gunina,  
 D. Hait,  M. W. D. Hanson-Heine,  P. H. P. Harbach,  A. W. Hauser,  
 J. E. Herr,  E. G. Hohenstein,  Z. C. Holden,  Kerwin Hui,  B. C. Huynh,  
 T.-C. Jagau,  Hyunjun Ji,  B. Kaduk,  K. Khistyaev,  Jaehoon Kim,  
 P. Klunzinger,  K. Koh,  D. Kosenkov,  L. Koulias,  T. Kowalczyk,  
 C. M. Krauter,  A. Kunitsa,  Ka Un Lao,  A. Laurent,  K. V. Lawler,  
 Joonho Lee,  D. Lefrancois,  S. Lehtola,  D. S. Levine,  Yi-Pei Li,  
 You-Sheng Lin,  Fenglai Liu,  E. Livshits,  A. Luenser,  P. Manohar,  
 E. Mansoor,  S. F. Manzer,  Shan-Ping Mao,  Yuezhi Mao,  N. Mardirossian,  
 A. V. Marenich,  T. Markovich,  L. A. Martinez-Martinez,  S. A. Maurer,  
 N. J. Mayhall,  S. C. McKenzie,  J.-M. Mewes,  A. F. Morrison,  
 J. W. Mullinax,  K. Nanda,  T. S. Nguyen-Beck,  R. Olivares-Amaya,  
 J. A. Parkhill,  T. M. Perrine,  F. Plasser,  P. Pokhilko,  S. Prager,  
 A. Prociuk,  E. Ramos,  D. R. Rehn,  F. Rob,  M. Schneider,  N. Sergueev,  
 S. M. Sharada,  S. Sharma,  D. W. Small,  T. Stauch,  T. Stein,  
 Yu-Chuan Su,  A. J. W. Thom,  A. Tkatchenko,  T. Tsuchimochi,  N. M. Tubman,  
 L. Vogt,  M. L. Vidal,  O. Vydrov,  M. A. Watson,  J. Wenzel,  
 M. de Wergifosse,  T. A. Wesolowski,  A. White,  J. Witte,  A. Yamada,  
 Jun Yang,  K. Yao,  S. Yeganeh,  S. R. Yost,  Zhi-Qiang You,  A. Zech,  
 Igor Ying Zhang,  Xing Zhang,  Yan Zhao,  Ying Zhu,  B. R. Brooks,  
 G. K. L. Chan,  C. J. Cramer,  M. S. Gordon,  W. J. Hehre,  A. Klamt,  
 M. W. Schmidt,  C. D. Sherrill,  D. G. Truhlar,  A. Aspuru-Guzik,  R. Baer,  
 A. T. Bell,  N. A. Besley,  Jeng-Da Chai,  A. E. DePrince, III,  
 R. A. DiStasio Jr.,  A. Dreuw,  B. D. Dunietz,  T. R. Furlani,  
 Chao-Ping Hsu,  Yousung Jung,  Jing Kong,  D. S. Lambrecht,  WanZhen Liang,  
 C. Ochsenfeld,  V. A. Rassolov,  L. V. Slipchenko,  J. E. Subotnik,  
 T. Van Voorhis,  J. M. Herbert,  A. I. Krylov,  P. M. W. Gill,  M. Head-Gordon

 Contributors to earlier versions of Q-Chem not listed above: 
 R. D. Adamson,  B. Austin,  J. Baker,  G. J. O. Beran,  K. Brandhorst,  
 S. T. Brown,  E. F. C. Byrd,  A. K. Chakraborty,  C.-L. Cheng,  
 Siu Hung Chien,  D. M. Chipman,  D. L. Crittenden,  H. Dachsel,  
 R. J. Doerksen,  A. D. Dutoi,  L. Fusti-Molnar,  W. A. Goddard III,  
 A. Golubeva-Zadorozhnaya,  S. R. Gwaltney,  G. Hawkins,  A. Heyden,  
 S. Hirata,  G. Kedziora,  F. J. Keil,  C. Kelley,  Jihan Kim,  R. A. King,  
 R. Z. Khaliullin,  P. P. Korambath,  W. Kurlancheek,  A. M. Lee,  M. S. Lee,  
 S. V. Levchenko,  Ching Yeh Lin,  D. Liotard,  R. C. Lochan,  I. Lotan,  
 P. E. Maslen,  N. Nair,  D. P. O'Neill,  D. Neuhauser,  E. Neuscamman,  
 C. M. Oana,  R. Olson,  B. Peters,  R. Peverati,  P. A. Pieniazek,  
 Y. M. Rhee,  J. Ritchie,  M. A. Rohrdanz,  E. Rosta,  N. J. Russ,  
 H. F. Schaefer III,  N. E. Schultz,  N. Shenvi,  A. C. Simmonett,  A. Sodt,  
 D. Stuck,  K. S. Thanthiriwatte,  V. Vanovschi,  Tao Wang,  A. Warshel,  
 C. F. Williams,  Q. Wu,  X. Xu,  W. Zhang

 Please cite Q-Chem as follows:
 Y. Shao et al., Mol. Phys. 113, 184-215 (2015)
 DOI: 10.1080/00268976.2014.952696

 Q-Chem 5.1.1 for Intel X86 EM64T Linux

 Parts of Q-Chem use Armadillo 8.300.2 (Tropical Shenanigans).
 http://arma.sourceforge.net/

 Q-Chem begins on Fri Oct  9 01:39:54 2020  

Host: n0045.mhg0
0

     Scratch files written to /local/scratch/users/yhljason/PH_PWPB95-D3_aug-cc-pcVTZ.inp20201008191800//
The previous job contains 0 fragments, simply inherited here
Input Ideriv = 0
Curr. Ideriv = -1
Max.  Ideriv = 0
Input Ideriv = 1
Curr. Ideriv = 0
Max.  Ideriv = 0

Checking the input file for inconsistencies... 	...done.

--------------------------------------------------------------
User input:
--------------------------------------------------------------
$molecule
read
$end

$rem

jobtype sp
method PWPB95-D3
xc_grid 000099000590
basis aug-cc-pcVTZ
max_scf_cycles 200
thresh 14
scf_convergence 8
mem_total 128000
cc_memory 96000
cc_backend xm
mem_static 1500
symmetry false
sym_ignore true
scf_guess read
unrestricted false
scf_algorithm gdm
n_frozen_core 0
$end

$multipole_field
XX 0.0001
$end


--------------------------------------------------------------
 Adding empirical dispersion correction 
 ----------------------------------------------------------------
 Doing -D3(0) with
 s6  =   0.82000
 s8  =   0.70500
 rs6 =   1.55700
 rs8 =   1.00000
 -D3 energy without 3body term =     -0.0000004324 hartrees
 ----------------------------------------------------------------
             Standard Nuclear Orientation (Angstroms)
    I     Atom           X                Y                Z
 ----------------------------------------------------------------
    1      H       0.0000000000     0.0000000000     0.0000000000
    2      P       0.0000000000     0.0000000000     1.4223000000
 ----------------------------------------------------------------
 Nuclear Repulsion Energy =     5.5808602595 hartrees
 There are        9 alpha and        7 beta electrons
 Requested basis set is aug-cc-pCVTZ
 There are 32 shells and 98 basis functions

 Total QAlloc Memory Limit 128000 MB
 Mega-Array Size      1467 MB
 MEM_STATIC part      1500 MB

                       Distance Matrix (Angstroms)
             H (  1)
   P (  2)  1.422300
 
 Applying Cartesian multipole field
    Component          Value
    ---------          -----
     (2,0,0)        1.00000E-04
 A cutoff of  1.0D-14 yielded    528 shell pairs
 There are      5014 function pairs (      6825 Cartesian)
 
 -------------------------------------------------------
 OpenMP Integral Computing Module                       
 Release: version 1.0, May 2013, Q-Chem Inc. Pittsburgh 
 -------------------------------------------------------
 Integral Job Info:
 Integral job number is                      11
 Integral operator is                         1
 short-range coefficients                     0
 long-range coefficients              100000000
 Omega coefficients                           0
 if combine SR and LR in K                    0
 Integral screening is                        0
 Integral computing path is                   2
 max size of driver memory is            800000
 size of driver memory is                776718
 size of scratch memory is             29531563
 max col of scratch BK array              10000
 max len of scratch array in speh3          662
 max len of scratch index in speh4           32
 max int batch size is                      520
 min int batch size is                       52
 fixed nKL is                                31
 max L of basis functions is                  3
 order of int derivative is                   0
 number of shells is                         32
 number of basis is                         114
 number of cartesian basis is               114
 number of contracted shell pairs           528
 number of primitive shell pairs           3609
 maxK2 (contraction) of shell pair          169
 max number of K2 of shell pair               1
 max number of CS2 of shell pair             64
 max number of PS2 of shell pair           1014
 mem total for path MDJ                  541522
 -------------------------------------------------------
 Smallest overlap matrix eigenvalue = 2.52E-04
 Guess MOs from SCF MO coefficient file
 Reading MOs from coefficient file
 Reading MOs from coefficient file
 A restricted hybrid HF-DFT SCF calculation will be
 performed using Geometric Direct Minimization
 Exchange:     0.5000 Hartree-Fock + 1.0000 PWPB95-D3
 Correlation:  0.7310 PWPB95-D3
 Using Euler-Maclaurin-Lebedev (99,590) quadrature formula
 Dispersion:   Grimme D3
 SCF converges when RMS gradient is below 1.0E-08
Using Q-Chem read-in guess as SCF_GUESS READ specified.

 using 8 threads for integral computing
 -------------------------------------------------------
 OpenMP Integral computing Module                
 Release: version 2.0, May 2017, Q-Chem Inc. Pleasanton 
 -------------------------------------------------------
TIMEINFO->: J/JK contribution 5.62 sec.
 -------------------------------------------------------
 OpenMP BLAS3 based DFT computing Module                
 Release: version 1.0, May 2013, Q-Chem Inc. Pittsburgh 
 -------------------------------------------------------
 ---------------------------------------
  Cycle       Energy        RMS Gradient
 ---------------------------------------
    1    -341.7990220504      9.81E-04 Normal BFGS step
TIMEINFO->: J/JK contribution 5.56 sec.
    2    -341.7990225746      6.03E-04 Normal BFGS step
TIMEINFO->: J/JK contribution 5.52 sec.
    3    -341.7990227513      4.68E-05 Normal BFGS step
TIMEINFO->: J/JK contribution 5.47 sec.
    4    -341.7990227543      1.76E-05 Normal BFGS step
TIMEINFO->: J/JK contribution 5.61 sec.
    5    -341.7990227548      2.74E-06 Normal BFGS step
TIMEINFO->: J/JK contribution 5.50 sec.
    6    -341.7990227548      8.37E-07 Normal BFGS step
TIMEINFO->: J/JK contribution 5.56 sec.
    7    -341.7990227548      2.54E-07 Normal BFGS step
TIMEINFO->: J/JK contribution 5.48 sec.
    8    -341.7990227548      7.23E-08 Normal BFGS step
TIMEINFO->: J/JK contribution 5.47 sec.
    9    -341.7990227548      5.40E-09 Convergence criterion met
 ---------------------------------------
 SCF time:  CPU 109.26 s  wall 13.76 s
 SCF   energy in the final basis set = -341.79902275
 Total energy in the final basis set = -341.79902275
 
 Components of the MP2 correlation energy:
        aaaa  correlation energy =         0.0000000000 au
        abab  correlation energy =        -0.0981219607 au
        bbbb  correlation energy =         0.0000000000 au
        non-Brillouin singles    =        -0.0019259802 au

 Total  MP2   correlation energy =                    -0.10004794 au
        MP2         total energy =                  -341.89907070 au
 
 --------------------------------------------------------------
 
                    Orbital Energies (a.u.)
 --------------------------------------------------------------
 
 Alpha MOs
 -- Occupied --
-78.177  -6.921  -4.980  -4.990  -4.990  -0.703  -0.405  -0.302
 -0.302
 -- Virtual --
  0.007   0.050   0.055   0.057   0.078   0.111   0.139   0.140
  0.143   0.143   0.247   0.262   0.284   0.285   0.421   0.413
  0.414   0.449   0.447   0.448   0.448   0.448   0.558   0.558
  0.558   0.558   0.611   0.673   0.673   0.707   0.846   0.946
  0.946   0.949   0.949   1.066   1.360   1.360   1.387   1.387
  1.402   1.402   1.409   1.669   1.678   1.678   1.674   1.674
  1.832   1.832   1.991   2.135   2.136   2.203   2.461   3.132
  3.745   3.745   3.969   3.969   4.180   4.180   4.252   4.848
  7.119   7.119   7.175   7.175   7.841   9.677   9.677   9.946
 11.955  26.610  26.610  26.613  26.613  26.622  26.622  26.627
 32.861  32.861  32.885  32.885  33.210  41.273  41.273  41.563
 70.497
 
 Beta MOs
 -- Occupied --
-78.167  -6.911  -4.975  -4.967  -4.967  -0.615  -0.363
 -- Virtual --
 -0.059  -0.059   0.016   0.058   0.072   0.074   0.101   0.119
  0.156   0.157   0.173   0.173   0.258   0.273   0.290   0.291
  0.431   0.449   0.450   0.473   0.488   0.488   0.518   0.518
  0.575   0.575   0.582   0.582   0.630   0.688   0.689   0.724
  0.859   0.955   0.955   0.955   0.955   1.081   1.382   1.382
  1.440   1.440   1.435   1.435   1.427   1.698   1.731   1.731
  1.746   1.746   1.879   1.879   2.011   2.181   2.181   2.238
  2.490   3.146   3.755   3.755   3.982   3.982   4.188   4.188
  4.260   4.857   7.139   7.139   7.188   7.188   7.858   9.716
  9.716   9.964  11.985  26.615  26.615  26.617  26.617  26.625
 26.625  26.629  32.881  32.881  32.897  32.897  33.220  41.290
 41.291  41.569  70.514
 --------------------------------------------------------------
 
          Ground-State Mulliken Net Atomic Charges

     Atom                 Charge (a.u.)
  ----------------------------------------
      1 H                     0.072973
      2 P                    -0.072973
  ----------------------------------------
  Sum of atomic charges =    -0.000000

 -----------------------------------------------------------------
                    Cartesian Multipole Moments
 -----------------------------------------------------------------
    Charge (ESU x 10^10)
                 0.0000
    Dipole Moment (Debye)
         X      -0.0000      Y      -0.0000      Z      -0.4386
       Tot       0.4386
    Quadrupole Moments (Debye-Ang)
        XX     -14.4168     XY       0.0000     YY     -14.4020
        XZ      -0.0000     YZ      -0.0000     ZZ     -15.1299
    Octopole Moments (Debye-Ang^2)
       XXX      -0.0000    XXY      -0.0000    XYY      -0.0000
       YYY      -0.0000    XXZ     -19.4326    XYZ      -0.0000
       YYZ     -19.4109    XZZ      -0.0000    YZZ      -0.0000
       ZZZ     -58.6297
    Hexadecapole Moments (Debye-Ang^3)
      XXXX     -23.2366   XXXY       0.0000   XXYY      -7.7320
      XYYY       0.0000   YYYY     -23.1553   XXXZ      -0.0000
      XXYZ      -0.0000   XYYZ      -0.0000   YYYZ      -0.0000
      XXZZ     -35.5606   XYZZ       0.0000   YYZZ     -35.5159
      XZZZ      -0.0000   YZZZ      -0.0000   ZZZZ    -186.0889
 -----------------------------------------------------------------
Archival summary:
1\1\n0045.mhg0\SP\ROProcedureUnspecified\BasisUnspecified\11(3)\yhljason\FriOct901:40:192020FriOct901:40:192020\0\\#,ROProcedureUnspecified,BasisUnspecified,\\0,3\H\P,1,1.4223\\\@

 Total job time:  25.01s(wall), 198.22s(cpu) 
 Fri Oct  9 01:40:19 2020

        *************************************************************
        *                                                           *
        *  Thank you very much for using Q-Chem.  Have a nice day.  *
        *                                                           *
        *************************************************************


 
User input: 4 of 8 
 
Q-Chem Developer Version!
                  Welcome to Q-Chem
     A Quantum Leap Into The Future Of Chemistry


 Q-Chem 5.1, Q-Chem, Inc., Pleasanton, CA (2018)

 Yihan Shao,  Zhengting Gan,  E. Epifanovsky,  A. T. B. Gilbert,  M. Wormit,  
 J. Kussmann,  A. W. Lange,  A. Behn,  Jia Deng,  Xintian Feng,  D. Ghosh,  
 M. Goldey,  P. R. Horn,  L. D. Jacobson,  I. Kaliman,  T. Kus,  A. Landau,  
 Jie Liu,  E. I. Proynov,  R. M. Richard,  R. P. Steele,  E. J. Sundstrom,  
 H. L. Woodcock III,  P. M. Zimmerman,  D. Zuev,  B. Albrecht,  E. Alguire,  
 S. A. Baeppler,  D. Barton,  Z. Benda,  Y. A. Bernard,  E. J. Berquist,  
 K. B. Bravaya,  H. Burton,  D. Casanova,  Chun-Min Chang,  Yunqing Chen,  
 A. Chien,  K. D. Closser,  M. P. Coons,  S. Coriani,  S. Dasgupta,  
 A. L. Dempwolff,  M. Diedenhofen,  Hainam Do,  R. G. Edgar,  Po-Tung Fang,  
 S. Faraji,  S. Fatehi,  Qingguo Feng,  K. D. Fenk,  J. Fosso-Tande,  
 Qinghui Ge,  A. Ghysels,  G. Gidofalvi,  J. Gomes,  J. Gonthier,  A. Gunina,  
 D. Hait,  M. W. D. Hanson-Heine,  P. H. P. Harbach,  A. W. Hauser,  
 J. E. Herr,  E. G. Hohenstein,  Z. C. Holden,  Kerwin Hui,  B. C. Huynh,  
 T.-C. Jagau,  Hyunjun Ji,  B. Kaduk,  K. Khistyaev,  Jaehoon Kim,  
 P. Klunzinger,  K. Koh,  D. Kosenkov,  L. Koulias,  T. Kowalczyk,  
 C. M. Krauter,  A. Kunitsa,  Ka Un Lao,  A. Laurent,  K. V. Lawler,  
 Joonho Lee,  D. Lefrancois,  S. Lehtola,  D. S. Levine,  Yi-Pei Li,  
 You-Sheng Lin,  Fenglai Liu,  E. Livshits,  A. Luenser,  P. Manohar,  
 E. Mansoor,  S. F. Manzer,  Shan-Ping Mao,  Yuezhi Mao,  N. Mardirossian,  
 A. V. Marenich,  T. Markovich,  L. A. Martinez-Martinez,  S. A. Maurer,  
 N. J. Mayhall,  S. C. McKenzie,  J.-M. Mewes,  A. F. Morrison,  
 J. W. Mullinax,  K. Nanda,  T. S. Nguyen-Beck,  R. Olivares-Amaya,  
 J. A. Parkhill,  T. M. Perrine,  F. Plasser,  P. Pokhilko,  S. Prager,  
 A. Prociuk,  E. Ramos,  D. R. Rehn,  F. Rob,  M. Schneider,  N. Sergueev,  
 S. M. Sharada,  S. Sharma,  D. W. Small,  T. Stauch,  T. Stein,  
 Yu-Chuan Su,  A. J. W. Thom,  A. Tkatchenko,  T. Tsuchimochi,  N. M. Tubman,  
 L. Vogt,  M. L. Vidal,  O. Vydrov,  M. A. Watson,  J. Wenzel,  
 M. de Wergifosse,  T. A. Wesolowski,  A. White,  J. Witte,  A. Yamada,  
 Jun Yang,  K. Yao,  S. Yeganeh,  S. R. Yost,  Zhi-Qiang You,  A. Zech,  
 Igor Ying Zhang,  Xing Zhang,  Yan Zhao,  Ying Zhu,  B. R. Brooks,  
 G. K. L. Chan,  C. J. Cramer,  M. S. Gordon,  W. J. Hehre,  A. Klamt,  
 M. W. Schmidt,  C. D. Sherrill,  D. G. Truhlar,  A. Aspuru-Guzik,  R. Baer,  
 A. T. Bell,  N. A. Besley,  Jeng-Da Chai,  A. E. DePrince, III,  
 R. A. DiStasio Jr.,  A. Dreuw,  B. D. Dunietz,  T. R. Furlani,  
 Chao-Ping Hsu,  Yousung Jung,  Jing Kong,  D. S. Lambrecht,  WanZhen Liang,  
 C. Ochsenfeld,  V. A. Rassolov,  L. V. Slipchenko,  J. E. Subotnik,  
 T. Van Voorhis,  J. M. Herbert,  A. I. Krylov,  P. M. W. Gill,  M. Head-Gordon

 Contributors to earlier versions of Q-Chem not listed above: 
 R. D. Adamson,  B. Austin,  J. Baker,  G. J. O. Beran,  K. Brandhorst,  
 S. T. Brown,  E. F. C. Byrd,  A. K. Chakraborty,  C.-L. Cheng,  
 Siu Hung Chien,  D. M. Chipman,  D. L. Crittenden,  H. Dachsel,  
 R. J. Doerksen,  A. D. Dutoi,  L. Fusti-Molnar,  W. A. Goddard III,  
 A. Golubeva-Zadorozhnaya,  S. R. Gwaltney,  G. Hawkins,  A. Heyden,  
 S. Hirata,  G. Kedziora,  F. J. Keil,  C. Kelley,  Jihan Kim,  R. A. King,  
 R. Z. Khaliullin,  P. P. Korambath,  W. Kurlancheek,  A. M. Lee,  M. S. Lee,  
 S. V. Levchenko,  Ching Yeh Lin,  D. Liotard,  R. C. Lochan,  I. Lotan,  
 P. E. Maslen,  N. Nair,  D. P. O'Neill,  D. Neuhauser,  E. Neuscamman,  
 C. M. Oana,  R. Olson,  B. Peters,  R. Peverati,  P. A. Pieniazek,  
 Y. M. Rhee,  J. Ritchie,  M. A. Rohrdanz,  E. Rosta,  N. J. Russ,  
 H. F. Schaefer III,  N. E. Schultz,  N. Shenvi,  A. C. Simmonett,  A. Sodt,  
 D. Stuck,  K. S. Thanthiriwatte,  V. Vanovschi,  Tao Wang,  A. Warshel,  
 C. F. Williams,  Q. Wu,  X. Xu,  W. Zhang

 Please cite Q-Chem as follows:
 Y. Shao et al., Mol. Phys. 113, 184-215 (2015)
 DOI: 10.1080/00268976.2014.952696

 Q-Chem 5.1.1 for Intel X86 EM64T Linux

 Parts of Q-Chem use Armadillo 8.300.2 (Tropical Shenanigans).
 http://arma.sourceforge.net/

 Q-Chem begins on Fri Oct  9 01:40:19 2020  

Host: n0045.mhg0
0

     Scratch files written to /local/scratch/users/yhljason/PH_PWPB95-D3_aug-cc-pcVTZ.inp20201008191800//
The previous job contains 0 fragments, simply inherited here
Input Ideriv = 0
Curr. Ideriv = -1
Max.  Ideriv = 0
Input Ideriv = 1
Curr. Ideriv = 0
Max.  Ideriv = 0

Checking the input file for inconsistencies... 	...done.

--------------------------------------------------------------
User input:
--------------------------------------------------------------
$molecule
read
$end

$rem

jobtype sp
method PWPB95-D3
xc_grid 000099000590
basis aug-cc-pcVTZ
max_scf_cycles 200
thresh 14
scf_convergence 8
mem_total 128000
cc_memory 96000
cc_backend xm
mem_static 1500
symmetry false
sym_ignore true
scf_guess read
unrestricted false
scf_algorithm gdm
n_frozen_core 0
$end

$multipole_field
XX -0.0001
$end


--------------------------------------------------------------
 Adding empirical dispersion correction 
 ----------------------------------------------------------------
 Doing -D3(0) with
 s6  =   0.82000
 s8  =   0.70500
 rs6 =   1.55700
 rs8 =   1.00000
 -D3 energy without 3body term =     -0.0000004324 hartrees
 ----------------------------------------------------------------
             Standard Nuclear Orientation (Angstroms)
    I     Atom           X                Y                Z
 ----------------------------------------------------------------
    1      H       0.0000000000     0.0000000000     0.0000000000
    2      P       0.0000000000     0.0000000000     1.4223000000
 ----------------------------------------------------------------
 Nuclear Repulsion Energy =     5.5808602595 hartrees
 There are        9 alpha and        7 beta electrons
 Requested basis set is aug-cc-pCVTZ
 There are 32 shells and 98 basis functions

 Total QAlloc Memory Limit 128000 MB
 Mega-Array Size      1467 MB
 MEM_STATIC part      1500 MB

                       Distance Matrix (Angstroms)
             H (  1)
   P (  2)  1.422300
 
 Applying Cartesian multipole field
    Component          Value
    ---------          -----
     (2,0,0)       -1.00000E-04
 A cutoff of  1.0D-14 yielded    528 shell pairs
 There are      5014 function pairs (      6825 Cartesian)
 
 -------------------------------------------------------
 OpenMP Integral Computing Module                       
 Release: version 1.0, May 2013, Q-Chem Inc. Pittsburgh 
 -------------------------------------------------------
 Integral Job Info:
 Integral job number is                      11
 Integral operator is                         1
 short-range coefficients                     0
 long-range coefficients              100000000
 Omega coefficients                           0
 if combine SR and LR in K                    0
 Integral screening is                        0
 Integral computing path is                   2
 max size of driver memory is            800000
 size of driver memory is                776718
 size of scratch memory is             29531563
 max col of scratch BK array              10000
 max len of scratch array in speh3          662
 max len of scratch index in speh4           32
 max int batch size is                      520
 min int batch size is                       52
 fixed nKL is                                31
 max L of basis functions is                  3
 order of int derivative is                   0
 number of shells is                         32
 number of basis is                         114
 number of cartesian basis is               114
 number of contracted shell pairs           528
 number of primitive shell pairs           3609
 maxK2 (contraction) of shell pair          169
 max number of K2 of shell pair               1
 max number of CS2 of shell pair             64
 max number of PS2 of shell pair           1014
 mem total for path MDJ                  541522
 -------------------------------------------------------
 Smallest overlap matrix eigenvalue = 2.52E-04
 Guess MOs from SCF MO coefficient file
 Reading MOs from coefficient file
 Reading MOs from coefficient file
 A restricted hybrid HF-DFT SCF calculation will be
 performed using Geometric Direct Minimization
 Exchange:     0.5000 Hartree-Fock + 1.0000 PWPB95-D3
 Correlation:  0.7310 PWPB95-D3
 Using Euler-Maclaurin-Lebedev (99,590) quadrature formula
 Dispersion:   Grimme D3
 SCF converges when RMS gradient is below 1.0E-08
Using Q-Chem read-in guess as SCF_GUESS READ specified.

 using 8 threads for integral computing
 -------------------------------------------------------
 OpenMP Integral computing Module                
 Release: version 2.0, May 2017, Q-Chem Inc. Pleasanton 
 -------------------------------------------------------
TIMEINFO->: J/JK contribution 5.68 sec.
 -------------------------------------------------------
 OpenMP BLAS3 based DFT computing Module                
 Release: version 1.0, May 2013, Q-Chem Inc. Pittsburgh 
 -------------------------------------------------------
 ---------------------------------------
  Cycle       Energy        RMS Gradient
 ---------------------------------------
    1    -341.7968790443      1.95E-03 Normal BFGS step
TIMEINFO->: J/JK contribution 5.53 sec.
    2    -341.7968811739      1.16E-03 Normal BFGS step
TIMEINFO->: J/JK contribution 5.46 sec.
    3    -341.7968818478      9.47E-05 Normal BFGS step
TIMEINFO->: J/JK contribution 5.48 sec.
    4    -341.7968818600      3.59E-05 Normal BFGS step
TIMEINFO->: J/JK contribution 5.59 sec.
    5    -341.7968818617      5.14E-06 Normal BFGS step
TIMEINFO->: J/JK contribution 5.48 sec.
    6    -341.7968818618      1.71E-06 Normal BFGS step
TIMEINFO->: J/JK contribution 5.63 sec.
    7    -341.7968818618      5.00E-07 Normal BFGS step
TIMEINFO->: J/JK contribution 5.44 sec.
    8    -341.7968818618      1.36E-07 Normal BFGS step
TIMEINFO->: J/JK contribution 5.43 sec.
    9    -341.7968818618      1.03E-08 Normal BFGS step
TIMEINFO->: J/JK contribution 5.24 sec.
   10    -341.7968818618      3.27E-09 Convergence criterion met
 ---------------------------------------
 SCF time:  CPU 120.85 s  wall 15.22 s
 SCF   energy in the final basis set = -341.79688186
 Total energy in the final basis set = -341.79688186
 
 Components of the MP2 correlation energy:
        aaaa  correlation energy =         0.0000000000 au
        abab  correlation energy =        -0.0981232000 au
        bbbb  correlation energy =         0.0000000000 au
        non-Brillouin singles    =        -0.0019293240 au

 Total  MP2   correlation energy =                    -0.10005252 au
        MP2         total energy =                  -341.89693439 au
 
 --------------------------------------------------------------
 
                    Orbital Energies (a.u.)
 --------------------------------------------------------------
 
 Alpha MOs
 -- Occupied --
-78.176  -6.920  -4.979  -4.989  -4.989  -0.702  -0.405  -0.302
 -0.301
 -- Virtual --
  0.010   0.052   0.059   0.061   0.080   0.114   0.141   0.141
  0.145   0.145   0.248   0.264   0.286   0.287   0.422   0.415
  0.416   0.450   0.448   0.449   0.449   0.449   0.559   0.559
  0.560   0.560   0.612   0.674   0.674   0.708   0.847   0.947
  0.947   0.949   0.950   1.067   1.361   1.361   1.388   1.388
  1.403   1.403   1.410   1.670   1.678   1.678   1.675   1.675
  1.833   1.833   1.992   2.136   2.136   2.204   2.461   3.133
  3.745   3.745   3.970   3.970   4.181   4.181   4.253   4.848
  7.120   7.120   7.175   7.175   7.842   9.678   9.678   9.946
 11.955  26.611  26.611  26.614  26.614  26.623  26.623  26.628
 32.862  32.862  32.886  32.886  33.211  41.273  41.273  41.564
 70.498
 
 Beta MOs
 -- Occupied --
-78.166  -6.910  -4.974  -4.966  -4.966  -0.614  -0.362
 -- Virtual --
 -0.058  -0.058   0.019   0.060   0.076   0.078   0.102   0.122
  0.158   0.158   0.175   0.175   0.259   0.274   0.292   0.293
  0.432   0.451   0.452   0.474   0.489   0.489   0.519   0.519
  0.577   0.577   0.584   0.584   0.631   0.689   0.690   0.725
  0.860   0.956   0.956   0.956   0.956   1.082   1.383   1.383
  1.441   1.441   1.435   1.436   1.428   1.698   1.731   1.731
  1.747   1.747   1.880   1.880   2.012   2.182   2.182   2.239
  2.491   3.146   3.756   3.756   3.983   3.983   4.188   4.189
  4.260   4.857   7.140   7.140   7.189   7.189   7.859   9.717
  9.717   9.964  11.986  26.616  26.616  26.617  26.617  26.626
 26.626  26.630  32.882  32.882  32.898  32.898  33.221  41.291
 41.291  41.570  70.514
 --------------------------------------------------------------
 
          Ground-State Mulliken Net Atomic Charges

     Atom                 Charge (a.u.)
  ----------------------------------------
      1 H                     0.070666
      2 P                    -0.070666
  ----------------------------------------
  Sum of atomic charges =    -0.000000

 -----------------------------------------------------------------
                    Cartesian Multipole Moments
 -----------------------------------------------------------------
    Charge (ESU x 10^10)
                -0.0000
    Dipole Moment (Debye)
         X       0.0000      Y      -0.0000      Z      -0.4371
       Tot       0.4371
    Quadrupole Moments (Debye-Ang)
        XX     -14.3791     XY      -0.0000     YY     -14.3938
        XZ       0.0000     YZ      -0.0000     ZZ     -15.1234
    Octopole Moments (Debye-Ang^2)
       XXX       0.0000    XXY      -0.0000    XYY       0.0000
       YYY      -0.0000    XXZ     -19.3785    XYZ      -0.0000
       YYZ     -19.3999    XZZ       0.0000    YZZ      -0.0000
       ZZZ     -58.6046
    Hexadecapole Moments (Debye-Ang^3)
      XXXX     -23.0160   XXXY      -0.0000   XXYY      -7.6852
      XYYY      -0.0000   YYYY     -23.0955   XXXZ       0.0000
      XXYZ      -0.0000   XYYZ      -0.0000   YYYZ      -0.0000
      XXZZ     -35.4420   XYZZ      -0.0000   YYZZ     -35.4861
      XZZZ       0.0000   YZZZ      -0.0000   ZZZZ    -185.9880
 -----------------------------------------------------------------
Archival summary:
1\1\n0045.mhg0\SP\ROProcedureUnspecified\BasisUnspecified\11(3)\yhljason\FriOct901:40:462020FriOct901:40:462020\0\\#,ROProcedureUnspecified,BasisUnspecified,\\0,3\H\P,1,1.4223\\\@

 Total job time:  26.42s(wall), 209.62s(cpu) 
 Fri Oct  9 01:40:46 2020

        *************************************************************
        *                                                           *
        *  Thank you very much for using Q-Chem.  Have a nice day.  *
        *                                                           *
        *************************************************************


 
User input: 5 of 8 
 
Q-Chem Developer Version!
                  Welcome to Q-Chem
     A Quantum Leap Into The Future Of Chemistry


 Q-Chem 5.1, Q-Chem, Inc., Pleasanton, CA (2018)

 Yihan Shao,  Zhengting Gan,  E. Epifanovsky,  A. T. B. Gilbert,  M. Wormit,  
 J. Kussmann,  A. W. Lange,  A. Behn,  Jia Deng,  Xintian Feng,  D. Ghosh,  
 M. Goldey,  P. R. Horn,  L. D. Jacobson,  I. Kaliman,  T. Kus,  A. Landau,  
 Jie Liu,  E. I. Proynov,  R. M. Richard,  R. P. Steele,  E. J. Sundstrom,  
 H. L. Woodcock III,  P. M. Zimmerman,  D. Zuev,  B. Albrecht,  E. Alguire,  
 S. A. Baeppler,  D. Barton,  Z. Benda,  Y. A. Bernard,  E. J. Berquist,  
 K. B. Bravaya,  H. Burton,  D. Casanova,  Chun-Min Chang,  Yunqing Chen,  
 A. Chien,  K. D. Closser,  M. P. Coons,  S. Coriani,  S. Dasgupta,  
 A. L. Dempwolff,  M. Diedenhofen,  Hainam Do,  R. G. Edgar,  Po-Tung Fang,  
 S. Faraji,  S. Fatehi,  Qingguo Feng,  K. D. Fenk,  J. Fosso-Tande,  
 Qinghui Ge,  A. Ghysels,  G. Gidofalvi,  J. Gomes,  J. Gonthier,  A. Gunina,  
 D. Hait,  M. W. D. Hanson-Heine,  P. H. P. Harbach,  A. W. Hauser,  
 J. E. Herr,  E. G. Hohenstein,  Z. C. Holden,  Kerwin Hui,  B. C. Huynh,  
 T.-C. Jagau,  Hyunjun Ji,  B. Kaduk,  K. Khistyaev,  Jaehoon Kim,  
 P. Klunzinger,  K. Koh,  D. Kosenkov,  L. Koulias,  T. Kowalczyk,  
 C. M. Krauter,  A. Kunitsa,  Ka Un Lao,  A. Laurent,  K. V. Lawler,  
 Joonho Lee,  D. Lefrancois,  S. Lehtola,  D. S. Levine,  Yi-Pei Li,  
 You-Sheng Lin,  Fenglai Liu,  E. Livshits,  A. Luenser,  P. Manohar,  
 E. Mansoor,  S. F. Manzer,  Shan-Ping Mao,  Yuezhi Mao,  N. Mardirossian,  
 A. V. Marenich,  T. Markovich,  L. A. Martinez-Martinez,  S. A. Maurer,  
 N. J. Mayhall,  S. C. McKenzie,  J.-M. Mewes,  A. F. Morrison,  
 J. W. Mullinax,  K. Nanda,  T. S. Nguyen-Beck,  R. Olivares-Amaya,  
 J. A. Parkhill,  T. M. Perrine,  F. Plasser,  P. Pokhilko,  S. Prager,  
 A. Prociuk,  E. Ramos,  D. R. Rehn,  F. Rob,  M. Schneider,  N. Sergueev,  
 S. M. Sharada,  S. Sharma,  D. W. Small,  T. Stauch,  T. Stein,  
 Yu-Chuan Su,  A. J. W. Thom,  A. Tkatchenko,  T. Tsuchimochi,  N. M. Tubman,  
 L. Vogt,  M. L. Vidal,  O. Vydrov,  M. A. Watson,  J. Wenzel,  
 M. de Wergifosse,  T. A. Wesolowski,  A. White,  J. Witte,  A. Yamada,  
 Jun Yang,  K. Yao,  S. Yeganeh,  S. R. Yost,  Zhi-Qiang You,  A. Zech,  
 Igor Ying Zhang,  Xing Zhang,  Yan Zhao,  Ying Zhu,  B. R. Brooks,  
 G. K. L. Chan,  C. J. Cramer,  M. S. Gordon,  W. J. Hehre,  A. Klamt,  
 M. W. Schmidt,  C. D. Sherrill,  D. G. Truhlar,  A. Aspuru-Guzik,  R. Baer,  
 A. T. Bell,  N. A. Besley,  Jeng-Da Chai,  A. E. DePrince, III,  
 R. A. DiStasio Jr.,  A. Dreuw,  B. D. Dunietz,  T. R. Furlani,  
 Chao-Ping Hsu,  Yousung Jung,  Jing Kong,  D. S. Lambrecht,  WanZhen Liang,  
 C. Ochsenfeld,  V. A. Rassolov,  L. V. Slipchenko,  J. E. Subotnik,  
 T. Van Voorhis,  J. M. Herbert,  A. I. Krylov,  P. M. W. Gill,  M. Head-Gordon

 Contributors to earlier versions of Q-Chem not listed above: 
 R. D. Adamson,  B. Austin,  J. Baker,  G. J. O. Beran,  K. Brandhorst,  
 S. T. Brown,  E. F. C. Byrd,  A. K. Chakraborty,  C.-L. Cheng,  
 Siu Hung Chien,  D. M. Chipman,  D. L. Crittenden,  H. Dachsel,  
 R. J. Doerksen,  A. D. Dutoi,  L. Fusti-Molnar,  W. A. Goddard III,  
 A. Golubeva-Zadorozhnaya,  S. R. Gwaltney,  G. Hawkins,  A. Heyden,  
 S. Hirata,  G. Kedziora,  F. J. Keil,  C. Kelley,  Jihan Kim,  R. A. King,  
 R. Z. Khaliullin,  P. P. Korambath,  W. Kurlancheek,  A. M. Lee,  M. S. Lee,  
 S. V. Levchenko,  Ching Yeh Lin,  D. Liotard,  R. C. Lochan,  I. Lotan,  
 P. E. Maslen,  N. Nair,  D. P. O'Neill,  D. Neuhauser,  E. Neuscamman,  
 C. M. Oana,  R. Olson,  B. Peters,  R. Peverati,  P. A. Pieniazek,  
 Y. M. Rhee,  J. Ritchie,  M. A. Rohrdanz,  E. Rosta,  N. J. Russ,  
 H. F. Schaefer III,  N. E. Schultz,  N. Shenvi,  A. C. Simmonett,  A. Sodt,  
 D. Stuck,  K. S. Thanthiriwatte,  V. Vanovschi,  Tao Wang,  A. Warshel,  
 C. F. Williams,  Q. Wu,  X. Xu,  W. Zhang

 Please cite Q-Chem as follows:
 Y. Shao et al., Mol. Phys. 113, 184-215 (2015)
 DOI: 10.1080/00268976.2014.952696

 Q-Chem 5.1.1 for Intel X86 EM64T Linux

 Parts of Q-Chem use Armadillo 8.300.2 (Tropical Shenanigans).
 http://arma.sourceforge.net/

 Q-Chem begins on Fri Oct  9 01:40:46 2020  

Host: n0045.mhg0
0

     Scratch files written to /local/scratch/users/yhljason/PH_PWPB95-D3_aug-cc-pcVTZ.inp20201008191800//
The previous job contains 0 fragments, simply inherited here
Input Ideriv = 0
Curr. Ideriv = -1
Max.  Ideriv = 0
Input Ideriv = 1
Curr. Ideriv = 0
Max.  Ideriv = 0

Checking the input file for inconsistencies... 	...done.

--------------------------------------------------------------
User input:
--------------------------------------------------------------
$molecule
read
$end

$rem

jobtype sp
method PWPB95-D3
xc_grid 000099000590
basis aug-cc-pcVTZ
max_scf_cycles 200
thresh 14
scf_convergence 8
mem_total 128000
cc_memory 96000
cc_backend xm
mem_static 1500
symmetry false
sym_ignore true
scf_guess read
unrestricted false
scf_algorithm gdm
n_frozen_core 0
$end

$multipole_field
YY 0.0001
$end


--------------------------------------------------------------
 Adding empirical dispersion correction 
 ----------------------------------------------------------------
 Doing -D3(0) with
 s6  =   0.82000
 s8  =   0.70500
 rs6 =   1.55700
 rs8 =   1.00000
 -D3 energy without 3body term =     -0.0000004324 hartrees
 ----------------------------------------------------------------
             Standard Nuclear Orientation (Angstroms)
    I     Atom           X                Y                Z
 ----------------------------------------------------------------
    1      H       0.0000000000     0.0000000000     0.0000000000
    2      P       0.0000000000     0.0000000000     1.4223000000
 ----------------------------------------------------------------
 Nuclear Repulsion Energy =     5.5808602595 hartrees
 There are        9 alpha and        7 beta electrons
 Requested basis set is aug-cc-pCVTZ
 There are 32 shells and 98 basis functions

 Total QAlloc Memory Limit 128000 MB
 Mega-Array Size      1467 MB
 MEM_STATIC part      1500 MB

                       Distance Matrix (Angstroms)
             H (  1)
   P (  2)  1.422300
 
 Applying Cartesian multipole field
    Component          Value
    ---------          -----
     (0,2,0)        1.00000E-04
 A cutoff of  1.0D-14 yielded    528 shell pairs
 There are      5014 function pairs (      6825 Cartesian)
 
 -------------------------------------------------------
 OpenMP Integral Computing Module                       
 Release: version 1.0, May 2013, Q-Chem Inc. Pittsburgh 
 -------------------------------------------------------
 Integral Job Info:
 Integral job number is                      11
 Integral operator is                         1
 short-range coefficients                     0
 long-range coefficients              100000000
 Omega coefficients                           0
 if combine SR and LR in K                    0
 Integral screening is                        0
 Integral computing path is                   2
 max size of driver memory is            800000
 size of driver memory is                776718
 size of scratch memory is             29531563
 max col of scratch BK array              10000
 max len of scratch array in speh3          662
 max len of scratch index in speh4           32
 max int batch size is                      520
 min int batch size is                       52
 fixed nKL is                                31
 max L of basis functions is                  3
 order of int derivative is                   0
 number of shells is                         32
 number of basis is                         114
 number of cartesian basis is               114
 number of contracted shell pairs           528
 number of primitive shell pairs           3609
 maxK2 (contraction) of shell pair          169
 max number of K2 of shell pair               1
 max number of CS2 of shell pair             64
 max number of PS2 of shell pair           1014
 mem total for path MDJ                  541522
 -------------------------------------------------------
 Smallest overlap matrix eigenvalue = 2.52E-04
 Guess MOs from SCF MO coefficient file
 Reading MOs from coefficient file
 Reading MOs from coefficient file
 A restricted hybrid HF-DFT SCF calculation will be
 performed using Geometric Direct Minimization
 Exchange:     0.5000 Hartree-Fock + 1.0000 PWPB95-D3
 Correlation:  0.7310 PWPB95-D3
 Using Euler-Maclaurin-Lebedev (99,590) quadrature formula
 Dispersion:   Grimme D3
 SCF converges when RMS gradient is below 1.0E-08
Using Q-Chem read-in guess as SCF_GUESS READ specified.

 using 8 threads for integral computing
 -------------------------------------------------------
 OpenMP Integral computing Module                
 Release: version 2.0, May 2017, Q-Chem Inc. Pleasanton 
 -------------------------------------------------------
TIMEINFO->: J/JK contribution 5.85 sec.
 -------------------------------------------------------
 OpenMP BLAS3 based DFT computing Module                
 Release: version 1.0, May 2013, Q-Chem Inc. Pittsburgh 
 -------------------------------------------------------
 ---------------------------------------
  Cycle       Energy        RMS Gradient
 ---------------------------------------
    1    -341.7990210525      1.31E-03 Normal BFGS step
TIMEINFO->: J/JK contribution 5.78 sec.
    2    -341.7990221101      9.20E-04 Normal BFGS step
TIMEINFO->: J/JK contribution 5.73 sec.
    3    -341.7990227501      3.74E-05 Normal BFGS step
TIMEINFO->: J/JK contribution 5.72 sec.
    4    -341.7990227541      1.74E-05 Normal BFGS step
TIMEINFO->: J/JK contribution 5.56 sec.
    5    -341.7990227548      3.61E-06 Normal BFGS step
TIMEINFO->: J/JK contribution 5.47 sec.
    6    -341.7990227548      1.01E-06 Normal BFGS step
TIMEINFO->: J/JK contribution 5.40 sec.
    7    -341.7990227548      1.03E-07 Normal BFGS step
TIMEINFO->: J/JK contribution 5.34 sec.
   GDM::WARNING energy changes are now smaller than effective accuracy.
   GDM::        calculation will continue, but THRESH should be increased
   GDM::        or SCF_CONVERGENCE decreased.
   GDM::        effective_thresh =   9.000000000000000E-011
    8    -341.7990227548      3.25E-08 Normal BFGS step
TIMEINFO->: J/JK contribution 5.36 sec.
    9    -341.7990227548      2.35E-09 Convergence criterion met
 ---------------------------------------
 SCF time:  CPU 110.06 s  wall 13.88 s
 SCF   energy in the final basis set = -341.79902275
 Total energy in the final basis set = -341.79902275
 
 Components of the MP2 correlation energy:
        aaaa  correlation energy =         0.0000000000 au
        abab  correlation energy =        -0.0981219607 au
        bbbb  correlation energy =         0.0000000000 au
        non-Brillouin singles    =        -0.0019259802 au

 Total  MP2   correlation energy =                    -0.10004794 au
        MP2         total energy =                  -341.89907070 au
 
 --------------------------------------------------------------
 
                    Orbital Energies (a.u.)
 --------------------------------------------------------------
 
 Alpha MOs
 -- Occupied --
-78.177  -6.921  -4.980  -4.990  -4.990  -0.703  -0.405  -0.302
 -0.302
 -- Virtual --
  0.007   0.050   0.055   0.057   0.078   0.111   0.139   0.140
  0.143   0.143   0.247   0.262   0.284   0.285   0.421   0.413
  0.414   0.449   0.447   0.448   0.448   0.448   0.558   0.558
  0.558   0.558   0.611   0.673   0.673   0.707   0.846   0.946
  0.946   0.949   0.949   1.066   1.360   1.360   1.387   1.387
  1.402   1.402   1.409   1.669   1.678   1.678   1.674   1.674
  1.832   1.832   1.991   2.135   2.136   2.203   2.461   3.132
  3.745   3.745   3.969   3.969   4.180   4.180   4.252   4.848
  7.119   7.119   7.175   7.175   7.841   9.677   9.677   9.946
 11.955  26.610  26.610  26.613  26.613  26.622  26.622  26.627
 32.861  32.861  32.885  32.885  33.210  41.273  41.273  41.563
 70.497
 
 Beta MOs
 -- Occupied --
-78.167  -6.911  -4.975  -4.967  -4.967  -0.615  -0.363
 -- Virtual --
 -0.059  -0.059   0.016   0.058   0.072   0.074   0.101   0.119
  0.156   0.157   0.173   0.173   0.258   0.273   0.290   0.291
  0.431   0.449   0.450   0.473   0.488   0.488   0.518   0.518
  0.575   0.575   0.582   0.582   0.630   0.688   0.689   0.724
  0.859   0.955   0.955   0.955   0.955   1.081   1.382   1.382
  1.440   1.440   1.435   1.435   1.427   1.698   1.731   1.731
  1.746   1.746   1.879   1.879   2.011   2.181   2.181   2.238
  2.490   3.146   3.755   3.755   3.982   3.982   4.188   4.188
  4.260   4.857   7.139   7.139   7.188   7.188   7.858   9.716
  9.716   9.964  11.985  26.615  26.615  26.617  26.617  26.625
 26.625  26.629  32.881  32.881  32.897  32.897  33.220  41.290
 41.291  41.569  70.514
 --------------------------------------------------------------
 
          Ground-State Mulliken Net Atomic Charges

     Atom                 Charge (a.u.)
  ----------------------------------------
      1 H                     0.072973
      2 P                    -0.072973
  ----------------------------------------
  Sum of atomic charges =    -0.000000

 -----------------------------------------------------------------
                    Cartesian Multipole Moments
 -----------------------------------------------------------------
    Charge (ESU x 10^10)
                -0.0000
    Dipole Moment (Debye)
         X      -0.0000      Y      -0.0000      Z      -0.4386
       Tot       0.4386
    Quadrupole Moments (Debye-Ang)
        XX     -14.4020     XY       0.0000     YY     -14.4168
        XZ      -0.0000     YZ      -0.0000     ZZ     -15.1299
    Octopole Moments (Debye-Ang^2)
       XXX      -0.0000    XXY       0.0000    XYY      -0.0000
       YYY      -0.0000    XXZ     -19.4109    XYZ       0.0000
       YYZ     -19.4326    XZZ      -0.0000    YZZ      -0.0000
       ZZZ     -58.6297
    Hexadecapole Moments (Debye-Ang^3)
      XXXX     -23.1553   XXXY       0.0000   XXYY      -7.7320
      XYYY       0.0000   YYYY     -23.2366   XXXZ      -0.0000
      XXYZ      -0.0000   XYYZ      -0.0000   YYYZ      -0.0000
      XXZZ     -35.5159   XYZZ       0.0000   YYZZ     -35.5606
      XZZZ      -0.0000   YZZZ      -0.0000   ZZZZ    -186.0889
 -----------------------------------------------------------------
Archival summary:
1\1\n0045.mhg0\SP\ROProcedureUnspecified\BasisUnspecified\11(3)\yhljason\FriOct901:41:112020FriOct901:41:112020\0\\#,ROProcedureUnspecified,BasisUnspecified,\\0,3\H\P,1,1.4223\\\@

 Total job time:  25.08s(wall), 198.68s(cpu) 
 Fri Oct  9 01:41:11 2020

        *************************************************************
        *                                                           *
        *  Thank you very much for using Q-Chem.  Have a nice day.  *
        *                                                           *
        *************************************************************


 
User input: 6 of 8 
 
Q-Chem Developer Version!
                  Welcome to Q-Chem
     A Quantum Leap Into The Future Of Chemistry


 Q-Chem 5.1, Q-Chem, Inc., Pleasanton, CA (2018)

 Yihan Shao,  Zhengting Gan,  E. Epifanovsky,  A. T. B. Gilbert,  M. Wormit,  
 J. Kussmann,  A. W. Lange,  A. Behn,  Jia Deng,  Xintian Feng,  D. Ghosh,  
 M. Goldey,  P. R. Horn,  L. D. Jacobson,  I. Kaliman,  T. Kus,  A. Landau,  
 Jie Liu,  E. I. Proynov,  R. M. Richard,  R. P. Steele,  E. J. Sundstrom,  
 H. L. Woodcock III,  P. M. Zimmerman,  D. Zuev,  B. Albrecht,  E. Alguire,  
 S. A. Baeppler,  D. Barton,  Z. Benda,  Y. A. Bernard,  E. J. Berquist,  
 K. B. Bravaya,  H. Burton,  D. Casanova,  Chun-Min Chang,  Yunqing Chen,  
 A. Chien,  K. D. Closser,  M. P. Coons,  S. Coriani,  S. Dasgupta,  
 A. L. Dempwolff,  M. Diedenhofen,  Hainam Do,  R. G. Edgar,  Po-Tung Fang,  
 S. Faraji,  S. Fatehi,  Qingguo Feng,  K. D. Fenk,  J. Fosso-Tande,  
 Qinghui Ge,  A. Ghysels,  G. Gidofalvi,  J. Gomes,  J. Gonthier,  A. Gunina,  
 D. Hait,  M. W. D. Hanson-Heine,  P. H. P. Harbach,  A. W. Hauser,  
 J. E. Herr,  E. G. Hohenstein,  Z. C. Holden,  Kerwin Hui,  B. C. Huynh,  
 T.-C. Jagau,  Hyunjun Ji,  B. Kaduk,  K. Khistyaev,  Jaehoon Kim,  
 P. Klunzinger,  K. Koh,  D. Kosenkov,  L. Koulias,  T. Kowalczyk,  
 C. M. Krauter,  A. Kunitsa,  Ka Un Lao,  A. Laurent,  K. V. Lawler,  
 Joonho Lee,  D. Lefrancois,  S. Lehtola,  D. S. Levine,  Yi-Pei Li,  
 You-Sheng Lin,  Fenglai Liu,  E. Livshits,  A. Luenser,  P. Manohar,  
 E. Mansoor,  S. F. Manzer,  Shan-Ping Mao,  Yuezhi Mao,  N. Mardirossian,  
 A. V. Marenich,  T. Markovich,  L. A. Martinez-Martinez,  S. A. Maurer,  
 N. J. Mayhall,  S. C. McKenzie,  J.-M. Mewes,  A. F. Morrison,  
 J. W. Mullinax,  K. Nanda,  T. S. Nguyen-Beck,  R. Olivares-Amaya,  
 J. A. Parkhill,  T. M. Perrine,  F. Plasser,  P. Pokhilko,  S. Prager,  
 A. Prociuk,  E. Ramos,  D. R. Rehn,  F. Rob,  M. Schneider,  N. Sergueev,  
 S. M. Sharada,  S. Sharma,  D. W. Small,  T. Stauch,  T. Stein,  
 Yu-Chuan Su,  A. J. W. Thom,  A. Tkatchenko,  T. Tsuchimochi,  N. M. Tubman,  
 L. Vogt,  M. L. Vidal,  O. Vydrov,  M. A. Watson,  J. Wenzel,  
 M. de Wergifosse,  T. A. Wesolowski,  A. White,  J. Witte,  A. Yamada,  
 Jun Yang,  K. Yao,  S. Yeganeh,  S. R. Yost,  Zhi-Qiang You,  A. Zech,  
 Igor Ying Zhang,  Xing Zhang,  Yan Zhao,  Ying Zhu,  B. R. Brooks,  
 G. K. L. Chan,  C. J. Cramer,  M. S. Gordon,  W. J. Hehre,  A. Klamt,  
 M. W. Schmidt,  C. D. Sherrill,  D. G. Truhlar,  A. Aspuru-Guzik,  R. Baer,  
 A. T. Bell,  N. A. Besley,  Jeng-Da Chai,  A. E. DePrince, III,  
 R. A. DiStasio Jr.,  A. Dreuw,  B. D. Dunietz,  T. R. Furlani,  
 Chao-Ping Hsu,  Yousung Jung,  Jing Kong,  D. S. Lambrecht,  WanZhen Liang,  
 C. Ochsenfeld,  V. A. Rassolov,  L. V. Slipchenko,  J. E. Subotnik,  
 T. Van Voorhis,  J. M. Herbert,  A. I. Krylov,  P. M. W. Gill,  M. Head-Gordon

 Contributors to earlier versions of Q-Chem not listed above: 
 R. D. Adamson,  B. Austin,  J. Baker,  G. J. O. Beran,  K. Brandhorst,  
 S. T. Brown,  E. F. C. Byrd,  A. K. Chakraborty,  C.-L. Cheng,  
 Siu Hung Chien,  D. M. Chipman,  D. L. Crittenden,  H. Dachsel,  
 R. J. Doerksen,  A. D. Dutoi,  L. Fusti-Molnar,  W. A. Goddard III,  
 A. Golubeva-Zadorozhnaya,  S. R. Gwaltney,  G. Hawkins,  A. Heyden,  
 S. Hirata,  G. Kedziora,  F. J. Keil,  C. Kelley,  Jihan Kim,  R. A. King,  
 R. Z. Khaliullin,  P. P. Korambath,  W. Kurlancheek,  A. M. Lee,  M. S. Lee,  
 S. V. Levchenko,  Ching Yeh Lin,  D. Liotard,  R. C. Lochan,  I. Lotan,  
 P. E. Maslen,  N. Nair,  D. P. O'Neill,  D. Neuhauser,  E. Neuscamman,  
 C. M. Oana,  R. Olson,  B. Peters,  R. Peverati,  P. A. Pieniazek,  
 Y. M. Rhee,  J. Ritchie,  M. A. Rohrdanz,  E. Rosta,  N. J. Russ,  
 H. F. Schaefer III,  N. E. Schultz,  N. Shenvi,  A. C. Simmonett,  A. Sodt,  
 D. Stuck,  K. S. Thanthiriwatte,  V. Vanovschi,  Tao Wang,  A. Warshel,  
 C. F. Williams,  Q. Wu,  X. Xu,  W. Zhang

 Please cite Q-Chem as follows:
 Y. Shao et al., Mol. Phys. 113, 184-215 (2015)
 DOI: 10.1080/00268976.2014.952696

 Q-Chem 5.1.1 for Intel X86 EM64T Linux

 Parts of Q-Chem use Armadillo 8.300.2 (Tropical Shenanigans).
 http://arma.sourceforge.net/

 Q-Chem begins on Fri Oct  9 01:41:11 2020  

Host: n0045.mhg0
0

     Scratch files written to /local/scratch/users/yhljason/PH_PWPB95-D3_aug-cc-pcVTZ.inp20201008191800//
The previous job contains 0 fragments, simply inherited here
Input Ideriv = 0
Curr. Ideriv = -1
Max.  Ideriv = 0
Input Ideriv = 1
Curr. Ideriv = 0
Max.  Ideriv = 0

Checking the input file for inconsistencies... 	...done.

--------------------------------------------------------------
User input:
--------------------------------------------------------------
$molecule
read
$end

$rem

jobtype sp
method PWPB95-D3
xc_grid 000099000590
basis aug-cc-pcVTZ
max_scf_cycles 200
thresh 14
scf_convergence 8
mem_total 128000
cc_memory 96000
cc_backend xm
mem_static 1500
symmetry false
sym_ignore true
scf_guess read
unrestricted false
scf_algorithm gdm
n_frozen_core 0
$end

$multipole_field
YY -0.0001
$end


--------------------------------------------------------------
 Adding empirical dispersion correction 
 ----------------------------------------------------------------
 Doing -D3(0) with
 s6  =   0.82000
 s8  =   0.70500
 rs6 =   1.55700
 rs8 =   1.00000
 -D3 energy without 3body term =     -0.0000004324 hartrees
 ----------------------------------------------------------------
             Standard Nuclear Orientation (Angstroms)
    I     Atom           X                Y                Z
 ----------------------------------------------------------------
    1      H       0.0000000000     0.0000000000     0.0000000000
    2      P       0.0000000000     0.0000000000     1.4223000000
 ----------------------------------------------------------------
 Nuclear Repulsion Energy =     5.5808602595 hartrees
 There are        9 alpha and        7 beta electrons
 Requested basis set is aug-cc-pCVTZ
 There are 32 shells and 98 basis functions

 Total QAlloc Memory Limit 128000 MB
 Mega-Array Size      1467 MB
 MEM_STATIC part      1500 MB

                       Distance Matrix (Angstroms)
             H (  1)
   P (  2)  1.422300
 
 Applying Cartesian multipole field
    Component          Value
    ---------          -----
     (0,2,0)       -1.00000E-04
 A cutoff of  1.0D-14 yielded    528 shell pairs
 There are      5014 function pairs (      6825 Cartesian)
 
 -------------------------------------------------------
 OpenMP Integral Computing Module                       
 Release: version 1.0, May 2013, Q-Chem Inc. Pittsburgh 
 -------------------------------------------------------
 Integral Job Info:
 Integral job number is                      11
 Integral operator is                         1
 short-range coefficients                     0
 long-range coefficients              100000000
 Omega coefficients                           0
 if combine SR and LR in K                    0
 Integral screening is                        0
 Integral computing path is                   2
 max size of driver memory is            800000
 size of driver memory is                776718
 size of scratch memory is             29531563
 max col of scratch BK array              10000
 max len of scratch array in speh3          662
 max len of scratch index in speh4           32
 max int batch size is                      520
 min int batch size is                       52
 fixed nKL is                                31
 max L of basis functions is                  3
 order of int derivative is                   0
 number of shells is                         32
 number of basis is                         114
 number of cartesian basis is               114
 number of contracted shell pairs           528
 number of primitive shell pairs           3609
 maxK2 (contraction) of shell pair          169
 max number of K2 of shell pair               1
 max number of CS2 of shell pair             64
 max number of PS2 of shell pair           1014
 mem total for path MDJ                  541522
 -------------------------------------------------------
 Smallest overlap matrix eigenvalue = 2.52E-04
 Guess MOs from SCF MO coefficient file
 Reading MOs from coefficient file
 Reading MOs from coefficient file
 A restricted hybrid HF-DFT SCF calculation will be
 performed using Geometric Direct Minimization
 Exchange:     0.5000 Hartree-Fock + 1.0000 PWPB95-D3
 Correlation:  0.7310 PWPB95-D3
 Using Euler-Maclaurin-Lebedev (99,590) quadrature formula
 Dispersion:   Grimme D3
 SCF converges when RMS gradient is below 1.0E-08
Using Q-Chem read-in guess as SCF_GUESS READ specified.

 using 8 threads for integral computing
 -------------------------------------------------------
 OpenMP Integral computing Module                
 Release: version 2.0, May 2017, Q-Chem Inc. Pleasanton 
 -------------------------------------------------------
TIMEINFO->: J/JK contribution 5.65 sec.
 -------------------------------------------------------
 OpenMP BLAS3 based DFT computing Module                
 Release: version 1.0, May 2013, Q-Chem Inc. Pittsburgh 
 -------------------------------------------------------
 ---------------------------------------
  Cycle       Energy        RMS Gradient
 ---------------------------------------
    1    -341.7968790443      1.95E-03 Normal BFGS step
TIMEINFO->: J/JK contribution 5.55 sec.
    2    -341.7968811739      1.16E-03 Normal BFGS step
TIMEINFO->: J/JK contribution 5.53 sec.
    3    -341.7968818478      9.47E-05 Normal BFGS step
TIMEINFO->: J/JK contribution 5.73 sec.
    4    -341.7968818600      3.59E-05 Normal BFGS step
TIMEINFO->: J/JK contribution 5.60 sec.
    5    -341.7968818617      5.14E-06 Normal BFGS step
TIMEINFO->: J/JK contribution 5.63 sec.
    6    -341.7968818618      1.71E-06 Normal BFGS step
TIMEINFO->: J/JK contribution 5.70 sec.
    7    -341.7968818618      5.00E-07 Normal BFGS step
TIMEINFO->: J/JK contribution 5.47 sec.
    8    -341.7968818618      1.36E-07 Normal BFGS step
TIMEINFO->: J/JK contribution 5.52 sec.
    9    -341.7968818618      1.03E-08 Normal BFGS step
TIMEINFO->: J/JK contribution 5.37 sec.
   10    -341.7968818618      3.27E-09 Convergence criterion met
 ---------------------------------------
 SCF time:  CPU 122.19 s  wall 15.41 s
 SCF   energy in the final basis set = -341.79688186
 Total energy in the final basis set = -341.79688186
 
 Components of the MP2 correlation energy:
        aaaa  correlation energy =         0.0000000000 au
        abab  correlation energy =        -0.0981232000 au
        bbbb  correlation energy =         0.0000000000 au
        non-Brillouin singles    =        -0.0019293240 au

 Total  MP2   correlation energy =                    -0.10005252 au
        MP2         total energy =                  -341.89693439 au
 
 --------------------------------------------------------------
 
                    Orbital Energies (a.u.)
 --------------------------------------------------------------
 
 Alpha MOs
 -- Occupied --
-78.176  -6.920  -4.979  -4.989  -4.989  -0.702  -0.405  -0.302
 -0.301
 -- Virtual --
  0.010   0.052   0.059   0.061   0.080   0.114   0.141   0.141
  0.145   0.145   0.248   0.264   0.286   0.287   0.422   0.415
  0.416   0.450   0.448   0.449   0.449   0.449   0.559   0.559
  0.560   0.560   0.612   0.674   0.674   0.708   0.847   0.947
  0.947   0.949   0.950   1.067   1.361   1.361   1.388   1.388
  1.403   1.403   1.410   1.670   1.678   1.678   1.675   1.675
  1.833   1.833   1.992   2.136   2.136   2.204   2.461   3.133
  3.745   3.745   3.970   3.970   4.181   4.181   4.253   4.848
  7.120   7.120   7.175   7.175   7.842   9.678   9.678   9.946
 11.955  26.611  26.611  26.614  26.614  26.623  26.623  26.628
 32.862  32.862  32.886  32.886  33.211  41.273  41.273  41.564
 70.498
 
 Beta MOs
 -- Occupied --
-78.166  -6.910  -4.974  -4.966  -4.966  -0.614  -0.362
 -- Virtual --
 -0.058  -0.058   0.019   0.060   0.076   0.078   0.102   0.122
  0.158   0.158   0.175   0.175   0.259   0.274   0.292   0.293
  0.432   0.451   0.452   0.474   0.489   0.489   0.519   0.519
  0.577   0.577   0.584   0.584   0.631   0.689   0.690   0.725
  0.860   0.956   0.956   0.956   0.956   1.082   1.383   1.383
  1.441   1.441   1.435   1.436   1.428   1.698   1.731   1.731
  1.747   1.747   1.880   1.880   2.012   2.182   2.182   2.239
  2.491   3.146   3.756   3.756   3.983   3.983   4.188   4.189
  4.260   4.857   7.140   7.140   7.189   7.189   7.859   9.717
  9.717   9.964  11.986  26.616  26.616  26.617  26.617  26.626
 26.626  26.630  32.882  32.882  32.898  32.898  33.221  41.291
 41.291  41.570  70.514
 --------------------------------------------------------------
 
          Ground-State Mulliken Net Atomic Charges

     Atom                 Charge (a.u.)
  ----------------------------------------
      1 H                     0.070666
      2 P                    -0.070666
  ----------------------------------------
  Sum of atomic charges =    -0.000000

 -----------------------------------------------------------------
                    Cartesian Multipole Moments
 -----------------------------------------------------------------
    Charge (ESU x 10^10)
                -0.0000
    Dipole Moment (Debye)
         X       0.0000      Y      -0.0000      Z      -0.4371
       Tot       0.4371
    Quadrupole Moments (Debye-Ang)
        XX     -14.3938     XY      -0.0000     YY     -14.3791
        XZ       0.0000     YZ      -0.0000     ZZ     -15.1234
    Octopole Moments (Debye-Ang^2)
       XXX       0.0000    XXY      -0.0000    XYY      -0.0000
       YYY      -0.0000    XXZ     -19.3999    XYZ      -0.0000
       YYZ     -19.3785    XZZ       0.0000    YZZ      -0.0000
       ZZZ     -58.6046
    Hexadecapole Moments (Debye-Ang^3)
      XXXX     -23.0955   XXXY      -0.0000   XXYY      -7.6852
      XYYY      -0.0000   YYYY     -23.0160   XXXZ       0.0000
      XXYZ      -0.0000   XYYZ      -0.0000   YYYZ      -0.0000
      XXZZ     -35.4861   XYZZ      -0.0000   YYZZ     -35.4420
      XZZZ       0.0000   YZZZ      -0.0000   ZZZZ    -185.9880
 -----------------------------------------------------------------
Archival summary:
1\1\n0045.mhg0\SP\ROProcedureUnspecified\BasisUnspecified\11(3)\yhljason\FriOct901:41:392020FriOct901:41:392020\0\\#,ROProcedureUnspecified,BasisUnspecified,\\0,3\H\P,1,1.4223\\\@

 Total job time:  27.97s(wall), 213.33s(cpu) 
 Fri Oct  9 01:41:39 2020

        *************************************************************
        *                                                           *
        *  Thank you very much for using Q-Chem.  Have a nice day.  *
        *                                                           *
        *************************************************************


 
User input: 7 of 8 
 
Q-Chem Developer Version!
                  Welcome to Q-Chem
     A Quantum Leap Into The Future Of Chemistry


 Q-Chem 5.1, Q-Chem, Inc., Pleasanton, CA (2018)

 Yihan Shao,  Zhengting Gan,  E. Epifanovsky,  A. T. B. Gilbert,  M. Wormit,  
 J. Kussmann,  A. W. Lange,  A. Behn,  Jia Deng,  Xintian Feng,  D. Ghosh,  
 M. Goldey,  P. R. Horn,  L. D. Jacobson,  I. Kaliman,  T. Kus,  A. Landau,  
 Jie Liu,  E. I. Proynov,  R. M. Richard,  R. P. Steele,  E. J. Sundstrom,  
 H. L. Woodcock III,  P. M. Zimmerman,  D. Zuev,  B. Albrecht,  E. Alguire,  
 S. A. Baeppler,  D. Barton,  Z. Benda,  Y. A. Bernard,  E. J. Berquist,  
 K. B. Bravaya,  H. Burton,  D. Casanova,  Chun-Min Chang,  Yunqing Chen,  
 A. Chien,  K. D. Closser,  M. P. Coons,  S. Coriani,  S. Dasgupta,  
 A. L. Dempwolff,  M. Diedenhofen,  Hainam Do,  R. G. Edgar,  Po-Tung Fang,  
 S. Faraji,  S. Fatehi,  Qingguo Feng,  K. D. Fenk,  J. Fosso-Tande,  
 Qinghui Ge,  A. Ghysels,  G. Gidofalvi,  J. Gomes,  J. Gonthier,  A. Gunina,  
 D. Hait,  M. W. D. Hanson-Heine,  P. H. P. Harbach,  A. W. Hauser,  
 J. E. Herr,  E. G. Hohenstein,  Z. C. Holden,  Kerwin Hui,  B. C. Huynh,  
 T.-C. Jagau,  Hyunjun Ji,  B. Kaduk,  K. Khistyaev,  Jaehoon Kim,  
 P. Klunzinger,  K. Koh,  D. Kosenkov,  L. Koulias,  T. Kowalczyk,  
 C. M. Krauter,  A. Kunitsa,  Ka Un Lao,  A. Laurent,  K. V. Lawler,  
 Joonho Lee,  D. Lefrancois,  S. Lehtola,  D. S. Levine,  Yi-Pei Li,  
 You-Sheng Lin,  Fenglai Liu,  E. Livshits,  A. Luenser,  P. Manohar,  
 E. Mansoor,  S. F. Manzer,  Shan-Ping Mao,  Yuezhi Mao,  N. Mardirossian,  
 A. V. Marenich,  T. Markovich,  L. A. Martinez-Martinez,  S. A. Maurer,  
 N. J. Mayhall,  S. C. McKenzie,  J.-M. Mewes,  A. F. Morrison,  
 J. W. Mullinax,  K. Nanda,  T. S. Nguyen-Beck,  R. Olivares-Amaya,  
 J. A. Parkhill,  T. M. Perrine,  F. Plasser,  P. Pokhilko,  S. Prager,  
 A. Prociuk,  E. Ramos,  D. R. Rehn,  F. Rob,  M. Schneider,  N. Sergueev,  
 S. M. Sharada,  S. Sharma,  D. W. Small,  T. Stauch,  T. Stein,  
 Yu-Chuan Su,  A. J. W. Thom,  A. Tkatchenko,  T. Tsuchimochi,  N. M. Tubman,  
 L. Vogt,  M. L. Vidal,  O. Vydrov,  M. A. Watson,  J. Wenzel,  
 M. de Wergifosse,  T. A. Wesolowski,  A. White,  J. Witte,  A. Yamada,  
 Jun Yang,  K. Yao,  S. Yeganeh,  S. R. Yost,  Zhi-Qiang You,  A. Zech,  
 Igor Ying Zhang,  Xing Zhang,  Yan Zhao,  Ying Zhu,  B. R. Brooks,  
 G. K. L. Chan,  C. J. Cramer,  M. S. Gordon,  W. J. Hehre,  A. Klamt,  
 M. W. Schmidt,  C. D. Sherrill,  D. G. Truhlar,  A. Aspuru-Guzik,  R. Baer,  
 A. T. Bell,  N. A. Besley,  Jeng-Da Chai,  A. E. DePrince, III,  
 R. A. DiStasio Jr.,  A. Dreuw,  B. D. Dunietz,  T. R. Furlani,  
 Chao-Ping Hsu,  Yousung Jung,  Jing Kong,  D. S. Lambrecht,  WanZhen Liang,  
 C. Ochsenfeld,  V. A. Rassolov,  L. V. Slipchenko,  J. E. Subotnik,  
 T. Van Voorhis,  J. M. Herbert,  A. I. Krylov,  P. M. W. Gill,  M. Head-Gordon

 Contributors to earlier versions of Q-Chem not listed above: 
 R. D. Adamson,  B. Austin,  J. Baker,  G. J. O. Beran,  K. Brandhorst,  
 S. T. Brown,  E. F. C. Byrd,  A. K. Chakraborty,  C.-L. Cheng,  
 Siu Hung Chien,  D. M. Chipman,  D. L. Crittenden,  H. Dachsel,  
 R. J. Doerksen,  A. D. Dutoi,  L. Fusti-Molnar,  W. A. Goddard III,  
 A. Golubeva-Zadorozhnaya,  S. R. Gwaltney,  G. Hawkins,  A. Heyden,  
 S. Hirata,  G. Kedziora,  F. J. Keil,  C. Kelley,  Jihan Kim,  R. A. King,  
 R. Z. Khaliullin,  P. P. Korambath,  W. Kurlancheek,  A. M. Lee,  M. S. Lee,  
 S. V. Levchenko,  Ching Yeh Lin,  D. Liotard,  R. C. Lochan,  I. Lotan,  
 P. E. Maslen,  N. Nair,  D. P. O'Neill,  D. Neuhauser,  E. Neuscamman,  
 C. M. Oana,  R. Olson,  B. Peters,  R. Peverati,  P. A. Pieniazek,  
 Y. M. Rhee,  J. Ritchie,  M. A. Rohrdanz,  E. Rosta,  N. J. Russ,  
 H. F. Schaefer III,  N. E. Schultz,  N. Shenvi,  A. C. Simmonett,  A. Sodt,  
 D. Stuck,  K. S. Thanthiriwatte,  V. Vanovschi,  Tao Wang,  A. Warshel,  
 C. F. Williams,  Q. Wu,  X. Xu,  W. Zhang

 Please cite Q-Chem as follows:
 Y. Shao et al., Mol. Phys. 113, 184-215 (2015)
 DOI: 10.1080/00268976.2014.952696

 Q-Chem 5.1.1 for Intel X86 EM64T Linux

 Parts of Q-Chem use Armadillo 8.300.2 (Tropical Shenanigans).
[...]
    7    -341.7990802483      4.08E-07 Normal BFGS step
TIMEINFO->: J/JK contribution 5.44 sec.
    8    -341.7990802483      1.79E-07 Normal BFGS step
TIMEINFO->: J/JK contribution 5.33 sec.
    9    -341.7990802483      2.72E-09 Convergence criterion met
 ---------------------------------------
 SCF time:  CPU 108.39 s  wall 13.66 s
 SCF   energy in the final basis set = -341.79908025
 Total energy in the final basis set = -341.79908025
 
 Components of the MP2 correlation energy:
        aaaa  correlation energy =         0.0000000000 au
        abab  correlation energy =        -0.0981153255 au
        bbbb  correlation energy =         0.0000000000 au
        non-Brillouin singles    =        -0.0019292586 au

 Total  MP2   correlation energy =                    -0.10004458 au
        MP2         total energy =                  -341.89912483 au
 
 --------------------------------------------------------------
 
                    Orbital Energies (a.u.)
 --------------------------------------------------------------
 
 Alpha MOs
 -- Occupied --
-78.177  -6.922  -4.980  -4.991  -4.991  -0.703  -0.406  -0.303
 -0.303
 -- Virtual --
  0.006   0.047   0.056   0.056   0.077   0.110   0.139   0.139
  0.143   0.143   0.245   0.260   0.284   0.284   0.420   0.413
  0.413   0.448   0.447   0.447   0.447   0.447   0.558   0.558
  0.558   0.558   0.610   0.672   0.672   0.705   0.845   0.946
  0.946   0.948   0.948   1.065   1.359   1.359   1.386   1.386
  1.401   1.401   1.408   1.669   1.677   1.677   1.674   1.674
  1.832   1.832   1.990   2.135   2.135   2.202   2.460   3.131
  3.744   3.744   3.969   3.969   4.179   4.179   4.252   4.847
  7.119   7.119   7.174   7.174   7.841   9.677   9.677   9.945
 11.954  26.609  26.609  26.612  26.612  26.621  26.621  26.626
 32.860  32.860  32.885  32.885  33.210  41.272  41.272  41.562
 70.497
 
 Beta MOs
 -- Occupied --
-78.167  -6.912  -4.975  -4.968  -4.968  -0.615  -0.363
 -- Virtual --
 -0.059  -0.059   0.015   0.054   0.073   0.073   0.100   0.118
  0.156   0.156   0.173   0.173   0.256   0.270   0.290   0.290
  0.430   0.449   0.449   0.472   0.487   0.487   0.518   0.518
  0.575   0.575   0.582   0.582   0.628   0.687   0.687   0.723
  0.858   0.955   0.955   0.954   0.954   1.080   1.381   1.381
  1.440   1.440   1.434   1.434   1.426   1.697   1.730   1.730
  1.745   1.745   1.879   1.879   2.010   2.181   2.181   2.237
  2.489   3.145   3.755   3.755   3.982   3.982   4.187   4.187
  4.259   4.856   7.138   7.138   7.187   7.187   7.857   9.715
  9.715   9.963  11.984  26.614  26.614  26.616  26.616  26.624
 26.624  26.629  32.881  32.881  32.897  32.897  33.219  41.290
 41.290  41.569  70.513
 --------------------------------------------------------------
 
          Ground-State Mulliken Net Atomic Charges

     Atom                 Charge (a.u.)
  ----------------------------------------
      1 H                     0.070887
      2 P                    -0.070887
  ----------------------------------------
  Sum of atomic charges =    -0.000000

 -----------------------------------------------------------------
                    Cartesian Multipole Moments
 -----------------------------------------------------------------
    Charge (ESU x 10^10)
                -0.0000
    Dipole Moment (Debye)
         X       0.0000      Y      -0.0000      Z      -0.4722
       Tot       0.4722
    Quadrupole Moments (Debye-Ang)
        XX     -14.4011     XY      -0.0000     YY     -14.4011
        XZ      -0.0000     YZ      -0.0000     ZZ     -15.2347
    Octopole Moments (Debye-Ang^2)
       XXX       0.0000    XXY       0.0000    XYY      -0.0000
       YYY      -0.0000    XXZ     -19.4392    XYZ       0.0000
       YYZ     -19.4392    XZZ       0.0000    YZZ      -0.0000
       ZZZ     -58.9591
    Hexadecapole Moments (Debye-Ang^3)
      XXXX     -23.1463   XXXY      -0.0000   XXYY      -7.7154
      XYYY      -0.0000   YYYY     -23.1463   XXXZ       0.0000
      XXYZ      -0.0000   XYYZ      -0.0000   YYYZ      -0.0000
      XXZZ     -35.6068   XYZZ       0.0000   YYZZ     -35.6068
      XZZZ      -0.0000   YZZZ      -0.0000   ZZZZ    -187.1163
 -----------------------------------------------------------------
Archival summary:
1\1\n0045.mhg0\SP\ROProcedureUnspecified\BasisUnspecified\11(3)\yhljason\FriOct901:42:042020FriOct901:42:042020\0\\#,ROProcedureUnspecified,BasisUnspecified,\\0,3\H\P,1,1.4223\\\@

 Total job time:  25.00s(wall), 198.03s(cpu) 
 Fri Oct  9 01:42:04 2020

        *************************************************************
        *                                                           *
        *  Thank you very much for using Q-Chem.  Have a nice day.  *
        *                                                           *
        *************************************************************


 
User input: 8 of 8 
 
Q-Chem Developer Version!
                  Welcome to Q-Chem
     A Quantum Leap Into The Future Of Chemistry


 Q-Chem 5.1, Q-Chem, Inc., Pleasanton, CA (2018)

 Yihan Shao,  Zhengting Gan,  E. Epifanovsky,  A. T. B. Gilbert,  M. Wormit,  
 J. Kussmann,  A. W. Lange,  A. Behn,  Jia Deng,  Xintian Feng,  D. Ghosh,  
 M. Goldey,  P. R. Horn,  L. D. Jacobson,  I. Kaliman,  T. Kus,  A. Landau,  
 Jie Liu,  E. I. Proynov,  R. M. Richard,  R. P. Steele,  E. J. Sundstrom,  
 H. L. Woodcock III,  P. M. Zimmerman,  D. Zuev,  B. Albrecht,  E. Alguire,  
 S. A. Baeppler,  D. Barton,  Z. Benda,  Y. A. Bernard,  E. J. Berquist,  
 K. B. Bravaya,  H. Burton,  D. Casanova,  Chun-Min Chang,  Yunqing Chen,  
 A. Chien,  K. D. Closser,  M. P. Coons,  S. Coriani,  S. Dasgupta,  
 A. L. Dempwolff,  M. Diedenhofen,  Hainam Do,  R. G. Edgar,  Po-Tung Fang,  
 S. Faraji,  S. Fatehi,  Qingguo Feng,  K. D. Fenk,  J. Fosso-Tande,  
 Qinghui Ge,  A. Ghysels,  G. Gidofalvi,  J. Gomes,  J. Gonthier,  A. Gunina,  
 D. Hait,  M. W. D. Hanson-Heine,  P. H. P. Harbach,  A. W. Hauser,  
 J. E. Herr,  E. G. Hohenstein,  Z. C. Holden,  Kerwin Hui,  B. C. Huynh,  
 T.-C. Jagau,  Hyunjun Ji,  B. Kaduk,  K. Khistyaev,  Jaehoon Kim,  
 P. Klunzinger,  K. Koh,  D. Kosenkov,  L. Koulias,  T. Kowalczyk,  
 C. M. Krauter,  A. Kunitsa,  Ka Un Lao,  A. Laurent,  K. V. Lawler,  
 Joonho Lee,  D. Lefrancois,  S. Lehtola,  D. S. Levine,  Yi-Pei Li,  
 You-Sheng Lin,  Fenglai Liu,  E. Livshits,  A. Luenser,  P. Manohar,  
 E. Mansoor,  S. F. Manzer,  Shan-Ping Mao,  Yuezhi Mao,  N. Mardirossian,  
 A. V. Marenich,  T. Markovich,  L. A. Martinez-Martinez,  S. A. Maurer,  
 N. J. Mayhall,  S. C. McKenzie,  J.-M. Mewes,  A. F. Morrison,  
 J. W. Mullinax,  K. Nanda,  T. S. Nguyen-Beck,  R. Olivares-Amaya,  
 J. A. Parkhill,  T. M. Perrine,  F. Plasser,  P. Pokhilko,  S. Prager,  
 A. Prociuk,  E. Ramos,  D. R. Rehn,  F. Rob,  M. Schneider,  N. Sergueev,  
 S. M. Sharada,  S. Sharma,  D. W. Small,  T. Stauch,  T. Stein,  
 Yu-Chuan Su,  A. J. W. Thom,  A. Tkatchenko,  T. Tsuchimochi,  N. M. Tubman,  
 L. Vogt,  M. L. Vidal,  O. Vydrov,  M. A. Watson,  J. Wenzel,  
 M. de Wergifosse,  T. A. Wesolowski,  A. White,  J. Witte,  A. Yamada,  
 Jun Yang,  K. Yao,  S. Yeganeh,  S. R. Yost,  Zhi-Qiang You,  A. Zech,  
 Igor Ying Zhang,  Xing Zhang,  Yan Zhao,  Ying Zhu,  B. R. Brooks,  
 G. K. L. Chan,  C. J. Cramer,  M. S. Gordon,  W. J. Hehre,  A. Klamt,  
 M. W. Schmidt,  C. D. Sherrill,  D. G. Truhlar,  A. Aspuru-Guzik,  R. Baer,  
 A. T. Bell,  N. A. Besley,  Jeng-Da Chai,  A. E. DePrince, III,  
 R. A. DiStasio Jr.,  A. Dreuw,  B. D. Dunietz,  T. R. Furlani,  
 Chao-Ping Hsu,  Yousung Jung,  Jing Kong,  D. S. Lambrecht,  WanZhen Liang,  
 C. Ochsenfeld,  V. A. Rassolov,  L. V. Slipchenko,  J. E. Subotnik,  
 T. Van Voorhis,  J. M. Herbert,  A. I. Krylov,  P. M. W. Gill,  M. Head-Gordon

 Contributors to earlier versions of Q-Chem not listed above: 
 R. D. Adamson,  B. Austin,  J. Baker,  G. J. O. Beran,  K. Brandhorst,  
 S. T. Brown,  E. F. C. Byrd,  A. K. Chakraborty,  C.-L. Cheng,  
 Siu Hung Chien,  D. M. Chipman,  D. L. Crittenden,  H. Dachsel,  
 R. J. Doerksen,  A. D. Dutoi,  L. Fusti-Molnar,  W. A. Goddard III,  
 A. Golubeva-Zadorozhnaya,  S. R. Gwaltney,  G. Hawkins,  A. Heyden,  
 S. Hirata,  G. Kedziora,  F. J. Keil,  C. Kelley,  Jihan Kim,  R. A. King,  
 R. Z. Khaliullin,  P. P. Korambath,  W. Kurlancheek,  A. M. Lee,  M. S. Lee,  
 S. V. Levchenko,  Ching Yeh Lin,  D. Liotard,  R. C. Lochan,  I. Lotan,  
 P. E. Maslen,  N. Nair,  D. P. O'Neill,  D. Neuhauser,  E. Neuscamman,  
 C. M. Oana,  R. Olson,  B. Peters,  R. Peverati,  P. A. Pieniazek,  
 Y. M. Rhee,  J. Ritchie,  M. A. Rohrdanz,  E. Rosta,  N. J. Russ,  
 H. F. Schaefer III,  N. E. Schultz,  N. Shenvi,  A. C. Simmonett,  A. Sodt,  
 D. Stuck,  K. S. Thanthiriwatte,  V. Vanovschi,  Tao Wang,  A. Warshel,  
 C. F. Williams,  Q. Wu,  X. Xu,  W. Zhang

 Please cite Q-Chem as follows:
 Y. Shao et al., Mol. Phys. 113, 184-215 (2015)
 DOI: 10.1080/00268976.2014.952696

 Q-Chem 5.1.1 for Intel X86 EM64T Linux

 Parts of Q-Chem use Armadillo 8.300.2 (Tropical Shenanigans).
 http://arma.sourceforge.net/

 Q-Chem begins on Fri Oct  9 01:42:04 2020  

Host: n0045.mhg0
0

     Scratch files written to /local/scratch/users/yhljason/PH_PWPB95-D3_aug-cc-pcVTZ.inp20201008191800//
The previous job contains 0 fragments, simply inherited here
Input Ideriv = 0
Curr. Ideriv = -1
Max.  Ideriv = 0
Input Ideriv = 1
Curr. Ideriv = 0
Max.  Ideriv = 0

Checking the input file for inconsistencies... 	...done.

--------------------------------------------------------------
User input:
--------------------------------------------------------------
$molecule
read
$end

$rem

jobtype sp
method PWPB95-D3
xc_grid 000099000590
basis aug-cc-pcVTZ
max_scf_cycles 200
thresh 14
scf_convergence 8
mem_total 128000
cc_memory 96000
cc_backend xm
mem_static 1500
symmetry false
sym_ignore true
scf_guess read
unrestricted false
scf_algorithm gdm
n_frozen_core 0
$end

$multipole_field
ZZ -0.0001
$end

--------------------------------------------------------------
 Adding empirical dispersion correction 
 ----------------------------------------------------------------
 Doing -D3(0) with
 s6  =   0.82000
 s8  =   0.70500
 rs6 =   1.55700
 rs8 =   1.00000
 -D3 energy without 3body term =     -0.0000004324 hartrees
 ----------------------------------------------------------------
             Standard Nuclear Orientation (Angstroms)
    I     Atom           X                Y                Z
 ----------------------------------------------------------------
    1      H       0.0000000000     0.0000000000     0.0000000000
    2      P       0.0000000000     0.0000000000     1.4223000000
 ----------------------------------------------------------------
 Nuclear Repulsion Energy =     5.5808602595 hartrees
 There are        9 alpha and        7 beta electrons
 Requested basis set is aug-cc-pCVTZ
 There are 32 shells and 98 basis functions

 Total QAlloc Memory Limit 128000 MB
 Mega-Array Size      1467 MB
 MEM_STATIC part      1500 MB

                       Distance Matrix (Angstroms)
             H (  1)
   P (  2)  1.422300
 
 Applying Cartesian multipole field
    Component          Value
    ---------          -----
     (0,0,2)       -1.00000E-04
 Nucleus-field energy     =    -0.0108360603 hartrees
 A cutoff of  1.0D-14 yielded    528 shell pairs
 There are      5014 function pairs (      6825 Cartesian)
 
 -------------------------------------------------------
 OpenMP Integral Computing Module                       
 Release: version 1.0, May 2013, Q-Chem Inc. Pittsburgh 
 -------------------------------------------------------
 Integral Job Info:
 Integral job number is                      11
 Integral operator is                         1
 short-range coefficients                     0
 long-range coefficients              100000000
 Omega coefficients                           0
 if combine SR and LR in K                    0
 Integral screening is                        0
 Integral computing path is                   2
 max size of driver memory is            800000
 size of driver memory is                776718
 size of scratch memory is             29531563
 max col of scratch BK array              10000
 max len of scratch array in speh3          662
 max len of scratch index in speh4           32
 max int batch size is                      520
 min int batch size is                       52
 fixed nKL is                                31
 max L of basis functions is                  3
 order of int derivative is                   0
 number of shells is                         32
 number of basis is                         114
 number of cartesian basis is               114
 number of contracted shell pairs           528
 number of primitive shell pairs           3609
 maxK2 (contraction) of shell pair          169
 max number of K2 of shell pair               1
 max number of CS2 of shell pair             64
 max number of PS2 of shell pair           1014
 mem total for path MDJ                  541522
 -------------------------------------------------------
 Smallest overlap matrix eigenvalue = 2.52E-04
 Guess MOs from SCF MO coefficient file
 Reading MOs from coefficient file
 Reading MOs from coefficient file
 A restricted hybrid HF-DFT SCF calculation will be
 performed using Geometric Direct Minimization
 Exchange:     0.5000 Hartree-Fock + 1.0000 PWPB95-D3
 Correlation:  0.7310 PWPB95-D3
 Using Euler-Maclaurin-Lebedev (99,590) quadrature formula
 Dispersion:   Grimme D3
 SCF converges when RMS gradient is below 1.0E-08
Using Q-Chem read-in guess as SCF_GUESS READ specified.

 using 8 threads for integral computing
 -------------------------------------------------------
 OpenMP Integral computing Module                
 Release: version 2.0, May 2017, Q-Chem Inc. Pleasanton 
 -------------------------------------------------------
TIMEINFO->: J/JK contribution 5.55 sec.
 -------------------------------------------------------
 OpenMP BLAS3 based DFT computing Module                
 Release: version 1.0, May 2013, Q-Chem Inc. Pittsburgh 
 -------------------------------------------------------
 ---------------------------------------
  Cycle       Energy        RMS Gradient
 ---------------------------------------
    1    -341.7968149161      2.92E-03 Normal BFGS step
TIMEINFO->: J/JK contribution 5.43 sec.
    2    -341.7968264359      1.89E-03 Normal BFGS step
TIMEINFO->: J/JK contribution 5.41 sec.
    3    -341.7968309196      1.12E-04 Normal BFGS step
TIMEINFO->: J/JK contribution 5.47 sec.
    4    -341.7968309558      4.53E-05 Normal BFGS step
TIMEINFO->: J/JK contribution 5.56 sec.
    5    -341.7968309605      1.70E-05 Normal BFGS step
TIMEINFO->: J/JK contribution 5.53 sec.
    6    -341.7968309608      3.29E-06 Normal BFGS step
TIMEINFO->: J/JK contribution 5.57 sec.
    7    -341.7968309609      1.76E-07 Normal BFGS step
TIMEINFO->: J/JK contribution 5.52 sec.
    8    -341.7968309609      4.57E-08 Normal BFGS step
TIMEINFO->: J/JK contribution 5.44 sec.
   GDM::WARNING energy changes are now smaller than effective accuracy.
   GDM::        calculation will continue, but THRESH should be increased
   GDM::        or SCF_CONVERGENCE decreased.
   GDM::        effective_thresh =   1.160890245044399E-009
    9    -341.7968309609      6.81E-09 Convergence criterion met
 ---------------------------------------
 SCF time:  CPU 108.61 s  wall 13.71 s
 SCF   energy in the final basis set = -341.79683096
 Total energy in the final basis set = -341.79683096
 
 Components of the MP2 correlation energy:
        aaaa  correlation energy =         0.0000000000 au
        abab  correlation energy =        -0.0981298302 au
        bbbb  correlation energy =         0.0000000000 au
        non-Brillouin singles    =        -0.0019260754 au

 Total  MP2   correlation energy =                    -0.10005591 au
        MP2         total energy =                  -341.89688687 au
 
 --------------------------------------------------------------
 
                    Orbital Energies (a.u.)
 --------------------------------------------------------------
 
 Alpha MOs
 -- Occupied --
-78.175  -6.920  -4.978  -4.988  -4.988  -0.701  -0.404  -0.301
 -0.301
 -- Virtual --
  0.011   0.056   0.059   0.059   0.081   0.116   0.142   0.142
  0.145   0.145   0.250   0.266   0.287   0.287   0.423   0.416
  0.416   0.451   0.449   0.449   0.449   0.449   0.560   0.560
  0.560   0.560   0.614   0.675   0.675   0.709   0.848   0.947
  0.947   0.950   0.950   1.068   1.361   1.361   1.388   1.388
  1.404   1.404   1.411   1.671   1.679   1.679   1.676   1.676
  1.834   1.834   1.992   2.137   2.137   2.204   2.462   3.133
  3.746   3.746   3.970   3.970   4.181   4.181   4.253   4.849
  7.121   7.121   7.176   7.176   7.843   9.679   9.679   9.947
 11.956  26.611  26.611  26.614  26.614  26.624  26.624  26.628
 32.863  32.863  32.887  32.887  33.212  41.274  41.274  41.564
 70.499
 
 Beta MOs
 -- Occupied --
-78.165  -6.910  -4.973  -4.966  -4.966  -0.613  -0.361
 -- Virtual --
 -0.057  -0.057   0.020   0.064   0.077   0.077   0.103   0.123
  0.159   0.159   0.175   0.175   0.261   0.277   0.293   0.293
  0.433   0.452   0.452   0.475   0.490   0.490   0.520   0.520
  0.577   0.577   0.584   0.584   0.632   0.691   0.691   0.726
  0.861   0.956   0.956   0.956   0.956   1.083   1.384   1.384
  1.442   1.442   1.436   1.436   1.429   1.699   1.732   1.732
  1.747   1.747   1.881   1.881   2.012   2.183   2.183   2.240
  2.492   3.147   3.756   3.756   3.984   3.984   4.189   4.189
  4.261   4.858   7.140   7.140   7.189   7.189   7.859   9.717
  9.717   9.965  11.986  26.617  26.617  26.618  26.618  26.626
 26.626  26.631  32.883  32.883  32.899  32.899  33.221  41.292
 41.292  41.571  70.515
 --------------------------------------------------------------
 
          Ground-State Mulliken Net Atomic Charges

     Atom                 Charge (a.u.)
  ----------------------------------------
      1 H                     0.072686
      2 P                    -0.072686
  ----------------------------------------
  Sum of atomic charges =     0.000000

 -----------------------------------------------------------------
                    Cartesian Multipole Moments
 -----------------------------------------------------------------
    Charge (ESU x 10^10)
                 0.0000
    Dipole Moment (Debye)
         X       0.0000      Y      -0.0000      Z      -0.4036
       Tot       0.4036
    Quadrupole Moments (Debye-Ang)
        XX     -14.3946     XY      -0.0000     YY     -14.3946
        XZ      -0.0000     YZ      -0.0000     ZZ     -15.0197
    Octopole Moments (Debye-Ang^2)
       XXX       0.0000    XXY      -0.0000    XYY      -0.0000
       YYY      -0.0000    XXZ     -19.3721    XYZ      -0.0000
       YYZ     -19.3721    XZZ      -0.0000    YZZ      -0.0000
       ZZZ     -58.2793
    Hexadecapole Moments (Debye-Ang^3)
      XXXX     -23.1048   XXXY       0.0000   XXYY      -7.7016
      XYYY       0.0000   YYYY     -23.1048   XXXZ      -0.0000
      XXYZ      -0.0000   XYYZ      -0.0000   YYYZ      -0.0000
      XXZZ     -35.3966   XYZZ      -0.0000   YYZZ     -35.3966
      XZZZ      -0.0000   YZZZ      -0.0000   ZZZZ    -184.9765
 -----------------------------------------------------------------
Archival summary:
1\1\n0045.mhg0\SP\ROProcedureUnspecified\BasisUnspecified\11(3)\yhljason\FriOct901:42:292020FriOct901:42:292020\0\\#,ROProcedureUnspecified,BasisUnspecified,\\0,3\H\P,1,1.4223\\\@

 Total job time:  24.97s(wall), 197.82s(cpu) 
 Fri Oct  9 01:42:29 2020

        *************************************************************
        *                                                           *
        *  Thank you very much for using Q-Chem.  Have a nice day.  *
        *                                                           *
        *************************************************************


