Q-Chem Developer Version!
                  Welcome to Q-Chem
     A Quantum Leap Into The Future Of Chemistry


 Q-Chem 5.1, Q-Chem, Inc., Pleasanton, CA (2018)

 Yihan Shao,  Zhengting Gan,  E. Epifanovsky,  A. T. B. Gilbert,  M. Wormit,  
 J. Kussmann,  A. W. Lange,  A. Behn,  Jia Deng,  Xintian Feng,  D. Ghosh,  
 M. Goldey,  P. R. Horn,  L. D. Jacobson,  I. Kaliman,  T. Kus,  A. Landau,  
 Jie Liu,  E. I. Proynov,  R. M. Richard,  R. P. Steele,  E. J. Sundstrom,  
 H. L. Woodcock III,  P. M. Zimmerman,  D. Zuev,  B. Albrecht,  E. Alguire,  
 S. A. Baeppler,  D. Barton,  Z. Benda,  Y. A. Bernard,  E. J. Berquist,  
 K. B. Bravaya,  H. Burton,  D. Casanova,  Chun-Min Chang,  Yunqing Chen,  
 A. Chien,  K. D. Closser,  M. P. Coons,  S. Coriani,  S. Dasgupta,  
 A. L. Dempwolff,  M. Diedenhofen,  Hainam Do,  R. G. Edgar,  Po-Tung Fang,  
 S. Faraji,  S. Fatehi,  Qingguo Feng,  K. D. Fenk,  J. Fosso-Tande,  
 Qinghui Ge,  A. Ghysels,  G. Gidofalvi,  J. Gomes,  J. Gonthier,  A. Gunina,  
 D. Hait,  M. W. D. Hanson-Heine,  P. H. P. Harbach,  A. W. Hauser,  
 J. E. Herr,  E. G. Hohenstein,  Z. C. Holden,  Kerwin Hui,  B. C. Huynh,  
 T.-C. Jagau,  Hyunjun Ji,  B. Kaduk,  K. Khistyaev,  Jaehoon Kim,  
 P. Klunzinger,  K. Koh,  D. Kosenkov,  L. Koulias,  T. Kowalczyk,  
 C. M. Krauter,  A. Kunitsa,  Ka Un Lao,  A. Laurent,  K. V. Lawler,  
 Joonho Lee,  D. Lefrancois,  S. Lehtola,  D. S. Levine,  Yi-Pei Li,  
 You-Sheng Lin,  Fenglai Liu,  E. Livshits,  A. Luenser,  P. Manohar,  
 E. Mansoor,  S. F. Manzer,  Shan-Ping Mao,  Yuezhi Mao,  N. Mardirossian,  
 A. V. Marenich,  T. Markovich,  L. A. Martinez-Martinez,  S. A. Maurer,  
 N. J. Mayhall,  S. C. McKenzie,  J.-M. Mewes,  A. F. Morrison,  
 J. W. Mullinax,  K. Nanda,  T. S. Nguyen-Beck,  R. Olivares-Amaya,  
 J. A. Parkhill,  T. M. Perrine,  F. Plasser,  P. Pokhilko,  S. Prager,  
 A. Prociuk,  E. Ramos,  D. R. Rehn,  F. Rob,  M. Schneider,  N. Sergueev,  
 S. M. Sharada,  S. Sharma,  D. W. Small,  T. Stauch,  T. Stein,  
 Yu-Chuan Su,  A. J. W. Thom,  A. Tkatchenko,  T. Tsuchimochi,  N. M. Tubman,  
 L. Vogt,  M. L. Vidal,  O. Vydrov,  M. A. Watson,  J. Wenzel,  
 M. de Wergifosse,  T. A. Wesolowski,  A. White,  J. Witte,  A. Yamada,  
 Jun Yang,  K. Yao,  S. Yeganeh,  S. R. Yost,  Zhi-Qiang You,  A. Zech,  
 Igor Ying Zhang,  Xing Zhang,  Yan Zhao,  Ying Zhu,  B. R. Brooks,  
 G. K. L. Chan,  C. J. Cramer,  M. S. Gordon,  W. J. Hehre,  A. Klamt,  
 M. W. Schmidt,  C. D. Sherrill,  D. G. Truhlar,  A. Aspuru-Guzik,  R. Baer,  
 A. T. Bell,  N. A. Besley,  Jeng-Da Chai,  A. E. DePrince, III,  
 R. A. DiStasio Jr.,  A. Dreuw,  B. D. Dunietz,  T. R. Furlani,  
 Chao-Ping Hsu,  Yousung Jung,  Jing Kong,  D. S. Lambrecht,  WanZhen Liang,  
 C. Ochsenfeld,  V. A. Rassolov,  L. V. Slipchenko,  J. E. Subotnik,  
 T. Van Voorhis,  J. M. Herbert,  A. I. Krylov,  P. M. W. Gill,  M. Head-Gordon

 Contributors to earlier versions of Q-Chem not listed above: 
 R. D. Adamson,  B. Austin,  J. Baker,  G. J. O. Beran,  K. Brandhorst,  
 S. T. Brown,  E. F. C. Byrd,  A. K. Chakraborty,  C.-L. Cheng,  
 Siu Hung Chien,  D. M. Chipman,  D. L. Crittenden,  H. Dachsel,  
 R. J. Doerksen,  A. D. Dutoi,  L. Fusti-Molnar,  W. A. Goddard III,  
 A. Golubeva-Zadorozhnaya,  S. R. Gwaltney,  G. Hawkins,  A. Heyden,  
 S. Hirata,  G. Kedziora,  F. J. Keil,  C. Kelley,  Jihan Kim,  R. A. King,  
 R. Z. Khaliullin,  P. P. Korambath,  W. Kurlancheek,  A. M. Lee,  M. S. Lee,  
 S. V. Levchenko,  Ching Yeh Lin,  D. Liotard,  R. C. Lochan,  I. Lotan,  
 P. E. Maslen,  N. Nair,  D. P. O'Neill,  D. Neuhauser,  E. Neuscamman,  
 C. M. Oana,  R. Olson,  B. Peters,  R. Peverati,  P. A. Pieniazek,  
 Y. M. Rhee,  J. Ritchie,  M. A. Rohrdanz,  E. Rosta,  N. J. Russ,  
 H. F. Schaefer III,  N. E. Schultz,  N. Shenvi,  A. C. Simmonett,  A. Sodt,  
 D. Stuck,  K. S. Thanthiriwatte,  V. Vanovschi,  Tao Wang,  A. Warshel,  
 C. F. Williams,  Q. Wu,  X. Xu,  W. Zhang

 Please cite Q-Chem as follows:
 Y. Shao et al., Mol. Phys. 113, 184-215 (2015)
 DOI: 10.1080/00268976.2014.952696

 Q-Chem 5.1.1 for Intel X86 EM64T Linux

 Parts of Q-Chem use Armadillo 8.300.2 (Tropical Shenanigans).
 http://arma.sourceforge.net/

 Q-Chem begins on Fri Oct  9 01:43:28 2020  

Host: n0086.mhg0
0

     Scratch files written to /local/scratch/users/yhljason/SCl2_PWPB95-D3_aug-cc-pcVQZ.inp20201008191801//
Input Ideriv = 0
Curr. Ideriv = -1
Max.  Ideriv = 0
Analytic post-HF gradients are not available with non-HF exchange
Input Ideriv = 0
Curr. Ideriv = 0
Max.  Ideriv = 0

Checking the input file for inconsistencies... 	...done.

--------------------------------------------------------------
User input:
--------------------------------------------------------------
$molecule
0 1
S1      0.0000  0.0000  0.8544
Cl2     0.0000  1.5740  -0.4021
Cl3     0.0000  -1.5740 -0.4021
$end

$rem
jobtype sp
method PWPB95-D3
xc_grid 000099000590
basis aug-cc-pcVQZ
max_scf_cycles 200
thresh 14
scf_convergence 8
scf_algorithm gdm
symmetry false
sym_ignore true
unrestricted false
gen_scfman true
internal_stability_iter 15
internal_stability_davidson_iter 200
mem_total 128000
cc_memory 96000
cc_backend xm
mem_static 1500
n_frozen_core 0
$end



--------------------------------------------------------------
 Adding empirical dispersion correction 
 ----------------------------------------------------------------
 Doing -D3(0) with
 s6  =   0.82000
 s8  =   0.70500
 rs6 =   1.55700
 rs8 =   1.00000
 -D3 energy without 3body term =     -0.0003126050 hartrees
 ----------------------------------------------------------------
             Standard Nuclear Orientation (Angstroms)
    I     Atom           X                Y                Z
 ----------------------------------------------------------------
    1      S       0.0000000000     0.0000000000     0.8544000000
    2      Cl      0.0000000000     1.5740000000    -0.4021000000
    3      Cl      0.0000000000    -1.5740000000    -0.4021000000
 ----------------------------------------------------------------
 Nuclear Repulsion Energy =   191.5148202886 hartrees
 There are       25 alpha and       25 beta electrons
 Requested basis set is aug-cc-pCVQZ
 There are 102 shells and 402 basis functions

 Total QAlloc Memory Limit 128000 MB
 Mega-Array Size      1467 MB
 MEM_STATIC part      1500 MB

                       Distance Matrix (Angstroms)
             S (  1)   Cl(  2)
   Cl(  2)  2.014018
   Cl(  3)  2.014018  3.148000
 
 A cutoff of  1.0D-14 yielded   4666 shell pairs
 There are     73226 function pairs (    124197 Cartesian)
 
 -------------------------------------------------------
 OpenMP Integral Computing Module                       
 Release: version 1.0, May 2013, Q-Chem Inc. Pittsburgh 
 -------------------------------------------------------
 Integral Job Info:
 Integral job number is                      11
 Integral operator is                         1
 short-range coefficients                     0
 long-range coefficients              100000000
 Omega coefficients                           0
 if combine SR and LR in K                    0
 Integral screening is                        0
 Integral computing path is                   2
 max size of driver memory is           3200000
 size of driver memory is               1704330
 size of scratch memory is             29435624
 max col of scratch BK array              50625
 max len of scratch array in speh3         2114
 max len of scratch index in speh4           50
 max int batch size is                      520
 min int batch size is                       52
 fixed nKL is                                22
 max L of basis functions is                  4
 order of int derivative is                   0
 number of shells is                        102
 number of basis is                         522
 number of cartesian basis is               522
 number of contracted shell pairs          4666
 number of primitive shell pairs          20235
 maxK2 (contraction) of shell pair          169
 max number of K2 of shell pair               1
 max number of CS2 of shell pair            435
 max number of PS2 of shell pair           3042
 mem total for path MDJ                  998488
 -------------------------------------------------------
 Smallest overlap matrix eigenvalue = 2.47E-05

 Scale SEOQF with 1.000000e-01/1.000000e-01/1.000000e-01

 Standard Electronic Orientation quadrupole field applied
 Nucleus-field energy     =     0.0000000042 hartrees
 Guess from superposition of atomic densities
 Warning:  Energy on first SCF cycle will be non-variational
 SAD guess density has 50.000000 electrons

 -----------------------------------------------------------------------
  General SCF calculation program by
  Eric Jon Sundstrom, Paul Horn, Yuezhi Mao, Dmitri Zuev, Alec White,
  David Stuck, Shaama M.S., Shane Yost, Joonho Lee, David Small,
  Daniel Levine, Susi Lehtola, Hugh Burton, Evgeny Epifanovsky
 -----------------------------------------------------------------------
 Exchange:     0.5000 Hartree-Fock + 1.0000 PWPB95-D3
 Correlation:  0.7310 PWPB95-D3
 Using Euler-Maclaurin-Lebedev (99,590) quadrature formula
 Dispersion:   Grimme D3
Running Object-Oriented RKS (RHF)
We will preform up to 15 macro iterations over saddle points until a stable solution is found
Energy prior to optimization (guess energy) = -1318.346266693869
Begin Timing: Total SCF Calculation
Begin Timing: SCF Single Stationary Point Calculation
begin iterations for algorithm: GDM          
the SCF tolerance is set to 1.00e-08
    1   -1318.3462666939      7.21e-02     00000  Normal BFGS step
    2   -1318.3424345249      9.93e-02     00000 Line search: overstep
    3   -1318.3672556513      1.14e-02     00000  Normal BFGS step
    4   -1318.3691216982      4.91e-03     00000  Normal BFGS step
    5   -1318.3692422007      1.50e-03     00000  Normal BFGS step
    6   -1318.3692672773      3.03e-04     00000  Normal BFGS step
    7   -1318.3692686862      1.77e-04     00000  Normal BFGS step
    8   -1318.3692688164      2.69e-05     00000  Normal BFGS step
    9   -1318.3692688226      7.17e-06     00000  Normal BFGS step
   10   -1318.3692688233      9.16e-07     00000  Normal BFGS step
   11   -1318.3692688233      1.64e-07     00000  Normal BFGS step
   12   -1318.3692688233      2.75e-08     00000  Normal BFGS step
   13   -1318.3692688233      1.03e-08     00000  Normal BFGS step
   14   -1318.3692688233      4.79e-09     00000 Convergence criterion met
Timing for Single Stationary Point: 1816.00s (wall), 14367.64s (cpu)
Begin Timing: Stability
===================================================
Beginning Test for Internal Stability
===================================================
generating davidson guess vectors based on koopmans excitations
    1      2.95e+00     00000 Davidson Iteration
    2      1.97e-01     00000 Davidson Iteration
    3      2.94e-01     00000 Davidson Iteration
    4      2.11e-02     00000 Davidson Iteration
    5      1.60e-02     00000 Davidson Iteration
    6      6.99e-03     00000 Davidson Iteration
    7      1.19e-03     00000 Davidson Iteration
    8      3.32e-04     00000 Davidson Iteration
    9      8.89e-05     00000 Davidson Iteration
   10      4.27e-05     00000 Davidson Converged
converged_eigenvalues
   0.5437
   0.5620
Threshold for negative eigenvalues: -1.0e-05
solution was a local minimum (stable)
===================================================
End Test for Internal Stability
===================================================
Our SCF solution is stable!
Timing for Total SCF: 3451.00s (wall), 27167.84s (cpu)
 Total energy in the final basis set =    -1318.3692688233
    ==================================================
              The end of Object-Oriented SCFman       
    ==================================================
 
 Components of the MP2 correlation energy:
        aaaa  correlation energy =         0.0000000000 au
        abab  correlation energy =        -0.4013110372 au
        bbbb  correlation energy =         0.0000000000 au
        non-Brillouin singles    =        -0.0000000000 au

 Total  MP2   correlation energy =                    -0.40131104 au
        MP2         total energy =                 -1318.77057986 au
 
 --------------------------------------------------------------
 
                    Orbital Energies (a.u.)
 --------------------------------------------------------------
 
 Alpha MOs
 -- Occupied --
*******-102.818 -90.135  -9.904  -9.904  -8.411  -7.559  -7.559
 -7.553  -7.553  -7.552  -7.552  -6.273  -6.271  -6.263  -1.022
 -0.951  -0.762  -0.528  -0.491  -0.471  -0.410  -0.400  -0.393
 -0.300
 -- Virtual --
 -0.044  -0.030   0.029   0.044   0.046   0.055   0.073   0.082
  0.086   0.087   0.089   0.118   0.153   0.160   0.165   0.167
  0.185   0.201   0.210   0.228   0.232   0.239   0.274   0.275
  0.276   0.287   0.294   0.300   0.333   0.341   0.356   0.405
  0.407   0.410   0.422   0.428   0.463   0.471   0.477   0.478
  0.481   0.500   0.503   0.528   0.534   0.539   0.541   0.549
  0.574   0.586   0.602   0.639   0.640   0.649   0.668   0.699
  0.710   0.712   0.742   0.757   0.762   0.819   0.831   0.859
  0.862   0.901   0.907   0.936   0.951   0.970   1.011   1.020
  1.040   1.048   1.051   1.061   1.114   1.220   1.228   1.248
  1.272   1.287   1.307   1.324   1.341   1.390   1.398   1.406
  1.419   1.427   1.467   1.469   1.479   1.486   1.498   1.511
  1.517   1.524   1.547   1.564   1.570   1.581   1.588   1.597
  1.619   1.622   1.653   1.668   1.730   1.735   1.746   1.765
  1.790   1.847   1.866   1.868   1.881   1.898   1.902   1.914
  1.915   1.924   1.935   1.972   1.996   2.015   2.017   2.042
  2.060   2.070   2.096   2.159   2.159   2.175   2.217   2.253
  2.269   2.278   2.314   2.351   2.355   2.389   2.466   2.484
  2.614   2.626   2.645   2.659   2.704   2.763   2.937   2.961
  3.283   3.340   3.416   3.469   3.471   3.501   3.572   3.610
  3.623   3.655   3.656   3.658   3.680   3.691   3.721   3.745
  3.802   3.823   3.855   3.878   3.886   3.889   3.891   3.926
  4.019   4.023   4.038   4.058   4.225   4.364   4.378   4.392
  4.402   4.414   4.419   4.421   4.432   4.444   4.448   4.452
  4.457   4.466   4.491   4.496   4.515   4.524   4.545   4.553
  4.560   4.568   4.593   4.596   4.596   4.618   4.701   4.740
  4.804   4.833   4.861   4.876   5.006   5.079   5.289   5.318
  5.658   5.734   5.754   5.803   5.956   5.973   6.492   6.554
  8.442   9.802   9.824   9.880   9.949   9.952  10.371  10.563
 11.671  11.673  11.685  11.713  11.806  11.827  11.838  11.985
 12.339  12.346  15.833  16.236  16.411  17.636  17.642  17.645
 17.731  18.226  18.231  18.286  18.302  18.322  18.346  18.354
 18.450  18.506  21.090  21.091  21.093  21.097  21.109  21.115
 21.115  21.119  21.155  21.161  21.166  21.178  21.182  21.183
 28.134  31.348  31.387  31.414  31.590  31.809  33.486  33.604
 37.144  37.144  37.152  37.171  37.241  37.254  37.261  37.359
 37.520  37.546  45.521  45.870  46.015  51.311  51.330  51.334
 51.401  51.850  51.874  55.027  55.027  55.032  55.033  55.037
 55.039  55.040  55.043  55.043  64.626  64.626  64.626  64.627
 64.627  64.627  64.628  64.629  64.629  64.629  64.632  64.632
 64.632  64.632  64.637  64.637  64.638  64.638  65.217  65.222
 65.232  65.234  65.248  65.294  65.295  75.058  75.058  75.059
 75.061  75.067  75.070  75.070  75.072  75.091  75.094  75.097
 75.100  75.102  75.102  82.040  92.975  93.004  93.022  93.144
 93.327  97.356  97.497 109.831 109.832 109.837 109.850 109.904
109.913 109.917 109.987 110.083 110.104 145.075 145.309 145.407
165.496 165.508 165.512 165.550 165.826 165.839 387.393 454.812
455.405
 --------------------------------------------------------------
 
          Ground-State Mulliken Net Atomic Charges

     Atom                 Charge (a.u.)
  ----------------------------------------
      1 S                     0.161116
      2 Cl                   -0.080558
      3 Cl                   -0.080558
  ----------------------------------------
  Sum of atomic charges =     0.000000

 -----------------------------------------------------------------
                    Cartesian Multipole Moments
 -----------------------------------------------------------------
    Charge (ESU x 10^10)
                 0.0000
    Dipole Moment (Debye)
         X       0.0000      Y       0.0000      Z       0.4190
       Tot       0.4190
    Quadrupole Moments (Debye-Ang)
        XX     -39.0310     XY      -0.0000     YY     -36.5195
        XZ       0.0000     YZ      -0.0000     ZZ     -36.1122
    Octopole Moments (Debye-Ang^2)
       XXX       0.0000    XXY      -0.0000    XYY       0.0000
       YYY      -0.0000    XXZ      -1.5205    XYZ       0.0000
       YYZ      -3.5974    XZZ       0.0000    YZZ       0.0000
       ZZZ      -0.8803
    Hexadecapole Moments (Debye-Ang^3)
      XXXX     -47.2856   XXXY      -0.0000   XXYY     -78.9295
      XYYY       0.0000   YYYY    -395.3136   XXXZ       0.0000
      XXYZ       0.0000   XYYZ       0.0000   YYYZ      -0.0000
      XXZZ     -30.0522   XYZZ      -0.0000   YYZZ     -81.6261
      XZZZ       0.0000   YZZZ       0.0000   ZZZZ    -117.3418
 -----------------------------------------------------------------
Archival summary:
1\1\n0086.mhg0\SP\ProcedureUnspecified\BasisUnspecified\l21\yhljason\FriOct903:35:522020FriOct903:35:522020\0\\#,ProcedureUnspecified,BasisUnspecified,\\0,1\S\Cl,1,2.01402\Cl,1,2.01402,2,102.8\\\@

 Total job time:  6743.68s(wall), 52026.45s(cpu) 
 Fri Oct  9 03:35:52 2020

        *************************************************************
        *                                                           *
        *  Thank you very much for using Q-Chem.  Have a nice day.  *
        *                                                           *
        *************************************************************


 
User input: 2 of 83 of 8 
 
Q-Chem Developer Version!
                  Welcome to Q-Chem
     A Quantum Leap Into The Future Of Chemistry


 Q-Chem 5.1, Q-Chem, Inc., Pleasanton, CA (2018)

 Yihan Shao,  Zhengting Gan,  E. Epifanovsky,  A. T. B. Gilbert,  M. Wormit,  
 J. Kussmann,  A. W. Lange,  A. Behn,  Jia Deng,  Xintian Feng,  D. Ghosh,  
 M. Goldey,  P. R. Horn,  L. D. Jacobson,  I. Kaliman,  T. Kus,  A. Landau,  
 Jie Liu,  E. I. Proynov,  R. M. Richard,  R. P. Steele,  E. J. Sundstrom,  
 H. L. Woodcock III,  P. M. Zimmerman,  D. Zuev,  B. Albrecht,  E. Alguire,  
 S. A. Baeppler,  D. Barton,  Z. Benda,  Y. A. Bernard,  E. J. Berquist,  
 K. B. Bravaya,  H. Burton,  D. Casanova,  Chun-Min Chang,  Yunqing Chen,  
 A. Chien,  K. D. Closser,  M. P. Coons,  S. Coriani,  S. Dasgupta,  
 A. L. Dempwolff,  M. Diedenhofen,  Hainam Do,  R. G. Edgar,  Po-Tung Fang,  
 S. Faraji,  S. Fatehi,  Qingguo Feng,  K. D. Fenk,  J. Fosso-Tande,  
 Qinghui Ge,  A. Ghysels,  G. Gidofalvi,  J. Gomes,  J. Gonthier,  A. Gunina,  
 D. Hait,  M. W. D. Hanson-Heine,  P. H. P. Harbach,  A. W. Hauser,  
 J. E. Herr,  E. G. Hohenstein,  Z. C. Holden,  Kerwin Hui,  B. C. Huynh,  
 T.-C. Jagau,  Hyunjun Ji,  B. Kaduk,  K. Khistyaev,  Jaehoon Kim,  
 P. Klunzinger,  K. Koh,  D. Kosenkov,  L. Koulias,  T. Kowalczyk,  
 C. M. Krauter,  A. Kunitsa,  Ka Un Lao,  A. Laurent,  K. V. Lawler,  
 Joonho Lee,  D. Lefrancois,  S. Lehtola,  D. S. Levine,  Yi-Pei Li,  
 You-Sheng Lin,  Fenglai Liu,  E. Livshits,  A. Luenser,  P. Manohar,  
 E. Mansoor,  S. F. Manzer,  Shan-Ping Mao,  Yuezhi Mao,  N. Mardirossian,  
 A. V. Marenich,  T. Markovich,  L. A. Martinez-Martinez,  S. A. Maurer,  
 N. J. Mayhall,  S. C. McKenzie,  J.-M. Mewes,  A. F. Morrison,  
 J. W. Mullinax,  K. Nanda,  T. S. Nguyen-Beck,  R. Olivares-Amaya,  
 J. A. Parkhill,  T. M. Perrine,  F. Plasser,  P. Pokhilko,  S. Prager,  
 A. Prociuk,  E. Ramos,  D. R. Rehn,  F. Rob,  M. Schneider,  N. Sergueev,  
 S. M. Sharada,  S. Sharma,  D. W. Small,  T. Stauch,  T. Stein,  
 Yu-Chuan Su,  A. J. W. Thom,  A. Tkatchenko,  T. Tsuchimochi,  N. M. Tubman,  
 L. Vogt,  M. L. Vidal,  O. Vydrov,  M. A. Watson,  J. Wenzel,  
 M. de Wergifosse,  T. A. Wesolowski,  A. White,  J. Witte,  A. Yamada,  
 Jun Yang,  K. Yao,  S. Yeganeh,  S. R. Yost,  Zhi-Qiang You,  A. Zech,  
 Igor Ying Zhang,  Xing Zhang,  Yan Zhao,  Ying Zhu,  B. R. Brooks,  
 G. K. L. Chan,  C. J. Cramer,  M. S. Gordon,  W. J. Hehre,  A. Klamt,  
 M. W. Schmidt,  C. D. Sherrill,  D. G. Truhlar,  A. Aspuru-Guzik,  R. Baer,  
 A. T. Bell,  N. A. Besley,  Jeng-Da Chai,  A. E. DePrince, III,  
 R. A. DiStasio Jr.,  A. Dreuw,  B. D. Dunietz,  T. R. Furlani,  
 Chao-Ping Hsu,  Yousung Jung,  Jing Kong,  D. S. Lambrecht,  WanZhen Liang,  
 C. Ochsenfeld,  V. A. Rassolov,  L. V. Slipchenko,  J. E. Subotnik,  
 T. Van Voorhis,  J. M. Herbert,  A. I. Krylov,  P. M. W. Gill,  M. Head-Gordon

 Contributors to earlier versions of Q-Chem not listed above: 
 R. D. Adamson,  B. Austin,  J. Baker,  G. J. O. Beran,  K. Brandhorst,  
 S. T. Brown,  E. F. C. Byrd,  A. K. Chakraborty,  C.-L. Cheng,  
 Siu Hung Chien,  D. M. Chipman,  D. L. Crittenden,  H. Dachsel,  
 R. J. Doerksen,  A. D. Dutoi,  L. Fusti-Molnar,  W. A. Goddard III,  
 A. Golubeva-Zadorozhnaya,  S. R. Gwaltney,  G. Hawkins,  A. Heyden,  
 S. Hirata,  G. Kedziora,  F. J. Keil,  C. Kelley,  Jihan Kim,  R. A. King,  
 R. Z. Khaliullin,  P. P. Korambath,  W. Kurlancheek,  A. M. Lee,  M. S. Lee,  
 S. V. Levchenko,  Ching Yeh Lin,  D. Liotard,  R. C. Lochan,  I. Lotan,  
 P. E. Maslen,  N. Nair,  D. P. O'Neill,  D. Neuhauser,  E. Neuscamman,  
 C. M. Oana,  R. Olson,  B. Peters,  R. Peverati,  P. A. Pieniazek,  
 Y. M. Rhee,  J. Ritchie,  M. A. Rohrdanz,  E. Rosta,  N. J. Russ,  
 H. F. Schaefer III,  N. E. Schultz,  N. Shenvi,  A. C. Simmonett,  A. Sodt,  
 D. Stuck,  K. S. Thanthiriwatte,  V. Vanovschi,  Tao Wang,  A. Warshel,  
 C. F. Williams,  Q. Wu,  X. Xu,  W. Zhang

 Please cite Q-Chem as follows:
 Y. Shao et al., Mol. Phys. 113, 184-215 (2015)
 DOI: 10.1080/00268976.2014.952696

 Q-Chem 5.1.1 for Intel X86 EM64T Linux

 Parts of Q-Chem use Armadillo 8.300.2 (Tropical Shenanigans).
 http://arma.sourceforge.net/

 Q-Chem begins on Fri Oct  9 03:37:59 2020  

Host: n0086.mhg0
0

     Scratch files written to /local/scratch/users/yhljason/SCl2_PWPB95-D3_aug-cc-pcVQZ.inp20201008191801//
The previous job contains 0 fragments, simply inherited here
Input Ideriv = 0
Curr. Ideriv = -1
Max.  Ideriv = 0
Analytic post-HF gradients are not available with non-HF exchange
Input Ideriv = 0
Curr. Ideriv = 0
Max.  Ideriv = 0

Checking the input file for inconsistencies... 	...done.

--------------------------------------------------------------
User input:
--------------------------------------------------------------
$molecule
read
$end

$rem

jobtype sp
method PWPB95-D3
xc_grid 000099000590
basis aug-cc-pcVQZ
max_scf_cycles 200
thresh 14
scf_convergence 8
mem_total 128000
cc_memory 96000
cc_backend xm
mem_static 1500
symmetry false
sym_ignore true
scf_guess read
unrestricted false
scf_algorithm gdm
n_frozen_core 0
$end

$multipole_field
XX 0.0001
$end


--------------------------------------------------------------
 Adding empirical dispersion correction 
 ----------------------------------------------------------------
 Doing -D3(0) with
 s6  =   0.82000
 s8  =   0.70500
 rs6 =   1.55700
 rs8 =   1.00000
 -D3 energy without 3body term =     -0.0003126050 hartrees
 ----------------------------------------------------------------
             Standard Nuclear Orientation (Angstroms)
    I     Atom           X                Y                Z
 ----------------------------------------------------------------
    1      S       0.0000000000     0.0000000000     0.8544000000
    2      Cl      0.0000000000     1.5740000000    -0.4021000000
    3      Cl      0.0000000000    -1.5740000000    -0.4021000000
 ----------------------------------------------------------------
 Nuclear Repulsion Energy =   191.5148202886 hartrees
 There are       25 alpha and       25 beta electrons
 Requested basis set is aug-cc-pCVQZ
 There are 102 shells and 402 basis functions

 Total QAlloc Memory Limit 128000 MB
 Mega-Array Size      1467 MB
 MEM_STATIC part      1500 MB

                       Distance Matrix (Angstroms)
             S (  1)   Cl(  2)
   Cl(  2)  2.014018
   Cl(  3)  2.014018  3.148000
 
 Applying Cartesian multipole field
    Component          Value
    ---------          -----
     (2,0,0)        1.00000E-04
 A cutoff of  1.0D-14 yielded   4666 shell pairs
 There are     73226 function pairs (    124197 Cartesian)
 
 -------------------------------------------------------
 OpenMP Integral Computing Module                       
 Release: version 1.0, May 2013, Q-Chem Inc. Pittsburgh 
 -------------------------------------------------------
 Integral Job Info:
 Integral job number is                      11
 Integral operator is                         1
 short-range coefficients                     0
 long-range coefficients              100000000
 Omega coefficients                           0
 if combine SR and LR in K                    0
 Integral screening is                        0
 Integral computing path is                   2
 max size of driver memory is           3200000
 size of driver memory is               1704330
 size of scratch memory is             29435624
 max col of scratch BK array              50625
 max len of scratch array in speh3         2114
 max len of scratch index in speh4           50
 max int batch size is                      520
 min int batch size is                       52
 fixed nKL is                                22
 max L of basis functions is                  4
 order of int derivative is                   0
 number of shells is                        102
 number of basis is                         522
 number of cartesian basis is               522
 number of contracted shell pairs          4666
 number of primitive shell pairs          20235
 maxK2 (contraction) of shell pair          169
 max number of K2 of shell pair               1
 max number of CS2 of shell pair            435
 max number of PS2 of shell pair           3042
 mem total for path MDJ                  998488
 -------------------------------------------------------
 Smallest overlap matrix eigenvalue = 2.47E-05
 Guess MOs from SCF MO coefficient file

 -----------------------------------------------------------------------
  General SCF calculation program by
  Eric Jon Sundstrom, Paul Horn, Yuezhi Mao, Dmitri Zuev, Alec White,
  David Stuck, Shaama M.S., Shane Yost, Joonho Lee, David Small,
  Daniel Levine, Susi Lehtola, Hugh Burton, Evgeny Epifanovsky
 -----------------------------------------------------------------------
 Exchange:     0.5000 Hartree-Fock + 1.0000 PWPB95-D3
 Correlation:  0.7310 PWPB95-D3
 Using Euler-Maclaurin-Lebedev (99,590) quadrature formula
 Dispersion:   Grimme D3
 using 8 threads for integral computing
 -------------------------------------------------------
 OpenMP Integral computing Module                
 Release: version 2.0, May 2017, Q-Chem Inc. Pleasanton 
 -------------------------------------------------------
 -------------------------------------------------------
 OpenMP BLAS3 based DFT computing Module                
 Release: version 1.0, May 2013, Q-Chem Inc. Pittsburgh 
 -------------------------------------------------------
 A restricted SCF calculation will be
 performed using GDM
 SCF converges when RMS gradient is below 1.0e-08
 ---------------------------------------
  Cycle       Energy        RMS Gradient
 ---------------------------------------
    1   -1318.3721706803      3.36e-04   Normal BFGS step
    2   -1318.3721715691      6.55e-05   Normal BFGS step
    3   -1318.3721716318      3.54e-05   Normal BFGS step
    4   -1318.3721716391      1.13e-05   Normal BFGS step
    5   -1318.3721716399      5.15e-06   Normal BFGS step
    6   -1318.3721716400      2.85e-06   Normal BFGS step
    7   -1318.3721716400      5.59e-07   Normal BFGS step
    8   -1318.3721716400      1.06e-07   Normal BFGS step
    9   -1318.3721716400      2.74e-08   Normal BFGS step
   10   -1318.3721716400      4.68e-09  Convergence criterion met
 ---------------------------------------
 SCF time:   CPU 11251.50s  wall 1437.00s 
 SCF   energy in the final basis set =    -1318.3721716400
 Total energy in the final basis set =    -1318.3721716400
 
 Components of the MP2 correlation energy:
        aaaa  correlation energy =         0.0000000000 au
        abab  correlation energy =        -0.4013104544 au
        bbbb  correlation energy =         0.0000000000 au
        non-Brillouin singles    =        -0.0000000000 au

 Total  MP2   correlation energy =                    -0.40131045 au
        MP2         total energy =                 -1318.77348209 au
 
 --------------------------------------------------------------
 
                    Orbital Energies (a.u.)
 --------------------------------------------------------------
 
 Alpha MOs
 -- Occupied --
*******-102.818 -90.135  -9.904  -9.904  -8.412  -7.559  -7.559
 -7.553  -7.553  -7.552  -7.552  -6.274  -6.271  -6.264  -1.022
 -0.951  -0.762  -0.528  -0.492  -0.471  -0.411  -0.400  -0.393
 -0.300
 -- Virtual --
 -0.044  -0.031   0.028   0.043   0.045   0.052   0.072   0.081
  0.084   0.085   0.087   0.117   0.152   0.158   0.164   0.166
  0.185   0.200   0.209   0.227   0.231   0.238   0.273   0.275
  0.275   0.286   0.294   0.299   0.332   0.339   0.355   0.404
  0.406   0.409   0.421   0.427   0.463   0.470   0.477   0.477
  0.480   0.499   0.503   0.527   0.534   0.538   0.540   0.549
  0.573   0.585   0.601   0.638   0.639   0.648   0.667   0.698
  0.710   0.712   0.741   0.757   0.761   0.818   0.830   0.858
  0.861   0.900   0.906   0.935   0.950   0.970   1.011   1.019
  1.039   1.047   1.050   1.060   1.113   1.219   1.227   1.248
  1.272   1.287   1.306   1.323   1.341   1.389   1.398   1.405
  1.419   1.427   1.467   1.468   1.478   1.486   1.498   1.510
  1.516   1.523   1.547   1.563   1.569   1.581   1.588   1.596
  1.618   1.622   1.653   1.668   1.729   1.735   1.745   1.764
  1.790   1.847   1.866   1.867   1.880   1.897   1.901   1.914
  1.915   1.923   1.935   1.972   1.996   2.015   2.017   2.042
  2.060   2.070   2.096   2.158   2.159   2.175   2.217   2.252
  2.269   2.278   2.314   2.351   2.354   2.388   2.465   2.484
  2.613   2.626   2.644   2.659   2.703   2.763   2.937   2.961
  3.283   3.339   3.416   3.468   3.470   3.501   3.572   3.609
  3.623   3.654   3.656   3.658   3.680   3.690   3.721   3.745
  3.802   3.823   3.855   3.878   3.886   3.888   3.891   3.926
  4.019   4.023   4.038   4.058   4.224   4.363   4.378   4.392
  4.402   4.414   4.418   4.420   4.432   4.444   4.447   4.451
  4.457   4.465   4.491   4.495   4.515   4.524   4.545   4.552
  4.560   4.568   4.593   4.595   4.596   4.618   4.701   4.739
  4.804   4.833   4.861   4.875   5.006   5.078   5.288   5.317
  5.658   5.734   5.754   5.802   5.956   5.972   6.492   6.553
  8.442   9.802   9.824   9.880   9.949   9.952  10.370  10.563
 11.671  11.673  11.685  11.713  11.806  11.826  11.837  11.985
 12.339  12.346  15.832  16.236  16.411  17.636  17.641  17.645
 17.730  18.226  18.231  18.285  18.301  18.322  18.345  18.354
 18.449  18.506  21.090  21.090  21.092  21.097  21.109  21.114
 21.115  21.118  21.154  21.161  21.166  21.178  21.181  21.182
 28.133  31.348  31.387  31.413  31.590  31.809  33.486  33.604
 37.143  37.144  37.151  37.170  37.241  37.254  37.260  37.359
 37.520  37.545  45.520  45.869  46.014  51.310  51.329  51.334
 51.401  51.850  51.874  55.026  55.027  55.032  55.032  55.037
 55.039  55.040  55.042  55.043  64.625  64.626  64.626  64.626
 64.627  64.627  64.628  64.628  64.629  64.629  64.631  64.632
 64.632  64.632  64.637  64.637  64.637  64.637  65.216  65.222
 65.232  65.234  65.248  65.294  65.294  75.057  75.058  75.059
 75.061  75.067  75.070  75.070  75.072  75.091  75.094  75.097
 75.099  75.102  75.102  82.040  92.975  93.003  93.022  93.143
 93.327  97.355  97.497 109.831 109.831 109.836 109.850 109.903
109.913 109.917 109.987 110.082 110.104 145.074 145.309 145.407
165.495 165.508 165.511 165.550 165.825 165.839 387.393 454.812
455.404
 --------------------------------------------------------------
 
          Ground-State Mulliken Net Atomic Charges

     Atom                 Charge (a.u.)
  ----------------------------------------
      1 S                     0.160513
      2 Cl                   -0.080256
      3 Cl                   -0.080256
  ----------------------------------------
  Sum of atomic charges =    -0.000000

 -----------------------------------------------------------------
                    Cartesian Multipole Moments
 -----------------------------------------------------------------
    Charge (ESU x 10^10)
                -0.0000
    Dipole Moment (Debye)
         X       0.0000      Y       0.0000      Z       0.4183
       Tot       0.4183
    Quadrupole Moments (Debye-Ang)
        XX     -39.0568     XY      -0.0000     YY     -36.5205
        XZ      -0.0000     YZ       0.0000     ZZ     -36.1164
    Octopole Moments (Debye-Ang^2)
       XXX       0.0000    XXY       0.0000    XYY       0.0000
       YYY      -0.0000    XXZ      -1.5254    XYZ       0.0000
       YYZ      -3.5994    XZZ       0.0000    YZZ      -0.0000
       ZZZ      -0.8828
    Hexadecapole Moments (Debye-Ang^3)
      XXXX     -47.4023   XXXY      -0.0000   XXYY     -78.9900
      XYYY      -0.0000   YYYY    -395.3496   XXXZ      -0.0000
      XXYZ       0.0000   XYYZ      -0.0000   YYYZ       0.0000
      XXZZ     -30.0915   XYZZ      -0.0000   YYZZ     -81.6380
      XZZZ      -0.0000   YZZZ       0.0000   ZZZZ    -117.3746
 -----------------------------------------------------------------
Archival summary:
1\1\n0086.mhg0\SP\ProcedureUnspecified\BasisUnspecified\l21\yhljason\FriOct904:50:542020FriOct904:50:542020\0\\#,ProcedureUnspecified,BasisUnspecified,\\0,1\S\Cl,1,2.01402\Cl,1,2.01402,2,102.8\\\@

 Total job time:  4374.73s(wall), 33801.76s(cpu) 
 Fri Oct  9 04:50:54 2020

        *************************************************************
        *                                                           *
        *  Thank you very much for using Q-Chem.  Have a nice day.  *
        *                                                           *
        *************************************************************


 
User input: 4 of 8 
 
Q-Chem Developer Version!
                  Welcome to Q-Chem
     A Quantum Leap Into The Future Of Chemistry


 Q-Chem 5.1, Q-Chem, Inc., Pleasanton, CA (2018)

 Yihan Shao,  Zhengting Gan,  E. Epifanovsky,  A. T. B. Gilbert,  M. Wormit,  
 J. Kussmann,  A. W. Lange,  A. Behn,  Jia Deng,  Xintian Feng,  D. Ghosh,  
 M. Goldey,  P. R. Horn,  L. D. Jacobson,  I. Kaliman,  T. Kus,  A. Landau,  
 Jie Liu,  E. I. Proynov,  R. M. Richard,  R. P. Steele,  E. J. Sundstrom,  
 H. L. Woodcock III,  P. M. Zimmerman,  D. Zuev,  B. Albrecht,  E. Alguire,  
 S. A. Baeppler,  D. Barton,  Z. Benda,  Y. A. Bernard,  E. J. Berquist,  
 K. B. Bravaya,  H. Burton,  D. Casanova,  Chun-Min Chang,  Yunqing Chen,  
 A. Chien,  K. D. Closser,  M. P. Coons,  S. Coriani,  S. Dasgupta,  
 A. L. Dempwolff,  M. Diedenhofen,  Hainam Do,  R. G. Edgar,  Po-Tung Fang,  
 S. Faraji,  S. Fatehi,  Qingguo Feng,  K. D. Fenk,  J. Fosso-Tande,  
 Qinghui Ge,  A. Ghysels,  G. Gidofalvi,  J. Gomes,  J. Gonthier,  A. Gunina,  
 D. Hait,  M. W. D. Hanson-Heine,  P. H. P. Harbach,  A. W. Hauser,  
 J. E. Herr,  E. G. Hohenstein,  Z. C. Holden,  Kerwin Hui,  B. C. Huynh,  
 T.-C. Jagau,  Hyunjun Ji,  B. Kaduk,  K. Khistyaev,  Jaehoon Kim,  
 P. Klunzinger,  K. Koh,  D. Kosenkov,  L. Koulias,  T. Kowalczyk,  
 C. M. Krauter,  A. Kunitsa,  Ka Un Lao,  A. Laurent,  K. V. Lawler,  
 Joonho Lee,  D. Lefrancois,  S. Lehtola,  D. S. Levine,  Yi-Pei Li,  
 You-Sheng Lin,  Fenglai Liu,  E. Livshits,  A. Luenser,  P. Manohar,  
 E. Mansoor,  S. F. Manzer,  Shan-Ping Mao,  Yuezhi Mao,  N. Mardirossian,  
 A. V. Marenich,  T. Markovich,  L. A. Martinez-Martinez,  S. A. Maurer,  
 N. J. Mayhall,  S. C. McKenzie,  J.-M. Mewes,  A. F. Morrison,  
 J. W. Mullinax,  K. Nanda,  T. S. Nguyen-Beck,  R. Olivares-Amaya,  
 J. A. Parkhill,  T. M. Perrine,  F. Plasser,  P. Pokhilko,  S. Prager,  
 A. Prociuk,  E. Ramos,  D. R. Rehn,  F. Rob,  M. Schneider,  N. Sergueev,  
 S. M. Sharada,  S. Sharma,  D. W. Small,  T. Stauch,  T. Stein,  
 Yu-Chuan Su,  A. J. W. Thom,  A. Tkatchenko,  T. Tsuchimochi,  N. M. Tubman,  
 L. Vogt,  M. L. Vidal,  O. Vydrov,  M. A. Watson,  J. Wenzel,  
 M. de Wergifosse,  T. A. Wesolowski,  A. White,  J. Witte,  A. Yamada,  
 Jun Yang,  K. Yao,  S. Yeganeh,  S. R. Yost,  Zhi-Qiang You,  A. Zech,  
 Igor Ying Zhang,  Xing Zhang,  Yan Zhao,  Ying Zhu,  B. R. Brooks,  
 G. K. L. Chan,  C. J. Cramer,  M. S. Gordon,  W. J. Hehre,  A. Klamt,  
 M. W. Schmidt,  C. D. Sherrill,  D. G. Truhlar,  A. Aspuru-Guzik,  R. Baer,  
 A. T. Bell,  N. A. Besley,  Jeng-Da Chai,  A. E. DePrince, III,  
 R. A. DiStasio Jr.,  A. Dreuw,  B. D. Dunietz,  T. R. Furlani,  
 Chao-Ping Hsu,  Yousung Jung,  Jing Kong,  D. S. Lambrecht,  WanZhen Liang,  
 C. Ochsenfeld,  V. A. Rassolov,  L. V. Slipchenko,  J. E. Subotnik,  
 T. Van Voorhis,  J. M. Herbert,  A. I. Krylov,  P. M. W. Gill,  M. Head-Gordon

 Contributors to earlier versions of Q-Chem not listed above: 
 R. D. Adamson,  B. Austin,  J. Baker,  G. J. O. Beran,  K. Brandhorst,  
 S. T. Brown,  E. F. C. Byrd,  A. K. Chakraborty,  C.-L. Cheng,  
 Siu Hung Chien,  D. M. Chipman,  D. L. Crittenden,  H. Dachsel,  
 R. J. Doerksen,  A. D. Dutoi,  L. Fusti-Molnar,  W. A. Goddard III,  
 A. Golubeva-Zadorozhnaya,  S. R. Gwaltney,  G. Hawkins,  A. Heyden,  
 S. Hirata,  G. Kedziora,  F. J. Keil,  C. Kelley,  Jihan Kim,  R. A. King,  
 R. Z. Khaliullin,  P. P. Korambath,  W. Kurlancheek,  A. M. Lee,  M. S. Lee,  
 S. V. Levchenko,  Ching Yeh Lin,  D. Liotard,  R. C. Lochan,  I. Lotan,  
 P. E. Maslen,  N. Nair,  D. P. O'Neill,  D. Neuhauser,  E. Neuscamman,  
 C. M. Oana,  R. Olson,  B. Peters,  R. Peverati,  P. A. Pieniazek,  
 Y. M. Rhee,  J. Ritchie,  M. A. Rohrdanz,  E. Rosta,  N. J. Russ,  
 H. F. Schaefer III,  N. E. Schultz,  N. Shenvi,  A. C. Simmonett,  A. Sodt,  
 D. Stuck,  K. S. Thanthiriwatte,  V. Vanovschi,  Tao Wang,  A. Warshel,  
 C. F. Williams,  Q. Wu,  X. Xu,  W. Zhang

 Please cite Q-Chem as follows:
 Y. Shao et al., Mol. Phys. 113, 184-215 (2015)
 DOI: 10.1080/00268976.2014.952696

 Q-Chem 5.1.1 for Intel X86 EM64T Linux

 Parts of Q-Chem use Armadillo 8.300.2 (Tropical Shenanigans).
 http://arma.sourceforge.net/

 Q-Chem begins on Fri Oct  9 04:50:54 2020  

Host: n0086.mhg0
0

     Scratch files written to /local/scratch/users/yhljason/SCl2_PWPB95-D3_aug-cc-pcVQZ.inp20201008191801//
The previous job contains 0 fragments, simply inherited here
Input Ideriv = 0
Curr. Ideriv = -1
Max.  Ideriv = 0
Analytic post-HF gradients are not available with non-HF exchange
Input Ideriv = 0
Curr. Ideriv = 0
Max.  Ideriv = 0

Checking the input file for inconsistencies... 	...done.

--------------------------------------------------------------
User input:
--------------------------------------------------------------
$molecule
read
$end

$rem

jobtype sp
method PWPB95-D3
xc_grid 000099000590
basis aug-cc-pcVQZ
max_scf_cycles 200
thresh 14
scf_convergence 8
mem_total 128000
cc_memory 96000
cc_backend xm
mem_static 1500
symmetry false
sym_ignore true
scf_guess read
unrestricted false
scf_algorithm gdm
n_frozen_core 0
$end

$multipole_field
XX -0.0001
$end


--------------------------------------------------------------
 Adding empirical dispersion correction 
 ----------------------------------------------------------------
 Doing -D3(0) with
 s6  =   0.82000
 s8  =   0.70500
 rs6 =   1.55700
 rs8 =   1.00000
 -D3 energy without 3body term =     -0.0003126050 hartrees
 ----------------------------------------------------------------
             Standard Nuclear Orientation (Angstroms)
    I     Atom           X                Y                Z
 ----------------------------------------------------------------
    1      S       0.0000000000     0.0000000000     0.8544000000
    2      Cl      0.0000000000     1.5740000000    -0.4021000000
    3      Cl      0.0000000000    -1.5740000000    -0.4021000000
 ----------------------------------------------------------------
 Nuclear Repulsion Energy =   191.5148202886 hartrees
 There are       25 alpha and       25 beta electrons
 Requested basis set is aug-cc-pCVQZ
 There are 102 shells and 402 basis functions

 Total QAlloc Memory Limit 128000 MB
 Mega-Array Size      1467 MB
 MEM_STATIC part      1500 MB

                       Distance Matrix (Angstroms)
             S (  1)   Cl(  2)
   Cl(  2)  2.014018
   Cl(  3)  2.014018  3.148000
 
 Applying Cartesian multipole field
    Component          Value
    ---------          -----
     (2,0,0)       -1.00000E-04
 A cutoff of  1.0D-14 yielded   4666 shell pairs
 There are     73226 function pairs (    124197 Cartesian)
 
 -------------------------------------------------------
 OpenMP Integral Computing Module                       
 Release: version 1.0, May 2013, Q-Chem Inc. Pittsburgh 
 -------------------------------------------------------
 Integral Job Info:
 Integral job number is                      11
 Integral operator is                         1
 short-range coefficients                     0
 long-range coefficients              100000000
 Omega coefficients                           0
 if combine SR and LR in K                    0
 Integral screening is                        0
 Integral computing path is                   2
 max size of driver memory is           3200000
 size of driver memory is               1704330
 size of scratch memory is             29435624
 max col of scratch BK array              50625
 max len of scratch array in speh3         2114
 max len of scratch index in speh4           50
 max int batch size is                      520
 min int batch size is                       52
 fixed nKL is                                22
 max L of basis functions is                  4
 order of int derivative is                   0
 number of shells is                        102
 number of basis is                         522
 number of cartesian basis is               522
 number of contracted shell pairs          4666
 number of primitive shell pairs          20235
 maxK2 (contraction) of shell pair          169
 max number of K2 of shell pair               1
 max number of CS2 of shell pair            435
 max number of PS2 of shell pair           3042
 mem total for path MDJ                  998488
 -------------------------------------------------------
 Smallest overlap matrix eigenvalue = 2.47E-05
 Guess MOs from SCF MO coefficient file

 -----------------------------------------------------------------------
  General SCF calculation program by
  Eric Jon Sundstrom, Paul Horn, Yuezhi Mao, Dmitri Zuev, Alec White,
  David Stuck, Shaama M.S., Shane Yost, Joonho Lee, David Small,
  Daniel Levine, Susi Lehtola, Hugh Burton, Evgeny Epifanovsky
 -----------------------------------------------------------------------
 Exchange:     0.5000 Hartree-Fock + 1.0000 PWPB95-D3
 Correlation:  0.7310 PWPB95-D3
 Using Euler-Maclaurin-Lebedev (99,590) quadrature formula
 Dispersion:   Grimme D3
 using 8 threads for integral computing
 -------------------------------------------------------
 OpenMP Integral computing Module                
 Release: version 2.0, May 2017, Q-Chem Inc. Pleasanton 
 -------------------------------------------------------
 -------------------------------------------------------
 OpenMP BLAS3 based DFT computing Module                
 Release: version 1.0, May 2013, Q-Chem Inc. Pittsburgh 
 -------------------------------------------------------
 A restricted SCF calculation will be
 performed using GDM
 SCF converges when RMS gradient is below 1.0e-08
 ---------------------------------------
  Cycle       Energy        RMS Gradient
 ---------------------------------------
    1   -1318.3663640827      6.77e-04   Normal BFGS step
    2   -1318.3663676394      1.31e-04   Normal BFGS step
    3   -1318.3663678889      7.08e-05   Normal BFGS step
    4   -1318.3663679178      2.26e-05   Normal BFGS step
    5   -1318.3663679211      1.03e-05   Normal BFGS step
    6   -1318.3663679216      5.69e-06   Normal BFGS step
    7   -1318.3663679217      1.13e-06   Normal BFGS step
    8   -1318.3663679217      2.12e-07   Normal BFGS step
    9   -1318.3663679217      5.55e-08   Normal BFGS step
   10   -1318.3663679217      9.33e-09  Convergence criterion met
 ---------------------------------------
 SCF time:   CPU 10847.58s  wall 1485.00s 
 SCF   energy in the final basis set =    -1318.3663679217
 Total energy in the final basis set =    -1318.3663679217
 
 Components of the MP2 correlation energy:
        aaaa  correlation energy =         0.0000000000 au
        abab  correlation energy =        -0.4013116663 au
        bbbb  correlation energy =         0.0000000000 au
        non-Brillouin singles    =        -0.0000000000 au

 Total  MP2   correlation energy =                    -0.40131167 au
        MP2         total energy =                 -1318.76767959 au
 
 --------------------------------------------------------------
 
                    Orbital Energies (a.u.)
 --------------------------------------------------------------
 
 Alpha MOs
 -- Occupied --
*******-102.818 -90.134  -9.903  -9.903  -8.411  -7.558  -7.558
 -7.552  -7.552  -7.551  -7.551  -6.273  -6.271  -6.263  -1.022
 -0.951  -0.761  -0.528  -0.491  -0.470  -0.410  -0.399  -0.393
 -0.299
 -- Virtual --
 -0.043  -0.030   0.030   0.046   0.047   0.058   0.074   0.083
  0.087   0.090   0.092   0.119   0.154   0.161   0.167   0.168
  0.186   0.202   0.211   0.229   0.233   0.240   0.275   0.276
  0.277   0.289   0.295   0.301   0.333   0.343   0.357   0.406
  0.408   0.410   0.423   0.428   0.464   0.472   0.478   0.479
  0.482   0.500   0.504   0.529   0.535   0.539   0.542   0.550
  0.574   0.586   0.603   0.639   0.641   0.649   0.668   0.699
  0.711   0.713   0.743   0.758   0.763   0.820   0.831   0.859
  0.862   0.901   0.907   0.937   0.951   0.971   1.012   1.021
  1.041   1.048   1.051   1.062   1.114   1.220   1.228   1.249
  1.273   1.288   1.307   1.325   1.342   1.390   1.398   1.406
  1.420   1.428   1.468   1.469   1.479   1.487   1.499   1.511
  1.517   1.524   1.547   1.564   1.571   1.581   1.589   1.597
  1.619   1.623   1.654   1.668   1.730   1.736   1.746   1.765
  1.791   1.848   1.867   1.868   1.881   1.898   1.902   1.915
  1.916   1.924   1.936   1.973   1.997   2.016   2.018   2.043
  2.061   2.070   2.097   2.159   2.160   2.175   2.217   2.253
  2.269   2.278   2.314   2.352   2.355   2.389   2.466   2.485
  2.614   2.627   2.645   2.660   2.704   2.763   2.937   2.961
  3.284   3.340   3.416   3.469   3.471   3.502   3.572   3.610
  3.623   3.655   3.657   3.658   3.681   3.691   3.721   3.746
  3.803   3.823   3.855   3.879   3.886   3.889   3.891   3.927
  4.019   4.024   4.038   4.059   4.225   4.364   4.378   4.392
  4.402   4.415   4.419   4.421   4.433   4.445   4.448   4.452
  4.458   4.466   4.492   4.496   4.516   4.525   4.546   4.553
  4.560   4.568   4.593   4.596   4.597   4.618   4.702   4.740
  4.804   4.834   4.861   4.876   5.006   5.079   5.289   5.318
  5.658   5.735   5.755   5.803   5.957   5.973   6.493   6.554
  8.443   9.802   9.824   9.881   9.950   9.952  10.371  10.564
 11.672  11.674  11.685  11.714  11.806  11.827  11.838  11.986
 12.340  12.347  15.833  16.237  16.412  17.637  17.642  17.646
 17.731  18.226  18.232  18.286  18.302  18.323  18.346  18.355
 18.450  18.506  21.091  21.091  21.093  21.097  21.109  21.115
 21.116  21.119  21.155  21.162  21.166  21.179  21.182  21.183
 28.134  31.349  31.388  31.414  31.591  31.809  33.487  33.604
 37.144  37.145  37.152  37.171  37.242  37.255  37.261  37.359
 37.521  37.546  45.521  45.870  46.015  51.311  51.330  51.334
 51.401  51.851  51.874  55.027  55.027  55.032  55.033  55.038
 55.039  55.041  55.043  55.044  64.626  64.627  64.627  64.627
 64.627  64.627  64.629  64.629  64.629  64.629  64.632  64.632
 64.633  64.633  64.638  64.638  64.638  64.638  65.217  65.223
 65.233  65.235  65.249  65.295  65.295  75.058  75.058  75.059
 75.062  75.068  75.070  75.071  75.072  75.091  75.095  75.097
 75.100  75.102  75.103  82.041  92.976  93.004  93.023  93.144
 93.328  97.356  97.498 109.832 109.832 109.837 109.850 109.904
109.914 109.917 109.988 110.083 110.105 145.075 145.310 145.407
165.496 165.509 165.512 165.551 165.826 165.839 387.394 454.812
455.405
 --------------------------------------------------------------
 
          Ground-State Mulliken Net Atomic Charges

     Atom                 Charge (a.u.)
  ----------------------------------------
      1 S                     0.161699
      2 Cl                   -0.080849
      3 Cl                   -0.080849
  ----------------------------------------
  Sum of atomic charges =    -0.000000

 -----------------------------------------------------------------
                    Cartesian Multipole Moments
 -----------------------------------------------------------------
    Charge (ESU x 10^10)
                -0.0000
    Dipole Moment (Debye)
         X      -0.0000      Y       0.0000      Z       0.4197
       Tot       0.4197
    Quadrupole Moments (Debye-Ang)
        XX     -39.0053     XY       0.0000     YY     -36.5184
        XZ       0.0000     YZ      -0.0000     ZZ     -36.1081
    Octopole Moments (Debye-Ang^2)
       XXX       0.0000    XXY       0.0000    XYY      -0.0000
       YYY       0.0000    XXZ      -1.5156    XYZ      -0.0000
       YYZ      -3.5955    XZZ      -0.0000    YZZ       0.0000
       ZZZ      -0.8779
    Hexadecapole Moments (Debye-Ang^3)
      XXXX     -47.1704   XXXY      -0.0000   XXYY     -78.8695
      XYYY       0.0000   YYYY    -395.2781   XXXZ       0.0000
      XXYZ      -0.0000   XYYZ       0.0000   YYYZ      -0.0000
      XXZZ     -30.0135   XYZZ       0.0000   YYZZ     -81.6144
      XZZZ       0.0000   YZZZ       0.0000   ZZZZ    -117.3096
 -----------------------------------------------------------------
Archival summary:
1\1\n0086.mhg0\SP\ProcedureUnspecified\BasisUnspecified\l21\yhljason\FriOct906:05:142020FriOct906:05:142020\0\\#,ProcedureUnspecified,BasisUnspecified,\\0,1\S\Cl,1,2.01402\Cl,1,2.01402,2,102.8\\\@

 Total job time:  4460.11s(wall), 33481.36s(cpu) 
 Fri Oct  9 06:05:14 2020

        *************************************************************
        *                                                           *
        *  Thank you very much for using Q-Chem.  Have a nice day.  *
        *                                                           *
        *************************************************************


 
User input: 5 of 8 
 
Q-Chem Developer Version!
                  Welcome to Q-Chem
     A Quantum Leap Into The Future Of Chemistry


 Q-Chem 5.1, Q-Chem, Inc., Pleasanton, CA (2018)

 Yihan Shao,  Zhengting Gan,  E. Epifanovsky,  A. T. B. Gilbert,  M. Wormit,  
 J. Kussmann,  A. W. Lange,  A. Behn,  Jia Deng,  Xintian Feng,  D. Ghosh,  
 M. Goldey,  P. R. Horn,  L. D. Jacobson,  I. Kaliman,  T. Kus,  A. Landau,  
 Jie Liu,  E. I. Proynov,  R. M. Richard,  R. P. Steele,  E. J. Sundstrom,  
 H. L. Woodcock III,  P. M. Zimmerman,  D. Zuev,  B. Albrecht,  E. Alguire,  
 S. A. Baeppler,  D. Barton,  Z. Benda,  Y. A. Bernard,  E. J. Berquist,  
 K. B. Bravaya,  H. Burton,  D. Casanova,  Chun-Min Chang,  Yunqing Chen,  
 A. Chien,  K. D. Closser,  M. P. Coons,  S. Coriani,  S. Dasgupta,  
 A. L. Dempwolff,  M. Diedenhofen,  Hainam Do,  R. G. Edgar,  Po-Tung Fang,  
 S. Faraji,  S. Fatehi,  Qingguo Feng,  K. D. Fenk,  J. Fosso-Tande,  
 Qinghui Ge,  A. Ghysels,  G. Gidofalvi,  J. Gomes,  J. Gonthier,  A. Gunina,  
 D. Hait,  M. W. D. Hanson-Heine,  P. H. P. Harbach,  A. W. Hauser,  
 J. E. Herr,  E. G. Hohenstein,  Z. C. Holden,  Kerwin Hui,  B. C. Huynh,  
 T.-C. Jagau,  Hyunjun Ji,  B. Kaduk,  K. Khistyaev,  Jaehoon Kim,  
 P. Klunzinger,  K. Koh,  D. Kosenkov,  L. Koulias,  T. Kowalczyk,  
 C. M. Krauter,  A. Kunitsa,  Ka Un Lao,  A. Laurent,  K. V. Lawler,  
 Joonho Lee,  D. Lefrancois,  S. Lehtola,  D. S. Levine,  Yi-Pei Li,  
 You-Sheng Lin,  Fenglai Liu,  E. Livshits,  A. Luenser,  P. Manohar,  
 E. Mansoor,  S. F. Manzer,  Shan-Ping Mao,  Yuezhi Mao,  N. Mardirossian,  
 A. V. Marenich,  T. Markovich,  L. A. Martinez-Martinez,  S. A. Maurer,  
 N. J. Mayhall,  S. C. McKenzie,  J.-M. Mewes,  A. F. Morrison,  
 J. W. Mullinax,  K. Nanda,  T. S. Nguyen-Beck,  R. Olivares-Amaya,  
 J. A. Parkhill,  T. M. Perrine,  F. Plasser,  P. Pokhilko,  S. Prager,  
 A. Prociuk,  E. Ramos,  D. R. Rehn,  F. Rob,  M. Schneider,  N. Sergueev,  
 S. M. Sharada,  S. Sharma,  D. W. Small,  T. Stauch,  T. Stein,  
 Yu-Chuan Su,  A. J. W. Thom,  A. Tkatchenko,  T. Tsuchimochi,  N. M. Tubman,  
 L. Vogt,  M. L. Vidal,  O. Vydrov,  M. A. Watson,  J. Wenzel,  
 M. de Wergifosse,  T. A. Wesolowski,  A. White,  J. Witte,  A. Yamada,  
 Jun Yang,  K. Yao,  S. Yeganeh,  S. R. Yost,  Zhi-Qiang You,  A. Zech,  
 Igor Ying Zhang,  Xing Zhang,  Yan Zhao,  Ying Zhu,  B. R. Brooks,  
 G. K. L. Chan,  C. J. Cramer,  M. S. Gordon,  W. J. Hehre,  A. Klamt,  
 M. W. Schmidt,  C. D. Sherrill,  D. G. Truhlar,  A. Aspuru-Guzik,  R. Baer,  
 A. T. Bell,  N. A. Besley,  Jeng-Da Chai,  A. E. DePrince, III,  
 R. A. DiStasio Jr.,  A. Dreuw,  B. D. Dunietz,  T. R. Furlani,  
 Chao-Ping Hsu,  Yousung Jung,  Jing Kong,  D. S. Lambrecht,  WanZhen Liang,  
 C. Ochsenfeld,  V. A. Rassolov,  L. V. Slipchenko,  J. E. Subotnik,  
 T. Van Voorhis,  J. M. Herbert,  A. I. Krylov,  P. M. W. Gill,  M. Head-Gordon

 Contributors to earlier versions of Q-Chem not listed above: 
 R. D. Adamson,  B. Austin,  J. Baker,  G. J. O. Beran,  K. Brandhorst,  
 S. T. Brown,  E. F. C. Byrd,  A. K. Chakraborty,  C.-L. Cheng,  
 Siu Hung Chien,  D. M. Chipman,  D. L. Crittenden,  H. Dachsel,  
 R. J. Doerksen,  A. D. Dutoi,  L. Fusti-Molnar,  W. A. Goddard III,  
 A. Golubeva-Zadorozhnaya,  S. R. Gwaltney,  G. Hawkins,  A. Heyden,  
 S. Hirata,  G. Kedziora,  F. J. Keil,  C. Kelley,  Jihan Kim,  R. A. King,  
 R. Z. Khaliullin,  P. P. Korambath,  W. Kurlancheek,  A. M. Lee,  M. S. Lee,  
 S. V. Levchenko,  Ching Yeh Lin,  D. Liotard,  R. C. Lochan,  I. Lotan,  
 P. E. Maslen,  N. Nair,  D. P. O'Neill,  D. Neuhauser,  E. Neuscamman,  
 C. M. Oana,  R. Olson,  B. Peters,  R. Peverati,  P. A. Pieniazek,  
 Y. M. Rhee,  J. Ritchie,  M. A. Rohrdanz,  E. Rosta,  N. J. Russ,  
 H. F. Schaefer III,  N. E. Schultz,  N. Shenvi,  A. C. Simmonett,  A. Sodt,  
 D. Stuck,  K. S. Thanthiriwatte,  V. Vanovschi,  Tao Wang,  A. Warshel,  
 C. F. Williams,  Q. Wu,  X. Xu,  W. Zhang

 Please cite Q-Chem as follows:
 Y. Shao et al., Mol. Phys. 113, 184-215 (2015)
 DOI: 10.1080/00268976.2014.952696

 Q-Chem 5.1.1 for Intel X86 EM64T Linux

 Parts of Q-Chem use Armadillo 8.300.2 (Tropical Shenanigans).
 http://arma.sourceforge.net/

 Q-Chem begins on Fri Oct  9 06:05:15 2020  

Host: n0086.mhg0
0

     Scratch files written to /local/scratch/users/yhljason/SCl2_PWPB95-D3_aug-cc-pcVQZ.inp20201008191801//
The previous job contains 0 fragments, simply inherited here
Input Ideriv = 0
Curr. Ideriv = -1
Max.  Ideriv = 0
Analytic post-HF gradients are not available with non-HF exchange
Input Ideriv = 0
Curr. Ideriv = 0
Max.  Ideriv = 0

Checking the input file for inconsistencies... 	...done.

--------------------------------------------------------------
User input:
--------------------------------------------------------------
$molecule
read
$end

$rem

jobtype sp
method PWPB95-D3
xc_grid 000099000590
basis aug-cc-pcVQZ
max_scf_cycles 200
thresh 14
scf_convergence 8
mem_total 128000
cc_memory 96000
cc_backend xm
mem_static 1500
symmetry false
sym_ignore true
scf_guess read
unrestricted false
scf_algorithm gdm
n_frozen_core 0
$end

$multipole_field
YY 0.0001
$end


--------------------------------------------------------------
 Adding empirical dispersion correction 
 ----------------------------------------------------------------
 Doing -D3(0) with
 s6  =   0.82000
 s8  =   0.70500
 rs6 =   1.55700
 rs8 =   1.00000
 -D3 energy without 3body term =     -0.0003126050 hartrees
 ----------------------------------------------------------------
             Standard Nuclear Orientation (Angstroms)
    I     Atom           X                Y                Z
 ----------------------------------------------------------------
    1      S       0.0000000000     0.0000000000     0.8544000000
    2      Cl      0.0000000000     1.5740000000    -0.4021000000
    3      Cl      0.0000000000    -1.5740000000    -0.4021000000
 ----------------------------------------------------------------
 Nuclear Repulsion Energy =   191.5148202886 hartrees
 There are       25 alpha and       25 beta electrons
 Requested basis set is aug-cc-pCVQZ
 There are 102 shells and 402 basis functions

 Total QAlloc Memory Limit 128000 MB
 Mega-Array Size      1467 MB
 MEM_STATIC part      1500 MB

                       Distance Matrix (Angstroms)
             S (  1)   Cl(  2)
   Cl(  2)  2.014018
   Cl(  3)  2.014018  3.148000
 
 Applying Cartesian multipole field
    Component          Value
    ---------          -----
     (0,2,0)        1.00000E-04
 Nucleus-field energy     =     0.0300805732 hartrees
 A cutoff of  1.0D-14 yielded   4666 shell pairs
 There are     73226 function pairs (    124197 Cartesian)
 
 -------------------------------------------------------
 OpenMP Integral Computing Module                       
 Release: version 1.0, May 2013, Q-Chem Inc. Pittsburgh 
 -------------------------------------------------------
 Integral Job Info:
 Integral job number is                      11
 Integral operator is                         1
 short-range coefficients                     0
 long-range coefficients              100000000
 Omega coefficients                           0
 if combine SR and LR in K                    0
 Integral screening is                        0
 Integral computing path is                   2
 max size of driver memory is           3200000
 size of driver memory is               1704330
 size of scratch memory is             29435624
 max col of scratch BK array              50625
 max len of scratch array in speh3         2114
 max len of scratch index in speh4           50
 max int batch size is                      520
 min int batch size is                       52
 fixed nKL is                                22
 max L of basis functions is                  4
 order of int derivative is                   0
 number of shells is                        102
 number of basis is                         522
 number of cartesian basis is               522
 number of contracted shell pairs          4666
 number of primitive shell pairs          20235
 maxK2 (contraction) of shell pair          169
 max number of K2 of shell pair               1
 max number of CS2 of shell pair            435
 max number of PS2 of shell pair           3042
 mem total for path MDJ                  998488
 -------------------------------------------------------
 Smallest overlap matrix eigenvalue = 2.47E-05
 Guess MOs from SCF MO coefficient file

 -----------------------------------------------------------------------
  General SCF calculation program by
  Eric Jon Sundstrom, Paul Horn, Yuezhi Mao, Dmitri Zuev, Alec White,
  David Stuck, Shaama M.S., Shane Yost, Joonho Lee, David Small,
  Daniel Levine, Susi Lehtola, Hugh Burton, Evgeny Epifanovsky
 -----------------------------------------------------------------------
 Exchange:     0.5000 Hartree-Fock + 1.0000 PWPB95-D3
 Correlation:  0.7310 PWPB95-D3
 Using Euler-Maclaurin-Lebedev (99,590) quadrature formula
 Dispersion:   Grimme D3
 using 8 threads for integral computing
 -------------------------------------------------------
 OpenMP Integral computing Module                
 Release: version 2.0, May 2017, Q-Chem Inc. Pleasanton 
 -------------------------------------------------------
 -------------------------------------------------------
 OpenMP BLAS3 based DFT computing Module                
 Release: version 1.0, May 2013, Q-Chem Inc. Pittsburgh 
 -------------------------------------------------------
 A restricted SCF calculation will be
 performed using GDM
 SCF converges when RMS gradient is below 1.0e-08
 ---------------------------------------
  Cycle       Energy        RMS Gradient
 ---------------------------------------
    1   -1318.3719829225      8.19e-04   Normal BFGS step
    2   -1318.3719871193      7.10e-04   Normal BFGS step
    3   -1318.3719896497      1.42e-04   Normal BFGS step
    4   -1318.3719897456      7.74e-05   Normal BFGS step
    5   -1318.3719897900      1.41e-05   Normal BFGS step
    6   -1318.3719897916      4.15e-06   Normal BFGS step
    7   -1318.3719897920      7.04e-07   Normal BFGS step
    8   -1318.3719897920      2.85e-07   Normal BFGS step
    9   -1318.3719897920      2.68e-08   Normal BFGS step
   10   -1318.3719897920      1.00e-08  Convergence criterion met
 ---------------------------------------
 SCF time:   CPU 10868.69s  wall 1469.00s 
 SCF   energy in the final basis set =    -1318.3719897920
 Total energy in the final basis set =    -1318.3719897920
 
 Components of the MP2 correlation energy:
        aaaa  correlation energy =         0.0000000000 au
        abab  correlation energy =        -0.4013027808 au
        bbbb  correlation energy =         0.0000000000 au
        non-Brillouin singles    =        -0.0000000000 au

 Total  MP2   correlation energy =                    -0.40130278 au
        MP2         total energy =                 -1318.77329257 au
 
 --------------------------------------------------------------
 
                    Orbital Energies (a.u.)
 --------------------------------------------------------------
 
 Alpha MOs
 -- Occupied --
*******-102.819 -90.136  -9.905  -9.905  -8.412  -7.560  -7.560
 -7.554  -7.554  -7.553  -7.553  -6.274  -6.272  -6.264  -1.023
 -0.952  -0.763  -0.529  -0.492  -0.472  -0.411  -0.401  -0.394
 -0.301
 -- Virtual --
 -0.045  -0.032   0.026   0.039   0.045   0.054   0.070   0.080
  0.082   0.084   0.087   0.114   0.151   0.158   0.162   0.166
  0.184   0.199   0.208   0.227   0.230   0.236   0.272   0.273
  0.274   0.285   0.291   0.298   0.330   0.340   0.355   0.403
  0.406   0.408   0.420   0.426   0.462   0.469   0.476   0.477
  0.479   0.498   0.501   0.527   0.533   0.536   0.539   0.548
  0.572   0.584   0.601   0.638   0.639   0.647   0.666   0.698
  0.709   0.711   0.741   0.756   0.761   0.818   0.830   0.858
  0.860   0.899   0.905   0.934   0.950   0.969   1.009   1.018
  1.038   1.046   1.049   1.059   1.111   1.219   1.227   1.247
  1.271   1.286   1.306   1.323   1.340   1.388   1.397   1.405
  1.418   1.426   1.466   1.468   1.478   1.485   1.497   1.510
  1.515   1.523   1.546   1.563   1.569   1.580   1.587   1.596
  1.618   1.621   1.652   1.667   1.729   1.734   1.744   1.763
  1.789   1.846   1.865   1.866   1.879   1.896   1.901   1.913
  1.914   1.922   1.934   1.971   1.995   2.014   2.016   2.041
  2.059   2.069   2.095   2.157   2.158   2.174   2.216   2.251
  2.267   2.277   2.313   2.350   2.353   2.387   2.464   2.483
  2.612   2.625   2.643   2.658   2.703   2.762   2.936   2.960
  3.282   3.339   3.415   3.468   3.470   3.500   3.571   3.609
  3.622   3.654   3.655   3.657   3.679   3.690   3.720   3.744
  3.801   3.822   3.854   3.877   3.885   3.887   3.890   3.925
  4.018   4.022   4.037   4.057   4.223   4.363   4.377   4.391
  4.401   4.413   4.418   4.420   4.431   4.443   4.446   4.451
  4.456   4.464   4.490   4.494   4.514   4.523   4.544   4.551
  4.559   4.567   4.592   4.594   4.595   4.617   4.700   4.738
  4.803   4.832   4.860   4.874   5.005   5.078   5.288   5.317
  5.657   5.733   5.753   5.802   5.955   5.971   6.491   6.553
  8.441   9.801   9.823   9.879   9.948   9.951  10.370  10.562
 11.670  11.672  11.684  11.712  11.805  11.826  11.836  11.984
 12.338  12.345  15.832  16.235  16.410  17.635  17.640  17.644
 17.730  18.225  18.230  18.285  18.301  18.321  18.345  18.353
 18.449  18.505  21.089  21.089  21.092  21.096  21.108  21.114
 21.114  21.117  21.153  21.160  21.165  21.177  21.181  21.182
 28.133  31.347  31.386  31.412  31.589  31.808  33.485  33.603
 37.142  37.143  37.150  37.169  37.240  37.253  37.260  37.358
 37.519  37.544  45.520  45.868  46.014  51.309  51.328  51.333
 51.400  51.849  51.873  55.026  55.026  55.031  55.032  55.036
 55.038  55.039  55.042  55.042  64.624  64.625  64.625  64.626
 64.626  64.626  64.627  64.628  64.628  64.628  64.630  64.631
 64.631  64.631  64.636  64.636  64.637  64.637  65.216  65.221
 65.231  65.233  65.247  65.293  65.294  75.057  75.057  75.058
 75.060  75.066  75.069  75.069  75.071  75.090  75.093  75.096
 75.098  75.101  75.101  82.039  92.974  93.003  93.021  93.142
 93.326  97.355  97.496 109.830 109.830 109.835 109.849 109.903
109.912 109.916 109.986 110.082 110.103 145.074 145.308 145.406
165.494 165.507 165.510 165.549 165.825 165.838 387.392 454.811
455.404
 --------------------------------------------------------------
 
          Ground-State Mulliken Net Atomic Charges

     Atom                 Charge (a.u.)
  ----------------------------------------
      1 S                     0.163585
      2 Cl                   -0.081793
      3 Cl                   -0.081793
  ----------------------------------------
  Sum of atomic charges =    -0.000000

 -----------------------------------------------------------------
                    Cartesian Multipole Moments
 -----------------------------------------------------------------
    Charge (ESU x 10^10)
                -0.0000
    Dipole Moment (Debye)
         X      -0.0000      Y       0.0000      Z       0.4296
       Tot       0.4296
    Quadrupole Moments (Debye-Ang)
        XX     -39.0321     XY      -0.0000     YY     -36.6766
        XZ       0.0000     YZ      -0.0000     ZZ     -36.0975
    Octopole Moments (Debye-Ang^2)
       XXX      -0.0000    XXY       0.0000    XYY      -0.0000
       YYY       0.0000    XXZ      -1.5103    XYZ       0.0000
       YYZ      -3.5478    XZZ      -0.0000    YZZ       0.0000
       ZZZ      -0.8413
    Hexadecapole Moments (Debye-Ang^3)
      XXXX     -47.2928   XXXY      -0.0000   XXYY     -79.0521
      XYYY      -0.0000   YYYY    -396.7716   XXXZ       0.0000
      XXYZ      -0.0000   XYYZ       0.0000   YYYZ      -0.0000
      XXZZ     -30.0415   XYZZ       0.0000   YYZZ     -81.7460
      XZZZ       0.0000   YZZZ       0.0000   ZZZZ    -117.2681
 -----------------------------------------------------------------
Archival summary:
1\1\n0086.mhg0\SP\ProcedureUnspecified\BasisUnspecified\l21\yhljason\FriOct907:22:192020FriOct907:22:192020\0\\#,ProcedureUnspecified,BasisUnspecified,\\0,1\S\Cl,1,2.01402\Cl,1,2.01402,2,102.8\\\@

 Total job time:  4624.68s(wall), 32824.02s(cpu) 
 Fri Oct  9 07:22:19 2020

        *************************************************************
        *                                                           *
        *  Thank you very much for using Q-Chem.  Have a nice day.  *
        *                                                           *
        *************************************************************


 
User input: 6 of 8 
 
Q-Chem Developer Version!
                  Welcome to Q-Chem
     A Quantum Leap Into The Future Of Chemistry


 Q-Chem 5.1, Q-Chem, Inc., Pleasanton, CA (2018)

 Yihan Shao,  Zhengting Gan,  E. Epifanovsky,  A. T. B. Gilbert,  M. Wormit,  
 J. Kussmann,  A. W. Lange,  A. Behn,  Jia Deng,  Xintian Feng,  D. Ghosh,  
 M. Goldey,  P. R. Horn,  L. D. Jacobson,  I. Kaliman,  T. Kus,  A. Landau,  
 Jie Liu,  E. I. Proynov,  R. M. Richard,  R. P. Steele,  E. J. Sundstrom,  
 H. L. Woodcock III,  P. M. Zimmerman,  D. Zuev,  B. Albrecht,  E. Alguire,  
 S. A. Baeppler,  D. Barton,  Z. Benda,  Y. A. Bernard,  E. J. Berquist,  
 K. B. Bravaya,  H. Burton,  D. Casanova,  Chun-Min Chang,  Yunqing Chen,  
 A. Chien,  K. D. Closser,  M. P. Coons,  S. Coriani,  S. Dasgupta,  
 A. L. Dempwolff,  M. Diedenhofen,  Hainam Do,  R. G. Edgar,  Po-Tung Fang,  
 S. Faraji,  S. Fatehi,  Qingguo Feng,  K. D. Fenk,  J. Fosso-Tande,  
 Qinghui Ge,  A. Ghysels,  G. Gidofalvi,  J. Gomes,  J. Gonthier,  A. Gunina,  
 D. Hait,  M. W. D. Hanson-Heine,  P. H. P. Harbach,  A. W. Hauser,  
 J. E. Herr,  E. G. Hohenstein,  Z. C. Holden,  Kerwin Hui,  B. C. Huynh,  
 T.-C. Jagau,  Hyunjun Ji,  B. Kaduk,  K. Khistyaev,  Jaehoon Kim,  
 P. Klunzinger,  K. Koh,  D. Kosenkov,  L. Koulias,  T. Kowalczyk,  
 C. M. Krauter,  A. Kunitsa,  Ka Un Lao,  A. Laurent,  K. V. Lawler,  
 Joonho Lee,  D. Lefrancois,  S. Lehtola,  D. S. Levine,  Yi-Pei Li,  
 You-Sheng Lin,  Fenglai Liu,  E. Livshits,  A. Luenser,  P. Manohar,  
 E. Mansoor,  S. F. Manzer,  Shan-Ping Mao,  Yuezhi Mao,  N. Mardirossian,  
 A. V. Marenich,  T. Markovich,  L. A. Martinez-Martinez,  S. A. Maurer,  
 N. J. Mayhall,  S. C. McKenzie,  J.-M. Mewes,  A. F. Morrison,  
 J. W. Mullinax,  K. Nanda,  T. S. Nguyen-Beck,  R. Olivares-Amaya,  
 J. A. Parkhill,  T. M. Perrine,  F. Plasser,  P. Pokhilko,  S. Prager,  
 A. Prociuk,  E. Ramos,  D. R. Rehn,  F. Rob,  M. Schneider,  N. Sergueev,  
 S. M. Sharada,  S. Sharma,  D. W. Small,  T. Stauch,  T. Stein,  
 Yu-Chuan Su,  A. J. W. Thom,  A. Tkatchenko,  T. Tsuchimochi,  N. M. Tubman,  
 L. Vogt,  M. L. Vidal,  O. Vydrov,  M. A. Watson,  J. Wenzel,  
 M. de Wergifosse,  T. A. Wesolowski,  A. White,  J. Witte,  A. Yamada,  
 Jun Yang,  K. Yao,  S. Yeganeh,  S. R. Yost,  Zhi-Qiang You,  A. Zech,  
 Igor Ying Zhang,  Xing Zhang,  Yan Zhao,  Ying Zhu,  B. R. Brooks,  
 G. K. L. Chan,  C. J. Cramer,  M. S. Gordon,  W. J. Hehre,  A. Klamt,  
 M. W. Schmidt,  C. D. Sherrill,  D. G. Truhlar,  A. Aspuru-Guzik,  R. Baer,  
 A. T. Bell,  N. A. Besley,  Jeng-Da Chai,  A. E. DePrince, III,  
 R. A. DiStasio Jr.,  A. Dreuw,  B. D. Dunietz,  T. R. Furlani,  
 Chao-Ping Hsu,  Yousung Jung,  Jing Kong,  D. S. Lambrecht,  WanZhen Liang,  
 C. Ochsenfeld,  V. A. Rassolov,  L. V. Slipchenko,  J. E. Subotnik,  
 T. Van Voorhis,  J. M. Herbert,  A. I. Krylov,  P. M. W. Gill,  M. Head-Gordon

 Contributors to earlier versions of Q-Chem not listed above: 
 R. D. Adamson,  B. Austin,  J. Baker,  G. J. O. Beran,  K. Brandhorst,  
 S. T. Brown,  E. F. C. Byrd,  A. K. Chakraborty,  C.-L. Cheng,  
 Siu Hung Chien,  D. M. Chipman,  D. L. Crittenden,  H. Dachsel,  
 R. J. Doerksen,  A. D. Dutoi,  L. Fusti-Molnar,  W. A. Goddard III,  
 A. Golubeva-Zadorozhnaya,  S. R. Gwaltney,  G. Hawkins,  A. Heyden,  
 S. Hirata,  G. Kedziora,  F. J. Keil,  C. Kelley,  Jihan Kim,  R. A. King,  
 R. Z. Khaliullin,  P. P. Korambath,  W. Kurlancheek,  A. M. Lee,  M. S. Lee,  
 S. V. Levchenko,  Ching Yeh Lin,  D. Liotard,  R. C. Lochan,  I. Lotan,  
 P. E. Maslen,  N. Nair,  D. P. O'Neill,  D. Neuhauser,  E. Neuscamman,  
 C. M. Oana,  R. Olson,  B. Peters,  R. Peverati,  P. A. Pieniazek,  
 Y. M. Rhee,  J. Ritchie,  M. A. Rohrdanz,  E. Rosta,  N. J. Russ,  
 H. F. Schaefer III,  N. E. Schultz,  N. Shenvi,  A. C. Simmonett,  A. Sodt,  
 D. Stuck,  K. S. Thanthiriwatte,  V. Vanovschi,  Tao Wang,  A. Warshel,  
 C. F. Williams,  Q. Wu,  X. Xu,  W. Zhang

 Please cite Q-Chem as follows:
 Y. Shao et al., Mol. Phys. 113, 184-215 (2015)
 DOI: 10.1080/00268976.2014.952696

 Q-Chem 5.1.1 for Intel X86 EM64T Linux

 Parts of Q-Chem use Armadillo 8.300.2 (Tropical Shenanigans).
 http://arma.sourceforge.net/

 Q-Chem begins on Fri Oct  9 07:22:20 2020  

Host: n0086.mhg0
0

     Scratch files written to /local/scratch/users/yhljason/SCl2_PWPB95-D3_aug-cc-pcVQZ.inp20201008191801//
The previous job contains 0 fragments, simply inherited here
Input Ideriv = 0
Curr. Ideriv = -1
Max.  Ideriv = 0
Analytic post-HF gradients are not available with non-HF exchange
Input Ideriv = 0
Curr. Ideriv = 0
Max.  Ideriv = 0

Checking the input file for inconsistencies... 	...done.

--------------------------------------------------------------
User input:
--------------------------------------------------------------
$molecule
read
$end

$rem

jobtype sp
method PWPB95-D3
xc_grid 000099000590
basis aug-cc-pcVQZ
max_scf_cycles 200
thresh 14
scf_convergence 8
mem_total 128000
cc_memory 96000
cc_backend xm
mem_static 1500
symmetry false
sym_ignore true
scf_guess read
unrestricted false
scf_algorithm gdm
n_frozen_core 0
$end

$multipole_field
YY -0.0001
$end


--------------------------------------------------------------
 Adding empirical dispersion correction 
 ----------------------------------------------------------------
 Doing -D3(0) with
 s6  =   0.82000
 s8  =   0.70500
 rs6 =   1.55700
 rs8 =   1.00000
 -D3 energy without 3body term =     -0.0003126050 hartrees
 ----------------------------------------------------------------
             Standard Nuclear Orientation (Angstroms)
    I     Atom           X                Y                Z
 ----------------------------------------------------------------
    1      S       0.0000000000     0.0000000000     0.8544000000
    2      Cl      0.0000000000     1.5740000000    -0.4021000000
    3      Cl      0.0000000000    -1.5740000000    -0.4021000000
 ----------------------------------------------------------------
 Nuclear Repulsion Energy =   191.5148202886 hartrees
 There are       25 alpha and       25 beta electrons
 Requested basis set is aug-cc-pCVQZ
 There are 102 shells and 402 basis functions

 Total QAlloc Memory Limit 128000 MB
 Mega-Array Size      1467 MB
 MEM_STATIC part      1500 MB

                       Distance Matrix (Angstroms)
             S (  1)   Cl(  2)
   Cl(  2)  2.014018
   Cl(  3)  2.014018  3.148000
 
 Applying Cartesian multipole field
    Component          Value
    ---------          -----
     (0,2,0)       -1.00000E-04
 Nucleus-field energy     =    -0.0300805732 hartrees
 A cutoff of  1.0D-14 yielded   4666 shell pairs
 There are     73226 function pairs (    124197 Cartesian)
 
 -------------------------------------------------------
 OpenMP Integral Computing Module                       
 Release: version 1.0, May 2013, Q-Chem Inc. Pittsburgh 
 -------------------------------------------------------
 Integral Job Info:
 Integral job number is                      11
 Integral operator is                         1
 short-range coefficients                     0
 long-range coefficients              100000000
 Omega coefficients                           0
 if combine SR and LR in K                    0
 Integral screening is                        0
 Integral computing path is                   2
 max size of driver memory is           3200000
 size of driver memory is               1704330
 size of scratch memory is             29435624
 max col of scratch BK array              50625
 max len of scratch array in speh3         2114
 max len of scratch index in speh4           50
 max int batch size is                      520
 min int batch size is                       52
 fixed nKL is                                22
 max L of basis functions is                  4
 order of int derivative is                   0
 number of shells is                        102
 number of basis is                         522
 number of cartesian basis is               522
 number of contracted shell pairs          4666
 number of primitive shell pairs          20235
 maxK2 (contraction) of shell pair          169
 max number of K2 of shell pair               1
 max number of CS2 of shell pair            435
 max number of PS2 of shell pair           3042
 mem total for path MDJ                  998488
 -------------------------------------------------------
 Smallest overlap matrix eigenvalue = 2.47E-05
 Guess MOs from SCF MO coefficient file

 -----------------------------------------------------------------------
  General SCF calculation program by
  Eric Jon Sundstrom, Paul Horn, Yuezhi Mao, Dmitri Zuev, Alec White,
  David Stuck, Shaama M.S., Shane Yost, Joonho Lee, David Small,
  Daniel Levine, Susi Lehtola, Hugh Burton, Evgeny Epifanovsky
 -----------------------------------------------------------------------
 Exchange:     0.5000 Hartree-Fock + 1.0000 PWPB95-D3
 Correlation:  0.7310 PWPB95-D3
 Using Euler-Maclaurin-Lebedev (99,590) quadrature formula
 Dispersion:   Grimme D3
 using 8 threads for integral computing
 -------------------------------------------------------
 OpenMP Integral computing Module                
 Release: version 2.0, May 2017, Q-Chem Inc. Pleasanton 
 -------------------------------------------------------
 -------------------------------------------------------
 OpenMP BLAS3 based DFT computing Module                
 Release: version 1.0, May 2013, Q-Chem Inc. Pittsburgh 
 -------------------------------------------------------
 A restricted SCF calculation will be
 performed using GDM
 SCF converges when RMS gradient is below 1.0e-08
 ---------------------------------------
  Cycle       Energy        RMS Gradient
 ---------------------------------------
    1   -1318.3665361556      1.65e-03   Normal BFGS step
    2   -1318.3665502077      1.30e-03   Normal BFGS step
    3   -1318.3665590368      2.65e-04   Normal BFGS step
    4   -1318.3665593593      1.35e-04   Normal BFGS step
    5   -1318.3665594977      2.39e-05   Normal BFGS step
    6   -1318.3665595031      7.77e-06   Normal BFGS step
    7   -1318.3665595040      1.68e-06   Normal BFGS step
    8   -1318.3665595041      6.02e-07   Normal BFGS step
    9   -1318.3665595041      7.07e-08   Normal BFGS step
   10   -1318.3665595041      1.85e-08   Normal BFGS step
   11   -1318.3665595041      2.45e-09  Convergence criterion met
 ---------------------------------------
 SCF time:   CPU 12018.15s  wall 1581.00s 
 SCF   energy in the final basis set =    -1318.3665595041
 Total energy in the final basis set =    -1318.3665595041
 
 Components of the MP2 correlation energy:
        aaaa  correlation energy =         0.0000000000 au
        abab  correlation energy =        -0.4013194040 au
        bbbb  correlation energy =         0.0000000000 au
        non-Brillouin singles    =        -0.0000000000 au

 Total  MP2   correlation energy =                    -0.40131940 au
        MP2         total energy =                 -1318.76787891 au
 
 --------------------------------------------------------------
 
                    Orbital Energies (a.u.)
 --------------------------------------------------------------
 
 Alpha MOs
 -- Occupied --
*******-102.817 -90.134  -9.903  -9.903  -8.410  -7.558  -7.558
 -7.551  -7.551  -7.551  -7.551  -6.272  -6.270  -6.262  -1.021
 -0.950  -0.761  -0.527  -0.490  -0.469  -0.409  -0.399  -0.392
 -0.299
 -- Virtual --
 -0.042  -0.029   0.032   0.048   0.049   0.056   0.076   0.083
  0.090   0.090   0.091   0.122   0.155   0.161   0.169   0.169
  0.187   0.202   0.213   0.229   0.234   0.242   0.276   0.277
  0.278   0.289   0.298   0.302   0.336   0.342   0.357   0.406
  0.409   0.412   0.425   0.429   0.465   0.472   0.479   0.480
  0.484   0.501   0.505   0.529   0.536   0.541   0.543   0.551
  0.575   0.587   0.603   0.640   0.641   0.651   0.669   0.700
  0.712   0.714   0.743   0.758   0.763   0.820   0.832   0.860
  0.863   0.902   0.908   0.937   0.952   0.972   1.013   1.022
  1.042   1.050   1.053   1.063   1.116   1.221   1.229   1.249
  1.273   1.289   1.308   1.325   1.342   1.391   1.400   1.407
  1.421   1.429   1.468   1.470   1.480   1.487   1.500   1.512
[...]
 17.730  18.226  18.231  18.285  18.301  18.322  18.345  18.354
 18.449  18.505  21.090  21.090  21.092  21.097  21.109  21.114
 21.115  21.118  21.154  21.161  21.166  21.178  21.181  21.182
 28.133  31.348  31.387  31.413  31.590  31.808  33.486  33.603
 37.143  37.144  37.151  37.170  37.241  37.254  37.260  37.359
 37.520  37.545  45.520  45.869  46.014  51.310  51.329  51.334
 51.400  51.850  51.873  55.026  55.026  55.031  55.032  55.037
 55.039  55.040  55.042  55.043  64.625  64.626  64.626  64.626
 64.626  64.626  64.628  64.628  64.628  64.629  64.631  64.631
 64.632  64.632  64.637  64.637  64.637  64.637  65.216  65.222
 65.232  65.234  65.248  65.294  65.294  75.057  75.057  75.058
 75.061  75.067  75.070  75.070  75.071  75.090  75.094  75.097
 75.099  75.101  75.102  82.040  92.975  93.003  93.022  93.143
 93.327  97.355  97.497 109.831 109.831 109.836 109.849 109.903
109.913 109.917 109.987 110.082 110.104 145.074 145.309 145.406
165.495 165.508 165.511 165.550 165.825 165.838 387.393 454.811
455.404
 --------------------------------------------------------------
 
          Ground-State Mulliken Net Atomic Charges

     Atom                 Charge (a.u.)
  ----------------------------------------
      1 S                     0.160507
      2 Cl                   -0.080253
      3 Cl                   -0.080253
  ----------------------------------------
  Sum of atomic charges =    -0.000000

 -----------------------------------------------------------------
                    Cartesian Multipole Moments
 -----------------------------------------------------------------
    Charge (ESU x 10^10)
                -0.0000
    Dipole Moment (Debye)
         X      -0.0000      Y       0.0000      Z       0.4143
       Tot       0.4143
    Quadrupole Moments (Debye-Ang)
        XX     -39.0351     XY       0.0000     YY     -36.5046
        XZ       0.0000     YZ       0.0000     ZZ     -36.1660
    Octopole Moments (Debye-Ang^2)
       XXX      -0.0000    XXY      -0.0000    XYY      -0.0000
       YYY      -0.0000    XXZ      -1.5268    XYZ      -0.0000
       YYZ      -3.5834    XZZ      -0.0000    YZZ      -0.0000
       ZZZ      -0.9216
    Hexadecapole Moments (Debye-Ang^3)
      XXXX     -47.3109   XXXY       0.0000   XXYY     -78.9294
      XYYY       0.0000   YYYY    -395.2209   XXXZ       0.0000
      XXYZ       0.0000   XYYZ       0.0000   YYYZ       0.0000
      XXZZ     -30.1048   XYZZ       0.0000   YYZZ     -81.6956
      XZZZ       0.0000   YZZZ       0.0000   ZZZZ    -117.6551
 -----------------------------------------------------------------
Archival summary:
1\1\n0086.mhg0\SP\ProcedureUnspecified\BasisUnspecified\l21\yhljason\FriOct909:54:292020FriOct909:54:292020\0\\#,ProcedureUnspecified,BasisUnspecified,\\0,1\S\Cl,1,2.01402\Cl,1,2.01402,2,102.8\\\@

 Total job time:  4588.36s(wall), 34788.84s(cpu) 
 Fri Oct  9 09:54:29 2020

        *************************************************************
        *                                                           *
        *  Thank you very much for using Q-Chem.  Have a nice day.  *
        *                                                           *
        *************************************************************


 
User input: 8 of 8 
 
Q-Chem Developer Version!
                  Welcome to Q-Chem
     A Quantum Leap Into The Future Of Chemistry


 Q-Chem 5.1, Q-Chem, Inc., Pleasanton, CA (2018)

 Yihan Shao,  Zhengting Gan,  E. Epifanovsky,  A. T. B. Gilbert,  M. Wormit,  
 J. Kussmann,  A. W. Lange,  A. Behn,  Jia Deng,  Xintian Feng,  D. Ghosh,  
 M. Goldey,  P. R. Horn,  L. D. Jacobson,  I. Kaliman,  T. Kus,  A. Landau,  
 Jie Liu,  E. I. Proynov,  R. M. Richard,  R. P. Steele,  E. J. Sundstrom,  
 H. L. Woodcock III,  P. M. Zimmerman,  D. Zuev,  B. Albrecht,  E. Alguire,  
 S. A. Baeppler,  D. Barton,  Z. Benda,  Y. A. Bernard,  E. J. Berquist,  
 K. B. Bravaya,  H. Burton,  D. Casanova,  Chun-Min Chang,  Yunqing Chen,  
 A. Chien,  K. D. Closser,  M. P. Coons,  S. Coriani,  S. Dasgupta,  
 A. L. Dempwolff,  M. Diedenhofen,  Hainam Do,  R. G. Edgar,  Po-Tung Fang,  
 S. Faraji,  S. Fatehi,  Qingguo Feng,  K. D. Fenk,  J. Fosso-Tande,  
 Qinghui Ge,  A. Ghysels,  G. Gidofalvi,  J. Gomes,  J. Gonthier,  A. Gunina,  
 D. Hait,  M. W. D. Hanson-Heine,  P. H. P. Harbach,  A. W. Hauser,  
 J. E. Herr,  E. G. Hohenstein,  Z. C. Holden,  Kerwin Hui,  B. C. Huynh,  
 T.-C. Jagau,  Hyunjun Ji,  B. Kaduk,  K. Khistyaev,  Jaehoon Kim,  
 P. Klunzinger,  K. Koh,  D. Kosenkov,  L. Koulias,  T. Kowalczyk,  
 C. M. Krauter,  A. Kunitsa,  Ka Un Lao,  A. Laurent,  K. V. Lawler,  
 Joonho Lee,  D. Lefrancois,  S. Lehtola,  D. S. Levine,  Yi-Pei Li,  
 You-Sheng Lin,  Fenglai Liu,  E. Livshits,  A. Luenser,  P. Manohar,  
 E. Mansoor,  S. F. Manzer,  Shan-Ping Mao,  Yuezhi Mao,  N. Mardirossian,  
 A. V. Marenich,  T. Markovich,  L. A. Martinez-Martinez,  S. A. Maurer,  
 N. J. Mayhall,  S. C. McKenzie,  J.-M. Mewes,  A. F. Morrison,  
 J. W. Mullinax,  K. Nanda,  T. S. Nguyen-Beck,  R. Olivares-Amaya,  
 J. A. Parkhill,  T. M. Perrine,  F. Plasser,  P. Pokhilko,  S. Prager,  
 A. Prociuk,  E. Ramos,  D. R. Rehn,  F. Rob,  M. Schneider,  N. Sergueev,  
 S. M. Sharada,  S. Sharma,  D. W. Small,  T. Stauch,  T. Stein,  
 Yu-Chuan Su,  A. J. W. Thom,  A. Tkatchenko,  T. Tsuchimochi,  N. M. Tubman,  
 L. Vogt,  M. L. Vidal,  O. Vydrov,  M. A. Watson,  J. Wenzel,  
 M. de Wergifosse,  T. A. Wesolowski,  A. White,  J. Witte,  A. Yamada,  
 Jun Yang,  K. Yao,  S. Yeganeh,  S. R. Yost,  Zhi-Qiang You,  A. Zech,  
 Igor Ying Zhang,  Xing Zhang,  Yan Zhao,  Ying Zhu,  B. R. Brooks,  
 G. K. L. Chan,  C. J. Cramer,  M. S. Gordon,  W. J. Hehre,  A. Klamt,  
 M. W. Schmidt,  C. D. Sherrill,  D. G. Truhlar,  A. Aspuru-Guzik,  R. Baer,  
 A. T. Bell,  N. A. Besley,  Jeng-Da Chai,  A. E. DePrince, III,  
 R. A. DiStasio Jr.,  A. Dreuw,  B. D. Dunietz,  T. R. Furlani,  
 Chao-Ping Hsu,  Yousung Jung,  Jing Kong,  D. S. Lambrecht,  WanZhen Liang,  
 C. Ochsenfeld,  V. A. Rassolov,  L. V. Slipchenko,  J. E. Subotnik,  
 T. Van Voorhis,  J. M. Herbert,  A. I. Krylov,  P. M. W. Gill,  M. Head-Gordon

 Contributors to earlier versions of Q-Chem not listed above: 
 R. D. Adamson,  B. Austin,  J. Baker,  G. J. O. Beran,  K. Brandhorst,  
 S. T. Brown,  E. F. C. Byrd,  A. K. Chakraborty,  C.-L. Cheng,  
 Siu Hung Chien,  D. M. Chipman,  D. L. Crittenden,  H. Dachsel,  
 R. J. Doerksen,  A. D. Dutoi,  L. Fusti-Molnar,  W. A. Goddard III,  
 A. Golubeva-Zadorozhnaya,  S. R. Gwaltney,  G. Hawkins,  A. Heyden,  
 S. Hirata,  G. Kedziora,  F. J. Keil,  C. Kelley,  Jihan Kim,  R. A. King,  
 R. Z. Khaliullin,  P. P. Korambath,  W. Kurlancheek,  A. M. Lee,  M. S. Lee,  
 S. V. Levchenko,  Ching Yeh Lin,  D. Liotard,  R. C. Lochan,  I. Lotan,  
 P. E. Maslen,  N. Nair,  D. P. O'Neill,  D. Neuhauser,  E. Neuscamman,  
 C. M. Oana,  R. Olson,  B. Peters,  R. Peverati,  P. A. Pieniazek,  
 Y. M. Rhee,  J. Ritchie,  M. A. Rohrdanz,  E. Rosta,  N. J. Russ,  
 H. F. Schaefer III,  N. E. Schultz,  N. Shenvi,  A. C. Simmonett,  A. Sodt,  
 D. Stuck,  K. S. Thanthiriwatte,  V. Vanovschi,  Tao Wang,  A. Warshel,  
 C. F. Williams,  Q. Wu,  X. Xu,  W. Zhang

 Please cite Q-Chem as follows:
 Y. Shao et al., Mol. Phys. 113, 184-215 (2015)
 DOI: 10.1080/00268976.2014.952696

 Q-Chem 5.1.1 for Intel X86 EM64T Linux

 Parts of Q-Chem use Armadillo 8.300.2 (Tropical Shenanigans).
 http://arma.sourceforge.net/

 Q-Chem begins on Fri Oct  9 09:54:29 2020  

Host: n0086.mhg0
0

     Scratch files written to /local/scratch/users/yhljason/SCl2_PWPB95-D3_aug-cc-pcVQZ.inp20201008191801//
The previous job contains 0 fragments, simply inherited here
Input Ideriv = 0
Curr. Ideriv = -1
Max.  Ideriv = 0
Analytic post-HF gradients are not available with non-HF exchange
Input Ideriv = 0
Curr. Ideriv = 0
Max.  Ideriv = 0

Checking the input file for inconsistencies... 	...done.

--------------------------------------------------------------
User input:
--------------------------------------------------------------
$molecule
read
$end

$rem

jobtype sp
method PWPB95-D3
xc_grid 000099000590
basis aug-cc-pcVQZ
max_scf_cycles 200
thresh 14
scf_convergence 8
mem_total 128000
cc_memory 96000
cc_backend xm
mem_static 1500
symmetry false
sym_ignore true
scf_guess read
unrestricted false
scf_algorithm gdm
n_frozen_core 0
$end

$multipole_field
ZZ -0.0001
$end

--------------------------------------------------------------
 Adding empirical dispersion correction 
 ----------------------------------------------------------------
 Doing -D3(0) with
 s6  =   0.82000
 s8  =   0.70500
 rs6 =   1.55700
 rs8 =   1.00000
 -D3 energy without 3body term =     -0.0003126050 hartrees
 ----------------------------------------------------------------
             Standard Nuclear Orientation (Angstroms)
    I     Atom           X                Y                Z
 ----------------------------------------------------------------
    1      S       0.0000000000     0.0000000000     0.8544000000
    2      Cl      0.0000000000     1.5740000000    -0.4021000000
    3      Cl      0.0000000000    -1.5740000000    -0.4021000000
 ----------------------------------------------------------------
 Nuclear Repulsion Energy =   191.5148202886 hartrees
 There are       25 alpha and       25 beta electrons
 Requested basis set is aug-cc-pCVQZ
 There are 102 shells and 402 basis functions

 Total QAlloc Memory Limit 128000 MB
 Mega-Array Size      1467 MB
 MEM_STATIC part      1500 MB

                       Distance Matrix (Angstroms)
             S (  1)   Cl(  2)
   Cl(  2)  2.014018
   Cl(  3)  2.014018  3.148000
 
 Applying Cartesian multipole field
    Component          Value
    ---------          -----
     (0,0,2)       -1.00000E-04
 Nucleus-field energy     =    -0.0061341108 hartrees
 A cutoff of  1.0D-14 yielded   4666 shell pairs
 There are     73226 function pairs (    124197 Cartesian)
 
 -------------------------------------------------------
 OpenMP Integral Computing Module                       
 Release: version 1.0, May 2013, Q-Chem Inc. Pittsburgh 
 -------------------------------------------------------
 Integral Job Info:
 Integral job number is                      11
 Integral operator is                         1
 short-range coefficients                     0
 long-range coefficients              100000000
 Omega coefficients                           0
 if combine SR and LR in K                    0
 Integral screening is                        0
 Integral computing path is                   2
 max size of driver memory is           3200000
 size of driver memory is               1704330
 size of scratch memory is             29435624
 max col of scratch BK array              50625
 max len of scratch array in speh3         2114
 max len of scratch index in speh4           50
 max int batch size is                      520
 min int batch size is                       52
 fixed nKL is                                22
 max L of basis functions is                  4
 order of int derivative is                   0
 number of shells is                        102
 number of basis is                         522
 number of cartesian basis is               522
 number of contracted shell pairs          4666
 number of primitive shell pairs          20235
 maxK2 (contraction) of shell pair          169
 max number of K2 of shell pair               1
 max number of CS2 of shell pair            435
 max number of PS2 of shell pair           3042
 mem total for path MDJ                  998488
 -------------------------------------------------------
 Smallest overlap matrix eigenvalue = 2.47E-05
 Guess MOs from SCF MO coefficient file

 -----------------------------------------------------------------------
  General SCF calculation program by
  Eric Jon Sundstrom, Paul Horn, Yuezhi Mao, Dmitri Zuev, Alec White,
  David Stuck, Shaama M.S., Shane Yost, Joonho Lee, David Small,
  Daniel Levine, Susi Lehtola, Hugh Burton, Evgeny Epifanovsky
 -----------------------------------------------------------------------
 Exchange:     0.5000 Hartree-Fock + 1.0000 PWPB95-D3
 Correlation:  0.7310 PWPB95-D3
 Using Euler-Maclaurin-Lebedev (99,590) quadrature formula
 Dispersion:   Grimme D3
 using 8 threads for integral computing
 -------------------------------------------------------
 OpenMP Integral computing Module                
 Release: version 2.0, May 2017, Q-Chem Inc. Pleasanton 
 -------------------------------------------------------
 -------------------------------------------------------
 OpenMP BLAS3 based DFT computing Module                
 Release: version 1.0, May 2013, Q-Chem Inc. Pittsburgh 
 -------------------------------------------------------
 A restricted SCF calculation will be
 performed using GDM
 SCF converges when RMS gradient is below 1.0e-08
 ---------------------------------------
  Cycle       Energy        RMS Gradient
 ---------------------------------------
    1   -1318.3665779718      7.16e-04   Normal BFGS step
    2   -1318.3665847864      3.28e-04   Normal BFGS step
    3   -1318.3665858772      6.62e-05   Normal BFGS step
    4   -1318.3665859444      2.71e-05   Normal BFGS step
    5   -1318.3665859520      6.21e-06   Normal BFGS step
    6   -1318.3665859526      2.41e-06   Normal BFGS step
    7   -1318.3665859526      1.73e-06   Normal BFGS step
    8   -1318.3665859526      5.99e-07   Normal BFGS step
    9   -1318.3665859526      9.11e-08   Normal BFGS step
   10   -1318.3665859526      2.03e-08   Normal BFGS step
   11   -1318.3665859526      4.41e-09  Convergence criterion met
 ---------------------------------------
 SCF time:   CPU 11817.62s  wall 1617.00s 
 SCF   energy in the final basis set =    -1318.3665859526
 Total energy in the final basis set =    -1318.3665859526
 
 Components of the MP2 correlation energy:
        aaaa  correlation energy =         0.0000000000 au
        abab  correlation energy =        -0.4013142123 au
        bbbb  correlation energy =         0.0000000000 au
        non-Brillouin singles    =        -0.0000000000 au

 Total  MP2   correlation energy =                    -0.40131421 au
        MP2         total energy =                 -1318.76790016 au
 
 --------------------------------------------------------------
 
                    Orbital Energies (a.u.)
 --------------------------------------------------------------
 
 Alpha MOs
 -- Occupied --
*******-102.818 -90.134  -9.903  -9.903  -8.411  -7.558  -7.558
 -7.552  -7.552  -7.551  -7.551  -6.273  -6.270  -6.263  -1.022
 -0.950  -0.761  -0.527  -0.491  -0.470  -0.410  -0.399  -0.393
 -0.299
 -- Virtual --
 -0.043  -0.030   0.031   0.046   0.050   0.056   0.075   0.085
  0.087   0.088   0.091   0.120   0.155   0.160   0.167   0.168
  0.188   0.202   0.212   0.229   0.234   0.240   0.275   0.277
  0.278   0.288   0.296   0.301   0.334   0.342   0.357   0.406
  0.408   0.411   0.424   0.429   0.464   0.472   0.478   0.479
  0.483   0.500   0.505   0.529   0.535   0.539   0.542   0.550
  0.575   0.586   0.603   0.640   0.641   0.650   0.669   0.700
  0.711   0.713   0.743   0.758   0.763   0.820   0.832   0.860
  0.863   0.901   0.908   0.937   0.952   0.971   1.012   1.021
  1.041   1.049   1.051   1.062   1.115   1.220   1.228   1.249
  1.273   1.288   1.307   1.325   1.342   1.390   1.399   1.407
  1.420   1.428   1.468   1.470   1.480   1.487   1.499   1.512
  1.518   1.524   1.548   1.565   1.571   1.582   1.589   1.598
  1.619   1.623   1.654   1.669   1.730   1.736   1.746   1.765
  1.791   1.848   1.867   1.868   1.881   1.898   1.902   1.915
  1.916   1.924   1.936   1.973   1.997   2.016   2.018   2.043
  2.061   2.071   2.097   2.159   2.160   2.176   2.218   2.253
  2.270   2.279   2.315   2.352   2.355   2.389   2.466   2.485
  2.614   2.627   2.645   2.660   2.705   2.764   2.938   2.962
  3.284   3.340   3.417   3.469   3.471   3.502   3.573   3.610
  3.624   3.655   3.657   3.659   3.681   3.691   3.722   3.746
  3.803   3.824   3.856   3.879   3.887   3.889   3.892   3.927
  4.020   4.024   4.038   4.059   4.225   4.364   4.378   4.392
  4.402   4.415   4.419   4.421   4.433   4.445   4.448   4.452
  4.458   4.466   4.492   4.496   4.516   4.525   4.546   4.553
  4.560   4.569   4.593   4.596   4.597   4.618   4.702   4.740
  4.804   4.834   4.862   4.876   5.006   5.079   5.289   5.318
  5.659   5.735   5.755   5.803   5.957   5.973   6.493   6.554
  8.443   9.802   9.825   9.881   9.950   9.952  10.371  10.564
 11.672  11.674  11.686  11.714  11.807  11.827  11.838  11.986
 12.340  12.347  15.833  16.237  16.412  17.637  17.642  17.646
 17.731  18.227  18.232  18.286  18.302  18.323  18.346  18.355
 18.450  18.507  21.091  21.091  21.093  21.098  21.110  21.115
 21.116  21.119  21.155  21.162  21.167  21.179  21.182  21.183
 28.134  31.349  31.388  31.414  31.591  31.810  33.487  33.604
 37.144  37.145  37.152  37.171  37.242  37.255  37.261  37.360
 37.521  37.546  45.521  45.870  46.015  51.311  51.330  51.335
 51.401  51.851  51.875  55.027  55.028  55.032  55.033  55.038
 55.040  55.041  55.043  55.044  64.626  64.627  64.627  64.627
 64.627  64.627  64.629  64.629  64.629  64.630  64.632  64.632
 64.633  64.633  64.638  64.638  64.638  64.638  65.217  65.223
 65.233  65.235  65.249  65.295  65.295  75.058  75.058  75.059
 75.062  75.068  75.071  75.071  75.072  75.091  75.095  75.098
 75.100  75.102  75.103  82.041  92.976  93.004  93.023  93.144
 93.328  97.356  97.498 109.832 109.832 109.837 109.851 109.904
109.914 109.918 109.988 110.083 110.105 145.075 145.310 145.408
165.496 165.509 165.512 165.551 165.826 165.839 387.394 454.813
455.405
 --------------------------------------------------------------
 
          Ground-State Mulliken Net Atomic Charges

     Atom                 Charge (a.u.)
  ----------------------------------------
      1 S                     0.161732
      2 Cl                   -0.080866
      3 Cl                   -0.080866
  ----------------------------------------
  Sum of atomic charges =    -0.000000

 -----------------------------------------------------------------
                    Cartesian Multipole Moments
 -----------------------------------------------------------------
    Charge (ESU x 10^10)
                -0.0000
    Dipole Moment (Debye)
         X      -0.0000      Y       0.0000      Z       0.4237
       Tot       0.4237
    Quadrupole Moments (Debye-Ang)
        XX     -39.0269     XY       0.0000     YY     -36.5342
        XZ       0.0000     YZ       0.0000     ZZ     -36.0589
    Octopole Moments (Debye-Ang^2)
       XXX       0.0000    XXY       0.0000    XYY      -0.0000
       YYY       0.0000    XXZ      -1.5142    XYZ      -0.0000
       YYZ      -3.6115    XZZ      -0.0000    YZZ       0.0000
       ZZZ      -0.8394
    Hexadecapole Moments (Debye-Ang^3)
      XXXX     -47.2609   XXXY       0.0000   XXYY     -78.9298
      XYYY       0.0000   YYYY    -395.4062   XXXZ       0.0000
      XXYZ       0.0000   XYYZ       0.0000   YYYZ       0.0000
      XXZZ     -30.0003   XYZZ       0.0000   YYZZ     -81.5571
      XZZZ       0.0000   YZZZ       0.0000   ZZZZ    -117.0321
 -----------------------------------------------------------------
Archival summary:
1\1\n0086.mhg0\SP\ProcedureUnspecified\BasisUnspecified\l21\yhljason\FriOct911:17:132020FriOct911:17:132020\0\\#,ProcedureUnspecified,BasisUnspecified,\\0,1\S\Cl,1,2.01402\Cl,1,2.01402,2,102.8\\\@

 Total job time:  4964.08s(wall), 35609.12s(cpu) 
 Fri Oct  9 11:17:13 2020

        *************************************************************
        *                                                           *
        *  Thank you very much for using Q-Chem.  Have a nice day.  *
        *                                                           *
        *************************************************************


