Q-Chem Developer Version!
                  Welcome to Q-Chem
     A Quantum Leap Into The Future Of Chemistry


 Q-Chem 5.1, Q-Chem, Inc., Pleasanton, CA (2018)

 Yihan Shao,  Zhengting Gan,  E. Epifanovsky,  A. T. B. Gilbert,  M. Wormit,  
 J. Kussmann,  A. W. Lange,  A. Behn,  Jia Deng,  Xintian Feng,  D. Ghosh,  
 M. Goldey,  P. R. Horn,  L. D. Jacobson,  I. Kaliman,  T. Kus,  A. Landau,  
 Jie Liu,  E. I. Proynov,  R. M. Richard,  R. P. Steele,  E. J. Sundstrom,  
 H. L. Woodcock III,  P. M. Zimmerman,  D. Zuev,  B. Albrecht,  E. Alguire,  
 S. A. Baeppler,  D. Barton,  Z. Benda,  Y. A. Bernard,  E. J. Berquist,  
 K. B. Bravaya,  H. Burton,  D. Casanova,  Chun-Min Chang,  Yunqing Chen,  
 A. Chien,  K. D. Closser,  M. P. Coons,  S. Coriani,  S. Dasgupta,  
 A. L. Dempwolff,  M. Diedenhofen,  Hainam Do,  R. G. Edgar,  Po-Tung Fang,  
 S. Faraji,  S. Fatehi,  Qingguo Feng,  K. D. Fenk,  J. Fosso-Tande,  
 Qinghui Ge,  A. Ghysels,  G. Gidofalvi,  J. Gomes,  J. Gonthier,  A. Gunina,  
 D. Hait,  M. W. D. Hanson-Heine,  P. H. P. Harbach,  A. W. Hauser,  
 J. E. Herr,  E. G. Hohenstein,  Z. C. Holden,  Kerwin Hui,  B. C. Huynh,  
 T.-C. Jagau,  Hyunjun Ji,  B. Kaduk,  K. Khistyaev,  Jaehoon Kim,  
 P. Klunzinger,  K. Koh,  D. Kosenkov,  L. Koulias,  T. Kowalczyk,  
 C. M. Krauter,  A. Kunitsa,  Ka Un Lao,  A. Laurent,  K. V. Lawler,  
 Joonho Lee,  D. Lefrancois,  S. Lehtola,  D. S. Levine,  Yi-Pei Li,  
 You-Sheng Lin,  Fenglai Liu,  E. Livshits,  A. Luenser,  P. Manohar,  
 E. Mansoor,  S. F. Manzer,  Shan-Ping Mao,  Yuezhi Mao,  N. Mardirossian,  
 A. V. Marenich,  T. Markovich,  L. A. Martinez-Martinez,  S. A. Maurer,  
 N. J. Mayhall,  S. C. McKenzie,  J.-M. Mewes,  A. F. Morrison,  
 J. W. Mullinax,  K. Nanda,  T. S. Nguyen-Beck,  R. Olivares-Amaya,  
 J. A. Parkhill,  T. M. Perrine,  F. Plasser,  P. Pokhilko,  S. Prager,  
 A. Prociuk,  E. Ramos,  D. R. Rehn,  F. Rob,  M. Schneider,  N. Sergueev,  
 S. M. Sharada,  S. Sharma,  D. W. Small,  T. Stauch,  T. Stein,  
 Yu-Chuan Su,  A. J. W. Thom,  A. Tkatchenko,  T. Tsuchimochi,  N. M. Tubman,  
 L. Vogt,  M. L. Vidal,  O. Vydrov,  M. A. Watson,  J. Wenzel,  
 M. de Wergifosse,  T. A. Wesolowski,  A. White,  J. Witte,  A. Yamada,  
 Jun Yang,  K. Yao,  S. Yeganeh,  S. R. Yost,  Zhi-Qiang You,  A. Zech,  
 Igor Ying Zhang,  Xing Zhang,  Yan Zhao,  Ying Zhu,  B. R. Brooks,  
 G. K. L. Chan,  C. J. Cramer,  M. S. Gordon,  W. J. Hehre,  A. Klamt,  
 M. W. Schmidt,  C. D. Sherrill,  D. G. Truhlar,  A. Aspuru-Guzik,  R. Baer,  
 A. T. Bell,  N. A. Besley,  Jeng-Da Chai,  A. E. DePrince, III,  
 R. A. DiStasio Jr.,  A. Dreuw,  B. D. Dunietz,  T. R. Furlani,  
 Chao-Ping Hsu,  Yousung Jung,  Jing Kong,  D. S. Lambrecht,  WanZhen Liang,  
 C. Ochsenfeld,  V. A. Rassolov,  L. V. Slipchenko,  J. E. Subotnik,  
 T. Van Voorhis,  J. M. Herbert,  A. I. Krylov,  P. M. W. Gill,  M. Head-Gordon

 Contributors to earlier versions of Q-Chem not listed above: 
 R. D. Adamson,  B. Austin,  J. Baker,  G. J. O. Beran,  K. Brandhorst,  
 S. T. Brown,  E. F. C. Byrd,  A. K. Chakraborty,  C.-L. Cheng,  
 Siu Hung Chien,  D. M. Chipman,  D. L. Crittenden,  H. Dachsel,  
 R. J. Doerksen,  A. D. Dutoi,  L. Fusti-Molnar,  W. A. Goddard III,  
 A. Golubeva-Zadorozhnaya,  S. R. Gwaltney,  G. Hawkins,  A. Heyden,  
 S. Hirata,  G. Kedziora,  F. J. Keil,  C. Kelley,  Jihan Kim,  R. A. King,  
 R. Z. Khaliullin,  P. P. Korambath,  W. Kurlancheek,  A. M. Lee,  M. S. Lee,  
 S. V. Levchenko,  Ching Yeh Lin,  D. Liotard,  R. C. Lochan,  I. Lotan,  
 P. E. Maslen,  N. Nair,  D. P. O'Neill,  D. Neuhauser,  E. Neuscamman,  
 C. M. Oana,  R. Olson,  B. Peters,  R. Peverati,  P. A. Pieniazek,  
 Y. M. Rhee,  J. Ritchie,  M. A. Rohrdanz,  E. Rosta,  N. J. Russ,  
 H. F. Schaefer III,  N. E. Schultz,  N. Shenvi,  A. C. Simmonett,  A. Sodt,  
 D. Stuck,  K. S. Thanthiriwatte,  V. Vanovschi,  Tao Wang,  A. Warshel,  
 C. F. Williams,  Q. Wu,  X. Xu,  W. Zhang

 Please cite Q-Chem as follows:
 Y. Shao et al., Mol. Phys. 113, 184-215 (2015)
 DOI: 10.1080/00268976.2014.952696

 Q-Chem 5.1.1 for Intel X86 EM64T Linux

 Parts of Q-Chem use Armadillo 8.300.2 (Tropical Shenanigans).
 http://arma.sourceforge.net/

 Q-Chem begins on Fri Oct  9 01:48:45 2020  

Host: n0085.mhg0
0

     Scratch files written to /local/scratch/users/yhljason/SO2_PWPB95-D3_aug-cc-pcVQZ.inp20201008191802//
Input Ideriv = 0
Curr. Ideriv = -1
Max.  Ideriv = 0
Analytic post-HF gradients are not available with non-HF exchange
Input Ideriv = 0
Curr. Ideriv = 0
Max.  Ideriv = 0

Checking the input file for inconsistencies... 	...done.

--------------------------------------------------------------
User input:
--------------------------------------------------------------
$molecule
0 1
S1      0.0000  0.0000  0.0000
O2      0.0000  1.2371  0.7215
O3      0.0000  -1.2371 0.7215
$end

$rem
jobtype sp
method PWPB95-D3
xc_grid 000099000590
basis aug-cc-pcVQZ
max_scf_cycles 200
thresh 14
scf_convergence 8
scf_algorithm gdm
symmetry false
sym_ignore true
unrestricted false
gen_scfman true
internal_stability_iter 15
internal_stability_davidson_iter 200
mem_total 128000
cc_memory 96000
cc_backend xm
mem_static 1500
n_frozen_core 0
$end



--------------------------------------------------------------
 Adding empirical dispersion correction 
 ----------------------------------------------------------------
 Doing -D3(0) with
 s6  =   0.82000
 s8  =   0.70500
 rs6 =   1.55700
 rs8 =   1.00000
 -D3 energy without 3body term =     -0.0001110190 hartrees
 ----------------------------------------------------------------
             Standard Nuclear Orientation (Angstroms)
    I     Atom           X                Y                Z
 ----------------------------------------------------------------
    1      S       0.0000000000     0.0000000000     0.0000000000
    2      O       0.0000000000     1.2371000000     0.7215000000
    3      O       0.0000000000    -1.2371000000     0.7215000000
 ----------------------------------------------------------------
 Nuclear Repulsion Energy =   108.2814206240 hartrees
 There are       16 alpha and       16 beta electrons
 Requested basis set is aug-cc-pCVQZ
 There are 92 shells and 352 basis functions

 Total QAlloc Memory Limit 128000 MB
 Mega-Array Size      1467 MB
 MEM_STATIC part      1500 MB

                       Distance Matrix (Angstroms)
             S (  1)   O (  2)
   O (  2)  1.432124
   O (  3)  1.432124  2.474200
 
 A cutoff of  1.0D-14 yielded   3941 shell pairs
 There are     58989 function pairs (     98227 Cartesian)
 
 -------------------------------------------------------
 OpenMP Integral Computing Module                       
 Release: version 1.0, May 2013, Q-Chem Inc. Pittsburgh 
 -------------------------------------------------------
 Integral Job Info:
 Integral job number is                      11
 Integral operator is                         1
 short-range coefficients                     0
 long-range coefficients              100000000
 Omega coefficients                           0
 if combine SR and LR in K                    0
 Integral screening is                        0
 Integral computing path is                   2
 max size of driver memory is           3200000
 size of driver memory is               1704330
 size of scratch memory is             29435624
 max col of scratch BK array              50625
 max len of scratch array in speh3         2114
 max len of scratch index in speh4           50
 max int batch size is                      520
 min int batch size is                       52
 fixed nKL is                                22
 max L of basis functions is                  4
 order of int derivative is                   0
 number of shells is                         92
 number of basis is                         452
 number of cartesian basis is               452
 number of contracted shell pairs          3941
 number of primitive shell pairs          12264
 maxK2 (contraction) of shell pair          169
 max number of K2 of shell pair               1
 max number of CS2 of shell pair            407
 max number of PS2 of shell pair           1014
 mem total for path MDJ                  873640
 -------------------------------------------------------
 Smallest overlap matrix eigenvalue = 2.58E-05

 Scale SEOQF with 1.000000e-01/1.000000e-01/1.000000e-01

 Standard Electronic Orientation quadrupole field applied
 Nucleus-field energy     =     0.0000000009 hartrees
 Guess from superposition of atomic densities
 Warning:  Energy on first SCF cycle will be non-variational
 SAD guess density has 32.000000 electrons

 -----------------------------------------------------------------------
  General SCF calculation program by
  Eric Jon Sundstrom, Paul Horn, Yuezhi Mao, Dmitri Zuev, Alec White,
  David Stuck, Shaama M.S., Shane Yost, Joonho Lee, David Small,
  Daniel Levine, Susi Lehtola, Hugh Burton, Evgeny Epifanovsky
 -----------------------------------------------------------------------
 Exchange:     0.5000 Hartree-Fock + 1.0000 PWPB95-D3
 Correlation:  0.7310 PWPB95-D3
 Using Euler-Maclaurin-Lebedev (99,590) quadrature formula
 Dispersion:   Grimme D3
Running Object-Oriented RKS (RHF)
We will preform up to 15 macro iterations over saddle points until a stable solution is found
Energy prior to optimization (guess energy) = -548.316297847567
Begin Timing: Total SCF Calculation
Begin Timing: SCF Single Stationary Point Calculation
begin iterations for algorithm: GDM          
the SCF tolerance is set to 1.00e-08
    1    -548.3162978476      2.58e-01     00000  Descent step
    2    -548.3931222165      1.61e-01     00000  Normal BFGS step
    3    -548.4349869583      7.22e-03     00000  Normal BFGS step
    4    -548.4353470398      1.57e-03     00000  Normal BFGS step
    5    -548.4353839210      3.87e-04     00000  Normal BFGS step
    6    -548.4353851191      6.51e-05     00000  Normal BFGS step
    7    -548.4353851727      3.24e-05     00000  Normal BFGS step
    8    -548.4353851769      5.55e-06     00000  Normal BFGS step
    9    -548.4353851771      7.88e-07     00000  Normal BFGS step
   10    -548.4353851771      1.45e-07     00000  Normal BFGS step
   11    -548.4353851771      7.08e-08     00000  Normal BFGS step
   12    -548.4353851771      3.10e-08     00000  Normal BFGS step
   13    -548.4353851771      1.84e-09     00000 Convergence criterion met
Timing for Single Stationary Point: 767.00s (wall), 6077.78s (cpu)
Begin Timing: Stability
===================================================
Beginning Test for Internal Stability
===================================================
generating davidson guess vectors based on koopmans excitations
    1      4.30e+00     00000 Davidson Iteration
    2      9.84e-01     00000 Davidson Iteration
    3      5.84e-02     00000 Davidson Iteration
    4      6.52e-02     00000 Davidson Iteration
    5      1.49e-02     00000 Davidson Iteration
    6      1.05e-02     00000 Davidson Iteration
    7      1.70e-03     00000 Davidson Iteration
    8      7.20e-04     00000 Davidson Iteration
    9      1.47e-04     00000 Davidson Iteration
   10      5.17e-05     00000 Davidson Converged
converged_eigenvalues
   0.6890
   0.7380
Threshold for negative eigenvalues: -1.0e-05
solution was a local minimum (stable)
===================================================
End Test for Internal Stability
===================================================
Our SCF solution is stable!
Timing for Total SCF: 1584.00s (wall), 12555.10s (cpu)
 Total energy in the final basis set =     -548.4353851771
    ==================================================
              The end of Object-Oriented SCFman       
    ==================================================
 
 Components of the MP2 correlation energy:
        aaaa  correlation energy =         0.0000000000 au
        abab  correlation energy =        -0.2889439089 au
        bbbb  correlation energy =         0.0000000000 au
        non-Brillouin singles    =        -0.0000000000 au

 Total  MP2   correlation energy =                    -0.28894391 au
        MP2         total energy =                  -548.72432909 au
 
 --------------------------------------------------------------
 
                    Orbital Energies (a.u.)
 --------------------------------------------------------------
 
 Alpha MOs
 -- Occupied --
-90.220 -19.733 -19.733  -8.485  -6.346  -6.344  -6.341  -1.282
 -1.186  -0.728  -0.577  -0.575  -0.567  -0.440  -0.437  -0.401
 -- Virtual --
 -0.084   0.024   0.035   0.041   0.046   0.093   0.107   0.116
  0.124   0.131   0.140   0.145   0.177   0.185   0.205   0.239
  0.243   0.254   0.275   0.275   0.296   0.334   0.402   0.409
  0.414   0.417   0.426   0.447   0.455   0.509   0.527   0.542
  0.543   0.553   0.575   0.583   0.598   0.603   0.611   0.617
  0.649   0.671   0.700   0.730   0.736   0.745   0.821   0.825
  0.848   0.947   0.973   1.032   1.069   1.088   1.144   1.152
  1.182   1.196   1.243   1.244   1.253   1.292   1.311   1.312
  1.322   1.359   1.370   1.375   1.397   1.399   1.409   1.444
  1.480   1.486   1.507   1.518   1.543   1.566   1.573   1.604
  1.651   1.656   1.664   1.671   1.685   1.817   1.901   1.908
  1.946   1.950   2.029   2.082   2.093   2.097   2.122   2.126
  2.135   2.138   2.198   2.230   2.432   2.617   2.693   2.912
  2.924   3.018   3.103   3.140   3.173   3.197   3.205   3.216
  3.251   3.272   3.303   3.339   3.343   3.379   3.387   3.431
  3.440   3.457   3.503   3.520   3.535   3.556   3.613   3.659
  3.698   3.729   3.763   3.835   3.863   3.873   3.889   3.891
  3.929   3.944   3.978   3.981   3.997   4.008   4.080   4.090
  4.105   4.133   4.248   4.279   4.323   4.325   4.365   4.373
  4.407   4.482   4.490   4.583   4.617   4.625   4.683   4.758
  4.875   4.886   4.900   5.007   5.030   5.187   5.207   5.260
  5.318   5.632   5.635   5.671   5.963   6.054   6.082   6.744
  7.350   8.884   9.510   9.522   9.590   9.851   9.881   9.935
  9.994  10.140  10.157  10.251  10.254  10.263  10.279  10.354
 10.355  10.406  10.412  10.444  10.445  10.512  10.520  10.538
 10.550  10.568  10.602  10.678  10.722  11.017  11.120  11.459
 11.464  11.464  11.472  11.618  11.640  11.694  11.736  12.016
 12.085  12.092  12.275  12.401  12.427  12.511  12.537  12.609
 12.730  12.732  12.735  12.826  12.897  13.435  13.483  15.952
 16.321  16.968  17.447  17.463  18.228  18.257  18.584  18.628
 18.797  18.982  19.283  28.689  31.269  31.333  31.413  32.115
 32.189  33.045  33.076  33.148  33.378  33.838  33.849  45.582
 45.943  46.422  46.439  46.493  46.534  46.535  46.639  46.651
 46.697  46.707  47.123  47.260  54.961  54.961  54.962  54.964
 54.965  54.968  54.969  54.982  54.982  63.306  63.406  65.146
 65.158  65.321  65.328  65.340  65.459  65.585  82.741  92.900
 92.941  93.010  93.443  93.570 102.445 102.445 102.446 102.446
102.459 102.462 102.467 102.472 102.498 102.503 102.506 102.520
102.527 102.537 115.812 115.845 115.892 116.084 116.451 116.456
145.100 145.365 145.888 197.219 197.224 197.254 197.276 197.333
197.335 197.360 197.367 197.584 197.594 215.059 215.169 390.415
393.473 393.500 393.538 393.691 393.993 394.037 892.436 892.553
 --------------------------------------------------------------
 
          Ground-State Mulliken Net Atomic Charges

     Atom                 Charge (a.u.)
  ----------------------------------------
      1 S                     1.100087
      2 O                    -0.550044
      3 O                    -0.550044
  ----------------------------------------
  Sum of atomic charges =    -0.000000

 -----------------------------------------------------------------
                    Cartesian Multipole Moments
 -----------------------------------------------------------------
    Charge (ESU x 10^10)
                 0.0000
    Dipole Moment (Debye)
         X       0.0000      Y      -0.0000      Z      -1.7794
       Tot       1.7794
    Quadrupole Moments (Debye-Ang)
        XX     -20.8000     XY       0.0000     YY     -27.0512
        XZ       0.0000     YZ      -0.0000     ZZ     -23.9932
    Octopole Moments (Debye-Ang^2)
       XXX       0.0000    XXY       0.0000    XYY       0.0000
       YYY      -0.0000    XXZ      -7.5776    XYZ       0.0000
       YYZ     -11.3715    XZZ       0.0000    YZZ      -0.0000
       ZZZ     -24.6145
    Hexadecapole Moments (Debye-Ang^3)
      XXXX     -19.5206   XXXY       0.0000   XXYY     -23.6579
      XYYY       0.0000   YYYY    -130.0380   XXXZ       0.0000
      XXYZ       0.0000   XYYZ       0.0000   YYYZ      -0.0000
      XXZZ     -12.6419   XYZZ       0.0000   YYZZ     -32.0756
      XZZZ       0.0000   YZZZ      -0.0000   ZZZZ     -58.7965
 -----------------------------------------------------------------
Archival summary:
1\1\n0085.mhg0\SP\ProcedureUnspecified\BasisUnspecified\12\yhljason\FriOct902:39:302020FriOct902:39:302020\0\\#,ProcedureUnspecified,BasisUnspecified,\\0,1\S\O,1,1.43212\O,1,1.43212,2,119.497\\\@

 Total job time:  3045.50s(wall), 24094.64s(cpu) 
 Fri Oct  9 02:39:30 2020

        *************************************************************
        *                                                           *
        *  Thank you very much for using Q-Chem.  Have a nice day.  *
        *                                                           *
        *************************************************************


 
User input: 2 of 83 of 8 
 
Q-Chem Developer Version!
                  Welcome to Q-Chem
     A Quantum Leap Into The Future Of Chemistry


 Q-Chem 5.1, Q-Chem, Inc., Pleasanton, CA (2018)

 Yihan Shao,  Zhengting Gan,  E. Epifanovsky,  A. T. B. Gilbert,  M. Wormit,  
 J. Kussmann,  A. W. Lange,  A. Behn,  Jia Deng,  Xintian Feng,  D. Ghosh,  
 M. Goldey,  P. R. Horn,  L. D. Jacobson,  I. Kaliman,  T. Kus,  A. Landau,  
 Jie Liu,  E. I. Proynov,  R. M. Richard,  R. P. Steele,  E. J. Sundstrom,  
 H. L. Woodcock III,  P. M. Zimmerman,  D. Zuev,  B. Albrecht,  E. Alguire,  
 S. A. Baeppler,  D. Barton,  Z. Benda,  Y. A. Bernard,  E. J. Berquist,  
 K. B. Bravaya,  H. Burton,  D. Casanova,  Chun-Min Chang,  Yunqing Chen,  
 A. Chien,  K. D. Closser,  M. P. Coons,  S. Coriani,  S. Dasgupta,  
 A. L. Dempwolff,  M. Diedenhofen,  Hainam Do,  R. G. Edgar,  Po-Tung Fang,  
 S. Faraji,  S. Fatehi,  Qingguo Feng,  K. D. Fenk,  J. Fosso-Tande,  
 Qinghui Ge,  A. Ghysels,  G. Gidofalvi,  J. Gomes,  J. Gonthier,  A. Gunina,  
 D. Hait,  M. W. D. Hanson-Heine,  P. H. P. Harbach,  A. W. Hauser,  
 J. E. Herr,  E. G. Hohenstein,  Z. C. Holden,  Kerwin Hui,  B. C. Huynh,  
 T.-C. Jagau,  Hyunjun Ji,  B. Kaduk,  K. Khistyaev,  Jaehoon Kim,  
 P. Klunzinger,  K. Koh,  D. Kosenkov,  L. Koulias,  T. Kowalczyk,  
 C. M. Krauter,  A. Kunitsa,  Ka Un Lao,  A. Laurent,  K. V. Lawler,  
 Joonho Lee,  D. Lefrancois,  S. Lehtola,  D. S. Levine,  Yi-Pei Li,  
 You-Sheng Lin,  Fenglai Liu,  E. Livshits,  A. Luenser,  P. Manohar,  
 E. Mansoor,  S. F. Manzer,  Shan-Ping Mao,  Yuezhi Mao,  N. Mardirossian,  
 A. V. Marenich,  T. Markovich,  L. A. Martinez-Martinez,  S. A. Maurer,  
 N. J. Mayhall,  S. C. McKenzie,  J.-M. Mewes,  A. F. Morrison,  
 J. W. Mullinax,  K. Nanda,  T. S. Nguyen-Beck,  R. Olivares-Amaya,  
 J. A. Parkhill,  T. M. Perrine,  F. Plasser,  P. Pokhilko,  S. Prager,  
 A. Prociuk,  E. Ramos,  D. R. Rehn,  F. Rob,  M. Schneider,  N. Sergueev,  
 S. M. Sharada,  S. Sharma,  D. W. Small,  T. Stauch,  T. Stein,  
 Yu-Chuan Su,  A. J. W. Thom,  A. Tkatchenko,  T. Tsuchimochi,  N. M. Tubman,  
 L. Vogt,  M. L. Vidal,  O. Vydrov,  M. A. Watson,  J. Wenzel,  
 M. de Wergifosse,  T. A. Wesolowski,  A. White,  J. Witte,  A. Yamada,  
 Jun Yang,  K. Yao,  S. Yeganeh,  S. R. Yost,  Zhi-Qiang You,  A. Zech,  
 Igor Ying Zhang,  Xing Zhang,  Yan Zhao,  Ying Zhu,  B. R. Brooks,  
 G. K. L. Chan,  C. J. Cramer,  M. S. Gordon,  W. J. Hehre,  A. Klamt,  
 M. W. Schmidt,  C. D. Sherrill,  D. G. Truhlar,  A. Aspuru-Guzik,  R. Baer,  
 A. T. Bell,  N. A. Besley,  Jeng-Da Chai,  A. E. DePrince, III,  
 R. A. DiStasio Jr.,  A. Dreuw,  B. D. Dunietz,  T. R. Furlani,  
 Chao-Ping Hsu,  Yousung Jung,  Jing Kong,  D. S. Lambrecht,  WanZhen Liang,  
 C. Ochsenfeld,  V. A. Rassolov,  L. V. Slipchenko,  J. E. Subotnik,  
 T. Van Voorhis,  J. M. Herbert,  A. I. Krylov,  P. M. W. Gill,  M. Head-Gordon

 Contributors to earlier versions of Q-Chem not listed above: 
 R. D. Adamson,  B. Austin,  J. Baker,  G. J. O. Beran,  K. Brandhorst,  
 S. T. Brown,  E. F. C. Byrd,  A. K. Chakraborty,  C.-L. Cheng,  
 Siu Hung Chien,  D. M. Chipman,  D. L. Crittenden,  H. Dachsel,  
 R. J. Doerksen,  A. D. Dutoi,  L. Fusti-Molnar,  W. A. Goddard III,  
 A. Golubeva-Zadorozhnaya,  S. R. Gwaltney,  G. Hawkins,  A. Heyden,  
 S. Hirata,  G. Kedziora,  F. J. Keil,  C. Kelley,  Jihan Kim,  R. A. King,  
 R. Z. Khaliullin,  P. P. Korambath,  W. Kurlancheek,  A. M. Lee,  M. S. Lee,  
 S. V. Levchenko,  Ching Yeh Lin,  D. Liotard,  R. C. Lochan,  I. Lotan,  
 P. E. Maslen,  N. Nair,  D. P. O'Neill,  D. Neuhauser,  E. Neuscamman,  
 C. M. Oana,  R. Olson,  B. Peters,  R. Peverati,  P. A. Pieniazek,  
 Y. M. Rhee,  J. Ritchie,  M. A. Rohrdanz,  E. Rosta,  N. J. Russ,  
 H. F. Schaefer III,  N. E. Schultz,  N. Shenvi,  A. C. Simmonett,  A. Sodt,  
 D. Stuck,  K. S. Thanthiriwatte,  V. Vanovschi,  Tao Wang,  A. Warshel,  
 C. F. Williams,  Q. Wu,  X. Xu,  W. Zhang

 Please cite Q-Chem as follows:
 Y. Shao et al., Mol. Phys. 113, 184-215 (2015)
 DOI: 10.1080/00268976.2014.952696

 Q-Chem 5.1.1 for Intel X86 EM64T Linux

 Parts of Q-Chem use Armadillo 8.300.2 (Tropical Shenanigans).
 http://arma.sourceforge.net/

 Q-Chem begins on Fri Oct  9 02:40:27 2020  

Host: n0085.mhg0
0

     Scratch files written to /local/scratch/users/yhljason/SO2_PWPB95-D3_aug-cc-pcVQZ.inp20201008191802//
The previous job contains 0 fragments, simply inherited here
Input Ideriv = 0
Curr. Ideriv = -1
Max.  Ideriv = 0
Analytic post-HF gradients are not available with non-HF exchange
Input Ideriv = 0
Curr. Ideriv = 0
Max.  Ideriv = 0

Checking the input file for inconsistencies... 	...done.

--------------------------------------------------------------
User input:
--------------------------------------------------------------
$molecule
read
$end

$rem

jobtype sp
method PWPB95-D3
xc_grid 000099000590
basis aug-cc-pcVQZ
max_scf_cycles 200
thresh 14
scf_convergence 8
mem_total 128000
cc_memory 96000
cc_backend xm
mem_static 1500
symmetry false
sym_ignore true
scf_guess read
unrestricted false
scf_algorithm gdm
n_frozen_core 0
$end

$multipole_field
XX 0.0001
$end


--------------------------------------------------------------
 Adding empirical dispersion correction 
 ----------------------------------------------------------------
 Doing -D3(0) with
 s6  =   0.82000
 s8  =   0.70500
 rs6 =   1.55700
 rs8 =   1.00000
 -D3 energy without 3body term =     -0.0001110190 hartrees
 ----------------------------------------------------------------
             Standard Nuclear Orientation (Angstroms)
    I     Atom           X                Y                Z
 ----------------------------------------------------------------
    1      S       0.0000000000     0.0000000000     0.0000000000
    2      O       0.0000000000     1.2371000000     0.7215000000
    3      O       0.0000000000    -1.2371000000     0.7215000000
 ----------------------------------------------------------------
 Nuclear Repulsion Energy =   108.2814206240 hartrees
 There are       16 alpha and       16 beta electrons
 Requested basis set is aug-cc-pCVQZ
 There are 92 shells and 352 basis functions

 Total QAlloc Memory Limit 128000 MB
 Mega-Array Size      1467 MB
 MEM_STATIC part      1500 MB

                       Distance Matrix (Angstroms)
             S (  1)   O (  2)
   O (  2)  1.432124
   O (  3)  1.432124  2.474200
 
 Applying Cartesian multipole field
    Component          Value
    ---------          -----
     (2,0,0)        1.00000E-04
 A cutoff of  1.0D-14 yielded   3941 shell pairs
 There are     58989 function pairs (     98227 Cartesian)
 
 -------------------------------------------------------
 OpenMP Integral Computing Module                       
 Release: version 1.0, May 2013, Q-Chem Inc. Pittsburgh 
 -------------------------------------------------------
 Integral Job Info:
 Integral job number is                      11
 Integral operator is                         1
 short-range coefficients                     0
 long-range coefficients              100000000
 Omega coefficients                           0
 if combine SR and LR in K                    0
 Integral screening is                        0
 Integral computing path is                   2
 max size of driver memory is           3200000
 size of driver memory is               1704330
 size of scratch memory is             29435624
 max col of scratch BK array              50625
 max len of scratch array in speh3         2114
 max len of scratch index in speh4           50
 max int batch size is                      520
 min int batch size is                       52
 fixed nKL is                                22
 max L of basis functions is                  4
 order of int derivative is                   0
 number of shells is                         92
 number of basis is                         452
 number of cartesian basis is               452
 number of contracted shell pairs          3941
 number of primitive shell pairs          12264
 maxK2 (contraction) of shell pair          169
 max number of K2 of shell pair               1
 max number of CS2 of shell pair            407
 max number of PS2 of shell pair           1014
 mem total for path MDJ                  873640
 -------------------------------------------------------
 Smallest overlap matrix eigenvalue = 2.58E-05
 Guess MOs from SCF MO coefficient file

 -----------------------------------------------------------------------
  General SCF calculation program by
  Eric Jon Sundstrom, Paul Horn, Yuezhi Mao, Dmitri Zuev, Alec White,
  David Stuck, Shaama M.S., Shane Yost, Joonho Lee, David Small,
  Daniel Levine, Susi Lehtola, Hugh Burton, Evgeny Epifanovsky
 -----------------------------------------------------------------------
 Exchange:     0.5000 Hartree-Fock + 1.0000 PWPB95-D3
 Correlation:  0.7310 PWPB95-D3
 Using Euler-Maclaurin-Lebedev (99,590) quadrature formula
 Dispersion:   Grimme D3
 using 8 threads for integral computing
 -------------------------------------------------------
 OpenMP Integral computing Module                
 Release: version 2.0, May 2017, Q-Chem Inc. Pleasanton 
 -------------------------------------------------------
 -------------------------------------------------------
 OpenMP BLAS3 based DFT computing Module                
 Release: version 1.0, May 2013, Q-Chem Inc. Pittsburgh 
 -------------------------------------------------------
 A restricted SCF calculation will be
 performed using GDM
 SCF converges when RMS gradient is below 1.0e-08
 ---------------------------------------
  Cycle       Energy        RMS Gradient
 ---------------------------------------
    1    -548.4369316053      2.36e-04   Normal BFGS step
    2    -548.4369319620      9.76e-05   Normal BFGS step
    3    -548.4369319913      1.15e-04   Normal BFGS step
    4    -548.4369320201      1.22e-05   Normal BFGS step
    5    -548.4369320215      3.79e-06   Normal BFGS step
    6    -548.4369320217      8.62e-07   Normal BFGS step
    7    -548.4369320217      1.04e-07   Normal BFGS step
    8    -548.4369320217      2.26e-08   Normal BFGS step
    9    -548.4369320217      3.39e-09  Convergence criterion met
 ---------------------------------------
 SCF time:   CPU 4679.00s  wall 591.00s 
 SCF   energy in the final basis set =     -548.4369320217
 Total energy in the final basis set =     -548.4369320217
 
 Components of the MP2 correlation energy:
        aaaa  correlation energy =         0.0000000000 au
        abab  correlation energy =        -0.2889522426 au
        bbbb  correlation energy =         0.0000000000 au
        non-Brillouin singles    =        -0.0000000000 au

 Total  MP2   correlation energy =                    -0.28895224 au
        MP2         total energy =                  -548.72588426 au
 
 --------------------------------------------------------------
 
                    Orbital Energies (a.u.)
 --------------------------------------------------------------
 
 Alpha MOs
 -- Occupied --
-90.220 -19.733 -19.733  -8.485  -6.347  -6.344  -6.341  -1.282
 -1.186  -0.728  -0.577  -0.575  -0.567  -0.440  -0.438  -0.402
 -- Virtual --
 -0.085   0.023   0.034   0.039   0.043   0.092   0.107   0.115
  0.122   0.131   0.138   0.144   0.176   0.183   0.204   0.238
  0.242   0.253   0.274   0.275   0.295   0.333   0.401   0.408
  0.413   0.416   0.426   0.446   0.454   0.508   0.527   0.541
  0.542   0.552   0.574   0.582   0.597   0.602   0.610   0.616
  0.648   0.671   0.699   0.729   0.735   0.744   0.820   0.824
  0.847   0.946   0.973   1.032   1.069   1.088   1.144   1.152
  1.182   1.195   1.242   1.243   1.252   1.291   1.311   1.311
  1.321   1.359   1.370   1.375   1.396   1.399   1.408   1.443
  1.480   1.485   1.506   1.518   1.543   1.566   1.572   1.604
  1.650   1.656   1.663   1.671   1.685   1.816   1.900   1.907
  1.946   1.949   2.029   2.082   2.092   2.097   2.121   2.126
  2.135   2.138   2.197   2.229   2.431   2.617   2.692   2.912
  2.924   3.018   3.103   3.140   3.173   3.197   3.205   3.216
  3.251   3.271   3.302   3.338   3.343   3.379   3.387   3.430
  3.440   3.457   3.503   3.520   3.535   3.556   3.613   3.658
  3.697   3.729   3.763   3.835   3.862   3.873   3.889   3.891
  3.928   3.944   3.977   3.981   3.997   4.008   4.080   4.090
  4.104   4.132   4.247   4.279   4.323   4.325   4.365   4.372
  4.407   4.482   4.489   4.583   4.616   4.625   4.683   4.758
  4.875   4.886   4.900   5.007   5.030   5.186   5.206   5.260
  5.318   5.632   5.635   5.671   5.963   6.054   6.081   6.744
  7.350   8.884   9.509   9.522   9.590   9.850   9.881   9.934
  9.993  10.140  10.156  10.251  10.254  10.263  10.279  10.353
 10.354  10.406  10.412  10.444  10.445  10.512  10.520  10.537
 10.550  10.568  10.602  10.678  10.721  11.017  11.120  11.458
 11.464  11.464  11.471  11.617  11.640  11.694  11.736  12.016
 12.085  12.092  12.275  12.400  12.427  12.511  12.537  12.609
 12.729  12.732  12.734  12.826  12.897  13.435  13.483  15.951
 16.321  16.968  17.447  17.463  18.228  18.257  18.584  18.628
 18.797  18.982  19.283  28.688  31.269  31.332  31.413  32.115
 32.189  33.045  33.076  33.148  33.377  33.837  33.848  45.582
 45.943  46.422  46.439  46.493  46.534  46.535  46.639  46.651
 46.697  46.706  47.122  47.260  54.961  54.961  54.961  54.963
 54.965  54.968  54.968  54.981  54.982  63.305  63.405  65.146
 65.157  65.321  65.328  65.340  65.459  65.585  82.741  92.900
 92.941  93.010  93.442  93.570 102.445 102.445 102.445 102.446
102.459 102.461 102.467 102.472 102.497 102.503 102.506 102.520
102.527 102.537 115.812 115.844 115.892 116.084 116.451 116.455
145.099 145.365 145.888 197.219 197.224 197.254 197.275 197.333
197.334 197.359 197.367 197.584 197.594 215.059 215.169 390.415
393.473 393.500 393.538 393.691 393.993 394.037 892.436 892.552
 --------------------------------------------------------------
 
          Ground-State Mulliken Net Atomic Charges

     Atom                 Charge (a.u.)
  ----------------------------------------
      1 S                     1.099255
      2 O                    -0.549627
      3 O                    -0.549627
  ----------------------------------------
  Sum of atomic charges =    -0.000000

 -----------------------------------------------------------------
                    Cartesian Multipole Moments
 -----------------------------------------------------------------
    Charge (ESU x 10^10)
                -0.0000
    Dipole Moment (Debye)
         X      -0.0000      Y      -0.0000      Z      -1.7789
       Tot       1.7789
    Quadrupole Moments (Debye-Ang)
        XX     -20.8112     XY       0.0000     YY     -27.0508
        XZ       0.0000     YZ      -0.0000     ZZ     -23.9937
    Octopole Moments (Debye-Ang^2)
       XXX      -0.0000    XXY       0.0000    XYY      -0.0000
       YYY      -0.0000    XXZ      -7.5798    XYZ       0.0000
       YYZ     -11.3698    XZZ      -0.0000    YZZ      -0.0000
       ZZZ     -24.6156
    Hexadecapole Moments (Debye-Ang^3)
      XXXX     -19.5613   XXXY       0.0000   XXYY     -23.6716
      XYYY       0.0000   YYYY    -130.0446   XXXZ      -0.0000
      XXYZ       0.0000   XYYZ      -0.0000   YYYZ      -0.0000
      XXZZ     -12.6520   XYZZ       0.0000   YYZZ     -32.0770
      XZZZ      -0.0000   YZZZ      -0.0000   ZZZZ     -58.8039
 -----------------------------------------------------------------
Archival summary:
1\1\n0085.mhg0\SP\ProcedureUnspecified\BasisUnspecified\12\yhljason\FriOct903:13:082020FriOct903:13:082020\0\\#,ProcedureUnspecified,BasisUnspecified,\\0,1\S\O,1,1.43212\O,1,1.43212,2,119.497\\\@

 Total job time:  1960.53s(wall), 15511.49s(cpu) 
 Fri Oct  9 03:13:08 2020

        *************************************************************
        *                                                           *
        *  Thank you very much for using Q-Chem.  Have a nice day.  *
        *                                                           *
        *************************************************************


 
User input: 4 of 8 
 
Q-Chem Developer Version!
                  Welcome to Q-Chem
     A Quantum Leap Into The Future Of Chemistry


 Q-Chem 5.1, Q-Chem, Inc., Pleasanton, CA (2018)

 Yihan Shao,  Zhengting Gan,  E. Epifanovsky,  A. T. B. Gilbert,  M. Wormit,  
 J. Kussmann,  A. W. Lange,  A. Behn,  Jia Deng,  Xintian Feng,  D. Ghosh,  
 M. Goldey,  P. R. Horn,  L. D. Jacobson,  I. Kaliman,  T. Kus,  A. Landau,  
 Jie Liu,  E. I. Proynov,  R. M. Richard,  R. P. Steele,  E. J. Sundstrom,  
 H. L. Woodcock III,  P. M. Zimmerman,  D. Zuev,  B. Albrecht,  E. Alguire,  
 S. A. Baeppler,  D. Barton,  Z. Benda,  Y. A. Bernard,  E. J. Berquist,  
 K. B. Bravaya,  H. Burton,  D. Casanova,  Chun-Min Chang,  Yunqing Chen,  
 A. Chien,  K. D. Closser,  M. P. Coons,  S. Coriani,  S. Dasgupta,  
 A. L. Dempwolff,  M. Diedenhofen,  Hainam Do,  R. G. Edgar,  Po-Tung Fang,  
 S. Faraji,  S. Fatehi,  Qingguo Feng,  K. D. Fenk,  J. Fosso-Tande,  
 Qinghui Ge,  A. Ghysels,  G. Gidofalvi,  J. Gomes,  J. Gonthier,  A. Gunina,  
 D. Hait,  M. W. D. Hanson-Heine,  P. H. P. Harbach,  A. W. Hauser,  
 J. E. Herr,  E. G. Hohenstein,  Z. C. Holden,  Kerwin Hui,  B. C. Huynh,  
 T.-C. Jagau,  Hyunjun Ji,  B. Kaduk,  K. Khistyaev,  Jaehoon Kim,  
 P. Klunzinger,  K. Koh,  D. Kosenkov,  L. Koulias,  T. Kowalczyk,  
 C. M. Krauter,  A. Kunitsa,  Ka Un Lao,  A. Laurent,  K. V. Lawler,  
 Joonho Lee,  D. Lefrancois,  S. Lehtola,  D. S. Levine,  Yi-Pei Li,  
 You-Sheng Lin,  Fenglai Liu,  E. Livshits,  A. Luenser,  P. Manohar,  
 E. Mansoor,  S. F. Manzer,  Shan-Ping Mao,  Yuezhi Mao,  N. Mardirossian,  
 A. V. Marenich,  T. Markovich,  L. A. Martinez-Martinez,  S. A. Maurer,  
 N. J. Mayhall,  S. C. McKenzie,  J.-M. Mewes,  A. F. Morrison,  
 J. W. Mullinax,  K. Nanda,  T. S. Nguyen-Beck,  R. Olivares-Amaya,  
 J. A. Parkhill,  T. M. Perrine,  F. Plasser,  P. Pokhilko,  S. Prager,  
 A. Prociuk,  E. Ramos,  D. R. Rehn,  F. Rob,  M. Schneider,  N. Sergueev,  
 S. M. Sharada,  S. Sharma,  D. W. Small,  T. Stauch,  T. Stein,  
 Yu-Chuan Su,  A. J. W. Thom,  A. Tkatchenko,  T. Tsuchimochi,  N. M. Tubman,  
 L. Vogt,  M. L. Vidal,  O. Vydrov,  M. A. Watson,  J. Wenzel,  
 M. de Wergifosse,  T. A. Wesolowski,  A. White,  J. Witte,  A. Yamada,  
 Jun Yang,  K. Yao,  S. Yeganeh,  S. R. Yost,  Zhi-Qiang You,  A. Zech,  
 Igor Ying Zhang,  Xing Zhang,  Yan Zhao,  Ying Zhu,  B. R. Brooks,  
 G. K. L. Chan,  C. J. Cramer,  M. S. Gordon,  W. J. Hehre,  A. Klamt,  
 M. W. Schmidt,  C. D. Sherrill,  D. G. Truhlar,  A. Aspuru-Guzik,  R. Baer,  
 A. T. Bell,  N. A. Besley,  Jeng-Da Chai,  A. E. DePrince, III,  
 R. A. DiStasio Jr.,  A. Dreuw,  B. D. Dunietz,  T. R. Furlani,  
 Chao-Ping Hsu,  Yousung Jung,  Jing Kong,  D. S. Lambrecht,  WanZhen Liang,  
 C. Ochsenfeld,  V. A. Rassolov,  L. V. Slipchenko,  J. E. Subotnik,  
 T. Van Voorhis,  J. M. Herbert,  A. I. Krylov,  P. M. W. Gill,  M. Head-Gordon

 Contributors to earlier versions of Q-Chem not listed above: 
 R. D. Adamson,  B. Austin,  J. Baker,  G. J. O. Beran,  K. Brandhorst,  
 S. T. Brown,  E. F. C. Byrd,  A. K. Chakraborty,  C.-L. Cheng,  
 Siu Hung Chien,  D. M. Chipman,  D. L. Crittenden,  H. Dachsel,  
 R. J. Doerksen,  A. D. Dutoi,  L. Fusti-Molnar,  W. A. Goddard III,  
 A. Golubeva-Zadorozhnaya,  S. R. Gwaltney,  G. Hawkins,  A. Heyden,  
 S. Hirata,  G. Kedziora,  F. J. Keil,  C. Kelley,  Jihan Kim,  R. A. King,  
 R. Z. Khaliullin,  P. P. Korambath,  W. Kurlancheek,  A. M. Lee,  M. S. Lee,  
 S. V. Levchenko,  Ching Yeh Lin,  D. Liotard,  R. C. Lochan,  I. Lotan,  
 P. E. Maslen,  N. Nair,  D. P. O'Neill,  D. Neuhauser,  E. Neuscamman,  
 C. M. Oana,  R. Olson,  B. Peters,  R. Peverati,  P. A. Pieniazek,  
 Y. M. Rhee,  J. Ritchie,  M. A. Rohrdanz,  E. Rosta,  N. J. Russ,  
 H. F. Schaefer III,  N. E. Schultz,  N. Shenvi,  A. C. Simmonett,  A. Sodt,  
 D. Stuck,  K. S. Thanthiriwatte,  V. Vanovschi,  Tao Wang,  A. Warshel,  
 C. F. Williams,  Q. Wu,  X. Xu,  W. Zhang

 Please cite Q-Chem as follows:
 Y. Shao et al., Mol. Phys. 113, 184-215 (2015)
 DOI: 10.1080/00268976.2014.952696

 Q-Chem 5.1.1 for Intel X86 EM64T Linux

 Parts of Q-Chem use Armadillo 8.300.2 (Tropical Shenanigans).
 http://arma.sourceforge.net/

 Q-Chem begins on Fri Oct  9 03:13:08 2020  

Host: n0085.mhg0
0

     Scratch files written to /local/scratch/users/yhljason/SO2_PWPB95-D3_aug-cc-pcVQZ.inp20201008191802//
The previous job contains 0 fragments, simply inherited here
Input Ideriv = 0
Curr. Ideriv = -1
Max.  Ideriv = 0
Analytic post-HF gradients are not available with non-HF exchange
Input Ideriv = 0
Curr. Ideriv = 0
Max.  Ideriv = 0

Checking the input file for inconsistencies... 	...done.

--------------------------------------------------------------
User input:
--------------------------------------------------------------
$molecule
read
$end

$rem

jobtype sp
method PWPB95-D3
xc_grid 000099000590
basis aug-cc-pcVQZ
max_scf_cycles 200
thresh 14
scf_convergence 8
mem_total 128000
cc_memory 96000
cc_backend xm
mem_static 1500
symmetry false
sym_ignore true
scf_guess read
unrestricted false
scf_algorithm gdm
n_frozen_core 0
$end

$multipole_field
XX -0.0001
$end


--------------------------------------------------------------
 Adding empirical dispersion correction 
 ----------------------------------------------------------------
 Doing -D3(0) with
 s6  =   0.82000
 s8  =   0.70500
 rs6 =   1.55700
 rs8 =   1.00000
 -D3 energy without 3body term =     -0.0001110190 hartrees
 ----------------------------------------------------------------
             Standard Nuclear Orientation (Angstroms)
    I     Atom           X                Y                Z
 ----------------------------------------------------------------
    1      S       0.0000000000     0.0000000000     0.0000000000
    2      O       0.0000000000     1.2371000000     0.7215000000
    3      O       0.0000000000    -1.2371000000     0.7215000000
 ----------------------------------------------------------------
 Nuclear Repulsion Energy =   108.2814206240 hartrees
 There are       16 alpha and       16 beta electrons
 Requested basis set is aug-cc-pCVQZ
 There are 92 shells and 352 basis functions

 Total QAlloc Memory Limit 128000 MB
 Mega-Array Size      1467 MB
 MEM_STATIC part      1500 MB

                       Distance Matrix (Angstroms)
             S (  1)   O (  2)
   O (  2)  1.432124
   O (  3)  1.432124  2.474200
 
 Applying Cartesian multipole field
    Component          Value
    ---------          -----
     (2,0,0)       -1.00000E-04
 A cutoff of  1.0D-14 yielded   3941 shell pairs
 There are     58989 function pairs (     98227 Cartesian)
 
 -------------------------------------------------------
 OpenMP Integral Computing Module                       
 Release: version 1.0, May 2013, Q-Chem Inc. Pittsburgh 
 -------------------------------------------------------
 Integral Job Info:
 Integral job number is                      11
 Integral operator is                         1
 short-range coefficients                     0
 long-range coefficients              100000000
 Omega coefficients                           0
 if combine SR and LR in K                    0
 Integral screening is                        0
 Integral computing path is                   2
 max size of driver memory is           3200000
 size of driver memory is               1704330
 size of scratch memory is             29435624
 max col of scratch BK array              50625
 max len of scratch array in speh3         2114
 max len of scratch index in speh4           50
 max int batch size is                      520
 min int batch size is                       52
 fixed nKL is                                22
 max L of basis functions is                  4
 order of int derivative is                   0
 number of shells is                         92
 number of basis is                         452
 number of cartesian basis is               452
 number of contracted shell pairs          3941
 number of primitive shell pairs          12264
 maxK2 (contraction) of shell pair          169
 max number of K2 of shell pair               1
 max number of CS2 of shell pair            407
 max number of PS2 of shell pair           1014
 mem total for path MDJ                  873640
 -------------------------------------------------------
 Smallest overlap matrix eigenvalue = 2.58E-05
 Guess MOs from SCF MO coefficient file

 -----------------------------------------------------------------------
  General SCF calculation program by
  Eric Jon Sundstrom, Paul Horn, Yuezhi Mao, Dmitri Zuev, Alec White,
  David Stuck, Shaama M.S., Shane Yost, Joonho Lee, David Small,
  Daniel Levine, Susi Lehtola, Hugh Burton, Evgeny Epifanovsky
 -----------------------------------------------------------------------
 Exchange:     0.5000 Hartree-Fock + 1.0000 PWPB95-D3
 Correlation:  0.7310 PWPB95-D3
 Using Euler-Maclaurin-Lebedev (99,590) quadrature formula
 Dispersion:   Grimme D3
 using 8 threads for integral computing
 -------------------------------------------------------
 OpenMP Integral computing Module                
 Release: version 2.0, May 2017, Q-Chem Inc. Pleasanton 
 -------------------------------------------------------
 -------------------------------------------------------
 OpenMP BLAS3 based DFT computing Module                
 Release: version 1.0, May 2013, Q-Chem Inc. Pittsburgh 
 -------------------------------------------------------
 A restricted SCF calculation will be
 performed using GDM
 SCF converges when RMS gradient is below 1.0e-08
 ---------------------------------------
  Cycle       Energy        RMS Gradient
 ---------------------------------------
    1    -548.4338374980      4.69e-04   Normal BFGS step
    2    -548.4338389256      1.95e-04   Normal BFGS step
    3    -548.4338390419      2.30e-04   Normal BFGS step
    4    -548.4338391572      2.44e-05   Normal BFGS step
    5    -548.4338391627      7.58e-06   Normal BFGS step
    6    -548.4338391637      1.72e-06   Normal BFGS step
    7    -548.4338391637      2.08e-07   Normal BFGS step
    8    -548.4338391637      4.45e-08   Normal BFGS step
    9    -548.4338391637      1.39e-08   Normal BFGS step
   10    -548.4338391637      2.48e-08   Normal BFGS step
   11    -548.4338391637      3.62e-09  Convergence criterion met
 ---------------------------------------
 SCF time:   CPU 5579.69s  wall 705.00s 
 SCF   energy in the final basis set =     -548.4338391637
 Total energy in the final basis set =     -548.4338391637
 
 Components of the MP2 correlation energy:
        aaaa  correlation energy =         0.0000000000 au
        abab  correlation energy =        -0.2889356088 au
        bbbb  correlation energy =         0.0000000000 au
        non-Brillouin singles    =        -0.0000000000 au

 Total  MP2   correlation energy =                    -0.28893561 au
        MP2         total energy =                  -548.72277477 au
 
 --------------------------------------------------------------
 
                    Orbital Energies (a.u.)
 --------------------------------------------------------------
 
 Alpha MOs
 -- Occupied --
-90.219 -19.733 -19.732  -8.484  -6.346  -6.344  -6.341  -1.281
 -1.186  -0.728  -0.577  -0.574  -0.566  -0.440  -0.437  -0.401
 -- Virtual --
 -0.084   0.026   0.036   0.042   0.050   0.093   0.108   0.117
  0.126   0.132   0.142   0.146   0.178   0.187   0.206   0.240
  0.244   0.254   0.275   0.276   0.298   0.334   0.403   0.409
  0.415   0.418   0.427   0.447   0.455   0.509   0.528   0.542
  0.543   0.554   0.575   0.584   0.598   0.603   0.612   0.618
  0.649   0.672   0.701   0.730   0.736   0.745   0.822   0.826
  0.848   0.947   0.974   1.032   1.070   1.088   1.145   1.153
  1.183   1.196   1.243   1.244   1.253   1.292   1.311   1.312
  1.322   1.360   1.370   1.376   1.397   1.399   1.409   1.445
  1.481   1.486   1.507   1.519   1.544   1.567   1.573   1.604
  1.651   1.656   1.664   1.672   1.685   1.817   1.901   1.908
  1.946   1.950   2.030   2.083   2.093   2.098   2.122   2.126
  2.136   2.139   2.198   2.230   2.432   2.617   2.693   2.913
  2.925   3.019   3.103   3.140   3.174   3.197   3.205   3.217
  3.251   3.272   3.303   3.339   3.343   3.379   3.388   3.431
  3.441   3.457   3.504   3.520   3.535   3.556   3.613   3.659
  3.698   3.730   3.764   3.835   3.863   3.873   3.889   3.892
  3.929   3.945   3.978   3.981   3.997   4.008   4.080   4.090
  4.105   4.133   4.248   4.279   4.323   4.325   4.365   4.373
  4.408   4.482   4.490   4.584   4.617   4.626   4.683   4.758
  4.875   4.886   4.900   5.007   5.030   5.187   5.207   5.260
  5.319   5.632   5.636   5.671   5.963   6.054   6.082   6.745
  7.350   8.884   9.510   9.522   9.590   9.851   9.882   9.935
  9.994  10.140  10.157  10.251  10.254  10.263  10.279  10.354
 10.355  10.407  10.412  10.445  10.445  10.512  10.521  10.538
 10.551  10.568  10.602  10.679  10.722  11.017  11.120  11.459
 11.464  11.464  11.472  11.618  11.640  11.694  11.737  12.016
 12.085  12.092  12.275  12.401  12.427  12.511  12.537  12.609
 12.730  12.732  12.735  12.826  12.898  13.435  13.484  15.952
 16.322  16.968  17.447  17.463  18.228  18.257  18.584  18.628
 18.797  18.983  19.283  28.689  31.270  31.333  31.413  32.116
 32.189  33.045  33.077  33.149  33.378  33.838  33.849  45.583
 45.943  46.422  46.439  46.494  46.534  46.535  46.639  46.652
 46.697  46.707  47.123  47.260  54.961  54.961  54.962  54.964
 54.965  54.968  54.969  54.982  54.982  63.306  63.406  65.146
 65.158  65.322  65.329  65.340  65.459  65.585  82.741  92.900
 92.941  93.010  93.443  93.570 102.445 102.446 102.446 102.446
102.460 102.462 102.467 102.472 102.498 102.503 102.506 102.521
102.527 102.537 115.813 115.845 115.892 116.084 116.451 116.456
145.100 145.366 145.888 197.219 197.224 197.254 197.276 197.333
197.335 197.360 197.367 197.584 197.594 215.060 215.170 390.416
393.474 393.500 393.539 393.691 393.993 394.037 892.436 892.553
 --------------------------------------------------------------
 
          Ground-State Mulliken Net Atomic Charges

     Atom                 Charge (a.u.)
  ----------------------------------------
      1 S                     1.100901
      2 O                    -0.550450
      3 O                    -0.550450
  ----------------------------------------
  Sum of atomic charges =    -0.000000

 -----------------------------------------------------------------
                    Cartesian Multipole Moments
 -----------------------------------------------------------------
    Charge (ESU x 10^10)
                -0.0000
    Dipole Moment (Debye)
         X      -0.0000      Y       0.0000      Z      -1.7798
       Tot       1.7798
    Quadrupole Moments (Debye-Ang)
        XX     -20.7888     XY      -0.0000     YY     -27.0516
        XZ      -0.0000     YZ       0.0000     ZZ     -23.9928
    Octopole Moments (Debye-Ang^2)
       XXX       0.0000    XXY      -0.0000    XYY       0.0000
       YYY       0.0000    XXZ      -7.5755    XYZ      -0.0000
       YYZ     -11.3731    XZZ       0.0000    YZZ       0.0000
       ZZZ     -24.6135
    Hexadecapole Moments (Debye-Ang^3)
      XXXX     -19.4804   XXXY      -0.0000   XXYY     -23.6442
      XYYY      -0.0000   YYYY    -130.0315   XXXZ       0.0000
      XXYZ      -0.0000   XYYZ      -0.0000   YYYZ       0.0000
      XXZZ     -12.6320   XYZZ       0.0000   YYZZ     -32.0742
      XZZZ      -0.0000   YZZZ       0.0000   ZZZZ     -58.7891
 -----------------------------------------------------------------
Archival summary:
1\1\n0085.mhg0\SP\ProcedureUnspecified\BasisUnspecified\12\yhljason\FriOct903:47:412020FriOct903:47:412020\0\\#,ProcedureUnspecified,BasisUnspecified,\\0,1\S\O,1,1.43212\O,1,1.43212,2,119.497\\\@

 Total job time:  2072.86s(wall), 16395.53s(cpu) 
 Fri Oct  9 03:47:41 2020

        *************************************************************
        *                                                           *
        *  Thank you very much for using Q-Chem.  Have a nice day.  *
        *                                                           *
        *************************************************************


 
User input: 5 of 8 
 
Q-Chem Developer Version!
                  Welcome to Q-Chem
     A Quantum Leap Into The Future Of Chemistry


 Q-Chem 5.1, Q-Chem, Inc., Pleasanton, CA (2018)

 Yihan Shao,  Zhengting Gan,  E. Epifanovsky,  A. T. B. Gilbert,  M. Wormit,  
 J. Kussmann,  A. W. Lange,  A. Behn,  Jia Deng,  Xintian Feng,  D. Ghosh,  
 M. Goldey,  P. R. Horn,  L. D. Jacobson,  I. Kaliman,  T. Kus,  A. Landau,  
 Jie Liu,  E. I. Proynov,  R. M. Richard,  R. P. Steele,  E. J. Sundstrom,  
 H. L. Woodcock III,  P. M. Zimmerman,  D. Zuev,  B. Albrecht,  E. Alguire,  
 S. A. Baeppler,  D. Barton,  Z. Benda,  Y. A. Bernard,  E. J. Berquist,  
 K. B. Bravaya,  H. Burton,  D. Casanova,  Chun-Min Chang,  Yunqing Chen,  
 A. Chien,  K. D. Closser,  M. P. Coons,  S. Coriani,  S. Dasgupta,  
 A. L. Dempwolff,  M. Diedenhofen,  Hainam Do,  R. G. Edgar,  Po-Tung Fang,  
 S. Faraji,  S. Fatehi,  Qingguo Feng,  K. D. Fenk,  J. Fosso-Tande,  
 Qinghui Ge,  A. Ghysels,  G. Gidofalvi,  J. Gomes,  J. Gonthier,  A. Gunina,  
 D. Hait,  M. W. D. Hanson-Heine,  P. H. P. Harbach,  A. W. Hauser,  
 J. E. Herr,  E. G. Hohenstein,  Z. C. Holden,  Kerwin Hui,  B. C. Huynh,  
 T.-C. Jagau,  Hyunjun Ji,  B. Kaduk,  K. Khistyaev,  Jaehoon Kim,  
 P. Klunzinger,  K. Koh,  D. Kosenkov,  L. Koulias,  T. Kowalczyk,  
 C. M. Krauter,  A. Kunitsa,  Ka Un Lao,  A. Laurent,  K. V. Lawler,  
 Joonho Lee,  D. Lefrancois,  S. Lehtola,  D. S. Levine,  Yi-Pei Li,  
 You-Sheng Lin,  Fenglai Liu,  E. Livshits,  A. Luenser,  P. Manohar,  
 E. Mansoor,  S. F. Manzer,  Shan-Ping Mao,  Yuezhi Mao,  N. Mardirossian,  
 A. V. Marenich,  T. Markovich,  L. A. Martinez-Martinez,  S. A. Maurer,  
 N. J. Mayhall,  S. C. McKenzie,  J.-M. Mewes,  A. F. Morrison,  
 J. W. Mullinax,  K. Nanda,  T. S. Nguyen-Beck,  R. Olivares-Amaya,  
 J. A. Parkhill,  T. M. Perrine,  F. Plasser,  P. Pokhilko,  S. Prager,  
 A. Prociuk,  E. Ramos,  D. R. Rehn,  F. Rob,  M. Schneider,  N. Sergueev,  
 S. M. Sharada,  S. Sharma,  D. W. Small,  T. Stauch,  T. Stein,  
 Yu-Chuan Su,  A. J. W. Thom,  A. Tkatchenko,  T. Tsuchimochi,  N. M. Tubman,  
 L. Vogt,  M. L. Vidal,  O. Vydrov,  M. A. Watson,  J. Wenzel,  
 M. de Wergifosse,  T. A. Wesolowski,  A. White,  J. Witte,  A. Yamada,  
 Jun Yang,  K. Yao,  S. Yeganeh,  S. R. Yost,  Zhi-Qiang You,  A. Zech,  
 Igor Ying Zhang,  Xing Zhang,  Yan Zhao,  Ying Zhu,  B. R. Brooks,  
 G. K. L. Chan,  C. J. Cramer,  M. S. Gordon,  W. J. Hehre,  A. Klamt,  
 M. W. Schmidt,  C. D. Sherrill,  D. G. Truhlar,  A. Aspuru-Guzik,  R. Baer,  
 A. T. Bell,  N. A. Besley,  Jeng-Da Chai,  A. E. DePrince, III,  
 R. A. DiStasio Jr.,  A. Dreuw,  B. D. Dunietz,  T. R. Furlani,  
 Chao-Ping Hsu,  Yousung Jung,  Jing Kong,  D. S. Lambrecht,  WanZhen Liang,  
 C. Ochsenfeld,  V. A. Rassolov,  L. V. Slipchenko,  J. E. Subotnik,  
 T. Van Voorhis,  J. M. Herbert,  A. I. Krylov,  P. M. W. Gill,  M. Head-Gordon

 Contributors to earlier versions of Q-Chem not listed above: 
 R. D. Adamson,  B. Austin,  J. Baker,  G. J. O. Beran,  K. Brandhorst,  
 S. T. Brown,  E. F. C. Byrd,  A. K. Chakraborty,  C.-L. Cheng,  
 Siu Hung Chien,  D. M. Chipman,  D. L. Crittenden,  H. Dachsel,  
 R. J. Doerksen,  A. D. Dutoi,  L. Fusti-Molnar,  W. A. Goddard III,  
 A. Golubeva-Zadorozhnaya,  S. R. Gwaltney,  G. Hawkins,  A. Heyden,  
 S. Hirata,  G. Kedziora,  F. J. Keil,  C. Kelley,  Jihan Kim,  R. A. King,  
 R. Z. Khaliullin,  P. P. Korambath,  W. Kurlancheek,  A. M. Lee,  M. S. Lee,  
 S. V. Levchenko,  Ching Yeh Lin,  D. Liotard,  R. C. Lochan,  I. Lotan,  
 P. E. Maslen,  N. Nair,  D. P. O'Neill,  D. Neuhauser,  E. Neuscamman,  
 C. M. Oana,  R. Olson,  B. Peters,  R. Peverati,  P. A. Pieniazek,  
 Y. M. Rhee,  J. Ritchie,  M. A. Rohrdanz,  E. Rosta,  N. J. Russ,  
 H. F. Schaefer III,  N. E. Schultz,  N. Shenvi,  A. C. Simmonett,  A. Sodt,  
 D. Stuck,  K. S. Thanthiriwatte,  V. Vanovschi,  Tao Wang,  A. Warshel,  
 C. F. Williams,  Q. Wu,  X. Xu,  W. Zhang

 Please cite Q-Chem as follows:
 Y. Shao et al., Mol. Phys. 113, 184-215 (2015)
 DOI: 10.1080/00268976.2014.952696

 Q-Chem 5.1.1 for Intel X86 EM64T Linux

 Parts of Q-Chem use Armadillo 8.300.2 (Tropical Shenanigans).
 http://arma.sourceforge.net/

 Q-Chem begins on Fri Oct  9 03:47:41 2020  

Host: n0085.mhg0
0

     Scratch files written to /local/scratch/users/yhljason/SO2_PWPB95-D3_aug-cc-pcVQZ.inp20201008191802//
The previous job contains 0 fragments, simply inherited here
Input Ideriv = 0
Curr. Ideriv = -1
Max.  Ideriv = 0
Analytic post-HF gradients are not available with non-HF exchange
Input Ideriv = 0
Curr. Ideriv = 0
Max.  Ideriv = 0

Checking the input file for inconsistencies... 	...done.

--------------------------------------------------------------
User input:
--------------------------------------------------------------
$molecule
read
$end

$rem

jobtype sp
method PWPB95-D3
xc_grid 000099000590
basis aug-cc-pcVQZ
max_scf_cycles 200
thresh 14
scf_convergence 8
mem_total 128000
cc_memory 96000
cc_backend xm
mem_static 1500
symmetry false
sym_ignore true
scf_guess read
unrestricted false
scf_algorithm gdm
n_frozen_core 0
$end

$multipole_field
YY 0.0001
$end


--------------------------------------------------------------
 Adding empirical dispersion correction 
 ----------------------------------------------------------------
 Doing -D3(0) with
 s6  =   0.82000
 s8  =   0.70500
 rs6 =   1.55700
 rs8 =   1.00000
 -D3 energy without 3body term =     -0.0001110190 hartrees
 ----------------------------------------------------------------
             Standard Nuclear Orientation (Angstroms)
    I     Atom           X                Y                Z
 ----------------------------------------------------------------
    1      S       0.0000000000     0.0000000000     0.0000000000
    2      O       0.0000000000     1.2371000000     0.7215000000
    3      O       0.0000000000    -1.2371000000     0.7215000000
 ----------------------------------------------------------------
 Nuclear Repulsion Energy =   108.2814206240 hartrees
 There are       16 alpha and       16 beta electrons
 Requested basis set is aug-cc-pCVQZ
 There are 92 shells and 352 basis functions

 Total QAlloc Memory Limit 128000 MB
 Mega-Array Size      1467 MB
 MEM_STATIC part      1500 MB

                       Distance Matrix (Angstroms)
             S (  1)   O (  2)
   O (  2)  1.432124
   O (  3)  1.432124  2.474200
 
 Applying Cartesian multipole field
    Component          Value
    ---------          -----
     (0,2,0)        1.00000E-04
 Nucleus-field energy     =     0.0087443459 hartrees
 A cutoff of  1.0D-14 yielded   3941 shell pairs
 There are     58989 function pairs (     98227 Cartesian)
 
 -------------------------------------------------------
 OpenMP Integral Computing Module                       
 Release: version 1.0, May 2013, Q-Chem Inc. Pittsburgh 
 -------------------------------------------------------
 Integral Job Info:
 Integral job number is                      11
 Integral operator is                         1
 short-range coefficients                     0
 long-range coefficients              100000000
 Omega coefficients                           0
 if combine SR and LR in K                    0
 Integral screening is                        0
 Integral computing path is                   2
 max size of driver memory is           3200000
 size of driver memory is               1704330
 size of scratch memory is             29435624
 max col of scratch BK array              50625
 max len of scratch array in speh3         2114
 max len of scratch index in speh4           50
 max int batch size is                      520
 min int batch size is                       52
 fixed nKL is                                22
 max L of basis functions is                  4
 order of int derivative is                   0
 number of shells is                         92
 number of basis is                         452
 number of cartesian basis is               452
 number of contracted shell pairs          3941
 number of primitive shell pairs          12264
 maxK2 (contraction) of shell pair          169
 max number of K2 of shell pair               1
 max number of CS2 of shell pair            407
 max number of PS2 of shell pair           1014
 mem total for path MDJ                  873640
 -------------------------------------------------------
 Smallest overlap matrix eigenvalue = 2.58E-05
 Guess MOs from SCF MO coefficient file

 -----------------------------------------------------------------------
  General SCF calculation program by
  Eric Jon Sundstrom, Paul Horn, Yuezhi Mao, Dmitri Zuev, Alec White,
  David Stuck, Shaama M.S., Shane Yost, Joonho Lee, David Small,
  Daniel Levine, Susi Lehtola, Hugh Burton, Evgeny Epifanovsky
 -----------------------------------------------------------------------
 Exchange:     0.5000 Hartree-Fock + 1.0000 PWPB95-D3
 Correlation:  0.7310 PWPB95-D3
 Using Euler-Maclaurin-Lebedev (99,590) quadrature formula
 Dispersion:   Grimme D3
 using 8 threads for integral computing
 -------------------------------------------------------
 OpenMP Integral computing Module                
 Release: version 2.0, May 2017, Q-Chem Inc. Pleasanton 
 -------------------------------------------------------
 -------------------------------------------------------
 OpenMP BLAS3 based DFT computing Module                
 Release: version 1.0, May 2013, Q-Chem Inc. Pittsburgh 
 -------------------------------------------------------
 A restricted SCF calculation will be
 performed using GDM
 SCF converges when RMS gradient is below 1.0e-08
 ---------------------------------------
  Cycle       Energy        RMS Gradient
 ---------------------------------------
    1    -548.4373959862      3.70e-04   Normal BFGS step
    2    -548.4373976083      2.40e-04   Normal BFGS step
    3    -548.4373978856      1.49e-04   Normal BFGS step
    4    -548.4373979121      7.29e-05   Normal BFGS step
    5    -548.4373979387      4.23e-06   Normal BFGS step
    6    -548.4373979390      7.74e-07   Normal BFGS step
    7    -548.4373979390      1.87e-07   Normal BFGS step
    8    -548.4373979390      5.97e-08   Normal BFGS step
    9    -548.4373979390      1.25e-08   Normal BFGS step
   10    -548.4373979390      2.14e-08   Normal BFGS step
   11    -548.4373979390      6.96e-09  Convergence criterion met
 ---------------------------------------
 SCF time:   CPU 5589.02s  wall 705.00s 
 SCF   energy in the final basis set =     -548.4373979390
 Total energy in the final basis set =     -548.4373979390
 
 Components of the MP2 correlation energy:
        aaaa  correlation energy =         0.0000000000 au
        abab  correlation energy =        -0.2889200770 au
        bbbb  correlation energy =         0.0000000000 au
        non-Brillouin singles    =        -0.0000000000 au

 Total  MP2   correlation energy =                    -0.28892008 au
        MP2         total energy =                  -548.72631802 au
 
 --------------------------------------------------------------
 
                    Orbital Energies (a.u.)
 --------------------------------------------------------------
 
 Alpha MOs
 -- Occupied --
-90.220 -19.733 -19.733  -8.485  -6.347  -6.344  -6.342  -1.282
 -1.187  -0.729  -0.578  -0.575  -0.567  -0.440  -0.438  -0.402
 -- Virtual --
 -0.085   0.023   0.034   0.038   0.046   0.091   0.104   0.112
  0.121   0.129   0.139   0.143   0.174   0.184   0.204   0.237
  0.242   0.251   0.273   0.274   0.295   0.332   0.402   0.407
  0.413   0.416   0.425   0.446   0.454   0.506   0.526   0.540
  0.542   0.552   0.573   0.582   0.597   0.601   0.610   0.616
  0.648   0.670   0.699   0.728   0.734   0.743   0.820   0.824
  0.847   0.945   0.972   1.031   1.068   1.087   1.144   1.152
  1.182   1.195   1.242   1.243   1.252   1.291   1.310   1.311
  1.321   1.358   1.369   1.374   1.396   1.398   1.408   1.443
  1.479   1.485   1.506   1.517   1.542   1.565   1.572   1.603
  1.650   1.655   1.663   1.671   1.684   1.815   1.900   1.906
  1.945   1.949   2.028   2.081   2.092   2.097   2.121   2.125
  2.134   2.137   2.196   2.229   2.431   2.616   2.692   2.912
  2.924   3.018   3.102   3.139   3.173   3.197   3.205   3.216
  3.251   3.271   3.302   3.338   3.342   3.378   3.387   3.430
  3.440   3.457   3.503   3.519   3.534   3.555   3.612   3.658
  3.697   3.729   3.762   3.834   3.862   3.872   3.888   3.890
  3.928   3.944   3.977   3.980   3.996   4.007   4.079   4.089
  4.104   4.132   4.247   4.278   4.322   4.324   4.364   4.372
  4.407   4.481   4.489   4.583   4.616   4.624   4.682   4.757
  4.874   4.885   4.899   5.006   5.029   5.186   5.206   5.259
  5.318   5.631   5.635   5.670   5.962   6.053   6.081   6.744
  7.349   8.883   9.509   9.521   9.589   9.850   9.881   9.934
  9.993  10.140  10.156  10.250  10.253  10.263  10.278  10.353
 10.354  10.406  10.411  10.444  10.445  10.511  10.520  10.537
 10.550  10.567  10.601  10.678  10.721  11.016  11.119  11.458
 11.463  11.463  11.471  11.617  11.639  11.693  11.736  12.015
 12.084  12.091  12.274  12.400  12.426  12.510  12.536  12.608
 12.729  12.731  12.734  12.825  12.897  13.434  13.483  15.951
 16.321  16.967  17.447  17.462  18.228  18.256  18.583  18.627
 18.797  18.982  19.282  28.688  31.269  31.332  31.412  32.115
 32.188  33.044  33.076  33.148  33.377  33.837  33.848  45.582
 45.943  46.421  46.438  46.493  46.533  46.534  46.639  46.651
 46.697  46.706  47.122  47.260  54.960  54.960  54.961  54.963
 54.964  54.967  54.968  54.981  54.982  63.305  63.405  65.145
 65.157  65.321  65.328  65.339  65.458  65.584  82.740  92.899
 92.940  93.009  93.442  93.569 102.444 102.445 102.445 102.445
102.459 102.461 102.467 102.471 102.497 102.502 102.505 102.520
102.526 102.537 115.812 115.844 115.892 116.083 116.450 116.455
145.099 145.365 145.887 197.218 197.223 197.253 197.275 197.332
197.334 197.359 197.366 197.584 197.593 215.059 215.169 390.415
393.473 393.499 393.538 393.690 393.993 394.036 892.435 892.552
 --------------------------------------------------------------
 
          Ground-State Mulliken Net Atomic Charges

     Atom                 Charge (a.u.)
  ----------------------------------------
      1 S                     1.102600
      2 O                    -0.551300
      3 O                    -0.551300
  ----------------------------------------
  Sum of atomic charges =    -0.000000

 -----------------------------------------------------------------
                    Cartesian Multipole Moments
 -----------------------------------------------------------------
    Charge (ESU x 10^10)
                -0.0000
    Dipole Moment (Debye)
         X       0.0000      Y      -0.0000      Z      -1.7827
       Tot       1.7827
    Quadrupole Moments (Debye-Ang)
        XX     -20.7996     XY      -0.0000     YY     -27.0935
        XZ       0.0000     YZ      -0.0000     ZZ     -23.9942
    Octopole Moments (Debye-Ang^2)
       XXX       0.0000    XXY       0.0000    XYY       0.0000
       YYY      -0.0000    XXZ      -7.5801    XYZ       0.0000
       YYZ     -11.3982    XZZ      -0.0000    YZZ      -0.0000
       ZZZ     -24.6220
    Hexadecapole Moments (Debye-Ang^3)
      XXXX     -19.5208   XXXY      -0.0000   XXYY     -23.6821
      XYYY      -0.0000   YYYY    -130.2982   XXXZ       0.0000
      XXYZ       0.0000   XYYZ       0.0000   YYYZ      -0.0000
      XXZZ     -12.6431   XYZZ       0.0000   YYZZ     -32.1167
      XZZZ      -0.0000   YZZZ      -0.0000   ZZZZ     -58.8015
 -----------------------------------------------------------------
Archival summary:
1\1\n0085.mhg0\SP\ProcedureUnspecified\BasisUnspecified\12\yhljason\FriOct904:22:172020FriOct904:22:172020\0\\#,ProcedureUnspecified,BasisUnspecified,\\0,1\S\O,1,1.43212\O,1,1.43212,2,119.497\\\@

 Total job time:  2075.94s(wall), 16422.43s(cpu) 
 Fri Oct  9 04:22:17 2020

        *************************************************************
        *                                                           *
        *  Thank you very much for using Q-Chem.  Have a nice day.  *
        *                                                           *
        *************************************************************


 
User input: 6 of 8 
 
Q-Chem Developer Version!
                  Welcome to Q-Chem
     A Quantum Leap Into The Future Of Chemistry


 Q-Chem 5.1, Q-Chem, Inc., Pleasanton, CA (2018)

 Yihan Shao,  Zhengting Gan,  E. Epifanovsky,  A. T. B. Gilbert,  M. Wormit,  
 J. Kussmann,  A. W. Lange,  A. Behn,  Jia Deng,  Xintian Feng,  D. Ghosh,  
 M. Goldey,  P. R. Horn,  L. D. Jacobson,  I. Kaliman,  T. Kus,  A. Landau,  
 Jie Liu,  E. I. Proynov,  R. M. Richard,  R. P. Steele,  E. J. Sundstrom,  
 H. L. Woodcock III,  P. M. Zimmerman,  D. Zuev,  B. Albrecht,  E. Alguire,  
 S. A. Baeppler,  D. Barton,  Z. Benda,  Y. A. Bernard,  E. J. Berquist,  
 K. B. Bravaya,  H. Burton,  D. Casanova,  Chun-Min Chang,  Yunqing Chen,  
 A. Chien,  K. D. Closser,  M. P. Coons,  S. Coriani,  S. Dasgupta,  
 A. L. Dempwolff,  M. Diedenhofen,  Hainam Do,  R. G. Edgar,  Po-Tung Fang,  
 S. Faraji,  S. Fatehi,  Qingguo Feng,  K. D. Fenk,  J. Fosso-Tande,  
 Qinghui Ge,  A. Ghysels,  G. Gidofalvi,  J. Gomes,  J. Gonthier,  A. Gunina,  
 D. Hait,  M. W. D. Hanson-Heine,  P. H. P. Harbach,  A. W. Hauser,  
 J. E. Herr,  E. G. Hohenstein,  Z. C. Holden,  Kerwin Hui,  B. C. Huynh,  
 T.-C. Jagau,  Hyunjun Ji,  B. Kaduk,  K. Khistyaev,  Jaehoon Kim,  
 P. Klunzinger,  K. Koh,  D. Kosenkov,  L. Koulias,  T. Kowalczyk,  
 C. M. Krauter,  A. Kunitsa,  Ka Un Lao,  A. Laurent,  K. V. Lawler,  
 Joonho Lee,  D. Lefrancois,  S. Lehtola,  D. S. Levine,  Yi-Pei Li,  
 You-Sheng Lin,  Fenglai Liu,  E. Livshits,  A. Luenser,  P. Manohar,  
 E. Mansoor,  S. F. Manzer,  Shan-Ping Mao,  Yuezhi Mao,  N. Mardirossian,  
 A. V. Marenich,  T. Markovich,  L. A. Martinez-Martinez,  S. A. Maurer,  
 N. J. Mayhall,  S. C. McKenzie,  J.-M. Mewes,  A. F. Morrison,  
 J. W. Mullinax,  K. Nanda,  T. S. Nguyen-Beck,  R. Olivares-Amaya,  
 J. A. Parkhill,  T. M. Perrine,  F. Plasser,  P. Pokhilko,  S. Prager,  
 A. Prociuk,  E. Ramos,  D. R. Rehn,  F. Rob,  M. Schneider,  N. Sergueev,  
 S. M. Sharada,  S. Sharma,  D. W. Small,  T. Stauch,  T. Stein,  
 Yu-Chuan Su,  A. J. W. Thom,  A. Tkatchenko,  T. Tsuchimochi,  N. M. Tubman,  
 L. Vogt,  M. L. Vidal,  O. Vydrov,  M. A. Watson,  J. Wenzel,  
 M. de Wergifosse,  T. A. Wesolowski,  A. White,  J. Witte,  A. Yamada,  
 Jun Yang,  K. Yao,  S. Yeganeh,  S. R. Yost,  Zhi-Qiang You,  A. Zech,  
 Igor Ying Zhang,  Xing Zhang,  Yan Zhao,  Ying Zhu,  B. R. Brooks,  
 G. K. L. Chan,  C. J. Cramer,  M. S. Gordon,  W. J. Hehre,  A. Klamt,  
 M. W. Schmidt,  C. D. Sherrill,  D. G. Truhlar,  A. Aspuru-Guzik,  R. Baer,  
 A. T. Bell,  N. A. Besley,  Jeng-Da Chai,  A. E. DePrince, III,  
 R. A. DiStasio Jr.,  A. Dreuw,  B. D. Dunietz,  T. R. Furlani,  
 Chao-Ping Hsu,  Yousung Jung,  Jing Kong,  D. S. Lambrecht,  WanZhen Liang,  
 C. Ochsenfeld,  V. A. Rassolov,  L. V. Slipchenko,  J. E. Subotnik,  
 T. Van Voorhis,  J. M. Herbert,  A. I. Krylov,  P. M. W. Gill,  M. Head-Gordon

 Contributors to earlier versions of Q-Chem not listed above: 
 R. D. Adamson,  B. Austin,  J. Baker,  G. J. O. Beran,  K. Brandhorst,  
 S. T. Brown,  E. F. C. Byrd,  A. K. Chakraborty,  C.-L. Cheng,  
 Siu Hung Chien,  D. M. Chipman,  D. L. Crittenden,  H. Dachsel,  
 R. J. Doerksen,  A. D. Dutoi,  L. Fusti-Molnar,  W. A. Goddard III,  
 A. Golubeva-Zadorozhnaya,  S. R. Gwaltney,  G. Hawkins,  A. Heyden,  
 S. Hirata,  G. Kedziora,  F. J. Keil,  C. Kelley,  Jihan Kim,  R. A. King,  
 R. Z. Khaliullin,  P. P. Korambath,  W. Kurlancheek,  A. M. Lee,  M. S. Lee,  
 S. V. Levchenko,  Ching Yeh Lin,  D. Liotard,  R. C. Lochan,  I. Lotan,  
 P. E. Maslen,  N. Nair,  D. P. O'Neill,  D. Neuhauser,  E. Neuscamman,  
 C. M. Oana,  R. Olson,  B. Peters,  R. Peverati,  P. A. Pieniazek,  
 Y. M. Rhee,  J. Ritchie,  M. A. Rohrdanz,  E. Rosta,  N. J. Russ,  
 H. F. Schaefer III,  N. E. Schultz,  N. Shenvi,  A. C. Simmonett,  A. Sodt,  
 D. Stuck,  K. S. Thanthiriwatte,  V. Vanovschi,  Tao Wang,  A. Warshel,  
 C. F. Williams,  Q. Wu,  X. Xu,  W. Zhang

 Please cite Q-Chem as follows:
 Y. Shao et al., Mol. Phys. 113, 184-215 (2015)
 DOI: 10.1080/00268976.2014.952696

 Q-Chem 5.1.1 for Intel X86 EM64T Linux

 Parts of Q-Chem use Armadillo 8.300.2 (Tropical Shenanigans).
 http://arma.sourceforge.net/

 Q-Chem begins on Fri Oct  9 04:22:17 2020  

Host: n0085.mhg0
0

     Scratch files written to /local/scratch/users/yhljason/SO2_PWPB95-D3_aug-cc-pcVQZ.inp20201008191802//
The previous job contains 0 fragments, simply inherited here
Input Ideriv = 0
Curr. Ideriv = -1
Max.  Ideriv = 0
Analytic post-HF gradients are not available with non-HF exchange
Input Ideriv = 0
Curr. Ideriv = 0
Max.  Ideriv = 0

Checking the input file for inconsistencies... 	...done.

--------------------------------------------------------------
User input:
--------------------------------------------------------------
$molecule
read
$end

$rem

jobtype sp
method PWPB95-D3
xc_grid 000099000590
basis aug-cc-pcVQZ
max_scf_cycles 200
thresh 14
scf_convergence 8
mem_total 128000
cc_memory 96000
cc_backend xm
mem_static 1500
symmetry false
sym_ignore true
scf_guess read
unrestricted false
scf_algorithm gdm
n_frozen_core 0
$end

$multipole_field
YY -0.0001
$end


--------------------------------------------------------------
 Adding empirical dispersion correction 
 ----------------------------------------------------------------
 Doing -D3(0) with
 s6  =   0.82000
 s8  =   0.70500
 rs6 =   1.55700
 rs8 =   1.00000
 -D3 energy without 3body term =     -0.0001110190 hartrees
 ----------------------------------------------------------------
             Standard Nuclear Orientation (Angstroms)
    I     Atom           X                Y                Z
 ----------------------------------------------------------------
    1      S       0.0000000000     0.0000000000     0.0000000000
    2      O       0.0000000000     1.2371000000     0.7215000000
    3      O       0.0000000000    -1.2371000000     0.7215000000
 ----------------------------------------------------------------
 Nuclear Repulsion Energy =   108.2814206240 hartrees
 There are       16 alpha and       16 beta electrons
 Requested basis set is aug-cc-pCVQZ
 There are 92 shells and 352 basis functions

 Total QAlloc Memory Limit 128000 MB
 Mega-Array Size      1467 MB
 MEM_STATIC part      1500 MB

                       Distance Matrix (Angstroms)
             S (  1)   O (  2)
   O (  2)  1.432124
   O (  3)  1.432124  2.474200
 
 Applying Cartesian multipole field
    Component          Value
    ---------          -----
     (0,2,0)       -1.00000E-04
 Nucleus-field energy     =    -0.0087443459 hartrees
 A cutoff of  1.0D-14 yielded   3941 shell pairs
 There are     58989 function pairs (     98227 Cartesian)
 
 -------------------------------------------------------
 OpenMP Integral Computing Module                       
 Release: version 1.0, May 2013, Q-Chem Inc. Pittsburgh 
 -------------------------------------------------------
 Integral Job Info:
 Integral job number is                      11
 Integral operator is                         1
 short-range coefficients                     0
 long-range coefficients              100000000
 Omega coefficients                           0
 if combine SR and LR in K                    0
 Integral screening is                        0
 Integral computing path is                   2
 max size of driver memory is           3200000
 size of driver memory is               1704330
 size of scratch memory is             29435624
 max col of scratch BK array              50625
 max len of scratch array in speh3         2114
 max len of scratch index in speh4           50
 max int batch size is                      520
 min int batch size is                       52
 fixed nKL is                                22
 max L of basis functions is                  4
 order of int derivative is                   0
 number of shells is                         92
 number of basis is                         452
 number of cartesian basis is               452
 number of contracted shell pairs          3941
 number of primitive shell pairs          12264
 maxK2 (contraction) of shell pair          169
 max number of K2 of shell pair               1
 max number of CS2 of shell pair            407
 max number of PS2 of shell pair           1014
 mem total for path MDJ                  873640
 -------------------------------------------------------
 Smallest overlap matrix eigenvalue = 2.58E-05
 Guess MOs from SCF MO coefficient file

 -----------------------------------------------------------------------
  General SCF calculation program by
  Eric Jon Sundstrom, Paul Horn, Yuezhi Mao, Dmitri Zuev, Alec White,
  David Stuck, Shaama M.S., Shane Yost, Joonho Lee, David Small,
  Daniel Levine, Susi Lehtola, Hugh Burton, Evgeny Epifanovsky
 -----------------------------------------------------------------------
 Exchange:     0.5000 Hartree-Fock + 1.0000 PWPB95-D3
 Correlation:  0.7310 PWPB95-D3
 Using Euler-Maclaurin-Lebedev (99,590) quadrature formula
 Dispersion:   Grimme D3
 using 8 threads for integral computing
 -------------------------------------------------------
 OpenMP Integral computing Module                
 Release: version 2.0, May 2017, Q-Chem Inc. Pleasanton 
 -------------------------------------------------------
 -------------------------------------------------------
 OpenMP BLAS3 based DFT computing Module                
 Release: version 1.0, May 2013, Q-Chem Inc. Pittsburgh 
 -------------------------------------------------------
 A restricted SCF calculation will be
 performed using GDM
 SCF converges when RMS gradient is below 1.0e-08
 ---------------------------------------
  Cycle       Energy        RMS Gradient
 ---------------------------------------
    1    -548.4333692691      9.37e-04   Normal BFGS step
    2    -548.4333740289      6.76e-04   Normal BFGS step
    3    -548.4333751743      3.54e-04   Normal BFGS step
    4    -548.4333754844      6.20e-05   Normal BFGS step
    5    -548.4333755498      1.02e-05   Normal BFGS step
    6    -548.4333755515      2.49e-06   Normal BFGS step
    7    -548.4333755516      4.57e-07   Normal BFGS step
    8    -548.4333755516      7.87e-08   Normal BFGS step
    9    -548.4333755516      1.41e-08   Normal BFGS step
   10    -548.4333755516      2.67e-08   Normal BFGS step
   11    -548.4333755516      1.79e-08   Normal BFGS step
   12    -548.4333755516      1.06e-09  Convergence criterion met
 ---------------------------------------
 SCF time:   CPU 6026.10s  wall 760.00s 
 SCF   energy in the final basis set =     -548.4333755516
 Total energy in the final basis set =     -548.4333755516
 
 Components of the MP2 correlation energy:
        aaaa  correlation energy =         0.0000000000 au
        abab  correlation energy =        -0.2889678418 au
        bbbb  correlation energy =         0.0000000000 au
        non-Brillouin singles    =        -0.0000000000 au

 Total  MP2   correlation energy =                    -0.28896784 au
        MP2         total energy =                  -548.72234339 au
 
 --------------------------------------------------------------
 
                    Orbital Energies (a.u.)
 --------------------------------------------------------------
 
 Alpha MOs
 -- Occupied --
-90.219 -19.732 -19.732  -8.484  -6.346  -6.343  -6.341  -1.281
 -1.185  -0.727  -0.576  -0.574  -0.566  -0.439  -0.437  -0.401
 -- Virtual --
 -0.084   0.026   0.036   0.044   0.047   0.094   0.110   0.119
  0.126   0.134   0.141   0.146   0.180   0.186   0.206   0.240
  0.244   0.257   0.276   0.276   0.297   0.335   0.403   0.410
  0.415   0.419   0.427   0.447   0.455   0.511   0.529   0.543
  0.544   0.554   0.576   0.584   0.599   0.604   0.613   0.618
  0.650   0.673   0.701   0.732   0.737   0.746   0.822   0.827
  0.849   0.948   0.975   1.033   1.070   1.089   1.145   1.153
  1.183   1.196   1.244   1.244   1.253   1.292   1.312   1.312
  1.323   1.360   1.371   1.377   1.398   1.400   1.410   1.445
  1.481   1.486   1.508   1.520   1.544   1.567   1.574   1.605
  1.652   1.657   1.665   1.672   1.686   1.818   1.902   1.909
  1.947   1.951   2.030   2.083   2.094   2.098   2.123   2.127
  2.136   2.139   2.199   2.230   2.433   2.618   2.693   2.913
  2.925   3.019   3.104   3.141   3.174   3.198   3.206   3.217
  3.252   3.272   3.303   3.339   3.343   3.379   3.388   3.431
  3.441   3.458   3.504   3.521   3.536   3.557   3.614   3.659
  3.698   3.730   3.764   3.836   3.864   3.874   3.890   3.892
  3.929   3.945   3.978   3.982   3.998   4.009   4.081   4.091
  4.106   4.133   4.249   4.280   4.324   4.326   4.366   4.373
  4.408   4.483   4.490   4.584   4.617   4.626   4.683   4.759
  4.876   4.887   4.901   5.008   5.031   5.187   5.207   5.260
  5.319   5.633   5.636   5.672   5.964   6.054   6.082   6.745
  7.351   8.885   9.510   9.523   9.591   9.851   9.882   9.935
  9.994  10.141  10.157  10.252  10.255  10.264  10.280  10.354
 10.355  10.407  10.413  10.445  10.446  10.513  10.521  10.538
 10.551  10.569  10.603  10.679  10.722  11.018  11.120  11.459
 11.464  11.465  11.472  11.618  11.641  11.695  11.737  12.017
 12.085  12.093  12.276  12.401  12.428  12.512  12.538  12.610
 12.730  12.733  12.735  12.826  12.898  13.436  13.484  15.952
 16.322  16.968  17.448  17.464  18.229  18.258  18.585  18.629
 18.798  18.983  19.284  28.689  31.270  31.333  31.414  32.116
 32.189  33.046  33.077  33.149  33.378  33.838  33.849  45.583
 45.944  46.423  46.440  46.494  46.535  46.536  46.640  46.652
 46.698  46.707  47.123  47.261  54.961  54.961  54.962  54.964
 54.965  54.969  54.969  54.982  54.983  63.306  63.406  65.146
 65.158  65.322  65.329  65.341  65.459  65.586  82.742  92.901
 92.942  93.011  93.443  93.570 102.445 102.446 102.446 102.447
102.460 102.462 102.468 102.473 102.498 102.503 102.507 102.521
[...]
  4.875   4.886   4.900   5.007   5.030   5.186   5.206   5.259
  5.318   5.632   5.635   5.671   5.962   6.053   6.081   6.744
  7.349   8.884   9.509   9.522   9.590   9.850   9.881   9.934
  9.993  10.140  10.156  10.251  10.253  10.263  10.279  10.353
 10.354  10.406  10.412  10.444  10.445  10.512  10.520  10.537
 10.550  10.568  10.602  10.678  10.721  11.017  11.119  11.458
 11.463  11.464  11.471  11.617  11.640  11.694  11.736  12.015
 12.084  12.092  12.274  12.400  12.427  12.511  12.537  12.609
 12.729  12.731  12.734  12.825  12.897  13.435  13.483  15.951
 16.321  16.967  17.447  17.463  18.228  18.257  18.584  18.628
 18.797  18.982  19.283  28.688  31.269  31.332  31.413  32.115
 32.188  33.044  33.076  33.148  33.377  33.837  33.848  45.582
 45.943  46.422  46.439  46.493  46.534  46.535  46.639  46.651
 46.697  46.706  47.122  47.260  54.960  54.960  54.961  54.963
 54.964  54.968  54.968  54.981  54.982  63.305  63.405  65.145
 65.157  65.321  65.328  65.340  65.458  65.585  82.741  92.900
 92.941  93.010  93.442  93.569 102.444 102.445 102.445 102.446
102.459 102.461 102.467 102.472 102.497 102.502 102.506 102.520
102.527 102.537 115.812 115.844 115.892 116.083 116.451 116.455
145.099 145.365 145.887 197.219 197.224 197.254 197.275 197.333
197.334 197.359 197.367 197.584 197.593 215.059 215.169 390.415
393.473 393.499 393.538 393.690 393.993 394.036 892.436 892.552
 --------------------------------------------------------------
 
          Ground-State Mulliken Net Atomic Charges

     Atom                 Charge (a.u.)
  ----------------------------------------
      1 S                     1.100448
      2 O                    -0.550224
      3 O                    -0.550224
  ----------------------------------------
  Sum of atomic charges =    -0.000000

 -----------------------------------------------------------------
                    Cartesian Multipole Moments
 -----------------------------------------------------------------
    Charge (ESU x 10^10)
                -0.0000
    Dipole Moment (Debye)
         X      -0.0000      Y      -0.0000      Z      -1.7853
       Tot       1.7853
    Quadrupole Moments (Debye-Ang)
        XX     -20.8004     XY      -0.0000     YY     -27.0522
        XZ      -0.0000     YZ      -0.0000     ZZ     -24.0158
    Octopole Moments (Debye-Ang^2)
       XXX       0.0000    XXY       0.0000    XYY      -0.0000
       YYY      -0.0000    XXZ      -7.5815    XYZ       0.0000
       YYZ     -11.3852    XZZ       0.0000    YZZ      -0.0000
       ZZZ     -24.6430
    Hexadecapole Moments (Debye-Ang^3)
      XXXX     -19.5238   XXXY       0.0000   XXYY     -23.6608
      XYYY      -0.0000   YYYY    -130.0448   XXXZ      -0.0000
      XXYZ       0.0000   XYYZ      -0.0000   YYYZ      -0.0000
      XXZZ     -12.6565   XYZZ       0.0000   YYZZ     -32.1105
      XZZZ      -0.0000   YZZZ      -0.0000   ZZZZ     -58.9071
 -----------------------------------------------------------------
Archival summary:
1\1\n0085.mhg0\SP\ProcedureUnspecified\BasisUnspecified\12\yhljason\FriOct905:33:242020FriOct905:33:242020\0\\#,ProcedureUnspecified,BasisUnspecified,\\0,1\S\O,1,1.43212\O,1,1.43212,2,119.497\\\@

 Total job time:  2136.48s(wall), 16896.42s(cpu) 
 Fri Oct  9 05:33:24 2020

        *************************************************************
        *                                                           *
        *  Thank you very much for using Q-Chem.  Have a nice day.  *
        *                                                           *
        *************************************************************


 
User input: 8 of 8 
 
Q-Chem Developer Version!
                  Welcome to Q-Chem
     A Quantum Leap Into The Future Of Chemistry


 Q-Chem 5.1, Q-Chem, Inc., Pleasanton, CA (2018)

 Yihan Shao,  Zhengting Gan,  E. Epifanovsky,  A. T. B. Gilbert,  M. Wormit,  
 J. Kussmann,  A. W. Lange,  A. Behn,  Jia Deng,  Xintian Feng,  D. Ghosh,  
 M. Goldey,  P. R. Horn,  L. D. Jacobson,  I. Kaliman,  T. Kus,  A. Landau,  
 Jie Liu,  E. I. Proynov,  R. M. Richard,  R. P. Steele,  E. J. Sundstrom,  
 H. L. Woodcock III,  P. M. Zimmerman,  D. Zuev,  B. Albrecht,  E. Alguire,  
 S. A. Baeppler,  D. Barton,  Z. Benda,  Y. A. Bernard,  E. J. Berquist,  
 K. B. Bravaya,  H. Burton,  D. Casanova,  Chun-Min Chang,  Yunqing Chen,  
 A. Chien,  K. D. Closser,  M. P. Coons,  S. Coriani,  S. Dasgupta,  
 A. L. Dempwolff,  M. Diedenhofen,  Hainam Do,  R. G. Edgar,  Po-Tung Fang,  
 S. Faraji,  S. Fatehi,  Qingguo Feng,  K. D. Fenk,  J. Fosso-Tande,  
 Qinghui Ge,  A. Ghysels,  G. Gidofalvi,  J. Gomes,  J. Gonthier,  A. Gunina,  
 D. Hait,  M. W. D. Hanson-Heine,  P. H. P. Harbach,  A. W. Hauser,  
 J. E. Herr,  E. G. Hohenstein,  Z. C. Holden,  Kerwin Hui,  B. C. Huynh,  
 T.-C. Jagau,  Hyunjun Ji,  B. Kaduk,  K. Khistyaev,  Jaehoon Kim,  
 P. Klunzinger,  K. Koh,  D. Kosenkov,  L. Koulias,  T. Kowalczyk,  
 C. M. Krauter,  A. Kunitsa,  Ka Un Lao,  A. Laurent,  K. V. Lawler,  
 Joonho Lee,  D. Lefrancois,  S. Lehtola,  D. S. Levine,  Yi-Pei Li,  
 You-Sheng Lin,  Fenglai Liu,  E. Livshits,  A. Luenser,  P. Manohar,  
 E. Mansoor,  S. F. Manzer,  Shan-Ping Mao,  Yuezhi Mao,  N. Mardirossian,  
 A. V. Marenich,  T. Markovich,  L. A. Martinez-Martinez,  S. A. Maurer,  
 N. J. Mayhall,  S. C. McKenzie,  J.-M. Mewes,  A. F. Morrison,  
 J. W. Mullinax,  K. Nanda,  T. S. Nguyen-Beck,  R. Olivares-Amaya,  
 J. A. Parkhill,  T. M. Perrine,  F. Plasser,  P. Pokhilko,  S. Prager,  
 A. Prociuk,  E. Ramos,  D. R. Rehn,  F. Rob,  M. Schneider,  N. Sergueev,  
 S. M. Sharada,  S. Sharma,  D. W. Small,  T. Stauch,  T. Stein,  
 Yu-Chuan Su,  A. J. W. Thom,  A. Tkatchenko,  T. Tsuchimochi,  N. M. Tubman,  
 L. Vogt,  M. L. Vidal,  O. Vydrov,  M. A. Watson,  J. Wenzel,  
 M. de Wergifosse,  T. A. Wesolowski,  A. White,  J. Witte,  A. Yamada,  
 Jun Yang,  K. Yao,  S. Yeganeh,  S. R. Yost,  Zhi-Qiang You,  A. Zech,  
 Igor Ying Zhang,  Xing Zhang,  Yan Zhao,  Ying Zhu,  B. R. Brooks,  
 G. K. L. Chan,  C. J. Cramer,  M. S. Gordon,  W. J. Hehre,  A. Klamt,  
 M. W. Schmidt,  C. D. Sherrill,  D. G. Truhlar,  A. Aspuru-Guzik,  R. Baer,  
 A. T. Bell,  N. A. Besley,  Jeng-Da Chai,  A. E. DePrince, III,  
 R. A. DiStasio Jr.,  A. Dreuw,  B. D. Dunietz,  T. R. Furlani,  
 Chao-Ping Hsu,  Yousung Jung,  Jing Kong,  D. S. Lambrecht,  WanZhen Liang,  
 C. Ochsenfeld,  V. A. Rassolov,  L. V. Slipchenko,  J. E. Subotnik,  
 T. Van Voorhis,  J. M. Herbert,  A. I. Krylov,  P. M. W. Gill,  M. Head-Gordon

 Contributors to earlier versions of Q-Chem not listed above: 
 R. D. Adamson,  B. Austin,  J. Baker,  G. J. O. Beran,  K. Brandhorst,  
 S. T. Brown,  E. F. C. Byrd,  A. K. Chakraborty,  C.-L. Cheng,  
 Siu Hung Chien,  D. M. Chipman,  D. L. Crittenden,  H. Dachsel,  
 R. J. Doerksen,  A. D. Dutoi,  L. Fusti-Molnar,  W. A. Goddard III,  
 A. Golubeva-Zadorozhnaya,  S. R. Gwaltney,  G. Hawkins,  A. Heyden,  
 S. Hirata,  G. Kedziora,  F. J. Keil,  C. Kelley,  Jihan Kim,  R. A. King,  
 R. Z. Khaliullin,  P. P. Korambath,  W. Kurlancheek,  A. M. Lee,  M. S. Lee,  
 S. V. Levchenko,  Ching Yeh Lin,  D. Liotard,  R. C. Lochan,  I. Lotan,  
 P. E. Maslen,  N. Nair,  D. P. O'Neill,  D. Neuhauser,  E. Neuscamman,  
 C. M. Oana,  R. Olson,  B. Peters,  R. Peverati,  P. A. Pieniazek,  
 Y. M. Rhee,  J. Ritchie,  M. A. Rohrdanz,  E. Rosta,  N. J. Russ,  
 H. F. Schaefer III,  N. E. Schultz,  N. Shenvi,  A. C. Simmonett,  A. Sodt,  
 D. Stuck,  K. S. Thanthiriwatte,  V. Vanovschi,  Tao Wang,  A. Warshel,  
 C. F. Williams,  Q. Wu,  X. Xu,  W. Zhang

 Please cite Q-Chem as follows:
 Y. Shao et al., Mol. Phys. 113, 184-215 (2015)
 DOI: 10.1080/00268976.2014.952696

 Q-Chem 5.1.1 for Intel X86 EM64T Linux

 Parts of Q-Chem use Armadillo 8.300.2 (Tropical Shenanigans).
 http://arma.sourceforge.net/

 Q-Chem begins on Fri Oct  9 05:33:24 2020  

Host: n0085.mhg0
0

     Scratch files written to /local/scratch/users/yhljason/SO2_PWPB95-D3_aug-cc-pcVQZ.inp20201008191802//
The previous job contains 0 fragments, simply inherited here
Input Ideriv = 0
Curr. Ideriv = -1
Max.  Ideriv = 0
Analytic post-HF gradients are not available with non-HF exchange
Input Ideriv = 0
Curr. Ideriv = 0
Max.  Ideriv = 0

Checking the input file for inconsistencies... 	...done.

--------------------------------------------------------------
User input:
--------------------------------------------------------------
$molecule
read
$end

$rem

jobtype sp
method PWPB95-D3
xc_grid 000099000590
basis aug-cc-pcVQZ
max_scf_cycles 200
thresh 14
scf_convergence 8
mem_total 128000
cc_memory 96000
cc_backend xm
mem_static 1500
symmetry false
sym_ignore true
scf_guess read
unrestricted false
scf_algorithm gdm
n_frozen_core 0
$end

$multipole_field
ZZ -0.0001
$end

--------------------------------------------------------------
 Adding empirical dispersion correction 
 ----------------------------------------------------------------
 Doing -D3(0) with
 s6  =   0.82000
 s8  =   0.70500
 rs6 =   1.55700
 rs8 =   1.00000
 -D3 energy without 3body term =     -0.0001110190 hartrees
 ----------------------------------------------------------------
             Standard Nuclear Orientation (Angstroms)
    I     Atom           X                Y                Z
 ----------------------------------------------------------------
    1      S       0.0000000000     0.0000000000     0.0000000000
    2      O       0.0000000000     1.2371000000     0.7215000000
    3      O       0.0000000000    -1.2371000000     0.7215000000
 ----------------------------------------------------------------
 Nuclear Repulsion Energy =   108.2814206240 hartrees
 There are       16 alpha and       16 beta electrons
 Requested basis set is aug-cc-pCVQZ
 There are 92 shells and 352 basis functions

 Total QAlloc Memory Limit 128000 MB
 Mega-Array Size      1467 MB
 MEM_STATIC part      1500 MB

                       Distance Matrix (Angstroms)
             S (  1)   O (  2)
   O (  2)  1.432124
   O (  3)  1.432124  2.474200
 
 Applying Cartesian multipole field
    Component          Value
    ---------          -----
     (0,0,2)       -1.00000E-04
 Nucleus-field energy     =    -0.0029743385 hartrees
 A cutoff of  1.0D-14 yielded   3941 shell pairs
 There are     58989 function pairs (     98227 Cartesian)
 
 -------------------------------------------------------
 OpenMP Integral Computing Module                       
 Release: version 1.0, May 2013, Q-Chem Inc. Pittsburgh 
 -------------------------------------------------------
 Integral Job Info:
 Integral job number is                      11
 Integral operator is                         1
 short-range coefficients                     0
 long-range coefficients              100000000
 Omega coefficients                           0
 if combine SR and LR in K                    0
 Integral screening is                        0
 Integral computing path is                   2
 max size of driver memory is           3200000
 size of driver memory is               1704330
 size of scratch memory is             29435624
 max col of scratch BK array              50625
 max len of scratch array in speh3         2114
 max len of scratch index in speh4           50
 max int batch size is                      520
 min int batch size is                       52
 fixed nKL is                                22
 max L of basis functions is                  4
 order of int derivative is                   0
 number of shells is                         92
 number of basis is                         452
 number of cartesian basis is               452
 number of contracted shell pairs          3941
 number of primitive shell pairs          12264
 maxK2 (contraction) of shell pair          169
 max number of K2 of shell pair               1
 max number of CS2 of shell pair            407
 max number of PS2 of shell pair           1014
 mem total for path MDJ                  873640
 -------------------------------------------------------
 Smallest overlap matrix eigenvalue = 2.58E-05
 Guess MOs from SCF MO coefficient file

 -----------------------------------------------------------------------
  General SCF calculation program by
  Eric Jon Sundstrom, Paul Horn, Yuezhi Mao, Dmitri Zuev, Alec White,
  David Stuck, Shaama M.S., Shane Yost, Joonho Lee, David Small,
  Daniel Levine, Susi Lehtola, Hugh Burton, Evgeny Epifanovsky
 -----------------------------------------------------------------------
 Exchange:     0.5000 Hartree-Fock + 1.0000 PWPB95-D3
 Correlation:  0.7310 PWPB95-D3
 Using Euler-Maclaurin-Lebedev (99,590) quadrature formula
 Dispersion:   Grimme D3
 using 8 threads for integral computing
 -------------------------------------------------------
 OpenMP Integral computing Module                
 Release: version 2.0, May 2017, Q-Chem Inc. Pleasanton 
 -------------------------------------------------------
 -------------------------------------------------------
 OpenMP BLAS3 based DFT computing Module                
 Release: version 1.0, May 2013, Q-Chem Inc. Pittsburgh 
 -------------------------------------------------------
 A restricted SCF calculation will be
 performed using GDM
 SCF converges when RMS gradient is below 1.0e-08
 ---------------------------------------
  Cycle       Energy        RMS Gradient
 ---------------------------------------
    1    -548.4335988180      6.75e-04   Normal BFGS step
    2    -548.4336018655      1.55e-04   Normal BFGS step
    3    -548.4336021353      1.35e-04   Normal BFGS step
    4    -548.4336021513      8.13e-05   Normal BFGS step
    5    -548.4336021728      5.27e-06   Normal BFGS step
    6    -548.4336021733      1.88e-06   Normal BFGS step
    7    -548.4336021734      3.79e-07   Normal BFGS step
    8    -548.4336021734      1.04e-07   Normal BFGS step
    9    -548.4336021734      2.19e-08   Normal BFGS step
   10    -548.4336021734      1.59e-08   Normal BFGS step
   11    -548.4336021734      2.35e-08   Normal BFGS step
   12    -548.4336021734      2.90e-10  Convergence criterion met
 ---------------------------------------
 SCF time:   CPU 6037.55s  wall 762.00s 
 SCF   energy in the final basis set =     -548.4336021734
 Total energy in the final basis set =     -548.4336021734
 
 Components of the MP2 correlation energy:
        aaaa  correlation energy =         0.0000000000 au
        abab  correlation energy =        -0.2889470073 au
        bbbb  correlation energy =         0.0000000000 au
        non-Brillouin singles    =        -0.0000000000 au

 Total  MP2   correlation energy =                    -0.28894701 au
        MP2         total energy =                  -548.72254918 au
 
 --------------------------------------------------------------
 
                    Orbital Energies (a.u.)
 --------------------------------------------------------------
 
 Alpha MOs
 -- Occupied --
-90.219 -19.732 -19.732  -8.484  -6.346  -6.343  -6.341  -1.281
 -1.186  -0.728  -0.576  -0.574  -0.566  -0.439  -0.437  -0.401
 -- Virtual --
 -0.084   0.026   0.038   0.042   0.048   0.095   0.109   0.117
  0.125   0.133   0.142   0.147   0.179   0.186   0.206   0.240
  0.244   0.255   0.276   0.277   0.297   0.335   0.403   0.410
  0.415   0.418   0.427   0.447   0.456   0.510   0.528   0.542
  0.543   0.554   0.575   0.584   0.599   0.603   0.612   0.618
  0.650   0.673   0.701   0.731   0.737   0.746   0.822   0.826
  0.849   0.947   0.974   1.033   1.070   1.089   1.145   1.153
  1.183   1.196   1.243   1.244   1.253   1.292   1.312   1.312
  1.322   1.360   1.371   1.376   1.397   1.399   1.409   1.444
  1.481   1.486   1.507   1.519   1.544   1.567   1.573   1.605
  1.651   1.657   1.664   1.672   1.685   1.817   1.901   1.908
  1.947   1.950   2.030   2.083   2.093   2.098   2.122   2.127
  2.136   2.139   2.198   2.230   2.432   2.618   2.693   2.913
  2.925   3.019   3.103   3.140   3.174   3.197   3.206   3.217
  3.252   3.272   3.303   3.339   3.343   3.379   3.388   3.431
  3.441   3.458   3.504   3.520   3.535   3.556   3.614   3.659
  3.698   3.730   3.764   3.835   3.863   3.873   3.889   3.892
  3.929   3.945   3.978   3.981   3.997   4.008   4.081   4.091
  4.105   4.133   4.248   4.280   4.323   4.325   4.365   4.373
  4.408   4.483   4.490   4.584   4.617   4.626   4.683   4.758
  4.876   4.886   4.900   5.008   5.031   5.187   5.207   5.260
  5.319   5.633   5.636   5.671   5.963   6.054   6.082   6.745
  7.350   8.884   9.510   9.522   9.590   9.851   9.882   9.935
  9.994  10.141  10.157  10.251  10.254  10.264  10.280  10.354
 10.355  10.407  10.413  10.445  10.446  10.513  10.521  10.538
 10.551  10.569  10.603  10.679  10.722  11.017  11.120  11.459
 11.464  11.464  11.472  11.618  11.640  11.695  11.737  12.016
 12.085  12.093  12.275  12.401  12.427  12.511  12.538  12.609
 12.730  12.732  12.735  12.826  12.898  13.435  13.484  15.952
 16.322  16.968  17.448  17.463  18.229  18.257  18.584  18.628
 18.798  18.983  19.283  28.689  31.270  31.333  31.413  32.116
 32.189  33.045  33.077  33.149  33.378  33.838  33.849  45.583
 45.944  46.422  46.439  46.494  46.534  46.536  46.640  46.652
 46.698  46.707  47.123  47.261  54.961  54.961  54.962  54.964
 54.965  54.968  54.969  54.982  54.983  63.306  63.406  65.146
 65.158  65.322  65.329  65.340  65.459  65.585  82.741  92.900
 92.941  93.010  93.443  93.570 102.445 102.446 102.446 102.446
102.460 102.462 102.468 102.472 102.498 102.503 102.507 102.521
102.527 102.538 115.813 115.845 115.893 116.084 116.452 116.456
145.100 145.366 145.888 197.219 197.224 197.254 197.276 197.333
197.335 197.360 197.367 197.585 197.594 215.060 215.170 390.416
393.474 393.500 393.539 393.691 393.994 394.037 892.437 892.553
 --------------------------------------------------------------
 
          Ground-State Mulliken Net Atomic Charges

     Atom                 Charge (a.u.)
  ----------------------------------------
      1 S                     1.099713
      2 O                    -0.549856
      3 O                    -0.549856
  ----------------------------------------
  Sum of atomic charges =    -0.000000

 -----------------------------------------------------------------
                    Cartesian Multipole Moments
 -----------------------------------------------------------------
    Charge (ESU x 10^10)
                -0.0000
    Dipole Moment (Debye)
         X      -0.0000      Y      -0.0000      Z      -1.7735
       Tot       1.7735
    Quadrupole Moments (Debye-Ang)
        XX     -20.7996     XY       0.0000     YY     -27.0503
        XZ      -0.0000     YZ      -0.0000     ZZ     -23.9708
    Octopole Moments (Debye-Ang^2)
       XXX      -0.0000    XXY       0.0000    XYY       0.0000
       YYY      -0.0000    XXZ      -7.5738    XYZ       0.0000
       YYZ     -11.3579    XZZ       0.0000    YZZ      -0.0000
       ZZZ     -24.5863
    Hexadecapole Moments (Debye-Ang^3)
      XXXX     -19.5176   XXXY       0.0000   XXYY     -23.6549
      XYYY       0.0000   YYYY    -130.0314   XXXZ      -0.0000
      XXYZ       0.0000   XYYZ       0.0000   YYYZ      -0.0000
      XXZZ     -12.6276   XYZZ       0.0000   YYZZ     -32.0409
      XZZZ       0.0000   YZZZ      -0.0000   ZZZZ     -58.6870
 -----------------------------------------------------------------
Archival summary:
1\1\n0085.mhg0\SP\ProcedureUnspecified\BasisUnspecified\12\yhljason\FriOct906:08:592020FriOct906:08:592020\0\\#,ProcedureUnspecified,BasisUnspecified,\\0,1\S\O,1,1.43212\O,1,1.43212,2,119.497\\\@

 Total job time:  2135.14s(wall), 16885.63s(cpu) 
 Fri Oct  9 06:08:59 2020

        *************************************************************
        *                                                           *
        *  Thank you very much for using Q-Chem.  Have a nice day.  *
        *                                                           *
        *************************************************************


