Q-Chem Developer Version!
                  Welcome to Q-Chem
     A Quantum Leap Into The Future Of Chemistry


 Q-Chem 5.1, Q-Chem, Inc., Pleasanton, CA (2018)

 Yihan Shao,  Zhengting Gan,  E. Epifanovsky,  A. T. B. Gilbert,  M. Wormit,  
 J. Kussmann,  A. W. Lange,  A. Behn,  Jia Deng,  Xintian Feng,  D. Ghosh,  
 M. Goldey,  P. R. Horn,  L. D. Jacobson,  I. Kaliman,  T. Kus,  A. Landau,  
 Jie Liu,  E. I. Proynov,  R. M. Richard,  R. P. Steele,  E. J. Sundstrom,  
 H. L. Woodcock III,  P. M. Zimmerman,  D. Zuev,  B. Albrecht,  E. Alguire,  
 S. A. Baeppler,  D. Barton,  Z. Benda,  Y. A. Bernard,  E. J. Berquist,  
 K. B. Bravaya,  H. Burton,  D. Casanova,  Chun-Min Chang,  Yunqing Chen,  
 A. Chien,  K. D. Closser,  M. P. Coons,  S. Coriani,  S. Dasgupta,  
 A. L. Dempwolff,  M. Diedenhofen,  Hainam Do,  R. G. Edgar,  Po-Tung Fang,  
 S. Faraji,  S. Fatehi,  Qingguo Feng,  K. D. Fenk,  J. Fosso-Tande,  
 Qinghui Ge,  A. Ghysels,  G. Gidofalvi,  J. Gomes,  J. Gonthier,  A. Gunina,  
 D. Hait,  M. W. D. Hanson-Heine,  P. H. P. Harbach,  A. W. Hauser,  
 J. E. Herr,  E. G. Hohenstein,  Z. C. Holden,  Kerwin Hui,  B. C. Huynh,  
 T.-C. Jagau,  Hyunjun Ji,  B. Kaduk,  K. Khistyaev,  Jaehoon Kim,  
 P. Klunzinger,  K. Koh,  D. Kosenkov,  L. Koulias,  T. Kowalczyk,  
 C. M. Krauter,  A. Kunitsa,  Ka Un Lao,  A. Laurent,  K. V. Lawler,  
 Joonho Lee,  D. Lefrancois,  S. Lehtola,  D. S. Levine,  Yi-Pei Li,  
 You-Sheng Lin,  Fenglai Liu,  E. Livshits,  A. Luenser,  P. Manohar,  
 E. Mansoor,  S. F. Manzer,  Shan-Ping Mao,  Yuezhi Mao,  N. Mardirossian,  
 A. V. Marenich,  T. Markovich,  L. A. Martinez-Martinez,  S. A. Maurer,  
 N. J. Mayhall,  S. C. McKenzie,  J.-M. Mewes,  A. F. Morrison,  
 J. W. Mullinax,  K. Nanda,  T. S. Nguyen-Beck,  R. Olivares-Amaya,  
 J. A. Parkhill,  T. M. Perrine,  F. Plasser,  P. Pokhilko,  S. Prager,  
 A. Prociuk,  E. Ramos,  D. R. Rehn,  F. Rob,  M. Schneider,  N. Sergueev,  
 S. M. Sharada,  S. Sharma,  D. W. Small,  T. Stauch,  T. Stein,  
 Yu-Chuan Su,  A. J. W. Thom,  A. Tkatchenko,  T. Tsuchimochi,  N. M. Tubman,  
 L. Vogt,  M. L. Vidal,  O. Vydrov,  M. A. Watson,  J. Wenzel,  
 M. de Wergifosse,  T. A. Wesolowski,  A. White,  J. Witte,  A. Yamada,  
 Jun Yang,  K. Yao,  S. Yeganeh,  S. R. Yost,  Zhi-Qiang You,  A. Zech,  
 Igor Ying Zhang,  Xing Zhang,  Yan Zhao,  Ying Zhu,  B. R. Brooks,  
 G. K. L. Chan,  C. J. Cramer,  M. S. Gordon,  W. J. Hehre,  A. Klamt,  
 M. W. Schmidt,  C. D. Sherrill,  D. G. Truhlar,  A. Aspuru-Guzik,  R. Baer,  
 A. T. Bell,  N. A. Besley,  Jeng-Da Chai,  A. E. DePrince, III,  
 R. A. DiStasio Jr.,  A. Dreuw,  B. D. Dunietz,  T. R. Furlani,  
 Chao-Ping Hsu,  Yousung Jung,  Jing Kong,  D. S. Lambrecht,  WanZhen Liang,  
 C. Ochsenfeld,  V. A. Rassolov,  L. V. Slipchenko,  J. E. Subotnik,  
 T. Van Voorhis,  J. M. Herbert,  A. I. Krylov,  P. M. W. Gill,  M. Head-Gordon

 Contributors to earlier versions of Q-Chem not listed above: 
 R. D. Adamson,  B. Austin,  J. Baker,  G. J. O. Beran,  K. Brandhorst,  
 S. T. Brown,  E. F. C. Byrd,  A. K. Chakraborty,  C.-L. Cheng,  
 Siu Hung Chien,  D. M. Chipman,  D. L. Crittenden,  H. Dachsel,  
 R. J. Doerksen,  A. D. Dutoi,  L. Fusti-Molnar,  W. A. Goddard III,  
 A. Golubeva-Zadorozhnaya,  S. R. Gwaltney,  G. Hawkins,  A. Heyden,  
 S. Hirata,  G. Kedziora,  F. J. Keil,  C. Kelley,  Jihan Kim,  R. A. King,  
 R. Z. Khaliullin,  P. P. Korambath,  W. Kurlancheek,  A. M. Lee,  M. S. Lee,  
 S. V. Levchenko,  Ching Yeh Lin,  D. Liotard,  R. C. Lochan,  I. Lotan,  
 P. E. Maslen,  N. Nair,  D. P. O'Neill,  D. Neuhauser,  E. Neuscamman,  
 C. M. Oana,  R. Olson,  B. Peters,  R. Peverati,  P. A. Pieniazek,  
 Y. M. Rhee,  J. Ritchie,  M. A. Rohrdanz,  E. Rosta,  N. J. Russ,  
 H. F. Schaefer III,  N. E. Schultz,  N. Shenvi,  A. C. Simmonett,  A. Sodt,  
 D. Stuck,  K. S. Thanthiriwatte,  V. Vanovschi,  Tao Wang,  A. Warshel,  
 C. F. Williams,  Q. Wu,  X. Xu,  W. Zhang

 Please cite Q-Chem as follows:
 Y. Shao et al., Mol. Phys. 113, 184-215 (2015)
 DOI: 10.1080/00268976.2014.952696

 Q-Chem 5.1.1 for Intel X86 EM64T Linux

 Parts of Q-Chem use Armadillo 8.300.2 (Tropical Shenanigans).
 http://arma.sourceforge.net/

 Q-Chem begins on Wed Aug 19 23:07:20 2020  

Host: n0072.mhg0
0

     Scratch files written to /local/scratch/users/yhljason/SCl2_mPW91_aug-pc-4.inp20200819170219//
Input Ideriv = 2
Curr. Ideriv = -1
Max.  Ideriv = 2

Checking the input file for inconsistencies... 	...done.

--------------------------------------------------------------
User input:
--------------------------------------------------------------
$molecule
0 1
S1      0.0000  0.0000  0.8544
Cl2     0.0000  1.5740  -0.4021
Cl3     0.0000  -1.5740 -0.4021
$end

$rem
jobtype sp
method mPW91
xc_grid 000099000590
basis aug-pc-4
max_scf_cycles 200
thresh 14
scf_convergence 8
scf_algorithm gdm
symmetry false
sym_ignore true
unrestricted true
gen_scfman true
internal_stability_iter 15
internal_stability_davidson_iter 200
mem_total 64000
mem_static 1500
n_frozen_core 0
$end


--------------------------------------------------------------
 ----------------------------------------------------------------
             Standard Nuclear Orientation (Angstroms)
    I     Atom           X                Y                Z
 ----------------------------------------------------------------
    1      S       0.0000000000     0.0000000000     0.8544000000
    2      Cl      0.0000000000     1.5740000000    -0.4021000000
    3      Cl      0.0000000000    -1.5740000000    -0.4021000000
 ----------------------------------------------------------------
 Nuclear Repulsion Energy =   191.5151328936 hartrees
 There are       25 alpha and       25 beta electrons
 Requested basis set is aug-pc-4
 There are 93 shells and 423 basis functions

 Total QAlloc Memory Limit  64000 MB
 Mega-Array Size      1467 MB
 MEM_STATIC part      1500 MB

                       Distance Matrix (Angstroms)
             S (  1)   Cl(  2)
   Cl(  2)  2.014018
   Cl(  3)  2.014018  3.148000
 
 A cutoff of  1.0D-14 yielded   4245 shell pairs
 There are     89029 function pairs (    176878 Cartesian)
 
 -------------------------------------------------------
 OpenMP Integral Computing Module                       
 Release: version 1.0, May 2013, Q-Chem Inc. Pittsburgh 
 -------------------------------------------------------
 Integral Job Info:
 Integral job number is                      11
 Integral operator is                         1
 short-range coefficients                     0
 long-range coefficients              100000000
 Omega coefficients                           0
 if combine SR and LR in K                    0
 Integral screening is                        0
 Integral computing path is                   2
 max size of driver memory is           6400000
 size of driver memory is               5498286
 size of scratch memory is             27847117
 max col of scratch BK array             194481
 max len of scratch array in speh3         5572
 max len of scratch index in speh4           72
 max int batch size is                      520
 min int batch size is                       52
 fixed nKL is                                 7
 max L of basis functions is                  5
 order of int derivative is                   0
 number of shells is                         93
 number of basis is                         594
 number of cartesian basis is               594
 number of contracted shell pairs          4245
 number of primitive shell pairs          23182
 maxK2 (contraction) of shell pair          225
 max number of K2 of shell pair               1
 max number of CS2 of shell pair            323
 max number of PS2 of shell pair           1584
 mem total for path MDJ                 1253768
 -------------------------------------------------------
 Smallest overlap matrix eigenvalue = 7.67E-06

 Scale SEOQF with 1.000000e-01/1.000000e-01/1.000000e-01

 Standard Electronic Orientation quadrupole field applied
 Nucleus-field energy     =     0.0000000042 hartrees
 Guess from superposition of atomic densities
 Warning:  Energy on first SCF cycle will be non-variational
 SAD guess density has 50.000000 electrons

 -----------------------------------------------------------------------
  General SCF calculation program by
  Eric Jon Sundstrom, Paul Horn, Yuezhi Mao, Dmitri Zuev, Alec White,
  David Stuck, Shaama M.S., Shane Yost, Joonho Lee, David Small,
  Daniel Levine, Susi Lehtola, Hugh Burton, Evgeny Epifanovsky
 -----------------------------------------------------------------------
 Exchange:  mPW91      Correlation:  PW91
 Using Euler-Maclaurin-Lebedev (99,590) quadrature formula
Running Object-Oriented UKS (UHF)
performing a single roothaan step with Fock from read density so that orbitals are available to all algorithms
energy of the guess density (C=0) -1319.049968866998
We will preform up to 15 macro iterations over saddle points until a stable solution is found
Energy prior to optimization (guess energy) = -1318.731387398684
Begin Timing: Total SCF Calculation
Begin Timing: SCF Single Stationary Point Calculation
begin iterations for algorithm: GDM          
the SCF tolerance is set to 1.00e-08
    1   -1318.7313873987      6.27e-02     00000  Normal BFGS step
    2   -1318.7116373288      1.52e-01     00000 Line search: overstep
    3   -1318.7389355799      1.38e-02     00000  Normal BFGS step
    4   -1318.7395766929      1.10e-02     00000  Normal BFGS step
    5   -1318.7401881364      1.15e-03     00000  Normal BFGS step
    6   -1318.7402009128      1.37e-03     00000  Normal BFGS step
    7   -1318.7402115671      4.39e-04     00000  Normal BFGS step
    8   -1318.7402118098      3.51e-04     00000  Normal BFGS step
    9   -1318.7402121755      5.24e-05     00000  Normal BFGS step
   10   -1318.7402121796      4.30e-05     00000  Normal BFGS step
   11   -1318.7402121967      1.00e-06     00000  Normal BFGS step
   12   -1318.7402121967      5.51e-07     00000  Normal BFGS step
   13   -1318.7402121967      3.74e-08     00000  Normal BFGS step
   14   -1318.7402121967      7.45e-09     00000 Convergence criterion met
Timing for Single Stationary Point: 1019.00s (wall), 8151.93s (cpu)
Begin Timing: Stability
===================================================
Beginning Test for Internal Stability
===================================================
generating davidson guess vectors based on koopmans excitations
    1      8.12e-01     00000 Davidson Iteration
    2      1.96e-01     00000 Davidson Iteration
    3      7.26e-03     00000 Davidson Iteration
    4      5.33e-03     00000 Davidson Iteration
    5      1.78e-03     00000 Davidson Iteration
    6      3.95e-04     00000 Davidson Iteration
    7      1.40e-04     00000 Davidson Iteration
    8      6.83e-05     00000 Davidson Iteration
    9      1.64e-04     00000 Davidson Iteration
   10      5.70e-05     00000 Davidson Converged
converged_eigenvalues
   0.1250
   0.2321
Threshold for negative eigenvalues: -1.0e-05
solution was a local minimum (stable)
===================================================
End Test for Internal Stability
===================================================
Our SCF solution is stable!
Timing for Total SCF: 10584.00s (wall), 84669.69s (cpu)
 Total energy in the final basis set =    -1318.7402121967
<S^2> =         -0.000000000
    ==================================================
              The end of Object-Oriented SCFman       
    ==================================================
 
 --------------------------------------------------------------
 
                    Orbital Energies (a.u.)
 --------------------------------------------------------------
 
 Alpha MOs
 -- Occupied --
*******-100.736 -88.174  -9.216  -9.216  -7.764  -7.043  -7.043
 -7.033  -7.033  -7.031  -7.031  -5.792  -5.788  -5.775  -0.847
 -0.783  -0.623  -0.441  -0.399  -0.366  -0.317  -0.314  -0.305
 -0.218
 -- Virtual --
 -0.125  -0.112  -0.016   0.008   0.009   0.012   0.030   0.031
  0.039   0.039   0.041   0.065   0.072   0.080   0.081   0.085
  0.086   0.094   0.098   0.106   0.117   0.122   0.129   0.131
  0.148   0.151   0.155   0.159   0.160   0.167   0.167   0.180
  0.195   0.196   0.204   0.207   0.208   0.210   0.218   0.219
  0.231   0.238   0.247   0.260   0.273   0.286   0.294   0.296
  0.301   0.309   0.318   0.330   0.343   0.343   0.350   0.359
  0.365   0.369   0.375   0.382   0.387   0.390   0.394   0.411
  0.420   0.425   0.440   0.441   0.444   0.449   0.454   0.463
  0.468   0.471   0.474   0.487   0.488   0.496   0.515   0.516
  0.520   0.527   0.528   0.552   0.558   0.564   0.566   0.575
  0.582   0.586   0.592   0.597   0.606   0.611   0.645   0.647
  0.654   0.658   0.667   0.677   0.684   0.687   0.695   0.698
  0.699   0.707   0.709   0.716   0.718   0.751   0.771   0.785
  0.787   0.793   0.800   0.810   0.813   0.815   0.821   0.828
  0.831   0.848   0.854   0.871   0.875   0.888   0.892   0.892
  0.894   0.925   0.925   0.931   0.932   0.950   0.954   0.958
  0.966   0.970   0.982   0.995   0.997   1.004   1.005   1.023
  1.025   1.048   1.049   1.065   1.070   1.077   1.090   1.108
  1.112   1.119   1.125   1.128   1.129   1.147   1.182   1.223
  1.224   1.285   1.286   1.315   1.331   1.354   1.384   1.394
  1.437   1.438   1.457   1.504   1.507   1.515   1.554   1.569
  1.589   1.592   1.596   1.636   1.674   1.698   1.705   1.735
  1.786   1.839   1.846   1.859   1.870   1.894   1.896   1.948
  1.991   2.024   2.171   2.207   2.212   2.236   2.279   2.316
  2.319   2.320   2.343   2.349   2.373   2.378   2.443   2.466
  2.510   2.513   2.611   2.646   2.664   2.679   2.706   2.747
  2.849   2.852   2.853   2.855   2.865   2.873   2.901   2.938
  2.941   3.023   3.094   3.118   3.214   3.225   3.244   3.401
  3.445   3.449   3.471   3.488   3.500   3.514   3.537   3.569
  3.573   3.590   3.619   3.629   3.629   3.651   3.669   3.705
  3.718   3.776   3.811   3.853   3.956   3.999   4.015   4.130
  4.145   4.169   4.188   4.224   4.288   4.697   4.723   4.767
  4.796   4.822   4.852   4.905   4.981   5.024   5.039   5.057
  5.079   5.097   5.185   5.189   5.190   5.206   5.350   5.368
  5.650   5.653   5.657   5.659   5.662   5.662   5.662   5.663
  5.674   5.724   5.726   5.728   5.730   5.788   5.801   5.813
  5.826   5.853   5.860   5.894   5.914   5.929   5.940   6.072
  6.110   6.198   6.226   6.230   6.412   6.471   6.509   6.670
  6.686   6.728   6.869   6.930   7.041   8.226   8.260   8.345
  8.460   8.609   8.674   8.690   8.925   9.033   9.077   9.078
  9.078   9.079   9.090   9.102   9.116   9.126   9.258   9.283
  9.286   9.354   9.762   9.824   9.838   9.843   9.849   9.962
 11.643  11.663  11.676  11.685  11.725  11.952  12.108  12.812
 12.832  12.855  12.858  12.863  12.891  12.897  12.903  12.962
 12.972  13.008  13.076  13.142  13.143  16.898  16.950  16.984
 17.193  17.485  17.583  17.632  17.656  17.657  17.716  17.719
 17.727  17.826  18.147  18.166  30.542  38.718  39.297  62.342
 62.375  62.396  62.518  62.695  65.752  65.781  65.795  65.797
 65.830  65.833  65.839  65.892  66.086  66.115
 
 Beta MOs
 -- Occupied --
*******-100.736 -88.174  -9.216  -9.216  -7.764  -7.043  -7.043
 -7.033  -7.033  -7.031  -7.031  -5.792  -5.788  -5.775  -0.847
 -0.783  -0.623  -0.441  -0.399  -0.366  -0.317  -0.314  -0.305
 -0.218
 -- Virtual --
 -0.125  -0.112  -0.016   0.008   0.009   0.012   0.030   0.031
  0.039   0.039   0.041   0.065   0.072   0.080   0.081   0.085
  0.086   0.094   0.098   0.106   0.117   0.122   0.129   0.131
  0.148   0.151   0.155   0.159   0.160   0.167   0.167   0.180
  0.195   0.196   0.204   0.207   0.208   0.210   0.218   0.219
  0.231   0.238   0.247   0.260   0.273   0.286   0.294   0.296
  0.301   0.309   0.318   0.330   0.343   0.343   0.350   0.359
  0.365   0.369   0.375   0.382   0.387   0.390   0.394   0.411
  0.420   0.425   0.440   0.441   0.444   0.449   0.454   0.463
  0.468   0.471   0.474   0.487   0.488   0.496   0.515   0.516
  0.520   0.527   0.528   0.552   0.558   0.564   0.566   0.575
  0.582   0.586   0.592   0.597   0.606   0.611   0.645   0.647
  0.654   0.658   0.667   0.677   0.684   0.687   0.695   0.698
  0.699   0.707   0.709   0.716   0.718   0.751   0.771   0.785
  0.787   0.793   0.800   0.810   0.813   0.815   0.821   0.828
  0.831   0.848   0.854   0.871   0.875   0.888   0.892   0.892
  0.894   0.925   0.925   0.931   0.932   0.950   0.954   0.958
  0.966   0.970   0.982   0.995   0.997   1.004   1.005   1.023
  1.025   1.048   1.049   1.065   1.070   1.077   1.090   1.108
  1.112   1.119   1.125   1.128   1.129   1.147   1.182   1.223
  1.224   1.285   1.286   1.315   1.331   1.354   1.384   1.394
  1.437   1.438   1.457   1.504   1.507   1.515   1.554   1.569
  1.589   1.592   1.596   1.636   1.674   1.698   1.705   1.735
  1.786   1.839   1.846   1.859   1.870   1.894   1.896   1.948
  1.991   2.024   2.171   2.207   2.212   2.236   2.279   2.316
  2.319   2.320   2.343   2.349   2.373   2.378   2.443   2.466
  2.510   2.513   2.611   2.646   2.664   2.679   2.706   2.747
  2.849   2.852   2.853   2.855   2.865   2.873   2.901   2.938
  2.941   3.023   3.094   3.118   3.214   3.225   3.244   3.401
  3.445   3.449   3.471   3.488   3.500   3.514   3.537   3.569
  3.573   3.590   3.619   3.629   3.629   3.651   3.669   3.705
  3.718   3.776   3.811   3.853   3.956   3.999   4.015   4.130
  4.145   4.169   4.188   4.224   4.288   4.697   4.723   4.767
  4.796   4.822   4.852   4.905   4.981   5.024   5.039   5.057
  5.079   5.097   5.185   5.189   5.190   5.206   5.350   5.368
  5.650   5.653   5.657   5.659   5.662   5.662   5.662   5.663
  5.674   5.724   5.726   5.728   5.730   5.788   5.801   5.813
  5.826   5.853   5.860   5.894   5.914   5.929   5.940   6.072
  6.110   6.198   6.226   6.230   6.412   6.471   6.509   6.670
  6.686   6.728   6.869   6.930   7.041   8.226   8.260   8.345
  8.460   8.609   8.674   8.690   8.925   9.033   9.077   9.078
  9.078   9.079   9.090   9.102   9.116   9.126   9.258   9.283
  9.286   9.354   9.762   9.824   9.838   9.843   9.849   9.962
 11.643  11.663  11.676  11.685  11.725  11.952  12.108  12.812
 12.832  12.855  12.858  12.863  12.891  12.897  12.903  12.962
 12.972  13.008  13.076  13.142  13.143  16.898  16.950  16.984
 17.193  17.485  17.583  17.632  17.656  17.657  17.716  17.719
 17.727  17.826  18.147  18.166  30.542  38.718  39.297  62.342
 62.375  62.396  62.518  62.695  65.752  65.781  65.795  65.797
 65.830  65.833  65.839  65.892  66.086  66.115
 --------------------------------------------------------------
 
          Ground-State Mulliken Net Atomic Charges

     Atom                 Charge (a.u.)    Spin (a.u.)
  --------------------------------------------------------
      1 S                     0.164121      -0.000000
      2 Cl                   -0.082061       0.000000
      3 Cl                   -0.082061       0.000000
  --------------------------------------------------------
  Sum of atomic charges =    -0.000000
  Sum of spin   charges =     0.000000

 -----------------------------------------------------------------
                    Cartesian Multipole Moments
 -----------------------------------------------------------------
    Charge (ESU x 10^10)
                -0.0000
    Dipole Moment (Debye)
         X       0.0000      Y      -0.0000      Z       0.3059
       Tot       0.3059
    Quadrupole Moments (Debye-Ang)
        XX     -39.0325     XY      -0.0000     YY     -36.3840
        XZ       0.0000     YZ       0.0000     ZZ     -36.0785
    Octopole Moments (Debye-Ang^2)
       XXX       0.0000    XXY      -0.0000    XYY      -0.0000
       YYY      -0.0000    XXZ      -1.5171    XYZ       0.0000
       YYZ      -3.5184    XZZ      -0.0000    YZZ      -0.0000
       ZZZ      -0.9741
    Hexadecapole Moments (Debye-Ang^3)
      XXXX     -48.0863   XXXY      -0.0000   XXYY     -79.1124
      XYYY      -0.0000   YYYY    -395.9342   XXXZ       0.0000
      XXYZ       0.0000   XYYZ       0.0000   YYYZ       0.0000
      XXZZ     -30.2070   XYZZ      -0.0000   YYZZ     -82.3665
      XZZZ       0.0000   YZZZ       0.0000   ZZZZ    -117.6425
 -----------------------------------------------------------------
Archival summary:
1\1\n0072.mhg0\SP\ProcedureUnspecified\BasisUnspecified\l21\yhljason\ThuAug2002:05:322020ThuAug2002:05:322020\0\\#,ProcedureUnspecified,BasisUnspecified,\\0,1\S\Cl,1,2.01402\Cl,1,2.01402,2,102.8\\\@

 Total job time:  10691.95s(wall), 85435.89s(cpu) 
 Thu Aug 20 02:05:32 2020

        *************************************************************
        *                                                           *
        *  Thank you very much for using Q-Chem.  Have a nice day.  *
        *                                                           *
        *************************************************************


