Q-Chem Developer Version!
                  Welcome to Q-Chem
     A Quantum Leap Into The Future Of Chemistry


 Q-Chem 5.1, Q-Chem, Inc., Pleasanton, CA (2018)

 Yihan Shao,  Zhengting Gan,  E. Epifanovsky,  A. T. B. Gilbert,  M. Wormit,  
 J. Kussmann,  A. W. Lange,  A. Behn,  Jia Deng,  Xintian Feng,  D. Ghosh,  
 M. Goldey,  P. R. Horn,  L. D. Jacobson,  I. Kaliman,  T. Kus,  A. Landau,  
 Jie Liu,  E. I. Proynov,  R. M. Richard,  R. P. Steele,  E. J. Sundstrom,  
 H. L. Woodcock III,  P. M. Zimmerman,  D. Zuev,  B. Albrecht,  E. Alguire,  
 S. A. Baeppler,  D. Barton,  Z. Benda,  Y. A. Bernard,  E. J. Berquist,  
 K. B. Bravaya,  H. Burton,  D. Casanova,  Chun-Min Chang,  Yunqing Chen,  
 A. Chien,  K. D. Closser,  M. P. Coons,  S. Coriani,  S. Dasgupta,  
 A. L. Dempwolff,  M. Diedenhofen,  Hainam Do,  R. G. Edgar,  Po-Tung Fang,  
 S. Faraji,  S. Fatehi,  Qingguo Feng,  K. D. Fenk,  J. Fosso-Tande,  
 Qinghui Ge,  A. Ghysels,  G. Gidofalvi,  J. Gomes,  J. Gonthier,  A. Gunina,  
 D. Hait,  M. W. D. Hanson-Heine,  P. H. P. Harbach,  A. W. Hauser,  
 J. E. Herr,  E. G. Hohenstein,  Z. C. Holden,  Kerwin Hui,  B. C. Huynh,  
 T.-C. Jagau,  Hyunjun Ji,  B. Kaduk,  K. Khistyaev,  Jaehoon Kim,  
 P. Klunzinger,  K. Koh,  D. Kosenkov,  L. Koulias,  T. Kowalczyk,  
 C. M. Krauter,  A. Kunitsa,  Ka Un Lao,  A. Laurent,  K. V. Lawler,  
 Joonho Lee,  D. Lefrancois,  S. Lehtola,  D. S. Levine,  Yi-Pei Li,  
 You-Sheng Lin,  Fenglai Liu,  E. Livshits,  A. Luenser,  P. Manohar,  
 E. Mansoor,  S. F. Manzer,  Shan-Ping Mao,  Yuezhi Mao,  N. Mardirossian,  
 A. V. Marenich,  T. Markovich,  L. A. Martinez-Martinez,  S. A. Maurer,  
 N. J. Mayhall,  S. C. McKenzie,  J.-M. Mewes,  A. F. Morrison,  
 J. W. Mullinax,  K. Nanda,  T. S. Nguyen-Beck,  R. Olivares-Amaya,  
 J. A. Parkhill,  T. M. Perrine,  F. Plasser,  P. Pokhilko,  S. Prager,  
 A. Prociuk,  E. Ramos,  D. R. Rehn,  F. Rob,  M. Schneider,  N. Sergueev,  
 S. M. Sharada,  S. Sharma,  D. W. Small,  T. Stauch,  T. Stein,  
 Yu-Chuan Su,  A. J. W. Thom,  A. Tkatchenko,  T. Tsuchimochi,  N. M. Tubman,  
 L. Vogt,  M. L. Vidal,  O. Vydrov,  M. A. Watson,  J. Wenzel,  
 M. de Wergifosse,  T. A. Wesolowski,  A. White,  J. Witte,  A. Yamada,  
 Jun Yang,  K. Yao,  S. Yeganeh,  S. R. Yost,  Zhi-Qiang You,  A. Zech,  
 Igor Ying Zhang,  Xing Zhang,  Yan Zhao,  Ying Zhu,  B. R. Brooks,  
 G. K. L. Chan,  C. J. Cramer,  M. S. Gordon,  W. J. Hehre,  A. Klamt,  
 M. W. Schmidt,  C. D. Sherrill,  D. G. Truhlar,  A. Aspuru-Guzik,  R. Baer,  
 A. T. Bell,  N. A. Besley,  Jeng-Da Chai,  A. E. DePrince, III,  
 R. A. DiStasio Jr.,  A. Dreuw,  B. D. Dunietz,  T. R. Furlani,  
 Chao-Ping Hsu,  Yousung Jung,  Jing Kong,  D. S. Lambrecht,  WanZhen Liang,  
 C. Ochsenfeld,  V. A. Rassolov,  L. V. Slipchenko,  J. E. Subotnik,  
 T. Van Voorhis,  J. M. Herbert,  A. I. Krylov,  P. M. W. Gill,  M. Head-Gordon

 Contributors to earlier versions of Q-Chem not listed above: 
 R. D. Adamson,  B. Austin,  J. Baker,  G. J. O. Beran,  K. Brandhorst,  
 S. T. Brown,  E. F. C. Byrd,  A. K. Chakraborty,  C.-L. Cheng,  
 Siu Hung Chien,  D. M. Chipman,  D. L. Crittenden,  H. Dachsel,  
 R. J. Doerksen,  A. D. Dutoi,  L. Fusti-Molnar,  W. A. Goddard III,  
 A. Golubeva-Zadorozhnaya,  S. R. Gwaltney,  G. Hawkins,  A. Heyden,  
 S. Hirata,  G. Kedziora,  F. J. Keil,  C. Kelley,  Jihan Kim,  R. A. King,  
 R. Z. Khaliullin,  P. P. Korambath,  W. Kurlancheek,  A. M. Lee,  M. S. Lee,  
 S. V. Levchenko,  Ching Yeh Lin,  D. Liotard,  R. C. Lochan,  I. Lotan,  
 P. E. Maslen,  N. Nair,  D. P. O'Neill,  D. Neuhauser,  E. Neuscamman,  
 C. M. Oana,  R. Olson,  B. Peters,  R. Peverati,  P. A. Pieniazek,  
 Y. M. Rhee,  J. Ritchie,  M. A. Rohrdanz,  E. Rosta,  N. J. Russ,  
 H. F. Schaefer III,  N. E. Schultz,  N. Shenvi,  A. C. Simmonett,  A. Sodt,  
 D. Stuck,  K. S. Thanthiriwatte,  V. Vanovschi,  Tao Wang,  A. Warshel,  
 C. F. Williams,  Q. Wu,  X. Xu,  W. Zhang

 Please cite Q-Chem as follows:
 Y. Shao et al., Mol. Phys. 113, 184-215 (2015)
 DOI: 10.1080/00268976.2014.952696

 Q-Chem 5.1.1 for Intel X86 EM64T Linux

 Parts of Q-Chem use Armadillo 8.300.2 (Tropical Shenanigans).
 http://arma.sourceforge.net/

 Q-Chem begins on Wed Aug 19 22:57:48 2020  

Host: n0080.mhg0
0

     Scratch files written to /local/scratch/users/yhljason/SiH3Cl_B3LYP_aug-pc-4.inp20200819170220//
Input Ideriv = 2
Curr. Ideriv = -1
Max.  Ideriv = 2

Checking the input file for inconsistencies... 	...done.

--------------------------------------------------------------
User input:
--------------------------------------------------------------
$molecule
0 1
Si1     0.0000  0.0000  -0.9844
Cl2     0.0000  0.0000  1.0661
H3      0.0000  1.4004  -1.4474
H4      1.2128  -0.7002 -1.4474
H5      -1.2128 -0.7002 -1.4474
$end

$rem
jobtype sp
method B3LYP
xc_grid 000099000590
basis aug-pc-4
max_scf_cycles 200
thresh 14
scf_convergence 8
scf_algorithm gdm
symmetry false
sym_ignore true
unrestricted true
gen_scfman true
internal_stability_iter 15
internal_stability_davidson_iter 200
mem_total 64000
mem_static 1500
n_frozen_core 0
$end


--------------------------------------------------------------
 ----------------------------------------------------------------
             Standard Nuclear Orientation (Angstroms)
    I     Atom           X                Y                Z
 ----------------------------------------------------------------
    1      Si      0.0000000000     0.0000000000    -0.9844000000
    2      Cl      0.0000000000     0.0000000000     1.0661000000
    3      H       0.0000000000     1.4004000000    -1.4474000000
    4      H       1.2128000000    -0.7002000000    -1.4474000000
    5      H      -1.2128000000    -0.7002000000    -1.4474000000
 ----------------------------------------------------------------
 Nuclear Repulsion Energy =    86.5238174982 hartrees
 There are       17 alpha and       17 beta electrons
 Requested basis set is aug-pc-4
 There are 134 shells and 546 basis functions

 Total QAlloc Memory Limit  64000 MB
 Mega-Array Size      1467 MB
 MEM_STATIC part      1500 MB

                       Distance Matrix (Angstroms)
             Si(  1)   Cl(  2)   H (  3)   H (  4)
   Cl(  2)  2.050500
   H (  3)  1.474954  2.877291
   H (  4)  1.474969  2.877298  2.425573
   H (  5)  1.474969  2.877298  2.425573  2.425600
 
 A cutoff of  1.0D-14 yielded   8729 shell pairs
 There are    146831 function pairs (    267870 Cartesian)
 
 -------------------------------------------------------
 OpenMP Integral Computing Module                       
 Release: version 1.0, May 2013, Q-Chem Inc. Pittsburgh 
 -------------------------------------------------------
 Integral Job Info:
 Integral job number is                      11
 Integral operator is                         1
 short-range coefficients                     0
 long-range coefficients              100000000
 Omega coefficients                           0
 if combine SR and LR in K                    0
 Integral screening is                        0
 Integral computing path is                   2
 max size of driver memory is           6400000
 size of driver memory is               5498286
 size of scratch memory is             27847117
 max col of scratch BK array             194481
 max len of scratch array in speh3         5572
 max len of scratch index in speh4           72
 max int batch size is                      520
 min int batch size is                       52
 fixed nKL is                                 7
 max L of basis functions is                  5
 order of int derivative is                   0
 number of shells is                        134
 number of basis is                         735
 number of cartesian basis is               735
 number of contracted shell pairs          8729
 number of primitive shell pairs          26567
 maxK2 (contraction) of shell pair          225
 max number of K2 of shell pair               1
 max number of CS2 of shell pair            958
 max number of PS2 of shell pair           1284
 mem total for path MDJ                 1284904
 -------------------------------------------------------
 Smallest overlap matrix eigenvalue = 1.33E-06

 Scale SEOQF with 1.000000e-01/1.000000e-01/1.000000e-01

 Standard Electronic Orientation quadrupole field applied
 Nucleus-field energy     =    -0.0000000039 hartrees
 Guess from superposition of atomic densities
 Warning:  Energy on first SCF cycle will be non-variational
 SAD guess density has 34.000000 electrons

 -----------------------------------------------------------------------
  General SCF calculation program by
  Eric Jon Sundstrom, Paul Horn, Yuezhi Mao, Dmitri Zuev, Alec White,
  David Stuck, Shaama M.S., Shane Yost, Joonho Lee, David Small,
  Daniel Levine, Susi Lehtola, Hugh Burton, Evgeny Epifanovsky
 -----------------------------------------------------------------------
 Exchange:     0.2000 Hartree-Fock + 0.0800 Slater + 0.7200 B88
 Correlation:  0.1900 VWN1RPA + 0.8100 LYP
 Using Euler-Maclaurin-Lebedev (99,590) quadrature formula
Running Object-Oriented UKS (UHF)
performing a single roothaan step with Fock from read density so that orbitals are available to all algorithms
 LTot/LBra/LKet=          19           9          10

 Q-Chem warning:

 in GenH1, ket side, handled with new code

 LTot/LBra/LBra=          19           9           9
 LTot/LBra/LBra=          20          10          10

 Q-Chem warning:

 in GenH1, bra side, handled with new code


 Q-Chem warning:

 in GenH1, bra side, handled with new code

 LTot/LBra/LBra=          20          10          10
 LTot/LBra/LBra=          20          10          10

 Q-Chem warning:

 in GenH1, bra side, handled with new code


 Q-Chem warning:

 in GenH1, bra side, handled with new code

 LTot/LBra/LBra=          20          10          10

 Q-Chem warning:

 in GenH1, bra side, handled with new code

energy of the guess density (C=0) -751.648918691905
We will preform up to 15 macro iterations over saddle points until a stable solution is found
Energy prior to optimization (guess energy) = -751.617136448790
Begin Timing: Total SCF Calculation
Begin Timing: SCF Single Stationary Point Calculation
begin iterations for algorithm: GDM          
the SCF tolerance is set to 1.00e-08
    1    -751.6171364488      1.66e-02     00000  Normal BFGS step
    2    -751.6202445622      2.75e-02     00000  Normal BFGS step
    3    -751.6255668903      4.59e-03     00000  Normal BFGS step
    4    -751.6257077550      1.64e-03     00000  Normal BFGS step
    5    -751.6257704166      4.37e-04     00000  Normal BFGS step
    6    -751.6257730789      2.49e-04     00000  Normal BFGS step
    7    -751.6257742721      1.85e-05     00000  Normal BFGS step
    8    -751.6257742761      6.25e-06     00000  Normal BFGS step
    9    -751.6257742766      4.40e-07     00000  Normal BFGS step
   10    -751.6257742766      1.85e-07     00000  Normal BFGS step
   11    -751.6257742766      1.27e-08     00000  Normal BFGS step
   12    -751.6257742766      1.49e-08     00000  Normal BFGS step
   13    -751.6257742766      3.89e-09     00000 Convergence criterion met
Timing for Single Stationary Point: 11607.00s (wall), 92836.90s (cpu)
Begin Timing: Stability
===================================================
Beginning Test for Internal Stability
===================================================
generating davidson guess vectors based on koopmans excitations
    1      7.41e-01     00000 Davidson Iteration
    2      2.92e-01     00000 Davidson Iteration
    3      4.94e-02     00000 Davidson Iteration
    4      2.03e-02     00000 Davidson Iteration
    5      3.22e-03     00000 Davidson Iteration
    6      3.19e-03     00000 Davidson Iteration
    7      1.12e-03     00000 Davidson Iteration
    8      3.17e-03     00000 Davidson Iteration
    9      8.84e-04     00000 Davidson Iteration
   10      4.94e-04     00000 Davidson Iteration
   11      1.93e-04     00000 Davidson Iteration
   12      9.45e-05     00000 Davidson Iteration
   13      6.14e-05     00000 Davidson Converged
converged_eigenvalues
   0.4715
   0.5240
Threshold for negative eigenvalues: -1.0e-05
solution was a local minimum (stable)
===================================================
End Test for Internal Stability
===================================================
Our SCF solution is stable!
Timing for Total SCF: 28404.00s (wall), 227148.83s (cpu)
 Total energy in the final basis set =     -751.6257742766
<S^2> =          0.000000000
    ==================================================
              The end of Object-Oriented SCFman       
    ==================================================
 
 --------------------------------------------------------------
 
                    Orbital Energies (a.u.)
 --------------------------------------------------------------
 
 Alpha MOs
 -- Occupied --
******* -66.129  -9.454  -7.213  -7.208  -7.208  -5.308  -3.668
 -3.665  -3.665  -0.834  -0.554  -0.398  -0.390  -0.390  -0.324
 -0.324
 -- Virtual --
 -0.025  -0.013   0.008   0.008   0.017   0.017   0.018   0.026
  0.035   0.035   0.039   0.044   0.044   0.059   0.059   0.067
  0.076   0.078   0.078   0.091   0.097   0.097   0.108   0.112
  0.114   0.114   0.125   0.125   0.126   0.139   0.139   0.147
  0.158   0.158   0.159   0.162   0.162   0.166   0.171   0.179
  0.181   0.181   0.185   0.185   0.206   0.213   0.213   0.236
  0.236   0.246   0.247   0.249   0.249   0.265   0.266   0.266
  0.272   0.272   0.275   0.275   0.282   0.284   0.295   0.295
  0.297   0.308   0.308   0.316   0.326   0.334   0.334   0.338
  0.341   0.341   0.359   0.365   0.365   0.368   0.381   0.383
  0.383   0.393   0.393   0.405   0.405   0.427   0.427   0.427
  0.435   0.440   0.440   0.449   0.464   0.464   0.467   0.478
  0.490   0.490   0.493   0.493   0.493   0.510   0.510   0.517
  0.517   0.521   0.528   0.528   0.529   0.555   0.559   0.561
  0.561   0.566   0.566   0.574   0.582   0.587   0.589   0.589
  0.593   0.593   0.613   0.623   0.623   0.637   0.637   0.640
  0.646   0.646   0.650   0.663   0.678   0.678   0.678   0.694
  0.700   0.701   0.701   0.711   0.711   0.725   0.750   0.750
  0.757   0.757   0.758   0.775   0.775   0.788   0.802   0.802
  0.807   0.810   0.810   0.820   0.822   0.822   0.829   0.838
  0.838   0.868   0.868   0.869   0.873   0.879   0.879   0.896
  0.915   0.922   0.922   0.933   0.937   0.937   0.946   0.946
  0.970   0.970   0.982   0.982   0.986   0.997   0.997   1.017
  1.026   1.026   1.042   1.082   1.082   1.082   1.097   1.097
  1.118   1.118   1.120   1.131   1.131   1.148   1.154   1.154
  1.172   1.175   1.213   1.213   1.271   1.271   1.292   1.298
  1.325   1.325   1.357   1.371   1.371   1.428   1.433   1.433
  1.450   1.456   1.503   1.519   1.519   1.579   1.582   1.607
  1.607   1.628   1.649   1.649   1.664   1.664   1.666   1.704
  1.704   1.708   1.811   1.845   1.845   1.855   1.862   1.862
  1.932   1.932   2.009   2.009   2.052   2.107   2.181   2.275
  2.275   2.284   2.284   2.302   2.377   2.377   2.417   2.417
  2.471   2.485   2.509   2.509   2.536   2.536   2.574   2.604
  2.604   2.637   2.637   2.679   2.712   2.712   2.758   2.795
  2.866   2.866   2.953   2.975   2.975   2.982   3.099   3.137
  3.137   3.149   3.149   3.185   3.210   3.210   3.336   3.336
  3.391   3.391   3.409   3.409   3.417   3.437   3.437   3.538
  3.544   3.576   3.576   3.583   3.636   3.656   3.656   3.675
  3.677   3.677   3.706   3.760   3.763   3.763   3.866   3.881
  3.881   3.959   3.959   3.985   4.000   4.000   4.069   4.084
  4.084   4.131   4.207   4.266   4.266   4.389   4.398   4.398
  4.471   4.663   4.663   4.797   4.819   4.819   4.844   4.945
  4.945   5.008   5.070   5.070   5.113   5.113   5.183   5.183
  5.267   5.357   5.365   5.382   5.382   5.514   5.526   5.526
  5.607   5.607   5.781   5.781   5.795   5.795   5.798   5.819
  5.857   5.857   5.920   5.922   6.008   6.008   6.176   6.176
  6.279   6.279   6.443   6.495   6.495   6.588   6.588   6.754
  6.885   6.903   6.903   7.050   7.050   7.111   7.154   7.315
  7.315   7.476   7.476   7.522   8.529   8.592   8.592   8.679
  8.704   8.704   8.946   8.946   8.976   8.980   9.005   9.005
  9.021   9.097   9.097   9.158   9.225   9.225   9.242   9.260
  9.260   9.260   9.382   9.455   9.455   9.482   9.482   9.544
  9.544   9.547   9.624   9.817   9.817  10.123  10.123  10.226
 10.226  10.267  10.447  10.712  10.942  11.588  11.588  12.340
 12.434  12.434  12.472  12.472  12.512  12.628  12.719  12.719
 12.812  12.879  12.879  12.990  13.018  13.042  13.042  13.058
 13.131  13.131  13.214  13.220  13.220  13.268  13.268  13.330
 13.390  13.390  13.487  15.605  15.605  16.028  16.294  16.294
 16.783  16.815  16.824  16.824  16.827  16.827  16.829  16.829
 16.855  16.855  16.869  16.869  16.894  16.984  16.984  17.014
 17.182  17.182  17.273  17.453  17.490  17.490  17.692  17.755
 17.755  17.899  17.899  18.006  18.006  18.053  18.053  18.480
 23.429  23.466  23.466  23.473  23.538  23.545  23.545  24.027
 24.027  25.552  39.666  39.883  39.883  40.087  55.679  55.679
 55.924  56.117  56.117  66.229  66.229  66.310  66.310  66.566
 91.042  91.067  91.067  91.119  91.126  91.126  91.476  91.476
 91.646
 
 Beta MOs
 -- Occupied --
******* -66.129  -9.454  -7.213  -7.208  -7.208  -5.308  -3.668
 -3.665  -3.665  -0.834  -0.554  -0.398  -0.390  -0.390  -0.324
 -0.324
 -- Virtual --
 -0.025  -0.013   0.008   0.008   0.017   0.017   0.018   0.026
  0.035   0.035   0.039   0.044   0.044   0.059   0.059   0.067
  0.076   0.078   0.078   0.091   0.097   0.097   0.108   0.112
  0.114   0.114   0.125   0.125   0.126   0.139   0.139   0.147
  0.158   0.158   0.159   0.162   0.162   0.166   0.171   0.179
  0.181   0.181   0.185   0.185   0.206   0.213   0.213   0.236
  0.236   0.246   0.247   0.249   0.249   0.265   0.266   0.266
  0.272   0.272   0.275   0.275   0.282   0.284   0.295   0.295
  0.297   0.308   0.308   0.316   0.326   0.334   0.334   0.338
  0.341   0.341   0.359   0.365   0.365   0.368   0.381   0.383
  0.383   0.393   0.393   0.405   0.405   0.427   0.427   0.427
  0.435   0.440   0.440   0.449   0.464   0.464   0.467   0.478
  0.490   0.490   0.493   0.493   0.493   0.510   0.510   0.517
  0.517   0.521   0.528   0.528   0.529   0.555   0.559   0.561
  0.561   0.566   0.566   0.574   0.582   0.587   0.589   0.589
  0.593   0.593   0.613   0.623   0.623   0.637   0.637   0.640
  0.646   0.646   0.650   0.663   0.678   0.678   0.678   0.694
  0.700   0.701   0.701   0.711   0.711   0.725   0.750   0.750
  0.757   0.757   0.758   0.775   0.775   0.788   0.802   0.802
  0.807   0.810   0.810   0.820   0.822   0.822   0.829   0.838
  0.838   0.868   0.868   0.869   0.873   0.879   0.879   0.896
  0.915   0.922   0.922   0.933   0.937   0.937   0.946   0.946
  0.970   0.970   0.982   0.982   0.986   0.997   0.997   1.017
  1.026   1.026   1.042   1.082   1.082   1.082   1.097   1.097
  1.118   1.118   1.120   1.131   1.131   1.148   1.154   1.154
  1.172   1.175   1.213   1.213   1.271   1.271   1.292   1.298
  1.325   1.325   1.357   1.371   1.371   1.428   1.433   1.433
  1.450   1.456   1.503   1.519   1.519   1.579   1.582   1.607
  1.607   1.628   1.649   1.649   1.664   1.664   1.666   1.704
  1.704   1.708   1.811   1.845   1.845   1.855   1.862   1.862
  1.932   1.932   2.009   2.009   2.052   2.107   2.181   2.275
  2.275   2.284   2.284   2.302   2.377   2.377   2.417   2.417
  2.471   2.485   2.509   2.509   2.536   2.536   2.574   2.604
  2.604   2.637   2.637   2.679   2.712   2.712   2.758   2.795
  2.866   2.866   2.953   2.975   2.975   2.982   3.099   3.137
  3.137   3.149   3.149   3.185   3.210   3.210   3.336   3.336
  3.391   3.391   3.409   3.409   3.417   3.437   3.437   3.538
  3.544   3.576   3.576   3.583   3.636   3.656   3.656   3.675
  3.677   3.677   3.706   3.760   3.763   3.763   3.866   3.881
  3.881   3.959   3.959   3.985   4.000   4.000   4.069   4.084
  4.084   4.131   4.207   4.266   4.266   4.389   4.398   4.398
  4.471   4.663   4.663   4.797   4.819   4.819   4.844   4.945
  4.945   5.008   5.070   5.070   5.113   5.113   5.183   5.183
  5.267   5.357   5.365   5.382   5.382   5.514   5.526   5.526
  5.607   5.607   5.781   5.781   5.795   5.795   5.798   5.819
  5.857   5.857   5.920   5.922   6.008   6.008   6.176   6.176
  6.279   6.279   6.443   6.495   6.495   6.588   6.588   6.754
  6.885   6.903   6.903   7.050   7.050   7.111   7.154   7.315
  7.315   7.476   7.476   7.522   8.529   8.592   8.592   8.679
  8.704   8.704   8.946   8.946   8.976   8.980   9.005   9.005
  9.021   9.097   9.097   9.158   9.225   9.225   9.242   9.260
  9.260   9.260   9.382   9.455   9.455   9.482   9.482   9.544
  9.544   9.547   9.624   9.817   9.817  10.123  10.123  10.226
 10.226  10.267  10.447  10.712  10.942  11.588  11.588  12.340
 12.434  12.434  12.472  12.472  12.512  12.628  12.719  12.719
 12.812  12.879  12.879  12.990  13.018  13.042  13.042  13.058
 13.131  13.131  13.214  13.220  13.220  13.268  13.268  13.330
 13.390  13.390  13.487  15.605  15.605  16.028  16.294  16.294
 16.783  16.815  16.824  16.824  16.827  16.827  16.829  16.829
 16.855  16.855  16.869  16.869  16.894  16.984  16.984  17.014
 17.182  17.182  17.273  17.453  17.490  17.490  17.692  17.755
 17.755  17.899  17.899  18.006  18.006  18.053  18.053  18.480
 23.429  23.466  23.466  23.473  23.538  23.545  23.545  24.027
 24.027  25.552  39.666  39.883  39.883  40.087  55.679  55.679
 55.924  56.117  56.117  66.229  66.229  66.310  66.310  66.566
 91.042  91.067  91.067  91.119  91.126  91.126  91.476  91.476
 91.646
 --------------------------------------------------------------
 
          Ground-State Mulliken Net Atomic Charges

     Atom                 Charge (a.u.)    Spin (a.u.)
  --------------------------------------------------------
      1 Si                    0.562991       0.000000
      2 Cl                   -0.343207       0.000000
      3 H                    -0.073279       0.000000
      4 H                    -0.073252      -0.000000
      5 H                    -0.073252      -0.000000
  --------------------------------------------------------
  Sum of atomic charges =    -0.000000
  Sum of spin   charges =    -0.000000

 -----------------------------------------------------------------
                    Cartesian Multipole Moments
 -----------------------------------------------------------------
    Charge (ESU x 10^10)
                -0.0000
    Dipole Moment (Debye)
         X      -0.0000      Y       0.0000      Z      -1.2892
       Tot       1.2892
    Quadrupole Moments (Debye-Ang)
        XX     -28.0036     XY      -0.0000     YY     -28.0036
        XZ       0.0000     YZ      -0.0000     ZZ     -27.2787
    Octopole Moments (Debye-Ang^2)
       XXX      -0.0000    XXY       0.7486    XYY      -0.0000
       YYY      -0.7485    XXZ       2.9207    XYZ       0.0000
       YYZ       2.9207    XZZ       0.0000    YZZ       0.0000
       ZZZ       7.0271
    Hexadecapole Moments (Debye-Ang^3)
      XXXX     -55.3198   XXXY      -0.0000   XXYY     -18.4398
      XYYY      -0.0000   YYYY     -55.3192   XXXZ       0.0000
      XXYZ      -0.7690   XYYZ       0.0000   YYYZ       0.7689
      XXZZ     -49.6043   XYZZ      -0.0000   YYZZ     -49.6041
      XZZZ       0.0000   YZZZ      -0.0001   ZZZZ    -218.4416
 -----------------------------------------------------------------
Archival summary:
1\1\n0080.mhg0\SP\ProcedureUnspecified\BasisUnspecified\l1i13\yhljason\ThuAug2007:08:272020ThuAug2007:08:272020\0\\#,ProcedureUnspecified,BasisUnspecified,\\0,1\Si\H,1,1.47495\H,1,1.47497,2,110.621\H,1,1.47497,2,110.621,3,122.934,0\Cl,1,2.0505,2,108.295,3,-118.533,0\\\@

 Total job time:  29438.47s(wall), 235234.54s(cpu) 
 Thu Aug 20 07:08:27 2020

        *************************************************************
        *                                                           *
        *  Thank you very much for using Q-Chem.  Have a nice day.  *
        *                                                           *
        *************************************************************


