Q-Chem Developer Version!
                  Welcome to Q-Chem
     A Quantum Leap Into The Future Of Chemistry


 Q-Chem 5.1, Q-Chem, Inc., Pleasanton, CA (2018)

 Yihan Shao,  Zhengting Gan,  E. Epifanovsky,  A. T. B. Gilbert,  M. Wormit,  
 J. Kussmann,  A. W. Lange,  A. Behn,  Jia Deng,  Xintian Feng,  D. Ghosh,  
 M. Goldey,  P. R. Horn,  L. D. Jacobson,  I. Kaliman,  T. Kus,  A. Landau,  
 Jie Liu,  E. I. Proynov,  R. M. Richard,  R. P. Steele,  E. J. Sundstrom,  
 H. L. Woodcock III,  P. M. Zimmerman,  D. Zuev,  B. Albrecht,  E. Alguire,  
 S. A. Baeppler,  D. Barton,  Z. Benda,  Y. A. Bernard,  E. J. Berquist,  
 K. B. Bravaya,  H. Burton,  D. Casanova,  Chun-Min Chang,  Yunqing Chen,  
 A. Chien,  K. D. Closser,  M. P. Coons,  S. Coriani,  S. Dasgupta,  
 A. L. Dempwolff,  M. Diedenhofen,  Hainam Do,  R. G. Edgar,  Po-Tung Fang,  
 S. Faraji,  S. Fatehi,  Qingguo Feng,  K. D. Fenk,  J. Fosso-Tande,  
 Qinghui Ge,  A. Ghysels,  G. Gidofalvi,  J. Gomes,  J. Gonthier,  A. Gunina,  
 D. Hait,  M. W. D. Hanson-Heine,  P. H. P. Harbach,  A. W. Hauser,  
 J. E. Herr,  E. G. Hohenstein,  Z. C. Holden,  Kerwin Hui,  B. C. Huynh,  
 T.-C. Jagau,  Hyunjun Ji,  B. Kaduk,  K. Khistyaev,  Jaehoon Kim,  
 P. Klunzinger,  K. Koh,  D. Kosenkov,  L. Koulias,  T. Kowalczyk,  
 C. M. Krauter,  A. Kunitsa,  Ka Un Lao,  A. Laurent,  K. V. Lawler,  
 Joonho Lee,  D. Lefrancois,  S. Lehtola,  D. S. Levine,  Yi-Pei Li,  
 You-Sheng Lin,  Fenglai Liu,  E. Livshits,  A. Luenser,  P. Manohar,  
 E. Mansoor,  S. F. Manzer,  Shan-Ping Mao,  Yuezhi Mao,  N. Mardirossian,  
 A. V. Marenich,  T. Markovich,  L. A. Martinez-Martinez,  S. A. Maurer,  
 N. J. Mayhall,  S. C. McKenzie,  J.-M. Mewes,  A. F. Morrison,  
 J. W. Mullinax,  K. Nanda,  T. S. Nguyen-Beck,  R. Olivares-Amaya,  
 J. A. Parkhill,  T. M. Perrine,  F. Plasser,  P. Pokhilko,  S. Prager,  
 A. Prociuk,  E. Ramos,  D. R. Rehn,  F. Rob,  M. Schneider,  N. Sergueev,  
 S. M. Sharada,  S. Sharma,  D. W. Small,  T. Stauch,  T. Stein,  
 Yu-Chuan Su,  A. J. W. Thom,  A. Tkatchenko,  T. Tsuchimochi,  N. M. Tubman,  
 L. Vogt,  M. L. Vidal,  O. Vydrov,  M. A. Watson,  J. Wenzel,  
 M. de Wergifosse,  T. A. Wesolowski,  A. White,  J. Witte,  A. Yamada,  
 Jun Yang,  K. Yao,  S. Yeganeh,  S. R. Yost,  Zhi-Qiang You,  A. Zech,  
 Igor Ying Zhang,  Xing Zhang,  Yan Zhao,  Ying Zhu,  B. R. Brooks,  
 G. K. L. Chan,  C. J. Cramer,  M. S. Gordon,  W. J. Hehre,  A. Klamt,  
 M. W. Schmidt,  C. D. Sherrill,  D. G. Truhlar,  A. Aspuru-Guzik,  R. Baer,  
 A. T. Bell,  N. A. Besley,  Jeng-Da Chai,  A. E. DePrince, III,  
 R. A. DiStasio Jr.,  A. Dreuw,  B. D. Dunietz,  T. R. Furlani,  
 Chao-Ping Hsu,  Yousung Jung,  Jing Kong,  D. S. Lambrecht,  WanZhen Liang,  
 C. Ochsenfeld,  V. A. Rassolov,  L. V. Slipchenko,  J. E. Subotnik,  
 T. Van Voorhis,  J. M. Herbert,  A. I. Krylov,  P. M. W. Gill,  M. Head-Gordon

 Contributors to earlier versions of Q-Chem not listed above: 
 R. D. Adamson,  B. Austin,  J. Baker,  G. J. O. Beran,  K. Brandhorst,  
 S. T. Brown,  E. F. C. Byrd,  A. K. Chakraborty,  C.-L. Cheng,  
 Siu Hung Chien,  D. M. Chipman,  D. L. Crittenden,  H. Dachsel,  
 R. J. Doerksen,  A. D. Dutoi,  L. Fusti-Molnar,  W. A. Goddard III,  
 A. Golubeva-Zadorozhnaya,  S. R. Gwaltney,  G. Hawkins,  A. Heyden,  
 S. Hirata,  G. Kedziora,  F. J. Keil,  C. Kelley,  Jihan Kim,  R. A. King,  
 R. Z. Khaliullin,  P. P. Korambath,  W. Kurlancheek,  A. M. Lee,  M. S. Lee,  
 S. V. Levchenko,  Ching Yeh Lin,  D. Liotard,  R. C. Lochan,  I. Lotan,  
 P. E. Maslen,  N. Nair,  D. P. O'Neill,  D. Neuhauser,  E. Neuscamman,  
 C. M. Oana,  R. Olson,  B. Peters,  R. Peverati,  P. A. Pieniazek,  
 Y. M. Rhee,  J. Ritchie,  M. A. Rohrdanz,  E. Rosta,  N. J. Russ,  
 H. F. Schaefer III,  N. E. Schultz,  N. Shenvi,  A. C. Simmonett,  A. Sodt,  
 D. Stuck,  K. S. Thanthiriwatte,  V. Vanovschi,  Tao Wang,  A. Warshel,  
 C. F. Williams,  Q. Wu,  X. Xu,  W. Zhang

 Please cite Q-Chem as follows:
 Y. Shao et al., Mol. Phys. 113, 184-215 (2015)
 DOI: 10.1080/00268976.2014.952696

 Q-Chem 5.1.1 for Intel X86 EM64T Linux

 Parts of Q-Chem use Armadillo 8.300.2 (Tropical Shenanigans).
 http://arma.sourceforge.net/

 Q-Chem begins on Wed Aug 19 23:09:18 2020  

Host: n0092.mhg0
0

     Scratch files written to /local/scratch/users/yhljason/SiH3Cl_mBEEF_aug-pc-4.inp20200819170222//
Input Ideriv = 2
Curr. Ideriv = -1
Max.  Ideriv = 2
Input Ideriv = 1
Curr. Ideriv = 2
Max.  Ideriv = 1

Checking the input file for inconsistencies... 	...done.

--------------------------------------------------------------
User input:
--------------------------------------------------------------
$molecule
0 1
Si1     0.0000  0.0000  -0.9844
Cl2     0.0000  0.0000  1.0661
H3      0.0000  1.4004  -1.4474
H4      1.2128  -0.7002 -1.4474
H5      -1.2128 -0.7002 -1.4474
$end

$rem
jobtype sp
method mBEEF
xc_grid 000099000590
basis aug-pc-4
max_scf_cycles 200
thresh 14
scf_convergence 8
scf_algorithm gdm
symmetry false
sym_ignore true
unrestricted true
gen_scfman true
internal_stability_iter 15
internal_stability_davidson_iter 200
mem_total 64000
mem_static 1500
n_frozen_core 0
$end


--------------------------------------------------------------
 ----------------------------------------------------------------
             Standard Nuclear Orientation (Angstroms)
    I     Atom           X                Y                Z
 ----------------------------------------------------------------
    1      Si      0.0000000000     0.0000000000    -0.9844000000
    2      Cl      0.0000000000     0.0000000000     1.0661000000
    3      H       0.0000000000     1.4004000000    -1.4474000000
    4      H       1.2128000000    -0.7002000000    -1.4474000000
    5      H      -1.2128000000    -0.7002000000    -1.4474000000
 ----------------------------------------------------------------
 Nuclear Repulsion Energy =    86.5238174982 hartrees
 There are       17 alpha and       17 beta electrons
 Requested basis set is aug-pc-4
 There are 134 shells and 546 basis functions

 Total QAlloc Memory Limit  64000 MB
 Mega-Array Size      1467 MB
 MEM_STATIC part      1500 MB

                       Distance Matrix (Angstroms)
             Si(  1)   Cl(  2)   H (  3)   H (  4)
   Cl(  2)  2.050500
   H (  3)  1.474954  2.877291
   H (  4)  1.474969  2.877298  2.425573
   H (  5)  1.474969  2.877298  2.425573  2.425600
 
 A cutoff of  1.0D-14 yielded   8729 shell pairs
 There are    146831 function pairs (    267870 Cartesian)
 
 -------------------------------------------------------
 OpenMP Integral Computing Module                       
 Release: version 1.0, May 2013, Q-Chem Inc. Pittsburgh 
 -------------------------------------------------------
 Integral Job Info:
 Integral job number is                      11
 Integral operator is                         1
 short-range coefficients                     0
 long-range coefficients              100000000
 Omega coefficients                           0
 if combine SR and LR in K                    0
 Integral screening is                        0
 Integral computing path is                   2
 max size of driver memory is           6400000
 size of driver memory is               5498286
 size of scratch memory is             27847117
 max col of scratch BK array             194481
 max len of scratch array in speh3         5572
 max len of scratch index in speh4           72
 max int batch size is                      520
 min int batch size is                       52
 fixed nKL is                                 7
 max L of basis functions is                  5
 order of int derivative is                   0
 number of shells is                        134
 number of basis is                         735
 number of cartesian basis is               735
 number of contracted shell pairs          8729
 number of primitive shell pairs          26567
 maxK2 (contraction) of shell pair          225
 max number of K2 of shell pair               1
 max number of CS2 of shell pair            958
 max number of PS2 of shell pair           1284
 mem total for path MDJ                 1284904
 -------------------------------------------------------
 Smallest overlap matrix eigenvalue = 1.33E-06

 Scale SEOQF with 1.000000e-01/1.000000e-01/1.000000e-01

 Standard Electronic Orientation quadrupole field applied
 Nucleus-field energy     =    -0.0000000039 hartrees
 Guess from superposition of atomic densities
 Warning:  Energy on first SCF cycle will be non-variational
 SAD guess density has 34.000000 electrons

 -----------------------------------------------------------------------
  General SCF calculation program by
  Eric Jon Sundstrom, Paul Horn, Yuezhi Mao, Dmitri Zuev, Alec White,
  David Stuck, Shaama M.S., Shane Yost, Joonho Lee, David Small,
  Daniel Levine, Susi Lehtola, Hugh Burton, Evgeny Epifanovsky
 -----------------------------------------------------------------------
 Exchange:  mBEEF      Correlation:  PBEsol
 Using Euler-Maclaurin-Lebedev (99,590) quadrature formula
Running Object-Oriented UKS (UHF)
performing a single roothaan step with Fock from read density so that orbitals are available to all algorithms
energy of the guess density (C=0) -753.039603313022
We will preform up to 15 macro iterations over saddle points until a stable solution is found
Energy prior to optimization (guess energy) = -753.024571523639
Begin Timing: Total SCF Calculation
Begin Timing: SCF Single Stationary Point Calculation
begin iterations for algorithm: GDM          
the SCF tolerance is set to 1.00e-08
    1    -753.0245715236      2.49e-02     00000  Normal BFGS step
    2    -753.0304030894      3.69e-02     00000  Normal BFGS step
    3    -753.0370213544      9.99e-03     00000  Normal BFGS step
    4    -753.0372180421      4.47e-03     00000  Normal BFGS step
    5    -753.0374112763      1.09e-03     00000  Normal BFGS step
    6    -753.0374183093      7.02e-04     00000  Normal BFGS step
    7    -753.0374249816      4.59e-05     00000  Normal BFGS step
    8    -753.0374249991      2.03e-05     00000  Normal BFGS step
    9    -753.0374250025      5.43e-07     00000  Normal BFGS step
   10    -753.0374250025      9.23e-08     00000  Normal BFGS step
   11    -753.0374250025      2.77e-08     00000  Normal BFGS step
   12    -753.0374250025      2.08e-08     00000  Normal BFGS step
   13    -753.0374250025      3.80e-09     00000 Convergence criterion met
Timing for Single Stationary Point: 1595.00s (wall), 12760.60s (cpu)
Begin Timing: Stability
===================================================
Beginning Test for Internal Stability
===================================================
generating davidson guess vectors based on koopmans excitations
    1      7.47e-01     00000 Davidson Iteration
    2      3.47e-01     00000 Davidson Iteration
    3      8.07e-02     00000 Davidson Iteration
    4      3.05e-02     00000 Davidson Iteration
    5      1.71e-02     00000 Davidson Iteration
    6      2.99e-03     00000 Davidson Iteration
    7      3.21e-03     00000 Davidson Iteration
    8      2.80e-03     00000 Davidson Iteration
    9      5.85e-04     00000 Davidson Iteration
   10      4.10e-04     00000 Davidson Iteration
   11      1.39e-04     00000 Davidson Iteration
   12      7.44e-05     00000 Davidson Iteration
   13      1.72e-03     00000 Davidson Iteration
   14      7.25e-04     00000 Davidson Iteration
   15      2.93e-04     00000 Davidson Iteration
   16      1.53e-04     00000 Davidson Iteration
   17      1.32e-04     00000 Davidson Iteration
   18      7.39e-05     00000 Davidson Converged
converged_eigenvalues
   0.4722
   0.4723
Threshold for negative eigenvalues: -1.0e-05
solution was a local minimum (stable)
===================================================
End Test for Internal Stability
===================================================
Our SCF solution is stable!
Timing for Total SCF: 25571.00s (wall), 204256.36s (cpu)
 Total energy in the final basis set =     -753.0374250025
<S^2> =          0.000000000
    ==================================================
              The end of Object-Oriented SCFman       
    ==================================================
 
 --------------------------------------------------------------
 
                    Orbital Energies (a.u.)
 --------------------------------------------------------------
 
 Alpha MOs
 -- Occupied --
******* -65.743  -9.377  -7.112  -7.106  -7.106  -5.255  -3.589
 -3.585  -3.585  -0.809  -0.526  -0.383  -0.369  -0.369  -0.306
 -0.306
 -- Virtual --
 -0.042  -0.029  -0.005  -0.005   0.002   0.002   0.019   0.023
  0.030   0.030   0.041   0.045   0.045   0.052   0.052   0.059
  0.072   0.072   0.072   0.089   0.093   0.094   0.100   0.100
  0.101   0.102   0.117   0.117   0.120   0.136   0.136   0.140
  0.154   0.154   0.155   0.162   0.162   0.163   0.165   0.171
  0.171   0.176   0.177   0.177   0.196   0.205   0.205   0.225
  0.225   0.230   0.233   0.233   0.242   0.252   0.261   0.261
  0.265   0.265   0.267   0.271   0.271   0.275   0.280   0.280
  0.285   0.289   0.289   0.300   0.312   0.312   0.314   0.319
  0.325   0.325   0.330   0.346   0.346   0.359   0.359   0.360
  0.377   0.386   0.386   0.392   0.398   0.398   0.402   0.402
  0.417   0.420   0.420   0.435   0.442   0.447   0.447   0.451
  0.456   0.456   0.460   0.466   0.466   0.481   0.481   0.490
  0.490   0.499   0.499   0.501   0.507   0.522   0.525   0.525
  0.535   0.538   0.540   0.540   0.553   0.553   0.557   0.562
  0.562   0.574   0.584   0.584   0.587   0.600   0.600   0.615
  0.617   0.617   0.620   0.633   0.633   0.640   0.648   0.650
  0.664   0.664   0.672   0.681   0.681   0.702   0.715   0.716
  0.716   0.727   0.727   0.732   0.732   0.752   0.755   0.761
  0.761   0.769   0.769   0.779   0.779   0.788   0.802   0.804
  0.807   0.807   0.827   0.827   0.834   0.849   0.849   0.873
  0.877   0.890   0.890   0.894   0.894   0.902   0.902   0.903
  0.945   0.945   0.957   0.970   0.970   0.978   0.978   0.998
  1.005   1.009   1.009   1.053   1.060   1.060   1.070   1.070
  1.096   1.097   1.112   1.134   1.137   1.137   1.153   1.153
  1.163   1.163   1.216   1.216   1.230   1.266   1.266   1.299
  1.299   1.312   1.330   1.345   1.345   1.423   1.423   1.442
  1.442   1.456   1.495   1.515   1.515   1.542   1.542   1.584
  1.593   1.613   1.637   1.637   1.652   1.652   1.669   1.698
  1.700   1.700   1.817   1.817   1.831   1.837   1.879   1.879
  1.949   1.949   2.047   2.047   2.071   2.109   2.171   2.219
  2.219   2.315   2.320   2.320   2.423   2.423   2.466   2.466
  2.502   2.521   2.553   2.553   2.577   2.577   2.617   2.660
  2.660   2.678   2.678   2.725   2.753   2.753   2.799   2.842
  2.944   2.944   2.997   3.112   3.119   3.119   3.183   3.227
  3.227   3.241   3.241   3.265   3.310   3.328   3.414   3.414
  3.421   3.438   3.438   3.491   3.492   3.532   3.532   3.595
  3.629   3.658   3.658   3.714   3.714   3.714   3.731   3.765
  3.765   3.768   3.823   3.831   3.831   3.869   3.987   3.987
  4.011   4.093   4.111   4.111   4.112   4.112   4.200   4.241
  4.241   4.258   4.336   4.428   4.428   4.531   4.536   4.536
  4.590   4.793   4.793   4.909   4.909   4.920   4.925   5.035
  5.035   5.108   5.164   5.164   5.270   5.270   5.300   5.300
  5.335   5.472   5.490   5.522   5.522   5.666   5.666   5.679
  5.705   5.705   5.928   5.965   5.965   6.018   6.058   6.058
  6.070   6.070   6.121   6.121   6.173   6.179   6.297   6.297
  6.491   6.491   6.567   6.651   6.651   6.726   6.727   6.948
  7.002   7.101   7.101   7.169   7.169   7.234   7.255   7.467
  7.467   7.550   7.551   7.673   8.591   8.667   8.667   8.751
  8.773   8.773   8.957   8.964   8.964   9.008   9.030   9.030
  9.043   9.105   9.105   9.164   9.280   9.280   9.365   9.437
  9.437   9.476   9.476   9.477   9.493   9.583   9.583   9.623
  9.705   9.706   9.742   9.994   9.995  10.296  10.296  10.318
 10.318  10.399  10.599  10.813  10.965  11.556  11.556  12.386
 12.479  12.479  12.521  12.521  12.567  12.614  12.717  12.717
 12.801  12.862  12.862  12.963  13.033  13.033  13.141  13.175
 13.186  13.200  13.200  13.242  13.242  13.343  13.343  13.388
 13.388  13.411  13.520  15.684  15.684  16.123  16.371  16.371
 16.744  16.799  16.834  16.834  16.850  16.850  16.865  16.867
 16.867  16.867  16.873  16.873  16.880  16.952  16.952  16.979
 17.152  17.152  17.246  17.433  17.465  17.465  17.686  17.743
 17.743  17.947  17.947  18.019  18.019  18.099  18.099  18.548
 23.360  23.397  23.397  23.436  23.470  23.477  23.477  23.915
 23.915  25.593  39.570  39.784  39.784  40.267  56.033  56.033
 56.284  56.478  56.478  66.532  66.532  66.615  66.615  66.874
 90.879  90.904  90.904  90.956  90.963  90.963  91.308  91.308
 91.478
 
 Beta MOs
 -- Occupied --
******* -65.743  -9.377  -7.112  -7.106  -7.106  -5.255  -3.589
 -3.585  -3.585  -0.809  -0.526  -0.383  -0.369  -0.369  -0.306
 -0.306
 -- Virtual --
 -0.042  -0.029  -0.005  -0.005   0.002   0.002   0.019   0.023
  0.030   0.030   0.041   0.045   0.045   0.052   0.052   0.059
  0.072   0.072   0.072   0.089   0.093   0.094   0.100   0.100
  0.101   0.102   0.117   0.117   0.120   0.136   0.136   0.140
  0.154   0.154   0.155   0.162   0.162   0.163   0.165   0.171
  0.171   0.176   0.177   0.177   0.196   0.205   0.205   0.225
  0.225   0.230   0.233   0.233   0.242   0.252   0.261   0.261
  0.265   0.265   0.267   0.271   0.271   0.275   0.280   0.280
  0.285   0.289   0.289   0.300   0.312   0.312   0.314   0.319
  0.325   0.325   0.330   0.346   0.346   0.359   0.359   0.360
  0.377   0.386   0.386   0.392   0.398   0.398   0.402   0.402
  0.417   0.420   0.420   0.435   0.442   0.447   0.447   0.451
  0.456   0.456   0.460   0.466   0.466   0.481   0.481   0.490
  0.490   0.499   0.499   0.501   0.507   0.522   0.525   0.525
  0.535   0.538   0.540   0.540   0.553   0.553   0.557   0.562
  0.562   0.574   0.584   0.584   0.587   0.600   0.600   0.615
  0.617   0.617   0.620   0.633   0.633   0.640   0.648   0.650
  0.664   0.664   0.672   0.681   0.681   0.702   0.715   0.716
  0.716   0.727   0.727   0.732   0.732   0.752   0.755   0.761
  0.761   0.769   0.769   0.779   0.779   0.788   0.802   0.804
  0.807   0.807   0.827   0.827   0.834   0.849   0.849   0.873
  0.877   0.890   0.890   0.894   0.894   0.902   0.902   0.903
  0.945   0.945   0.957   0.970   0.970   0.978   0.978   0.998
  1.005   1.009   1.009   1.053   1.060   1.060   1.070   1.070
  1.096   1.097   1.112   1.134   1.137   1.137   1.153   1.153
  1.163   1.163   1.216   1.216   1.230   1.266   1.266   1.299
  1.299   1.312   1.330   1.345   1.345   1.423   1.423   1.442
  1.442   1.456   1.495   1.515   1.515   1.542   1.542   1.584
  1.593   1.613   1.637   1.637   1.652   1.652   1.669   1.698
  1.700   1.700   1.817   1.817   1.831   1.837   1.879   1.879
  1.949   1.949   2.047   2.047   2.071   2.109   2.171   2.219
  2.219   2.315   2.320   2.320   2.423   2.423   2.466   2.466
  2.502   2.521   2.553   2.553   2.577   2.577   2.617   2.660
  2.660   2.678   2.678   2.725   2.753   2.753   2.799   2.842
  2.944   2.944   2.997   3.112   3.119   3.119   3.183   3.227
  3.227   3.241   3.241   3.265   3.310   3.328   3.414   3.414
  3.421   3.438   3.438   3.491   3.492   3.532   3.532   3.595
  3.629   3.658   3.658   3.714   3.714   3.714   3.731   3.765
  3.765   3.768   3.823   3.831   3.831   3.869   3.987   3.987
  4.011   4.093   4.111   4.111   4.112   4.112   4.200   4.241
  4.241   4.258   4.336   4.428   4.428   4.531   4.536   4.536
  4.590   4.793   4.793   4.909   4.909   4.920   4.925   5.035
  5.035   5.108   5.164   5.164   5.270   5.270   5.300   5.300
  5.335   5.472   5.490   5.522   5.522   5.666   5.666   5.679
  5.705   5.705   5.928   5.965   5.965   6.018   6.058   6.058
  6.070   6.070   6.121   6.121   6.173   6.179   6.297   6.297
  6.491   6.491   6.567   6.651   6.651   6.726   6.727   6.948
  7.002   7.101   7.101   7.169   7.169   7.234   7.255   7.467
  7.467   7.550   7.551   7.673   8.591   8.667   8.667   8.751
  8.773   8.773   8.957   8.964   8.964   9.008   9.030   9.030
  9.043   9.105   9.105   9.164   9.280   9.280   9.365   9.437
  9.437   9.476   9.476   9.477   9.493   9.583   9.583   9.623
  9.705   9.706   9.742   9.994   9.995  10.296  10.296  10.318
 10.318  10.399  10.599  10.813  10.965  11.556  11.556  12.386
 12.479  12.479  12.521  12.521  12.567  12.614  12.717  12.717
 12.801  12.862  12.862  12.963  13.033  13.033  13.141  13.175
 13.186  13.200  13.200  13.242  13.242  13.343  13.343  13.388
 13.388  13.411  13.520  15.684  15.684  16.123  16.371  16.371
 16.744  16.799  16.834  16.834  16.850  16.850  16.865  16.867
 16.867  16.867  16.873  16.873  16.880  16.952  16.952  16.979
 17.152  17.152  17.246  17.433  17.465  17.465  17.686  17.743
 17.743  17.947  17.947  18.019  18.019  18.099  18.099  18.548
 23.360  23.397  23.397  23.436  23.470  23.477  23.477  23.915
 23.915  25.593  39.570  39.784  39.784  40.267  56.033  56.033
 56.284  56.478  56.478  66.532  66.532  66.615  66.615  66.874
 90.879  90.904  90.904  90.956  90.963  90.963  91.308  91.308
 91.478
 --------------------------------------------------------------
 
          Ground-State Mulliken Net Atomic Charges

     Atom                 Charge (a.u.)    Spin (a.u.)
  --------------------------------------------------------
      1 Si                    0.754331      -0.000000
      2 Cl                   -0.303291       0.000000
      3 H                    -0.149368       0.000000
      4 H                    -0.150836       0.000000
      5 H                    -0.150836      -0.000000
  --------------------------------------------------------
  Sum of atomic charges =     0.000000
  Sum of spin   charges =    -0.000000

 -----------------------------------------------------------------
                    Cartesian Multipole Moments
 -----------------------------------------------------------------
    Charge (ESU x 10^10)
                 0.0000
    Dipole Moment (Debye)
         X      -0.0000      Y      -0.0003      Z      -1.2286
       Tot       1.2286
    Quadrupole Moments (Debye-Ang)
        XX     -27.7156     XY       0.0000     YY     -27.7158
        XZ       0.0000     YZ       0.0004     ZZ     -26.8953
    Octopole Moments (Debye-Ang^2)
       XXX      -0.0000    XXY       0.7644    XYY      -0.0000
       YYY      -0.7656    XXZ       3.1016    XYZ      -0.0000
       YYZ       3.1017    XZZ       0.0000    YZZ      -0.0003
       ZZZ       7.4669
    Hexadecapole Moments (Debye-Ang^3)
      XXXX     -53.7704   XXXY       0.0000   XXYY     -17.9235
      XYYY      -0.0000   YYYY     -53.7718   XXXZ       0.0000
      XXYZ      -0.7810   XYYZ       0.0000   YYYZ       0.7826
      XXZZ     -48.6596   XYZZ       0.0000   YYZZ     -48.6599
      XZZZ      -0.0000   YZZZ       0.0008   ZZZZ    -214.4831
 -----------------------------------------------------------------
Archival summary:
1\1\n0092.mhg0\SP\ProcedureUnspecified\BasisUnspecified\l1i13\yhljason\ThuAug2006:18:302020ThuAug2006:18:302020\0\\#,ProcedureUnspecified,BasisUnspecified,\\0,1\Si\H,1,1.47495\H,1,1.47497,2,110.621\H,1,1.47497,2,110.621,3,122.934,0\Cl,1,2.0505,2,108.295,3,-118.533,0\\\@

 Total job time:  25751.63s(wall), 205628.82s(cpu) 
 Thu Aug 20 06:18:30 2020

        *************************************************************
        *                                                           *
        *  Thank you very much for using Q-Chem.  Have a nice day.  *
        *                                                           *
        *************************************************************


