Q-Chem Developer Version!
                  Welcome to Q-Chem
     A Quantum Leap Into The Future Of Chemistry


 Q-Chem 5.1, Q-Chem, Inc., Pleasanton, CA (2018)

 Yihan Shao,  Zhengting Gan,  E. Epifanovsky,  A. T. B. Gilbert,  M. Wormit,  
 J. Kussmann,  A. W. Lange,  A. Behn,  Jia Deng,  Xintian Feng,  D. Ghosh,  
 M. Goldey,  P. R. Horn,  L. D. Jacobson,  I. Kaliman,  T. Kus,  A. Landau,  
 Jie Liu,  E. I. Proynov,  R. M. Richard,  R. P. Steele,  E. J. Sundstrom,  
 H. L. Woodcock III,  P. M. Zimmerman,  D. Zuev,  B. Albrecht,  E. Alguire,  
 S. A. Baeppler,  D. Barton,  Z. Benda,  Y. A. Bernard,  E. J. Berquist,  
 K. B. Bravaya,  H. Burton,  D. Casanova,  Chun-Min Chang,  Yunqing Chen,  
 A. Chien,  K. D. Closser,  M. P. Coons,  S. Coriani,  S. Dasgupta,  
 A. L. Dempwolff,  M. Diedenhofen,  Hainam Do,  R. G. Edgar,  Po-Tung Fang,  
 S. Faraji,  S. Fatehi,  Qingguo Feng,  K. D. Fenk,  J. Fosso-Tande,  
 Qinghui Ge,  A. Ghysels,  G. Gidofalvi,  J. Gomes,  J. Gonthier,  A. Gunina,  
 D. Hait,  M. W. D. Hanson-Heine,  P. H. P. Harbach,  A. W. Hauser,  
 J. E. Herr,  E. G. Hohenstein,  Z. C. Holden,  Kerwin Hui,  B. C. Huynh,  
 T.-C. Jagau,  Hyunjun Ji,  B. Kaduk,  K. Khistyaev,  Jaehoon Kim,  
 P. Klunzinger,  K. Koh,  D. Kosenkov,  L. Koulias,  T. Kowalczyk,  
 C. M. Krauter,  A. Kunitsa,  Ka Un Lao,  A. Laurent,  K. V. Lawler,  
 Joonho Lee,  D. Lefrancois,  S. Lehtola,  D. S. Levine,  Yi-Pei Li,  
 You-Sheng Lin,  Fenglai Liu,  E. Livshits,  A. Luenser,  P. Manohar,  
 E. Mansoor,  S. F. Manzer,  Shan-Ping Mao,  Yuezhi Mao,  N. Mardirossian,  
 A. V. Marenich,  T. Markovich,  L. A. Martinez-Martinez,  S. A. Maurer,  
 N. J. Mayhall,  S. C. McKenzie,  J.-M. Mewes,  A. F. Morrison,  
 J. W. Mullinax,  K. Nanda,  T. S. Nguyen-Beck,  R. Olivares-Amaya,  
 J. A. Parkhill,  T. M. Perrine,  F. Plasser,  P. Pokhilko,  S. Prager,  
 A. Prociuk,  E. Ramos,  D. R. Rehn,  F. Rob,  M. Schneider,  N. Sergueev,  
 S. M. Sharada,  S. Sharma,  D. W. Small,  T. Stauch,  T. Stein,  
 Yu-Chuan Su,  A. J. W. Thom,  A. Tkatchenko,  T. Tsuchimochi,  N. M. Tubman,  
 L. Vogt,  M. L. Vidal,  O. Vydrov,  M. A. Watson,  J. Wenzel,  
 M. de Wergifosse,  T. A. Wesolowski,  A. White,  J. Witte,  A. Yamada,  
 Jun Yang,  K. Yao,  S. Yeganeh,  S. R. Yost,  Zhi-Qiang You,  A. Zech,  
 Igor Ying Zhang,  Xing Zhang,  Yan Zhao,  Ying Zhu,  B. R. Brooks,  
 G. K. L. Chan,  C. J. Cramer,  M. S. Gordon,  W. J. Hehre,  A. Klamt,  
 M. W. Schmidt,  C. D. Sherrill,  D. G. Truhlar,  A. Aspuru-Guzik,  R. Baer,  
 A. T. Bell,  N. A. Besley,  Jeng-Da Chai,  A. E. DePrince, III,  
 R. A. DiStasio Jr.,  A. Dreuw,  B. D. Dunietz,  T. R. Furlani,  
 Chao-Ping Hsu,  Yousung Jung,  Jing Kong,  D. S. Lambrecht,  WanZhen Liang,  
 C. Ochsenfeld,  V. A. Rassolov,  L. V. Slipchenko,  J. E. Subotnik,  
 T. Van Voorhis,  J. M. Herbert,  A. I. Krylov,  P. M. W. Gill,  M. Head-Gordon

 Contributors to earlier versions of Q-Chem not listed above: 
 R. D. Adamson,  B. Austin,  J. Baker,  G. J. O. Beran,  K. Brandhorst,  
 S. T. Brown,  E. F. C. Byrd,  A. K. Chakraborty,  C.-L. Cheng,  
 Siu Hung Chien,  D. M. Chipman,  D. L. Crittenden,  H. Dachsel,  
 R. J. Doerksen,  A. D. Dutoi,  L. Fusti-Molnar,  W. A. Goddard III,  
 A. Golubeva-Zadorozhnaya,  S. R. Gwaltney,  G. Hawkins,  A. Heyden,  
 S. Hirata,  G. Kedziora,  F. J. Keil,  C. Kelley,  Jihan Kim,  R. A. King,  
 R. Z. Khaliullin,  P. P. Korambath,  W. Kurlancheek,  A. M. Lee,  M. S. Lee,  
 S. V. Levchenko,  Ching Yeh Lin,  D. Liotard,  R. C. Lochan,  I. Lotan,  
 P. E. Maslen,  N. Nair,  D. P. O'Neill,  D. Neuhauser,  E. Neuscamman,  
 C. M. Oana,  R. Olson,  B. Peters,  R. Peverati,  P. A. Pieniazek,  
 Y. M. Rhee,  J. Ritchie,  M. A. Rohrdanz,  E. Rosta,  N. J. Russ,  
 H. F. Schaefer III,  N. E. Schultz,  N. Shenvi,  A. C. Simmonett,  A. Sodt,  
 D. Stuck,  K. S. Thanthiriwatte,  V. Vanovschi,  Tao Wang,  A. Warshel,  
 C. F. Williams,  Q. Wu,  X. Xu,  W. Zhang

 Please cite Q-Chem as follows:
 Y. Shao et al., Mol. Phys. 113, 184-215 (2015)
 DOI: 10.1080/00268976.2014.952696

 Q-Chem 5.1.1 for Intel X86 EM64T Linux

 Parts of Q-Chem use Armadillo 8.300.2 (Tropical Shenanigans).
 http://arma.sourceforge.net/

 Q-Chem begins on Mon Jun 15 02:43:57 2020  

Host: n0046.mhg0
0

     Scratch files written to /local/scratch/users/yhljason/HF_hf_qz.inp20200614233340//
Input Ideriv = 2
Curr. Ideriv = -1
Max.  Ideriv = 2

Checking the input file for inconsistencies... 	...done.

--------------------------------------------------------------
User input:
--------------------------------------------------------------
$molecule
0 1
F       0.0000  0.0000  0.0000
H       0.0000  0.0000  0.9168
$end

$rem
jobtype sp
method HF
xc_grid 000099000590
basis aug-cc-pcVQZ
max_scf_cycles 200
thresh 14
scf_convergence 8
scf_algorithm gdm
symmetry false
sym_ignore true
unrestricted true
gen_scfman true
internal_stability_iter 15
internal_stability_davidson_iter 200
mem_total 64000
mem_static 1500
n_frozen_core 0
$end


--------------------------------------------------------------
 ----------------------------------------------------------------
             Standard Nuclear Orientation (Angstroms)
    I     Atom           X                Y                Z
 ----------------------------------------------------------------
    1      F       0.0000000000     0.0000000000     0.0000000000
    2      H       0.0000000000     0.0000000000     0.9168000000
 ----------------------------------------------------------------
 Nuclear Repulsion Energy =     5.1948024620 hartrees
 There are        5 alpha and        5 beta electrons
 Requested basis set is aug-cc-pCVQZ
 There are 43 shells and 155 basis functions

 Total QAlloc Memory Limit  64000 MB
 Mega-Array Size      1467 MB
 MEM_STATIC part      1500 MB

                       Distance Matrix (Angstroms)
             F (  1)
   H (  2)  0.916800
 
 A cutoff of  1.0D-14 yielded    946 shell pairs
 There are     12414 function pairs (     19566 Cartesian)
 
 -------------------------------------------------------
 OpenMP Integral Computing Module                       
 Release: version 1.0, May 2013, Q-Chem Inc. Pittsburgh 
 -------------------------------------------------------
 Integral Job Info:
 Integral job number is                      11
 Integral operator is                         1
 short-range coefficients                     0
 long-range coefficients              100000000
 Omega coefficients                           0
 if combine SR and LR in K                    0
 Integral screening is                        0
 Integral computing path is                   2
 max size of driver memory is           3200000
 size of driver memory is               1704330
 size of scratch memory is             18511652
 max col of scratch BK array              50625
 max len of scratch array in speh3         2114
 max len of scratch index in speh4           50
 max int batch size is                      520
 min int batch size is                       52
 fixed nKL is                                52
 max L of basis functions is                  4
 order of int derivative is                   0
 number of shells is                         43
 number of basis is                         194
 number of cartesian basis is               194
 number of contracted shell pairs           946
 number of primitive shell pairs           2057
 maxK2 (contraction) of shell pair           81
 max number of K2 of shell pair               1
 max number of CS2 of shell pair            121
 max number of PS2 of shell pair            243
 mem total for path MDJ                  621421
 -------------------------------------------------------
 Smallest overlap matrix eigenvalue = 1.13E-04

 Scale SEOQF with 1.000000e-01/1.000000e-01/1.000000e-01

 Standard Electronic Orientation quadrupole field applied
 Guess from superposition of atomic densities
 Warning:  Energy on first SCF cycle will be non-variational
 SAD guess density has 10.000000 electrons

 -----------------------------------------------------------------------
  General SCF calculation program by
  Eric Jon Sundstrom, Paul Horn, Yuezhi Mao, Dmitri Zuev, Alec White,
  David Stuck, Shaama M.S., Shane Yost, Joonho Lee, David Small,
  Daniel Levine, Susi Lehtola, Hugh Burton, Evgeny Epifanovsky
 -----------------------------------------------------------------------
Running Object-Oriented UHF
performing a single roothaan step with Fock from read density so that orbitals are available to all algorithms
energy of the guess density (C=0) -99.894319035132
We will preform up to 15 macro iterations over saddle points until a stable solution is found
Energy prior to optimization (guess energy) = -100.043398360072
Begin Timing: Total SCF Calculation
Begin Timing: SCF Single Stationary Point Calculation
begin iterations for algorithm: GDM          
the SCF tolerance is set to 1.00e-08
    1    -100.0433983601      6.59e-02     00000  Normal BFGS step
    2    -100.0623713687      3.77e-02     00000  Normal BFGS step
    3    -100.0685608933      2.90e-03     00000  Normal BFGS step
    4    -100.0686530458      1.13e-03     00000  Normal BFGS step
    5    -100.0686637620      1.81e-04     00000  Normal BFGS step
    6    -100.0686642622      5.01e-05     00000  Normal BFGS step
    7    -100.0686642893      8.62e-06     00000  Normal BFGS step
    8    -100.0686642899      1.22e-06     00000  Normal BFGS step
    9    -100.0686642899      1.92e-07     00000  Normal BFGS step
   10    -100.0686642899      3.28e-08     00000  Normal BFGS step
   11    -100.0686642899      4.62e-09     00000 Convergence criterion met
Timing for Single Stationary Point: 20.00s (wall), 161.32s (cpu)
Begin Timing: Stability
===================================================
Beginning Test for Internal Stability
===================================================
generating davidson guess vectors based on koopmans excitations
    1      2.60e+00     00000 Davidson Iteration
    2      3.23e+00     00000 Davidson Iteration
    3      4.26e-01     00000 Davidson Iteration
    4      1.16e-01     00000 Davidson Iteration
    5      5.73e-02     00000 Davidson Iteration
    6      2.67e-02     00000 Davidson Iteration
    7      9.80e-03     00000 Davidson Iteration
    8      2.89e-03     00000 Davidson Iteration
    9      7.15e-04     00000 Davidson Iteration
   10      2.19e-04     00000 Davidson Iteration
   11      1.48e-04     00000 Davidson Iteration
   12      1.09e-04     00000 Davidson Iteration
   13      3.93e-05     00000 Davidson Iteration
   14      1.13e-03     00000 Davidson Iteration
   15      5.94e-04     00000 Davidson Iteration
   16      1.01e-03     00000 Davidson Iteration
   17      3.58e-04     00000 Davidson Iteration
   18      4.28e-04     00000 Davidson Iteration
   19      5.28e-04     00000 Davidson Iteration
   20      3.38e-04     00000 Davidson Iteration
   21      4.60e-04     00000 Davidson Iteration
   22      1.71e-04     00000 Davidson Iteration
   23      7.20e-05     00000 Davidson Converged
converged_eigenvalues
   0.7513
   0.7513
Threshold for negative eigenvalues: -1.0e-05
solution was a local minimum (stable)
===================================================
End Test for Internal Stability
===================================================
Our SCF solution is stable!
Timing for Total SCF: 96.00s (wall), 764.39s (cpu)
 Total energy in the final basis set =     -100.0686642899
<S^2> =          0.000000000
    ==================================================
              The end of Object-Oriented SCFman       
    ==================================================
 
 --------------------------------------------------------------
 
                    Orbital Energies (a.u.)
 --------------------------------------------------------------
 
 Alpha MOs
 -- Occupied --
-26.296  -1.602  -0.768  -0.650  -0.650
 -- Virtual --
  0.028   0.115   0.171   0.171   0.180   0.224   0.224   0.244
  0.362   0.574   0.579   0.579   0.598   0.598   0.676   0.762
  0.771   0.771   0.777   0.777   0.855   0.855   0.936   1.243
  1.243   1.469   1.520   1.520   1.544   1.650   1.715   1.715
  1.780   1.780   2.016   2.016   2.078   2.078   2.103   2.103
  2.112   2.164   2.164   2.201   2.508   2.508   2.830   2.872
  2.872   3.145   3.200   3.200   3.216   3.216   3.820   4.598
  4.598   4.642   4.737   4.737   4.899   4.899   5.182   5.315
  5.315   5.448   5.448   5.576   5.576   5.632   5.632   5.743
  5.892   5.892   6.063   6.063   6.165   6.474   6.474   6.756
  6.789   6.789   7.894   7.894   7.996   7.996   8.047   8.748
  8.771   8.771   8.857   8.857  10.713  10.897  10.897  12.143
 12.629  12.629  13.676  13.676  13.772  13.772  14.039  14.039
 14.240  14.559  14.559  14.577  15.899  15.899  16.050  16.050
 16.452  16.452  16.833  16.833  16.967  17.945  17.945  20.167
 22.876  42.131  42.131  43.563  60.411  60.411  60.796  60.796
 61.906  80.651  98.126  98.126  98.144  98.144  98.228  98.228
 98.274 145.957 145.957 147.077 251.304 251.304 251.511 251.511
252.102 271.171 494.082 494.082 494.9851115.940
 
 Beta MOs
 -- Occupied --
-26.296  -1.602  -0.768  -0.650  -0.650
 -- Virtual --
  0.028   0.115   0.171   0.171   0.180   0.224   0.224   0.244
  0.362   0.574   0.579   0.579   0.598   0.598   0.676   0.762
  0.771   0.771   0.777   0.777   0.855   0.855   0.936   1.243
  1.243   1.469   1.520   1.520   1.544   1.650   1.715   1.715
  1.780   1.780   2.016   2.016   2.078   2.078   2.103   2.103
  2.112   2.164   2.164   2.201   2.508   2.508   2.830   2.872
  2.872   3.145   3.200   3.200   3.216   3.216   3.820   4.598
  4.598   4.642   4.737   4.737   4.899   4.899   5.182   5.315
  5.315   5.448   5.448   5.576   5.576   5.632   5.632   5.743
  5.892   5.892   6.063   6.063   6.165   6.474   6.474   6.756
  6.789   6.789   7.894   7.894   7.996   7.996   8.047   8.748
  8.771   8.771   8.857   8.857  10.713  10.897  10.897  12.143
 12.629  12.629  13.676  13.676  13.772  13.772  14.039  14.039
 14.240  14.559  14.559  14.577  15.899  15.899  16.050  16.050
 16.452  16.452  16.833  16.833  16.967  17.945  17.945  20.167
 22.876  42.131  42.131  43.563  60.411  60.411  60.796  60.796
 61.906  80.651  98.126  98.126  98.144  98.144  98.228  98.228
 98.274 145.957 145.957 147.077 251.304 251.304 251.511 251.511
252.102 271.171 494.082 494.082 494.9851115.940
 --------------------------------------------------------------
 
          Ground-State Mulliken Net Atomic Charges

     Atom                 Charge (a.u.)    Spin (a.u.)
  --------------------------------------------------------
      1 F                    -0.407407       0.000000
      2 H                     0.407407       0.000000
  --------------------------------------------------------
  Sum of atomic charges =     0.000000
  Sum of spin   charges =     0.000000

 -----------------------------------------------------------------
                    Cartesian Multipole Moments
 -----------------------------------------------------------------
    Charge (ESU x 10^10)
                -0.0000
    Dipole Moment (Debye)
         X      -0.0000      Y      -0.0000      Z       1.9219
       Tot       1.9219
    Quadrupole Moments (Debye-Ang)
        XX      -5.6897     XY      -0.0000     YY      -5.6897
        XZ      -0.0000     YZ      -0.0000     ZZ      -3.1793
    Octopole Moments (Debye-Ang^2)
       XXX      -0.0000    XXY      -0.0000    XYY      -0.0000
       YYY      -0.0000    XXZ      -0.3825    XYZ       0.0000
       YYZ      -0.3825    XZZ      -0.0000    YZZ      -0.0000
       ZZZ       1.0271
    Hexadecapole Moments (Debye-Ang^3)
      XXXX      -3.7787   XXXY      -0.0000   XXYY      -1.2596
      XYYY      -0.0000   YYYY      -3.7787   XXXZ      -0.0000
      XXYZ       0.0000   XYYZ       0.0000   YYYZ       0.0000
      XXZZ      -1.4429   XYZZ      -0.0000   YYZZ      -1.4429
      XZZZ       0.0000   YZZZ       0.0000   ZZZZ      -2.6440
 -----------------------------------------------------------------
Archival summary:
1\1\n0046.mhg0\SP\HF\BasisUnspecified\11\yhljason\MonJun1502:45:372020MonJun1502:45:372020\0\\#,HF,BasisUnspecified,\\0,1\F\H,1,0.9168\\HF=-100.068664\\@

 Total job time:  99.90s(wall), 791.15s(cpu) 
 Mon Jun 15 02:45:37 2020

        *************************************************************
        *                                                           *
        *  Thank you very much for using Q-Chem.  Have a nice day.  *
        *                                                           *
        *************************************************************


 
User input: 2 of 7 
 
Q-Chem Developer Version!
                  Welcome to Q-Chem
     A Quantum Leap Into The Future Of Chemistry


 Q-Chem 5.1, Q-Chem, Inc., Pleasanton, CA (2018)

 Yihan Shao,  Zhengting Gan,  E. Epifanovsky,  A. T. B. Gilbert,  M. Wormit,  
 J. Kussmann,  A. W. Lange,  A. Behn,  Jia Deng,  Xintian Feng,  D. Ghosh,  
 M. Goldey,  P. R. Horn,  L. D. Jacobson,  I. Kaliman,  T. Kus,  A. Landau,  
 Jie Liu,  E. I. Proynov,  R. M. Richard,  R. P. Steele,  E. J. Sundstrom,  
 H. L. Woodcock III,  P. M. Zimmerman,  D. Zuev,  B. Albrecht,  E. Alguire,  
 S. A. Baeppler,  D. Barton,  Z. Benda,  Y. A. Bernard,  E. J. Berquist,  
 K. B. Bravaya,  H. Burton,  D. Casanova,  Chun-Min Chang,  Yunqing Chen,  
 A. Chien,  K. D. Closser,  M. P. Coons,  S. Coriani,  S. Dasgupta,  
 A. L. Dempwolff,  M. Diedenhofen,  Hainam Do,  R. G. Edgar,  Po-Tung Fang,  
 S. Faraji,  S. Fatehi,  Qingguo Feng,  K. D. Fenk,  J. Fosso-Tande,  
 Qinghui Ge,  A. Ghysels,  G. Gidofalvi,  J. Gomes,  J. Gonthier,  A. Gunina,  
 D. Hait,  M. W. D. Hanson-Heine,  P. H. P. Harbach,  A. W. Hauser,  
 J. E. Herr,  E. G. Hohenstein,  Z. C. Holden,  Kerwin Hui,  B. C. Huynh,  
 T.-C. Jagau,  Hyunjun Ji,  B. Kaduk,  K. Khistyaev,  Jaehoon Kim,  
 P. Klunzinger,  K. Koh,  D. Kosenkov,  L. Koulias,  T. Kowalczyk,  
 C. M. Krauter,  A. Kunitsa,  Ka Un Lao,  A. Laurent,  K. V. Lawler,  
 Joonho Lee,  D. Lefrancois,  S. Lehtola,  D. S. Levine,  Yi-Pei Li,  
 You-Sheng Lin,  Fenglai Liu,  E. Livshits,  A. Luenser,  P. Manohar,  
 E. Mansoor,  S. F. Manzer,  Shan-Ping Mao,  Yuezhi Mao,  N. Mardirossian,  
 A. V. Marenich,  T. Markovich,  L. A. Martinez-Martinez,  S. A. Maurer,  
 N. J. Mayhall,  S. C. McKenzie,  J.-M. Mewes,  A. F. Morrison,  
 J. W. Mullinax,  K. Nanda,  T. S. Nguyen-Beck,  R. Olivares-Amaya,  
 J. A. Parkhill,  T. M. Perrine,  F. Plasser,  P. Pokhilko,  S. Prager,  
 A. Prociuk,  E. Ramos,  D. R. Rehn,  F. Rob,  M. Schneider,  N. Sergueev,  
 S. M. Sharada,  S. Sharma,  D. W. Small,  T. Stauch,  T. Stein,  
 Yu-Chuan Su,  A. J. W. Thom,  A. Tkatchenko,  T. Tsuchimochi,  N. M. Tubman,  
 L. Vogt,  M. L. Vidal,  O. Vydrov,  M. A. Watson,  J. Wenzel,  
 M. de Wergifosse,  T. A. Wesolowski,  A. White,  J. Witte,  A. Yamada,  
 Jun Yang,  K. Yao,  S. Yeganeh,  S. R. Yost,  Zhi-Qiang You,  A. Zech,  
 Igor Ying Zhang,  Xing Zhang,  Yan Zhao,  Ying Zhu,  B. R. Brooks,  
 G. K. L. Chan,  C. J. Cramer,  M. S. Gordon,  W. J. Hehre,  A. Klamt,  
 M. W. Schmidt,  C. D. Sherrill,  D. G. Truhlar,  A. Aspuru-Guzik,  R. Baer,  
 A. T. Bell,  N. A. Besley,  Jeng-Da Chai,  A. E. DePrince, III,  
 R. A. DiStasio Jr.,  A. Dreuw,  B. D. Dunietz,  T. R. Furlani,  
 Chao-Ping Hsu,  Yousung Jung,  Jing Kong,  D. S. Lambrecht,  WanZhen Liang,  
 C. Ochsenfeld,  V. A. Rassolov,  L. V. Slipchenko,  J. E. Subotnik,  
 T. Van Voorhis,  J. M. Herbert,  A. I. Krylov,  P. M. W. Gill,  M. Head-Gordon

 Contributors to earlier versions of Q-Chem not listed above: 
 R. D. Adamson,  B. Austin,  J. Baker,  G. J. O. Beran,  K. Brandhorst,  
 S. T. Brown,  E. F. C. Byrd,  A. K. Chakraborty,  C.-L. Cheng,  
 Siu Hung Chien,  D. M. Chipman,  D. L. Crittenden,  H. Dachsel,  
 R. J. Doerksen,  A. D. Dutoi,  L. Fusti-Molnar,  W. A. Goddard III,  
 A. Golubeva-Zadorozhnaya,  S. R. Gwaltney,  G. Hawkins,  A. Heyden,  
 S. Hirata,  G. Kedziora,  F. J. Keil,  C. Kelley,  Jihan Kim,  R. A. King,  
 R. Z. Khaliullin,  P. P. Korambath,  W. Kurlancheek,  A. M. Lee,  M. S. Lee,  
 S. V. Levchenko,  Ching Yeh Lin,  D. Liotard,  R. C. Lochan,  I. Lotan,  
 P. E. Maslen,  N. Nair,  D. P. O'Neill,  D. Neuhauser,  E. Neuscamman,  
 C. M. Oana,  R. Olson,  B. Peters,  R. Peverati,  P. A. Pieniazek,  
 Y. M. Rhee,  J. Ritchie,  M. A. Rohrdanz,  E. Rosta,  N. J. Russ,  
 H. F. Schaefer III,  N. E. Schultz,  N. Shenvi,  A. C. Simmonett,  A. Sodt,  
 D. Stuck,  K. S. Thanthiriwatte,  V. Vanovschi,  Tao Wang,  A. Warshel,  
 C. F. Williams,  Q. Wu,  X. Xu,  W. Zhang

 Please cite Q-Chem as follows:
 Y. Shao et al., Mol. Phys. 113, 184-215 (2015)
 DOI: 10.1080/00268976.2014.952696

 Q-Chem 5.1.1 for Intel X86 EM64T Linux

 Parts of Q-Chem use Armadillo 8.300.2 (Tropical Shenanigans).
 http://arma.sourceforge.net/

 Q-Chem begins on Mon Jun 15 02:45:37 2020  

Host: n0046.mhg0
0

     Scratch files written to /local/scratch/users/yhljason/HF_hf_qz.inp20200614233340//
The previous job contains 0 fragments, simply inherited here
Input Ideriv = 2
Curr. Ideriv = -1
Max.  Ideriv = 2

Checking the input file for inconsistencies... 	...done.

--------------------------------------------------------------
User input:
--------------------------------------------------------------
$molecule
read
$end

$rem

jobtype sp
method HF
xc_grid 000099000590
basis aug-cc-pcVQZ
max_scf_cycles 200
thresh 14
scf_convergence 8
mem_total 64000
mem_static 1500
symmetry false
sym_ignore true
scf_guess read
unrestricted true
scf_algorithm gdm
$end

$multipole_field
XX 0.0001
$end

--------------------------------------------------------------
 ----------------------------------------------------------------
             Standard Nuclear Orientation (Angstroms)
    I     Atom           X                Y                Z
 ----------------------------------------------------------------
    1      F       0.0000000000     0.0000000000     0.0000000000
    2      H       0.0000000000     0.0000000000     0.9168000000
 ----------------------------------------------------------------
 Nuclear Repulsion Energy =     5.1948024620 hartrees
 There are        5 alpha and        5 beta electrons
 Requested basis set is aug-cc-pCVQZ
 There are 43 shells and 155 basis functions

 Total QAlloc Memory Limit  64000 MB
 Mega-Array Size      1467 MB
 MEM_STATIC part      1500 MB

                       Distance Matrix (Angstroms)
             F (  1)
   H (  2)  0.916800
 
 Applying Cartesian multipole field
    Component          Value
    ---------          -----
     (2,0,0)        1.00000E-04
 A cutoff of  1.0D-14 yielded    946 shell pairs
 There are     12414 function pairs (     19566 Cartesian)
 
 -------------------------------------------------------
 OpenMP Integral Computing Module                       
 Release: version 1.0, May 2013, Q-Chem Inc. Pittsburgh 
 -------------------------------------------------------
 Integral Job Info:
 Integral job number is                      11
 Integral operator is                         1
 short-range coefficients                     0
 long-range coefficients              100000000
 Omega coefficients                           0
 if combine SR and LR in K                    0
 Integral screening is                        0
 Integral computing path is                   2
 max size of driver memory is           3200000
 size of driver memory is               1704330
 size of scratch memory is             18511652
 max col of scratch BK array              50625
 max len of scratch array in speh3         2114
 max len of scratch index in speh4           50
 max int batch size is                      520
 min int batch size is                       52
 fixed nKL is                                52
 max L of basis functions is                  4
 order of int derivative is                   0
 number of shells is                         43
 number of basis is                         194
 number of cartesian basis is               194
 number of contracted shell pairs           946
 number of primitive shell pairs           2057
 maxK2 (contraction) of shell pair           81
 max number of K2 of shell pair               1
 max number of CS2 of shell pair            121
 max number of PS2 of shell pair            243
 mem total for path MDJ                  621421
 -------------------------------------------------------
 Smallest overlap matrix eigenvalue = 1.13E-04
 Guess MOs from SCF MO coefficient file

 -----------------------------------------------------------------------
  General SCF calculation program by
  Eric Jon Sundstrom, Paul Horn, Yuezhi Mao, Dmitri Zuev, Alec White,
  David Stuck, Shaama M.S., Shane Yost, Joonho Lee, David Small,
  Daniel Levine, Susi Lehtola, Hugh Burton, Evgeny Epifanovsky
 -----------------------------------------------------------------------
 Hartree-Fock
 using 8 threads for integral computing
 -------------------------------------------------------
 OpenMP Integral computing Module                
 Release: version 2.0, May 2017, Q-Chem Inc. Pleasanton 
 -------------------------------------------------------
 A unrestricted SCF calculation will be
 performed using GDM
 SCF converges when RMS gradient is below 1.0e-08
 ---------------------------------------
  Cycle       Energy        RMS Gradient
 ---------------------------------------
    1    -100.0690873039      1.51e-04   Normal BFGS step
    2    -100.0690873549      3.67e-05   Normal BFGS step
    3    -100.0690873622      9.57e-06   Normal BFGS step
    4    -100.0690873628      2.68e-06   Normal BFGS step
    5    -100.0690873628      3.20e-07   Normal BFGS step
    6    -100.0690873628      5.84e-08   Normal BFGS step
    7    -100.0690873628      1.32e-08   Normal BFGS step
    8    -100.0690873628      4.45e-09  Convergence criterion met
 ---------------------------------------
 SCF time:   CPU 123.68s  wall 15.00s 
<S^2> =         -0.000000000
 SCF   energy in the final basis set =     -100.0690873628
 Total energy in the final basis set =     -100.0690873628
 
 --------------------------------------------------------------
 
                    Orbital Energies (a.u.)
 --------------------------------------------------------------
 
 Alpha MOs
 -- Occupied --
-26.296  -1.602  -0.769  -0.651  -0.651
 -- Virtual --
  0.027   0.114   0.170   0.171   0.179   0.223   0.223   0.243
  0.362   0.573   0.579   0.579   0.597   0.598   0.675   0.762
  0.770   0.770   0.776   0.776   0.855   0.855   0.936   1.243
  1.243   1.469   1.520   1.520   1.544   1.650   1.715   1.715
  1.780   1.780   2.016   2.016   2.078   2.078   2.103   2.103
  2.112   2.164   2.164   2.201   2.508   2.508   2.830   2.872
  2.872   3.145   3.199   3.200   3.216   3.216   3.819   4.598
  4.598   4.642   4.737   4.737   4.899   4.899   5.182   5.315
  5.315   5.448   5.448   5.576   5.576   5.632   5.632   5.743
  5.892   5.892   6.062   6.062   6.164   6.474   6.474   6.756
  6.789   6.789   7.894   7.894   7.996   7.996   8.047   8.748
  8.771   8.771   8.857   8.857  10.713  10.896  10.896  12.143
 12.629  12.629  13.676  13.676  13.772  13.772  14.038  14.038
 14.240  14.559  14.559  14.577  15.899  15.899  16.050  16.050
 16.451  16.451  16.833  16.833  16.966  17.945  17.945  20.166
 22.876  42.131  42.131  43.563  60.411  60.411  60.796  60.796
 61.905  80.650  98.126  98.126  98.144  98.144  98.228  98.228
 98.274 145.957 145.957 147.077 251.304 251.304 251.511 251.511
252.102 271.171 494.082 494.082 494.9851115.940
 
 Beta MOs
 -- Occupied --
-26.296  -1.602  -0.769  -0.651  -0.651
 -- Virtual --
  0.027   0.114   0.170   0.171   0.179   0.223   0.223   0.243
  0.362   0.573   0.579   0.579   0.597   0.598   0.675   0.762
  0.770   0.770   0.776   0.776   0.855   0.855   0.936   1.243
  1.243   1.469   1.520   1.520   1.544   1.650   1.715   1.715
  1.780   1.780   2.016   2.016   2.078   2.078   2.103   2.103
  2.112   2.164   2.164   2.201   2.508   2.508   2.830   2.872
  2.872   3.145   3.199   3.200   3.216   3.216   3.819   4.598
  4.598   4.642   4.737   4.737   4.899   4.899   5.182   5.315
  5.315   5.448   5.448   5.576   5.576   5.632   5.632   5.743
  5.892   5.892   6.062   6.062   6.164   6.474   6.474   6.756
  6.789   6.789   7.894   7.894   7.996   7.996   8.047   8.748
  8.771   8.771   8.857   8.857  10.713  10.896  10.896  12.143
 12.629  12.629  13.676  13.676  13.772  13.772  14.038  14.038
 14.240  14.559  14.559  14.577  15.899  15.899  16.050  16.050
 16.451  16.451  16.833  16.833  16.966  17.945  17.945  20.166
 22.876  42.131  42.131  43.563  60.411  60.411  60.796  60.796
 61.905  80.650  98.126  98.126  98.144  98.144  98.228  98.228
 98.274 145.957 145.957 147.077 251.304 251.304 251.511 251.511
252.102 271.171 494.082 494.082 494.9851115.940
 --------------------------------------------------------------
 
          Ground-State Mulliken Net Atomic Charges

     Atom                 Charge (a.u.)    Spin (a.u.)
  --------------------------------------------------------
      1 F                    -0.407533       0.000000
      2 H                     0.407533       0.000000
  --------------------------------------------------------
  Sum of atomic charges =    -0.000000
  Sum of spin   charges =     0.000000

 -----------------------------------------------------------------
                    Cartesian Multipole Moments
 -----------------------------------------------------------------
    Charge (ESU x 10^10)
                -0.0000
    Dipole Moment (Debye)
         X      -0.0000      Y       0.0000      Z       1.9219
       Tot       1.9219
    Quadrupole Moments (Debye-Ang)
        XX      -5.6913     XY      -0.0000     YY      -5.6901
        XZ       0.0000     YZ       0.0000     ZZ      -3.1795
    Octopole Moments (Debye-Ang^2)
       XXX      -0.0000    XXY       0.0000    XYY      -0.0000
       YYY       0.0000    XXZ      -0.3827    XYZ      -0.0000
       YYZ      -0.3825    XZZ       0.0000    YZZ       0.0000
       ZZZ       1.0272
    Hexadecapole Moments (Debye-Ang^3)
      XXXX      -3.7827   XXXY      -0.0000   XXYY      -1.2604
      XYYY      -0.0000   YYYY      -3.7798   XXXZ       0.0000
      XXYZ      -0.0000   XYYZ       0.0000   YYYZ      -0.0000
      XXZZ      -1.4437   XYZZ      -0.0000   YYZZ      -1.4432
      XZZZ       0.0000   YZZZ       0.0000   ZZZZ      -2.6446
 -----------------------------------------------------------------
Archival summary:
1\1\n0046.mhg0\SP\HF\BasisUnspecified\11\yhljason\MonJun1502:45:542020MonJun1502:45:542020\0\\#,HF,BasisUnspecified,\\0,1\F\H,1,0.9168\\HF=-100.069087\\@

 Total job time:  16.63s(wall), 128.37s(cpu) 
 Mon Jun 15 02:45:54 2020

        *************************************************************
        *                                                           *
        *  Thank you very much for using Q-Chem.  Have a nice day.  *
        *                                                           *
        *************************************************************


 
User input: 3 of 7 
 
Q-Chem Developer Version!
                  Welcome to Q-Chem
     A Quantum Leap Into The Future Of Chemistry


 Q-Chem 5.1, Q-Chem, Inc., Pleasanton, CA (2018)

 Yihan Shao,  Zhengting Gan,  E. Epifanovsky,  A. T. B. Gilbert,  M. Wormit,  
 J. Kussmann,  A. W. Lange,  A. Behn,  Jia Deng,  Xintian Feng,  D. Ghosh,  
 M. Goldey,  P. R. Horn,  L. D. Jacobson,  I. Kaliman,  T. Kus,  A. Landau,  
 Jie Liu,  E. I. Proynov,  R. M. Richard,  R. P. Steele,  E. J. Sundstrom,  
 H. L. Woodcock III,  P. M. Zimmerman,  D. Zuev,  B. Albrecht,  E. Alguire,  
 S. A. Baeppler,  D. Barton,  Z. Benda,  Y. A. Bernard,  E. J. Berquist,  
 K. B. Bravaya,  H. Burton,  D. Casanova,  Chun-Min Chang,  Yunqing Chen,  
 A. Chien,  K. D. Closser,  M. P. Coons,  S. Coriani,  S. Dasgupta,  
 A. L. Dempwolff,  M. Diedenhofen,  Hainam Do,  R. G. Edgar,  Po-Tung Fang,  
 S. Faraji,  S. Fatehi,  Qingguo Feng,  K. D. Fenk,  J. Fosso-Tande,  
 Qinghui Ge,  A. Ghysels,  G. Gidofalvi,  J. Gomes,  J. Gonthier,  A. Gunina,  
 D. Hait,  M. W. D. Hanson-Heine,  P. H. P. Harbach,  A. W. Hauser,  
 J. E. Herr,  E. G. Hohenstein,  Z. C. Holden,  Kerwin Hui,  B. C. Huynh,  
 T.-C. Jagau,  Hyunjun Ji,  B. Kaduk,  K. Khistyaev,  Jaehoon Kim,  
 P. Klunzinger,  K. Koh,  D. Kosenkov,  L. Koulias,  T. Kowalczyk,  
 C. M. Krauter,  A. Kunitsa,  Ka Un Lao,  A. Laurent,  K. V. Lawler,  
 Joonho Lee,  D. Lefrancois,  S. Lehtola,  D. S. Levine,  Yi-Pei Li,  
 You-Sheng Lin,  Fenglai Liu,  E. Livshits,  A. Luenser,  P. Manohar,  
 E. Mansoor,  S. F. Manzer,  Shan-Ping Mao,  Yuezhi Mao,  N. Mardirossian,  
 A. V. Marenich,  T. Markovich,  L. A. Martinez-Martinez,  S. A. Maurer,  
 N. J. Mayhall,  S. C. McKenzie,  J.-M. Mewes,  A. F. Morrison,  
 J. W. Mullinax,  K. Nanda,  T. S. Nguyen-Beck,  R. Olivares-Amaya,  
 J. A. Parkhill,  T. M. Perrine,  F. Plasser,  P. Pokhilko,  S. Prager,  
 A. Prociuk,  E. Ramos,  D. R. Rehn,  F. Rob,  M. Schneider,  N. Sergueev,  
 S. M. Sharada,  S. Sharma,  D. W. Small,  T. Stauch,  T. Stein,  
 Yu-Chuan Su,  A. J. W. Thom,  A. Tkatchenko,  T. Tsuchimochi,  N. M. Tubman,  
 L. Vogt,  M. L. Vidal,  O. Vydrov,  M. A. Watson,  J. Wenzel,  
 M. de Wergifosse,  T. A. Wesolowski,  A. White,  J. Witte,  A. Yamada,  
 Jun Yang,  K. Yao,  S. Yeganeh,  S. R. Yost,  Zhi-Qiang You,  A. Zech,  
 Igor Ying Zhang,  Xing Zhang,  Yan Zhao,  Ying Zhu,  B. R. Brooks,  
 G. K. L. Chan,  C. J. Cramer,  M. S. Gordon,  W. J. Hehre,  A. Klamt,  
 M. W. Schmidt,  C. D. Sherrill,  D. G. Truhlar,  A. Aspuru-Guzik,  R. Baer,  
 A. T. Bell,  N. A. Besley,  Jeng-Da Chai,  A. E. DePrince, III,  
 R. A. DiStasio Jr.,  A. Dreuw,  B. D. Dunietz,  T. R. Furlani,  
 Chao-Ping Hsu,  Yousung Jung,  Jing Kong,  D. S. Lambrecht,  WanZhen Liang,  
 C. Ochsenfeld,  V. A. Rassolov,  L. V. Slipchenko,  J. E. Subotnik,  
 T. Van Voorhis,  J. M. Herbert,  A. I. Krylov,  P. M. W. Gill,  M. Head-Gordon

 Contributors to earlier versions of Q-Chem not listed above: 
 R. D. Adamson,  B. Austin,  J. Baker,  G. J. O. Beran,  K. Brandhorst,  
 S. T. Brown,  E. F. C. Byrd,  A. K. Chakraborty,  C.-L. Cheng,  
 Siu Hung Chien,  D. M. Chipman,  D. L. Crittenden,  H. Dachsel,  
 R. J. Doerksen,  A. D. Dutoi,  L. Fusti-Molnar,  W. A. Goddard III,  
 A. Golubeva-Zadorozhnaya,  S. R. Gwaltney,  G. Hawkins,  A. Heyden,  
 S. Hirata,  G. Kedziora,  F. J. Keil,  C. Kelley,  Jihan Kim,  R. A. King,  
 R. Z. Khaliullin,  P. P. Korambath,  W. Kurlancheek,  A. M. Lee,  M. S. Lee,  
 S. V. Levchenko,  Ching Yeh Lin,  D. Liotard,  R. C. Lochan,  I. Lotan,  
 P. E. Maslen,  N. Nair,  D. P. O'Neill,  D. Neuhauser,  E. Neuscamman,  
 C. M. Oana,  R. Olson,  B. Peters,  R. Peverati,  P. A. Pieniazek,  
 Y. M. Rhee,  J. Ritchie,  M. A. Rohrdanz,  E. Rosta,  N. J. Russ,  
 H. F. Schaefer III,  N. E. Schultz,  N. Shenvi,  A. C. Simmonett,  A. Sodt,  
 D. Stuck,  K. S. Thanthiriwatte,  V. Vanovschi,  Tao Wang,  A. Warshel,  
 C. F. Williams,  Q. Wu,  X. Xu,  W. Zhang

 Please cite Q-Chem as follows:
 Y. Shao et al., Mol. Phys. 113, 184-215 (2015)
 DOI: 10.1080/00268976.2014.952696

 Q-Chem 5.1.1 for Intel X86 EM64T Linux

 Parts of Q-Chem use Armadillo 8.300.2 (Tropical Shenanigans).
 http://arma.sourceforge.net/

 Q-Chem begins on Mon Jun 15 02:45:54 2020  

Host: n0046.mhg0
0

     Scratch files written to /local/scratch/users/yhljason/HF_hf_qz.inp20200614233340//
The previous job contains 0 fragments, simply inherited here
Input Ideriv = 2
Curr. Ideriv = -1
Max.  Ideriv = 2

Checking the input file for inconsistencies... 	...done.

--------------------------------------------------------------
User input:
--------------------------------------------------------------
$molecule
read
$end

$rem

jobtype sp
method HF
xc_grid 000099000590
basis aug-cc-pcVQZ
max_scf_cycles 200
thresh 14
scf_convergence 8
mem_total 64000
mem_static 1500
symmetry false
sym_ignore true
scf_guess read
unrestricted true
scf_algorithm gdm
$end

$multipole_field
XX -0.0001
$end

--------------------------------------------------------------
 ----------------------------------------------------------------
             Standard Nuclear Orientation (Angstroms)
    I     Atom           X                Y                Z
 ----------------------------------------------------------------
    1      F       0.0000000000     0.0000000000     0.0000000000
    2      H       0.0000000000     0.0000000000     0.9168000000
 ----------------------------------------------------------------
 Nuclear Repulsion Energy =     5.1948024620 hartrees
 There are        5 alpha and        5 beta electrons
 Requested basis set is aug-cc-pCVQZ
 There are 43 shells and 155 basis functions

 Total QAlloc Memory Limit  64000 MB
 Mega-Array Size      1467 MB
 MEM_STATIC part      1500 MB

                       Distance Matrix (Angstroms)
             F (  1)
   H (  2)  0.916800
 
 Applying Cartesian multipole field
    Component          Value
    ---------          -----
     (2,0,0)       -1.00000E-04
 A cutoff of  1.0D-14 yielded    946 shell pairs
 There are     12414 function pairs (     19566 Cartesian)
 
 -------------------------------------------------------
 OpenMP Integral Computing Module                       
 Release: version 1.0, May 2013, Q-Chem Inc. Pittsburgh 
 -------------------------------------------------------
 Integral Job Info:
 Integral job number is                      11
 Integral operator is                         1
 short-range coefficients                     0
 long-range coefficients              100000000
 Omega coefficients                           0
 if combine SR and LR in K                    0
 Integral screening is                        0
 Integral computing path is                   2
 max size of driver memory is           3200000
 size of driver memory is               1704330
 size of scratch memory is             18511652
 max col of scratch BK array              50625
 max len of scratch array in speh3         2114
 max len of scratch index in speh4           50
 max int batch size is                      520
 min int batch size is                       52
 fixed nKL is                                52
 max L of basis functions is                  4
 order of int derivative is                   0
 number of shells is                         43
 number of basis is                         194
 number of cartesian basis is               194
 number of contracted shell pairs           946
 number of primitive shell pairs           2057
 maxK2 (contraction) of shell pair           81
 max number of K2 of shell pair               1
 max number of CS2 of shell pair            121
 max number of PS2 of shell pair            243
 mem total for path MDJ                  621421
 -------------------------------------------------------
 Smallest overlap matrix eigenvalue = 1.13E-04
 Guess MOs from SCF MO coefficient file

 -----------------------------------------------------------------------
  General SCF calculation program by
  Eric Jon Sundstrom, Paul Horn, Yuezhi Mao, Dmitri Zuev, Alec White,
  David Stuck, Shaama M.S., Shane Yost, Joonho Lee, David Small,
  Daniel Levine, Susi Lehtola, Hugh Burton, Evgeny Epifanovsky
 -----------------------------------------------------------------------
 Hartree-Fock
 using 8 threads for integral computing
 -------------------------------------------------------
 OpenMP Integral computing Module                
 Release: version 2.0, May 2017, Q-Chem Inc. Pleasanton 
 -------------------------------------------------------
 A unrestricted SCF calculation will be
 performed using GDM
 SCF converges when RMS gradient is below 1.0e-08
 ---------------------------------------
  Cycle       Energy        RMS Gradient
 ---------------------------------------
    1    -100.0682410990      3.02e-04   Normal BFGS step
    2    -100.0682413030      7.33e-05   Normal BFGS step
    3    -100.0682413322      1.91e-05   Normal BFGS step
    4    -100.0682413344      5.37e-06   Normal BFGS step
    5    -100.0682413346      6.41e-07   Normal BFGS step
    6    -100.0682413346      1.15e-07   Normal BFGS step
    7    -100.0682413346      2.66e-08   Normal BFGS step
    8    -100.0682413346      8.92e-09  Convergence criterion met
 ---------------------------------------
 SCF time:   CPU 124.54s  wall 16.00s 
<S^2> =         -0.000000000
 SCF   energy in the final basis set =     -100.0682413346
 Total energy in the final basis set =     -100.0682413346
 
 --------------------------------------------------------------
 
                    Orbital Energies (a.u.)
 --------------------------------------------------------------
 
 Alpha MOs
 -- Occupied --
-26.296  -1.601  -0.768  -0.650  -0.650
 -- Virtual --
  0.030   0.116   0.172   0.173   0.180   0.224   0.225   0.244
  0.363   0.574   0.579   0.579   0.599   0.599   0.676   0.763
  0.771   0.771   0.777   0.777   0.856   0.856   0.937   1.244
  1.244   1.469   1.521   1.521   1.544   1.650   1.715   1.715
  1.780   1.781   2.017   2.017   2.078   2.078   2.104   2.104
  2.112   2.165   2.165   2.201   2.509   2.509   2.830   2.872
  2.872   3.145   3.200   3.200   3.216   3.216   3.820   4.598
  4.598   4.642   4.738   4.738   4.899   4.899   5.182   5.316
  5.316   5.448   5.448   5.576   5.576   5.632   5.632   5.743
  5.893   5.893   6.063   6.063   6.165   6.475   6.475   6.757
  6.789   6.789   7.894   7.894   7.997   7.997   8.047   8.748
  8.771   8.771   8.858   8.858  10.713  10.897  10.897  12.143
 12.630  12.630  13.676  13.676  13.772  13.772  14.039  14.039
 14.241  14.559  14.559  14.577  15.899  15.899  16.050  16.050
 16.452  16.452  16.833  16.833  16.967  17.945  17.945  20.167
 22.876  42.131  42.131  43.563  60.412  60.412  60.797  60.797
 61.906  80.651  98.127  98.127  98.144  98.144  98.228  98.228
 98.274 145.957 145.957 147.077 251.305 251.305 251.511 251.511
252.102 271.171 494.082 494.082 494.9861115.940
 
 Beta MOs
 -- Occupied --
-26.296  -1.601  -0.768  -0.650  -0.650
 -- Virtual --
  0.030   0.116   0.172   0.173   0.180   0.224   0.225   0.244
  0.363   0.574   0.579   0.579   0.599   0.599   0.676   0.763
  0.771   0.771   0.777   0.777   0.856   0.856   0.937   1.244
  1.244   1.469   1.521   1.521   1.544   1.650   1.715   1.715
  1.780   1.781   2.017   2.017   2.078   2.078   2.104   2.104
  2.112   2.165   2.165   2.201   2.509   2.509   2.830   2.872
  2.872   3.145   3.200   3.200   3.216   3.216   3.820   4.598
  4.598   4.642   4.738   4.738   4.899   4.899   5.182   5.316
  5.316   5.448   5.448   5.576   5.576   5.632   5.632   5.743
  5.893   5.893   6.063   6.063   6.165   6.475   6.475   6.757
  6.789   6.789   7.894   7.894   7.997   7.997   8.047   8.748
  8.771   8.771   8.858   8.858  10.713  10.897  10.897  12.143
 12.630  12.630  13.676  13.676  13.772  13.772  14.039  14.039
 14.241  14.559  14.559  14.577  15.899  15.899  16.050  16.050
 16.452  16.452  16.833  16.833  16.967  17.945  17.945  20.167
 22.876  42.131  42.131  43.563  60.412  60.412  60.797  60.797
 61.906  80.651  98.127  98.127  98.144  98.144  98.228  98.228
 98.274 145.957 145.957 147.077 251.305 251.305 251.511 251.511
252.102 271.171 494.082 494.082 494.9861115.940
 --------------------------------------------------------------
 
          Ground-State Mulliken Net Atomic Charges

     Atom                 Charge (a.u.)    Spin (a.u.)
  --------------------------------------------------------
      1 F                    -0.407281       0.000000
      2 H                     0.407281       0.000000
  --------------------------------------------------------
  Sum of atomic charges =    -0.000000
  Sum of spin   charges =     0.000000

 -----------------------------------------------------------------
                    Cartesian Multipole Moments
 -----------------------------------------------------------------
    Charge (ESU x 10^10)
                -0.0000
    Dipole Moment (Debye)
         X       0.0000      Y      -0.0000      Z       1.9218
       Tot       1.9218
    Quadrupole Moments (Debye-Ang)
        XX      -5.6881     XY       0.0000     YY      -5.6893
        XZ       0.0000     YZ       0.0000     ZZ      -3.1791
    Octopole Moments (Debye-Ang^2)
       XXX       0.0000    XXY      -0.0000    XYY       0.0000
       YYY      -0.0000    XXZ      -0.3823    XYZ       0.0000
       YYZ      -0.3825    XZZ       0.0000    YZZ       0.0000
       ZZZ       1.0270
    Hexadecapole Moments (Debye-Ang^3)
      XXXX      -3.7746   XXXY       0.0000   XXYY      -1.2587
      XYYY       0.0000   YYYY      -3.7775   XXXZ       0.0000
      XXYZ      -0.0000   XYYZ       0.0000   YYYZ      -0.0000
      XXZZ      -1.4420   XYZZ       0.0000   YYZZ      -1.4426
      XZZZ       0.0000   YZZZ       0.0000   ZZZZ      -2.6435
 -----------------------------------------------------------------
Archival summary:
1\1\n0046.mhg0\SP\HF\BasisUnspecified\11\yhljason\MonJun1502:46:102020MonJun1502:46:102020\0\\#,HF,BasisUnspecified,\\0,1\F\H,1,0.9168\\HF=-100.068241\\@

 Total job time:  16.41s(wall), 128.71s(cpu) 
 Mon Jun 15 02:46:10 2020

        *************************************************************
        *                                                           *
        *  Thank you very much for using Q-Chem.  Have a nice day.  *
        *                                                           *
        *************************************************************


 
User input: 4 of 7 
 
Q-Chem Developer Version!
                  Welcome to Q-Chem
     A Quantum Leap Into The Future Of Chemistry


 Q-Chem 5.1, Q-Chem, Inc., Pleasanton, CA (2018)

 Yihan Shao,  Zhengting Gan,  E. Epifanovsky,  A. T. B. Gilbert,  M. Wormit,  
 J. Kussmann,  A. W. Lange,  A. Behn,  Jia Deng,  Xintian Feng,  D. Ghosh,  
 M. Goldey,  P. R. Horn,  L. D. Jacobson,  I. Kaliman,  T. Kus,  A. Landau,  
 Jie Liu,  E. I. Proynov,  R. M. Richard,  R. P. Steele,  E. J. Sundstrom,  
 H. L. Woodcock III,  P. M. Zimmerman,  D. Zuev,  B. Albrecht,  E. Alguire,  
 S. A. Baeppler,  D. Barton,  Z. Benda,  Y. A. Bernard,  E. J. Berquist,  
 K. B. Bravaya,  H. Burton,  D. Casanova,  Chun-Min Chang,  Yunqing Chen,  
 A. Chien,  K. D. Closser,  M. P. Coons,  S. Coriani,  S. Dasgupta,  
 A. L. Dempwolff,  M. Diedenhofen,  Hainam Do,  R. G. Edgar,  Po-Tung Fang,  
 S. Faraji,  S. Fatehi,  Qingguo Feng,  K. D. Fenk,  J. Fosso-Tande,  
 Qinghui Ge,  A. Ghysels,  G. Gidofalvi,  J. Gomes,  J. Gonthier,  A. Gunina,  
 D. Hait,  M. W. D. Hanson-Heine,  P. H. P. Harbach,  A. W. Hauser,  
 J. E. Herr,  E. G. Hohenstein,  Z. C. Holden,  Kerwin Hui,  B. C. Huynh,  
 T.-C. Jagau,  Hyunjun Ji,  B. Kaduk,  K. Khistyaev,  Jaehoon Kim,  
 P. Klunzinger,  K. Koh,  D. Kosenkov,  L. Koulias,  T. Kowalczyk,  
 C. M. Krauter,  A. Kunitsa,  Ka Un Lao,  A. Laurent,  K. V. Lawler,  
 Joonho Lee,  D. Lefrancois,  S. Lehtola,  D. S. Levine,  Yi-Pei Li,  
 You-Sheng Lin,  Fenglai Liu,  E. Livshits,  A. Luenser,  P. Manohar,  
 E. Mansoor,  S. F. Manzer,  Shan-Ping Mao,  Yuezhi Mao,  N. Mardirossian,  
 A. V. Marenich,  T. Markovich,  L. A. Martinez-Martinez,  S. A. Maurer,  
 N. J. Mayhall,  S. C. McKenzie,  J.-M. Mewes,  A. F. Morrison,  
 J. W. Mullinax,  K. Nanda,  T. S. Nguyen-Beck,  R. Olivares-Amaya,  
 J. A. Parkhill,  T. M. Perrine,  F. Plasser,  P. Pokhilko,  S. Prager,  
 A. Prociuk,  E. Ramos,  D. R. Rehn,  F. Rob,  M. Schneider,  N. Sergueev,  
 S. M. Sharada,  S. Sharma,  D. W. Small,  T. Stauch,  T. Stein,  
 Yu-Chuan Su,  A. J. W. Thom,  A. Tkatchenko,  T. Tsuchimochi,  N. M. Tubman,  
 L. Vogt,  M. L. Vidal,  O. Vydrov,  M. A. Watson,  J. Wenzel,  
 M. de Wergifosse,  T. A. Wesolowski,  A. White,  J. Witte,  A. Yamada,  
 Jun Yang,  K. Yao,  S. Yeganeh,  S. R. Yost,  Zhi-Qiang You,  A. Zech,  
 Igor Ying Zhang,  Xing Zhang,  Yan Zhao,  Ying Zhu,  B. R. Brooks,  
 G. K. L. Chan,  C. J. Cramer,  M. S. Gordon,  W. J. Hehre,  A. Klamt,  
 M. W. Schmidt,  C. D. Sherrill,  D. G. Truhlar,  A. Aspuru-Guzik,  R. Baer,  
 A. T. Bell,  N. A. Besley,  Jeng-Da Chai,  A. E. DePrince, III,  
 R. A. DiStasio Jr.,  A. Dreuw,  B. D. Dunietz,  T. R. Furlani,  
 Chao-Ping Hsu,  Yousung Jung,  Jing Kong,  D. S. Lambrecht,  WanZhen Liang,  
 C. Ochsenfeld,  V. A. Rassolov,  L. V. Slipchenko,  J. E. Subotnik,  
 T. Van Voorhis,  J. M. Herbert,  A. I. Krylov,  P. M. W. Gill,  M. Head-Gordon

 Contributors to earlier versions of Q-Chem not listed above: 
 R. D. Adamson,  B. Austin,  J. Baker,  G. J. O. Beran,  K. Brandhorst,  
 S. T. Brown,  E. F. C. Byrd,  A. K. Chakraborty,  C.-L. Cheng,  
 Siu Hung Chien,  D. M. Chipman,  D. L. Crittenden,  H. Dachsel,  
 R. J. Doerksen,  A. D. Dutoi,  L. Fusti-Molnar,  W. A. Goddard III,  
 A. Golubeva-Zadorozhnaya,  S. R. Gwaltney,  G. Hawkins,  A. Heyden,  
 S. Hirata,  G. Kedziora,  F. J. Keil,  C. Kelley,  Jihan Kim,  R. A. King,  
 R. Z. Khaliullin,  P. P. Korambath,  W. Kurlancheek,  A. M. Lee,  M. S. Lee,  
 S. V. Levchenko,  Ching Yeh Lin,  D. Liotard,  R. C. Lochan,  I. Lotan,  
 P. E. Maslen,  N. Nair,  D. P. O'Neill,  D. Neuhauser,  E. Neuscamman,  
 C. M. Oana,  R. Olson,  B. Peters,  R. Peverati,  P. A. Pieniazek,  
 Y. M. Rhee,  J. Ritchie,  M. A. Rohrdanz,  E. Rosta,  N. J. Russ,  
 H. F. Schaefer III,  N. E. Schultz,  N. Shenvi,  A. C. Simmonett,  A. Sodt,  
 D. Stuck,  K. S. Thanthiriwatte,  V. Vanovschi,  Tao Wang,  A. Warshel,  
 C. F. Williams,  Q. Wu,  X. Xu,  W. Zhang

 Please cite Q-Chem as follows:
 Y. Shao et al., Mol. Phys. 113, 184-215 (2015)
 DOI: 10.1080/00268976.2014.952696

 Q-Chem 5.1.1 for Intel X86 EM64T Linux

 Parts of Q-Chem use Armadillo 8.300.2 (Tropical Shenanigans).
 http://arma.sourceforge.net/

 Q-Chem begins on Mon Jun 15 02:46:10 2020  

Host: n0046.mhg0
0

     Scratch files written to /local/scratch/users/yhljason/HF_hf_qz.inp20200614233340//
The previous job contains 0 fragments, simply inherited here
Input Ideriv = 2
Curr. Ideriv = -1
Max.  Ideriv = 2

Checking the input file for inconsistencies... 	...done.

--------------------------------------------------------------
User input:
--------------------------------------------------------------
$molecule
read
$end

$rem

jobtype sp
method HF
xc_grid 000099000590
basis aug-cc-pcVQZ
max_scf_cycles 200
thresh 14
scf_convergence 8
mem_total 64000
mem_static 1500
symmetry false
sym_ignore true
scf_guess read
unrestricted true
scf_algorithm gdm
$end

$multipole_field
ZZ 0.0001
$end

--------------------------------------------------------------
 ----------------------------------------------------------------
             Standard Nuclear Orientation (Angstroms)
    I     Atom           X                Y                Z
 ----------------------------------------------------------------
    1      F       0.0000000000     0.0000000000     0.0000000000
    2      H       0.0000000000     0.0000000000     0.9168000000
 ----------------------------------------------------------------
 Nuclear Repulsion Energy =     5.1948024620 hartrees
 There are        5 alpha and        5 beta electrons
 Requested basis set is aug-cc-pCVQZ
 There are 43 shells and 155 basis functions

 Total QAlloc Memory Limit  64000 MB
 Mega-Array Size      1467 MB
 MEM_STATIC part      1500 MB

                       Distance Matrix (Angstroms)
             F (  1)
   H (  2)  0.916800
 
 Applying Cartesian multipole field
    Component          Value
    ---------          -----
     (0,0,2)        1.00000E-04
 Nucleus-field energy     =     0.0003001559 hartrees
 A cutoff of  1.0D-14 yielded    946 shell pairs
 There are     12414 function pairs (     19566 Cartesian)
 
 -------------------------------------------------------
 OpenMP Integral Computing Module                       
 Release: version 1.0, May 2013, Q-Chem Inc. Pittsburgh 
 -------------------------------------------------------
 Integral Job Info:
 Integral job number is                      11
 Integral operator is                         1
 short-range coefficients                     0
 long-range coefficients              100000000
 Omega coefficients                           0
 if combine SR and LR in K                    0
 Integral screening is                        0
 Integral computing path is                   2
 max size of driver memory is           3200000
 size of driver memory is               1704330
 size of scratch memory is             18511652
 max col of scratch BK array              50625
 max len of scratch array in speh3         2114
 max len of scratch index in speh4           50
 max int batch size is                      520
 min int batch size is                       52
 fixed nKL is                                52
 max L of basis functions is                  4
 order of int derivative is                   0
 number of shells is                         43
 number of basis is                         194
 number of cartesian basis is               194
 number of contracted shell pairs           946
 number of primitive shell pairs           2057
 maxK2 (contraction) of shell pair           81
 max number of K2 of shell pair               1
 max number of CS2 of shell pair            121
 max number of PS2 of shell pair            243
 mem total for path MDJ                  621421
 -------------------------------------------------------
 Smallest overlap matrix eigenvalue = 1.13E-04
 Guess MOs from SCF MO coefficient file

 -----------------------------------------------------------------------
  General SCF calculation program by
  Eric Jon Sundstrom, Paul Horn, Yuezhi Mao, Dmitri Zuev, Alec White,
  David Stuck, Shaama M.S., Shane Yost, Joonho Lee, David Small,
  Daniel Levine, Susi Lehtola, Hugh Burton, Evgeny Epifanovsky
 -----------------------------------------------------------------------
 Hartree-Fock
 using 8 threads for integral computing
 -------------------------------------------------------
 OpenMP Integral computing Module                
 Release: version 2.0, May 2017, Q-Chem Inc. Pleasanton 
 -------------------------------------------------------
 A unrestricted SCF calculation will be
 performed using GDM
 SCF converges when RMS gradient is below 1.0e-08
 ---------------------------------------
  Cycle       Energy        RMS Gradient
 ---------------------------------------
    1    -100.0689005869      2.03e-04   Normal BFGS step
    2    -100.0689007269      9.24e-05   Normal BFGS step
    3    -100.0689007539      7.86e-06   Normal BFGS step
    4    -100.0689007545      3.01e-06   Normal BFGS step
    5    -100.0689007546      4.61e-07   Normal BFGS step
    6    -100.0689007546      8.37e-08   Normal BFGS step
    7    -100.0689007546      1.75e-08   Normal BFGS step
    8    -100.0689007546      6.19e-09  Convergence criterion met
 ---------------------------------------
 SCF time:   CPU 123.66s  wall 15.00s 
<S^2> =         -0.000000000
 SCF   energy in the final basis set =     -100.0689007546
 Total energy in the final basis set =     -100.0689007546
 
 --------------------------------------------------------------
 
                    Orbital Energies (a.u.)
 --------------------------------------------------------------
 
 Alpha MOs
 -- Occupied --
-26.296  -1.602  -0.769  -0.651  -0.651
 -- Virtual --
  0.026   0.113   0.171   0.171   0.178   0.223   0.223   0.242
  0.361   0.573   0.579   0.579   0.597   0.597   0.674   0.762
  0.770   0.770   0.776   0.776   0.855   0.855   0.936   1.243
  1.243   1.468   1.520   1.520   1.544   1.649   1.715   1.715
  1.779   1.779   2.016   2.016   2.078   2.078   2.103   2.103
  2.112   2.164   2.164   2.201   2.508   2.508   2.829   2.872
  2.872   3.144   3.199   3.199   3.216   3.216   3.819   4.597
  4.597   4.642   4.737   4.737   4.899   4.899   5.182   5.315
  5.315   5.448   5.448   5.576   5.576   5.632   5.632   5.742
  5.892   5.892   6.062   6.062   6.164   6.474   6.474   6.756
  6.789   6.789   7.894   7.894   7.996   7.996   8.046   8.747
  8.771   8.771   8.857   8.857  10.712  10.896  10.896  12.143
 12.629  12.629  13.676  13.676  13.772  13.772  14.038  14.038
 14.240  14.559  14.559  14.577  15.899  15.899  16.050  16.050
 16.451  16.451  16.833  16.833  16.966  17.945  17.945  20.166
 22.876  42.131  42.131  43.563  60.411  60.411  60.796  60.796
 61.905  80.650  98.126  98.126  98.144  98.144  98.227  98.227
 98.273 145.956 145.956 147.077 251.304 251.304 251.511 251.511
252.101 271.171 494.082 494.082 494.9851115.940
 
 Beta MOs
 -- Occupied --
-26.296  -1.602  -0.769  -0.651  -0.651
 -- Virtual --
  0.026   0.113   0.171   0.171   0.178   0.223   0.223   0.242
  0.361   0.573   0.579   0.579   0.597   0.597   0.674   0.762
  0.770   0.770   0.776   0.776   0.855   0.855   0.936   1.243
  1.243   1.468   1.520   1.520   1.544   1.649   1.715   1.715
  1.779   1.779   2.016   2.016   2.078   2.078   2.103   2.103
  2.112   2.164   2.164   2.201   2.508   2.508   2.829   2.872
  2.872   3.144   3.199   3.199   3.216   3.216   3.819   4.597
  4.597   4.642   4.737   4.737   4.899   4.899   5.182   5.315
  5.315   5.448   5.448   5.576   5.576   5.632   5.632   5.742
  5.892   5.892   6.062   6.062   6.164   6.474   6.474   6.756
  6.789   6.789   7.894   7.894   7.996   7.996   8.046   8.747
  8.771   8.771   8.857   8.857  10.712  10.896  10.896  12.143
 12.629  12.629  13.676  13.676  13.772  13.772  14.038  14.038
 14.240  14.559  14.559  14.577  15.899  15.899  16.050  16.050
 16.451  16.451  16.833  16.833  16.966  17.945  17.945  20.166
 22.876  42.131  42.131  43.563  60.411  60.411  60.796  60.796
 61.905  80.650  98.126  98.126  98.144  98.144  98.227  98.227
 98.273 145.956 145.956 147.077 251.304 251.304 251.511 251.511
252.101 271.171 494.082 494.082 494.9851115.940
 --------------------------------------------------------------
 
          Ground-State Mulliken Net Atomic Charges

     Atom                 Charge (a.u.)    Spin (a.u.)
  --------------------------------------------------------
      1 F                    -0.407079       0.000000
      2 H                     0.407079       0.000000
  --------------------------------------------------------
  Sum of atomic charges =    -0.000000
  Sum of spin   charges =     0.000000

 -----------------------------------------------------------------
                    Cartesian Multipole Moments
 -----------------------------------------------------------------
    Charge (ESU x 10^10)
                -0.0000
    Dipole Moment (Debye)
         X       0.0000      Y      -0.0000      Z       1.9207
       Tot       1.9207
    Quadrupole Moments (Debye-Ang)
        XX      -5.6899     XY      -0.0000     YY      -5.6899
        XZ      -0.0000     YZ      -0.0000     ZZ      -3.1818
    Octopole Moments (Debye-Ang^2)
       XXX       0.0000    XXY      -0.0000    XYY       0.0000
       YYY      -0.0000    XXZ      -0.3828    XYZ      -0.0000
       YYZ      -0.3828    XZZ      -0.0000    YZZ      -0.0000
       ZZZ       1.0241
    Hexadecapole Moments (Debye-Ang^3)
      XXXX      -3.7792   XXXY      -0.0000   XXYY      -1.2597
      XYYY      -0.0000   YYYY      -3.7792   XXXZ      -0.0000
      XXYZ      -0.0000   XYYZ      -0.0000   YYYZ      -0.0000
      XXZZ      -1.4438   XYZZ      -0.0000   YYZZ      -1.4438
      XZZZ      -0.0000   YZZZ      -0.0000   ZZZZ      -2.6509
 -----------------------------------------------------------------
Archival summary:
1\1\n0046.mhg0\SP\HF\BasisUnspecified\11\yhljason\MonJun1502:46:262020MonJun1502:46:262020\0\\#,HF,BasisUnspecified,\\0,1\F\H,1,0.9168\\HF=-100.068901\\@

 Total job time:  16.12s(wall), 128.41s(cpu) 
 Mon Jun 15 02:46:26 2020

        *************************************************************
        *                                                           *
        *  Thank you very much for using Q-Chem.  Have a nice day.  *
        *                                                           *
        *************************************************************


 
User input: 5 of 7 
 
Q-Chem Developer Version!
                  Welcome to Q-Chem
     A Quantum Leap Into The Future Of Chemistry


 Q-Chem 5.1, Q-Chem, Inc., Pleasanton, CA (2018)

 Yihan Shao,  Zhengting Gan,  E. Epifanovsky,  A. T. B. Gilbert,  M. Wormit,  
 J. Kussmann,  A. W. Lange,  A. Behn,  Jia Deng,  Xintian Feng,  D. Ghosh,  
 M. Goldey,  P. R. Horn,  L. D. Jacobson,  I. Kaliman,  T. Kus,  A. Landau,  
 Jie Liu,  E. I. Proynov,  R. M. Richard,  R. P. Steele,  E. J. Sundstrom,  
 H. L. Woodcock III,  P. M. Zimmerman,  D. Zuev,  B. Albrecht,  E. Alguire,  
 S. A. Baeppler,  D. Barton,  Z. Benda,  Y. A. Bernard,  E. J. Berquist,  
 K. B. Bravaya,  H. Burton,  D. Casanova,  Chun-Min Chang,  Yunqing Chen,  
 A. Chien,  K. D. Closser,  M. P. Coons,  S. Coriani,  S. Dasgupta,  
 A. L. Dempwolff,  M. Diedenhofen,  Hainam Do,  R. G. Edgar,  Po-Tung Fang,  
 S. Faraji,  S. Fatehi,  Qingguo Feng,  K. D. Fenk,  J. Fosso-Tande,  
 Qinghui Ge,  A. Ghysels,  G. Gidofalvi,  J. Gomes,  J. Gonthier,  A. Gunina,  
 D. Hait,  M. W. D. Hanson-Heine,  P. H. P. Harbach,  A. W. Hauser,  
 J. E. Herr,  E. G. Hohenstein,  Z. C. Holden,  Kerwin Hui,  B. C. Huynh,  
 T.-C. Jagau,  Hyunjun Ji,  B. Kaduk,  K. Khistyaev,  Jaehoon Kim,  
 P. Klunzinger,  K. Koh,  D. Kosenkov,  L. Koulias,  T. Kowalczyk,  
 C. M. Krauter,  A. Kunitsa,  Ka Un Lao,  A. Laurent,  K. V. Lawler,  
 Joonho Lee,  D. Lefrancois,  S. Lehtola,  D. S. Levine,  Yi-Pei Li,  
 You-Sheng Lin,  Fenglai Liu,  E. Livshits,  A. Luenser,  P. Manohar,  
 E. Mansoor,  S. F. Manzer,  Shan-Ping Mao,  Yuezhi Mao,  N. Mardirossian,  
 A. V. Marenich,  T. Markovich,  L. A. Martinez-Martinez,  S. A. Maurer,  
 N. J. Mayhall,  S. C. McKenzie,  J.-M. Mewes,  A. F. Morrison,  
 J. W. Mullinax,  K. Nanda,  T. S. Nguyen-Beck,  R. Olivares-Amaya,  
 J. A. Parkhill,  T. M. Perrine,  F. Plasser,  P. Pokhilko,  S. Prager,  
 A. Prociuk,  E. Ramos,  D. R. Rehn,  F. Rob,  M. Schneider,  N. Sergueev,  
 S. M. Sharada,  S. Sharma,  D. W. Small,  T. Stauch,  T. Stein,  
 Yu-Chuan Su,  A. J. W. Thom,  A. Tkatchenko,  T. Tsuchimochi,  N. M. Tubman,  
 L. Vogt,  M. L. Vidal,  O. Vydrov,  M. A. Watson,  J. Wenzel,  
 M. de Wergifosse,  T. A. Wesolowski,  A. White,  J. Witte,  A. Yamada,  
 Jun Yang,  K. Yao,  S. Yeganeh,  S. R. Yost,  Zhi-Qiang You,  A. Zech,  
 Igor Ying Zhang,  Xing Zhang,  Yan Zhao,  Ying Zhu,  B. R. Brooks,  
 G. K. L. Chan,  C. J. Cramer,  M. S. Gordon,  W. J. Hehre,  A. Klamt,  
 M. W. Schmidt,  C. D. Sherrill,  D. G. Truhlar,  A. Aspuru-Guzik,  R. Baer,  
 A. T. Bell,  N. A. Besley,  Jeng-Da Chai,  A. E. DePrince, III,  
 R. A. DiStasio Jr.,  A. Dreuw,  B. D. Dunietz,  T. R. Furlani,  
 Chao-Ping Hsu,  Yousung Jung,  Jing Kong,  D. S. Lambrecht,  WanZhen Liang,  
 C. Ochsenfeld,  V. A. Rassolov,  L. V. Slipchenko,  J. E. Subotnik,  
 T. Van Voorhis,  J. M. Herbert,  A. I. Krylov,  P. M. W. Gill,  M. Head-Gordon

 Contributors to earlier versions of Q-Chem not listed above: 
 R. D. Adamson,  B. Austin,  J. Baker,  G. J. O. Beran,  K. Brandhorst,  
 S. T. Brown,  E. F. C. Byrd,  A. K. Chakraborty,  C.-L. Cheng,  
 Siu Hung Chien,  D. M. Chipman,  D. L. Crittenden,  H. Dachsel,  
 R. J. Doerksen,  A. D. Dutoi,  L. Fusti-Molnar,  W. A. Goddard III,  
 A. Golubeva-Zadorozhnaya,  S. R. Gwaltney,  G. Hawkins,  A. Heyden,  
 S. Hirata,  G. Kedziora,  F. J. Keil,  C. Kelley,  Jihan Kim,  R. A. King,  
 R. Z. Khaliullin,  P. P. Korambath,  W. Kurlancheek,  A. M. Lee,  M. S. Lee,  
 S. V. Levchenko,  Ching Yeh Lin,  D. Liotard,  R. C. Lochan,  I. Lotan,  
 P. E. Maslen,  N. Nair,  D. P. O'Neill,  D. Neuhauser,  E. Neuscamman,  
 C. M. Oana,  R. Olson,  B. Peters,  R. Peverati,  P. A. Pieniazek,  
 Y. M. Rhee,  J. Ritchie,  M. A. Rohrdanz,  E. Rosta,  N. J. Russ,  
 H. F. Schaefer III,  N. E. Schultz,  N. Shenvi,  A. C. Simmonett,  A. Sodt,  
 D. Stuck,  K. S. Thanthiriwatte,  V. Vanovschi,  Tao Wang,  A. Warshel,  
 C. F. Williams,  Q. Wu,  X. Xu,  W. Zhang

 Please cite Q-Chem as follows:
 Y. Shao et al., Mol. Phys. 113, 184-215 (2015)
 DOI: 10.1080/00268976.2014.952696

 Q-Chem 5.1.1 for Intel X86 EM64T Linux

 Parts of Q-Chem use Armadillo 8.300.2 (Tropical Shenanigans).
 http://arma.sourceforge.net/

 Q-Chem begins on Mon Jun 15 02:46:26 2020  

Host: n0046.mhg0
0

     Scratch files written to /local/scratch/users/yhljason/HF_hf_qz.inp20200614233340//
The previous job contains 0 fragments, simply inherited here
Input Ideriv = 2
Curr. Ideriv = -1
Max.  Ideriv = 2

Checking the input file for inconsistencies... 	...done.

--------------------------------------------------------------
User input:
--------------------------------------------------------------
$molecule
read
$end

$rem

jobtype sp
method HF
xc_grid 000099000590
basis aug-cc-pcVQZ
max_scf_cycles 200
thresh 14
scf_convergence 8
mem_total 64000
mem_static 1500
symmetry false
sym_ignore true
scf_guess read
unrestricted true
scf_algorithm gdm
$end

$multipole_field
ZZ -0.0001
$end

--------------------------------------------------------------
 ----------------------------------------------------------------
             Standard Nuclear Orientation (Angstroms)
    I     Atom           X                Y                Z
 ----------------------------------------------------------------
    1      F       0.0000000000     0.0000000000     0.0000000000
    2      H       0.0000000000     0.0000000000     0.9168000000
 ----------------------------------------------------------------
 Nuclear Repulsion Energy =     5.1948024620 hartrees
 There are        5 alpha and        5 beta electrons
 Requested basis set is aug-cc-pCVQZ
 There are 43 shells and 155 basis functions

 Total QAlloc Memory Limit  64000 MB
 Mega-Array Size      1467 MB
 MEM_STATIC part      1500 MB

                       Distance Matrix (Angstroms)
             F (  1)
   H (  2)  0.916800
 
 Applying Cartesian multipole field
    Component          Value
    ---------          -----
     (0,0,2)       -1.00000E-04
 Nucleus-field energy     =    -0.0003001559 hartrees
 A cutoff of  1.0D-14 yielded    946 shell pairs
 There are     12414 function pairs (     19566 Cartesian)
 
 -------------------------------------------------------
 OpenMP Integral Computing Module                       
 Release: version 1.0, May 2013, Q-Chem Inc. Pittsburgh 
 -------------------------------------------------------
 Integral Job Info:
 Integral job number is                      11
 Integral operator is                         1
 short-range coefficients                     0
 long-range coefficients              100000000
 Omega coefficients                           0
 if combine SR and LR in K                    0
 Integral screening is                        0
 Integral computing path is                   2
 max size of driver memory is           3200000
 size of driver memory is               1704330
 size of scratch memory is             18511652
 max col of scratch BK array              50625
 max len of scratch array in speh3         2114
 max len of scratch index in speh4           50
 max int batch size is                      520
 min int batch size is                       52
 fixed nKL is                                52
 max L of basis functions is                  4
 order of int derivative is                   0
 number of shells is                         43
 number of basis is                         194
 number of cartesian basis is               194
 number of contracted shell pairs           946
 number of primitive shell pairs           2057
 maxK2 (contraction) of shell pair           81
 max number of K2 of shell pair               1
 max number of CS2 of shell pair            121
 max number of PS2 of shell pair            243
 mem total for path MDJ                  621421
 -------------------------------------------------------
 Smallest overlap matrix eigenvalue = 1.13E-04
 Guess MOs from SCF MO coefficient file

 -----------------------------------------------------------------------
  General SCF calculation program by
  Eric Jon Sundstrom, Paul Horn, Yuezhi Mao, Dmitri Zuev, Alec White,
  David Stuck, Shaama M.S., Shane Yost, Joonho Lee, David Small,
  Daniel Levine, Susi Lehtola, Hugh Burton, Evgeny Epifanovsky
 -----------------------------------------------------------------------
 Hartree-Fock
 using 8 threads for integral computing
 -------------------------------------------------------
 OpenMP Integral computing Module                
 Release: version 2.0, May 2017, Q-Chem Inc. Pleasanton 
 -------------------------------------------------------
 A unrestricted SCF calculation will be
 performed using GDM
 SCF converges when RMS gradient is below 1.0e-08
 ---------------------------------------
  Cycle       Energy        RMS Gradient
 ---------------------------------------
    1    -100.0684276392      2.85e-04   Normal BFGS step
    2    -100.0684279577      1.11e-04   Normal BFGS step
    3    -100.0684280074      1.56e-05   Normal BFGS step
    4    -100.0684280106      4.97e-06   Normal BFGS step
    5    -100.0684280109      5.71e-07   Normal BFGS step
    6    -100.0684280109      1.35e-07   Normal BFGS step
    7    -100.0684280109      2.05e-08   Normal BFGS step
    8    -100.0684280109      3.10e-09  Convergence criterion met
 ---------------------------------------
 SCF time:   CPU 121.53s  wall 15.00s 
<S^2> =         -0.000000000
 SCF   energy in the final basis set =     -100.0684280109
 Total energy in the final basis set =     -100.0684280109
 
 --------------------------------------------------------------
 
                    Orbital Energies (a.u.)
 --------------------------------------------------------------
 
 Alpha MOs
 -- Occupied --
-26.295  -1.601  -0.768  -0.650  -0.650
 -- Virtual --
  0.030   0.117   0.172   0.172   0.181   0.225   0.225   0.245
  0.364   0.575   0.579   0.579   0.599   0.599   0.677   0.763
  0.771   0.771   0.777   0.777   0.856   0.856   0.937   1.244
  1.244   1.470   1.521   1.521   1.545   1.651   1.716   1.716
  1.781   1.781   2.017   2.017   2.079   2.079   2.104   2.104
  2.113   2.165   2.165   2.202   2.509   2.509   2.830   2.872
  2.872   3.146   3.200   3.200   3.216   3.216   3.820   4.598
  4.598   4.642   4.737   4.737   4.899   4.899   5.182   5.316
  5.316   5.448   5.448   5.576   5.576   5.632   5.632   5.743
  5.893   5.893   6.063   6.063   6.165   6.475   6.475   6.757
  6.789   6.789   7.894   7.894   7.997   7.997   8.047   8.748
  8.771   8.771   8.858   8.858  10.713  10.897  10.897  12.144
 12.630  12.630  13.676  13.676  13.772  13.772  14.039  14.039
 14.241  14.559  14.559  14.577  15.899  15.899  16.050  16.050
 16.452  16.452  16.833  16.833  16.967  17.945  17.945  20.167
 22.876  42.131  42.131  43.563  60.412  60.412  60.797  60.797
 61.906  80.651  98.127  98.127  98.144  98.144  98.228  98.228
 98.274 145.957 145.957 147.077 251.305 251.305 251.511 251.511
252.102 271.171 494.082 494.082 494.9861115.940
 
 Beta MOs
 -- Occupied --
-26.295  -1.601  -0.768  -0.650  -0.650
 -- Virtual --
  0.030   0.117   0.172   0.172   0.181   0.225   0.225   0.245
  0.364   0.575   0.579   0.579   0.599   0.599   0.677   0.763
  0.771   0.771   0.777   0.777   0.856   0.856   0.937   1.244
  1.244   1.470   1.521   1.521   1.545   1.651   1.716   1.716
  1.781   1.781   2.017   2.017   2.079   2.079   2.104   2.104
  2.113   2.165   2.165   2.202   2.509   2.509   2.830   2.872
  2.872   3.146   3.200   3.200   3.216   3.216   3.820   4.598
  4.598   4.642   4.737   4.737   4.899   4.899   5.182   5.316
  5.316   5.448   5.448   5.576   5.576   5.632   5.632   5.743
  5.893   5.893   6.063   6.063   6.165   6.475   6.475   6.757
  6.789   6.789   7.894   7.894   7.997   7.997   8.047   8.748
  8.771   8.771   8.858   8.858  10.713  10.897  10.897  12.144
 12.630  12.630  13.676  13.676  13.772  13.772  14.039  14.039
 14.241  14.559  14.559  14.577  15.899  15.899  16.050  16.050
 16.452  16.452  16.833  16.833  16.967  17.945  17.945  20.167
 22.876  42.131  42.131  43.563  60.412  60.412  60.797  60.797
 61.906  80.651  98.127  98.127  98.144  98.144  98.228  98.228
 98.274 145.957 145.957 147.077 251.305 251.305 251.511 251.511
252.102 271.171 494.082 494.082 494.9861115.940
 --------------------------------------------------------------
 
          Ground-State Mulliken Net Atomic Charges

     Atom                 Charge (a.u.)    Spin (a.u.)
  --------------------------------------------------------
      1 F                    -0.407736       0.000000
      2 H                     0.407736       0.000000
  --------------------------------------------------------
  Sum of atomic charges =    -0.000000
  Sum of spin   charges =     0.000000

 -----------------------------------------------------------------
                    Cartesian Multipole Moments
 -----------------------------------------------------------------
    Charge (ESU x 10^10)
                -0.0000
    Dipole Moment (Debye)
         X      -0.0000      Y       0.0000      Z       1.9231
       Tot       1.9231
    Quadrupole Moments (Debye-Ang)
        XX      -5.6895     XY      -0.0000     YY      -5.6895
        XZ      -0.0000     YZ       0.0000     ZZ      -3.1768
    Octopole Moments (Debye-Ang^2)
       XXX       0.0000    XXY      -0.0000    XYY       0.0000
       YYY       0.0000    XXZ      -0.3822    XYZ      -0.0000
       YYZ      -0.3822    XZZ       0.0000    YZZ       0.0000
       ZZZ       1.0300
    Hexadecapole Moments (Debye-Ang^3)
      XXXX      -3.7782   XXXY      -0.0000   XXYY      -1.2594
      XYYY      -0.0000   YYYY      -3.7782   XXXZ      -0.0000
      XXYZ      -0.0000   XYYZ      -0.0000   YYYZ       0.0000
      XXZZ      -1.4419   XYZZ      -0.0000   YYZZ      -1.4419
      XZZZ      -0.0000   YZZZ       0.0000   ZZZZ      -2.6371
 -----------------------------------------------------------------
Archival summary:
1\1\n0046.mhg0\SP\HF\BasisUnspecified\11\yhljason\MonJun1502:46:422020MonJun1502:46:422020\0\\#,HF,BasisUnspecified,\\0,1\F\H,1,0.9168\\HF=-100.068428\\@

 Total job time:  15.84s(wall), 126.10s(cpu) 
 Mon Jun 15 02:46:42 2020

        *************************************************************
        *                                                           *
        *  Thank you very much for using Q-Chem.  Have a nice day.  *
        *                                                           *
        *************************************************************


 
User input: 6 of 7 
 
Q-Chem Developer Version!
                  Welcome to Q-Chem
     A Quantum Leap Into The Future Of Chemistry


 Q-Chem 5.1, Q-Chem, Inc., Pleasanton, CA (2018)

 Yihan Shao,  Zhengting Gan,  E. Epifanovsky,  A. T. B. Gilbert,  M. Wormit,  
 J. Kussmann,  A. W. Lange,  A. Behn,  Jia Deng,  Xintian Feng,  D. Ghosh,  
 M. Goldey,  P. R. Horn,  L. D. Jacobson,  I. Kaliman,  T. Kus,  A. Landau,  
 Jie Liu,  E. I. Proynov,  R. M. Richard,  R. P. Steele,  E. J. Sundstrom,  
 H. L. Woodcock III,  P. M. Zimmerman,  D. Zuev,  B. Albrecht,  E. Alguire,  
 S. A. Baeppler,  D. Barton,  Z. Benda,  Y. A. Bernard,  E. J. Berquist,  
 K. B. Bravaya,  H. Burton,  D. Casanova,  Chun-Min Chang,  Yunqing Chen,  
 A. Chien,  K. D. Closser,  M. P. Coons,  S. Coriani,  S. Dasgupta,  
 A. L. Dempwolff,  M. Diedenhofen,  Hainam Do,  R. G. Edgar,  Po-Tung Fang,  
 S. Faraji,  S. Fatehi,  Qingguo Feng,  K. D. Fenk,  J. Fosso-Tande,  
 Qinghui Ge,  A. Ghysels,  G. Gidofalvi,  J. Gomes,  J. Gonthier,  A. Gunina,  
 D. Hait,  M. W. D. Hanson-Heine,  P. H. P. Harbach,  A. W. Hauser,  
 J. E. Herr,  E. G. Hohenstein,  Z. C. Holden,  Kerwin Hui,  B. C. Huynh,  
 T.-C. Jagau,  Hyunjun Ji,  B. Kaduk,  K. Khistyaev,  Jaehoon Kim,  
 P. Klunzinger,  K. Koh,  D. Kosenkov,  L. Koulias,  T. Kowalczyk,  
 C. M. Krauter,  A. Kunitsa,  Ka Un Lao,  A. Laurent,  K. V. Lawler,  
 Joonho Lee,  D. Lefrancois,  S. Lehtola,  D. S. Levine,  Yi-Pei Li,  
 You-Sheng Lin,  Fenglai Liu,  E. Livshits,  A. Luenser,  P. Manohar,  
 E. Mansoor,  S. F. Manzer,  Shan-Ping Mao,  Yuezhi Mao,  N. Mardirossian,  
 A. V. Marenich,  T. Markovich,  L. A. Martinez-Martinez,  S. A. Maurer,  
 N. J. Mayhall,  S. C. McKenzie,  J.-M. Mewes,  A. F. Morrison,  
 J. W. Mullinax,  K. Nanda,  T. S. Nguyen-Beck,  R. Olivares-Amaya,  
 J. A. Parkhill,  T. M. Perrine,  F. Plasser,  P. Pokhilko,  S. Prager,  
 A. Prociuk,  E. Ramos,  D. R. Rehn,  F. Rob,  M. Schneider,  N. Sergueev,  
 S. M. Sharada,  S. Sharma,  D. W. Small,  T. Stauch,  T. Stein,  
 Yu-Chuan Su,  A. J. W. Thom,  A. Tkatchenko,  T. Tsuchimochi,  N. M. Tubman,  
 L. Vogt,  M. L. Vidal,  O. Vydrov,  M. A. Watson,  J. Wenzel,  
 M. de Wergifosse,  T. A. Wesolowski,  A. White,  J. Witte,  A. Yamada,  
 Jun Yang,  K. Yao,  S. Yeganeh,  S. R. Yost,  Zhi-Qiang You,  A. Zech,  
 Igor Ying Zhang,  Xing Zhang,  Yan Zhao,  Ying Zhu,  B. R. Brooks,  
 G. K. L. Chan,  C. J. Cramer,  M. S. Gordon,  W. J. Hehre,  A. Klamt,  
 M. W. Schmidt,  C. D. Sherrill,  D. G. Truhlar,  A. Aspuru-Guzik,  R. Baer,  
 A. T. Bell,  N. A. Besley,  Jeng-Da Chai,  A. E. DePrince, III,  
 R. A. DiStasio Jr.,  A. Dreuw,  B. D. Dunietz,  T. R. Furlani,  
 Chao-Ping Hsu,  Yousung Jung,  Jing Kong,  D. S. Lambrecht,  WanZhen Liang,  
 C. Ochsenfeld,  V. A. Rassolov,  L. V. Slipchenko,  J. E. Subotnik,  
 T. Van Voorhis,  J. M. Herbert,  A. I. Krylov,  P. M. W. Gill,  M. Head-Gordon

 Contributors to earlier versions of Q-Chem not listed above: 
 R. D. Adamson,  B. Austin,  J. Baker,  G. J. O. Beran,  K. Brandhorst,  
 S. T. Brown,  E. F. C. Byrd,  A. K. Chakraborty,  C.-L. Cheng,  
 Siu Hung Chien,  D. M. Chipman,  D. L. Crittenden,  H. Dachsel,  
 R. J. Doerksen,  A. D. Dutoi,  L. Fusti-Molnar,  W. A. Goddard III,  
 A. Golubeva-Zadorozhnaya,  S. R. Gwaltney,  G. Hawkins,  A. Heyden,  
 S. Hirata,  G. Kedziora,  F. J. Keil,  C. Kelley,  Jihan Kim,  R. A. King,  
 R. Z. Khaliullin,  P. P. Korambath,  W. Kurlancheek,  A. M. Lee,  M. S. Lee,  
 S. V. Levchenko,  Ching Yeh Lin,  D. Liotard,  R. C. Lochan,  I. Lotan,  
 P. E. Maslen,  N. Nair,  D. P. O'Neill,  D. Neuhauser,  E. Neuscamman,  
 C. M. Oana,  R. Olson,  B. Peters,  R. Peverati,  P. A. Pieniazek,  
 Y. M. Rhee,  J. Ritchie,  M. A. Rohrdanz,  E. Rosta,  N. J. Russ,  
 H. F. Schaefer III,  N. E. Schultz,  N. Shenvi,  A. C. Simmonett,  A. Sodt,  
 D. Stuck,  K. S. Thanthiriwatte,  V. Vanovschi,  Tao Wang,  A. Warshel,  
 C. F. Williams,  Q. Wu,  X. Xu,  W. Zhang

 Please cite Q-Chem as follows:
 Y. Shao et al., Mol. Phys. 113, 184-215 (2015)
 DOI: 10.1080/00268976.2014.952696

 Q-Chem 5.1.1 for Intel X86 EM64T Linux

 Parts of Q-Chem use Armadillo 8.300.2 (Tropical Shenanigans).
 http://arma.sourceforge.net/

 Q-Chem begins on Mon Jun 15 02:46:42 2020  

Host: n0046.mhg0
0

     Scratch files written to /local/scratch/users/yhljason/HF_hf_qz.inp20200614233340//
The previous job contains 0 fragments, simply inherited here
Input Ideriv = 2
Curr. Ideriv = -1
Max.  Ideriv = 2

Checking the input file for inconsistencies... 	...done.

--------------------------------------------------------------
User input:
--------------------------------------------------------------
$molecule
read
$end

$rem

jobtype sp
method HF
xc_grid 000099000590
basis aug-cc-pcVQZ
max_scf_cycles 200
thresh 14
scf_convergence 8
mem_total 64000
mem_static 1500
symmetry false
sym_ignore true
scf_guess read
unrestricted true
scf_algorithm gdm
$end

$multipole_field
Z 0.0001
$end

--------------------------------------------------------------
 ----------------------------------------------------------------
             Standard Nuclear Orientation (Angstroms)
    I     Atom           X                Y                Z
 ----------------------------------------------------------------
[...]
    5    -100.0685887061      4.36e-07   Normal BFGS step
    6    -100.0685887061      1.18e-07   Normal BFGS step
    7    -100.0685887061      2.21e-08   Normal BFGS step
    8    -100.0685887061      4.96e-09  Convergence criterion met
 ---------------------------------------
 SCF time:   CPU 121.51s  wall 15.00s 
<S^2> =         -0.000000000
 SCF   energy in the final basis set =     -100.0685887061
 Total energy in the final basis set =     -100.0685887061
 
 --------------------------------------------------------------
 
                    Orbital Energies (a.u.)
 --------------------------------------------------------------
 
 Alpha MOs
 -- Occupied --
-26.296  -1.602  -0.769  -0.651  -0.651
 -- Virtual --
  0.028   0.115   0.171   0.171   0.180   0.224   0.224   0.243
  0.362   0.574   0.579   0.579   0.598   0.598   0.675   0.762
  0.771   0.771   0.777   0.777   0.855   0.855   0.936   1.243
  1.243   1.469   1.520   1.520   1.544   1.650   1.715   1.715
  1.780   1.780   2.016   2.016   2.078   2.078   2.103   2.103
  2.112   2.164   2.164   2.201   2.508   2.508   2.830   2.872
  2.872   3.145   3.200   3.200   3.216   3.216   3.819   4.598
  4.598   4.642   4.737   4.737   4.899   4.899   5.182   5.315
  5.315   5.448   5.448   5.576   5.576   5.632   5.632   5.743
  5.892   5.892   6.062   6.062   6.165   6.474   6.474   6.756
  6.789   6.789   7.894   7.894   7.996   7.996   8.047   8.748
  8.771   8.771   8.857   8.857  10.713  10.896  10.896  12.143
 12.629  12.629  13.676  13.676  13.772  13.772  14.039  14.039
 14.240  14.559  14.559  14.577  15.899  15.899  16.050  16.050
 16.452  16.452  16.833  16.833  16.966  17.945  17.945  20.166
 22.876  42.131  42.131  43.563  60.411  60.411  60.796  60.796
 61.905  80.651  98.126  98.126  98.144  98.144  98.228  98.228
 98.274 145.957 145.957 147.077 251.304 251.304 251.511 251.511
252.102 271.171 494.082 494.082 494.9851115.940
 
 Beta MOs
 -- Occupied --
-26.296  -1.602  -0.769  -0.651  -0.651
 -- Virtual --
  0.028   0.115   0.171   0.171   0.180   0.224   0.224   0.243
  0.362   0.574   0.579   0.579   0.598   0.598   0.675   0.762
  0.771   0.771   0.777   0.777   0.855   0.855   0.936   1.243
  1.243   1.469   1.520   1.520   1.544   1.650   1.715   1.715
  1.780   1.780   2.016   2.016   2.078   2.078   2.103   2.103
  2.112   2.164   2.164   2.201   2.508   2.508   2.830   2.872
  2.872   3.145   3.200   3.200   3.216   3.216   3.819   4.598
  4.598   4.642   4.737   4.737   4.899   4.899   5.182   5.315
  5.315   5.448   5.448   5.576   5.576   5.632   5.632   5.743
  5.892   5.892   6.062   6.062   6.165   6.474   6.474   6.756
  6.789   6.789   7.894   7.894   7.996   7.996   8.047   8.748
  8.771   8.771   8.857   8.857  10.713  10.896  10.896  12.143
 12.629  12.629  13.676  13.676  13.772  13.772  14.039  14.039
 14.240  14.559  14.559  14.577  15.899  15.899  16.050  16.050
 16.452  16.452  16.833  16.833  16.966  17.945  17.945  20.166
 22.876  42.131  42.131  43.563  60.411  60.411  60.796  60.796
 61.905  80.651  98.126  98.126  98.144  98.144  98.228  98.228
 98.274 145.957 145.957 147.077 251.304 251.304 251.511 251.511
252.102 271.171 494.082 494.082 494.9851115.940
 --------------------------------------------------------------
 
          Ground-State Mulliken Net Atomic Charges

     Atom                 Charge (a.u.)    Spin (a.u.)
  --------------------------------------------------------
      1 F                    -0.407141       0.000000
      2 H                     0.407141       0.000000
  --------------------------------------------------------
  Sum of atomic charges =    -0.000000
  Sum of spin   charges =     0.000000

 -----------------------------------------------------------------
                    Cartesian Multipole Moments
 -----------------------------------------------------------------
    Charge (ESU x 10^10)
                -0.0000
    Dipole Moment (Debye)
         X       0.0000      Y      -0.0000      Z       1.9204
       Tot       1.9204
    Quadrupole Moments (Debye-Ang)
        XX      -5.6897     XY       0.0000     YY      -5.6897
        XZ       0.0000     YZ      -0.0000     ZZ      -3.1799
    Octopole Moments (Debye-Ang^2)
       XXX      -0.0000    XXY      -0.0000    XYY       0.0000
       YYY      -0.0000    XXZ      -0.3830    XYZ       0.0000
       YYZ      -0.3830    XZZ       0.0000    YZZ      -0.0000
       ZZZ       1.0250
    Hexadecapole Moments (Debye-Ang^3)
      XXXX      -3.7786   XXXY       0.0000   XXYY      -1.2595
      XYYY       0.0000   YYYY      -3.7786   XXXZ      -0.0000
      XXYZ      -0.0000   XYYZ      -0.0000   YYYZ      -0.0000
      XXZZ      -1.4430   XYZZ       0.0000   YYZZ      -1.4430
      XZZZ       0.0000   YZZZ      -0.0000   ZZZZ      -2.6458
 -----------------------------------------------------------------
Archival summary:
1\1\n0046.mhg0\SP\HF\BasisUnspecified\11\yhljason\MonJun1502:46:582020MonJun1502:46:582020\0\\#,HF,BasisUnspecified,\\0,1\F\H,1,0.9168\\HF=-100.068589\\@

 Total job time:  15.85s(wall), 126.09s(cpu) 
 Mon Jun 15 02:46:58 2020

        *************************************************************
        *                                                           *
        *  Thank you very much for using Q-Chem.  Have a nice day.  *
        *                                                           *
        *************************************************************


 
User input: 7 of 7 
 
Q-Chem Developer Version!
                  Welcome to Q-Chem
     A Quantum Leap Into The Future Of Chemistry


 Q-Chem 5.1, Q-Chem, Inc., Pleasanton, CA (2018)

 Yihan Shao,  Zhengting Gan,  E. Epifanovsky,  A. T. B. Gilbert,  M. Wormit,  
 J. Kussmann,  A. W. Lange,  A. Behn,  Jia Deng,  Xintian Feng,  D. Ghosh,  
 M. Goldey,  P. R. Horn,  L. D. Jacobson,  I. Kaliman,  T. Kus,  A. Landau,  
 Jie Liu,  E. I. Proynov,  R. M. Richard,  R. P. Steele,  E. J. Sundstrom,  
 H. L. Woodcock III,  P. M. Zimmerman,  D. Zuev,  B. Albrecht,  E. Alguire,  
 S. A. Baeppler,  D. Barton,  Z. Benda,  Y. A. Bernard,  E. J. Berquist,  
 K. B. Bravaya,  H. Burton,  D. Casanova,  Chun-Min Chang,  Yunqing Chen,  
 A. Chien,  K. D. Closser,  M. P. Coons,  S. Coriani,  S. Dasgupta,  
 A. L. Dempwolff,  M. Diedenhofen,  Hainam Do,  R. G. Edgar,  Po-Tung Fang,  
 S. Faraji,  S. Fatehi,  Qingguo Feng,  K. D. Fenk,  J. Fosso-Tande,  
 Qinghui Ge,  A. Ghysels,  G. Gidofalvi,  J. Gomes,  J. Gonthier,  A. Gunina,  
 D. Hait,  M. W. D. Hanson-Heine,  P. H. P. Harbach,  A. W. Hauser,  
 J. E. Herr,  E. G. Hohenstein,  Z. C. Holden,  Kerwin Hui,  B. C. Huynh,  
 T.-C. Jagau,  Hyunjun Ji,  B. Kaduk,  K. Khistyaev,  Jaehoon Kim,  
 P. Klunzinger,  K. Koh,  D. Kosenkov,  L. Koulias,  T. Kowalczyk,  
 C. M. Krauter,  A. Kunitsa,  Ka Un Lao,  A. Laurent,  K. V. Lawler,  
 Joonho Lee,  D. Lefrancois,  S. Lehtola,  D. S. Levine,  Yi-Pei Li,  
 You-Sheng Lin,  Fenglai Liu,  E. Livshits,  A. Luenser,  P. Manohar,  
 E. Mansoor,  S. F. Manzer,  Shan-Ping Mao,  Yuezhi Mao,  N. Mardirossian,  
 A. V. Marenich,  T. Markovich,  L. A. Martinez-Martinez,  S. A. Maurer,  
 N. J. Mayhall,  S. C. McKenzie,  J.-M. Mewes,  A. F. Morrison,  
 J. W. Mullinax,  K. Nanda,  T. S. Nguyen-Beck,  R. Olivares-Amaya,  
 J. A. Parkhill,  T. M. Perrine,  F. Plasser,  P. Pokhilko,  S. Prager,  
 A. Prociuk,  E. Ramos,  D. R. Rehn,  F. Rob,  M. Schneider,  N. Sergueev,  
 S. M. Sharada,  S. Sharma,  D. W. Small,  T. Stauch,  T. Stein,  
 Yu-Chuan Su,  A. J. W. Thom,  A. Tkatchenko,  T. Tsuchimochi,  N. M. Tubman,  
 L. Vogt,  M. L. Vidal,  O. Vydrov,  M. A. Watson,  J. Wenzel,  
 M. de Wergifosse,  T. A. Wesolowski,  A. White,  J. Witte,  A. Yamada,  
 Jun Yang,  K. Yao,  S. Yeganeh,  S. R. Yost,  Zhi-Qiang You,  A. Zech,  
 Igor Ying Zhang,  Xing Zhang,  Yan Zhao,  Ying Zhu,  B. R. Brooks,  
 G. K. L. Chan,  C. J. Cramer,  M. S. Gordon,  W. J. Hehre,  A. Klamt,  
 M. W. Schmidt,  C. D. Sherrill,  D. G. Truhlar,  A. Aspuru-Guzik,  R. Baer,  
 A. T. Bell,  N. A. Besley,  Jeng-Da Chai,  A. E. DePrince, III,  
 R. A. DiStasio Jr.,  A. Dreuw,  B. D. Dunietz,  T. R. Furlani,  
 Chao-Ping Hsu,  Yousung Jung,  Jing Kong,  D. S. Lambrecht,  WanZhen Liang,  
 C. Ochsenfeld,  V. A. Rassolov,  L. V. Slipchenko,  J. E. Subotnik,  
 T. Van Voorhis,  J. M. Herbert,  A. I. Krylov,  P. M. W. Gill,  M. Head-Gordon

 Contributors to earlier versions of Q-Chem not listed above: 
 R. D. Adamson,  B. Austin,  J. Baker,  G. J. O. Beran,  K. Brandhorst,  
 S. T. Brown,  E. F. C. Byrd,  A. K. Chakraborty,  C.-L. Cheng,  
 Siu Hung Chien,  D. M. Chipman,  D. L. Crittenden,  H. Dachsel,  
 R. J. Doerksen,  A. D. Dutoi,  L. Fusti-Molnar,  W. A. Goddard III,  
 A. Golubeva-Zadorozhnaya,  S. R. Gwaltney,  G. Hawkins,  A. Heyden,  
 S. Hirata,  G. Kedziora,  F. J. Keil,  C. Kelley,  Jihan Kim,  R. A. King,  
 R. Z. Khaliullin,  P. P. Korambath,  W. Kurlancheek,  A. M. Lee,  M. S. Lee,  
 S. V. Levchenko,  Ching Yeh Lin,  D. Liotard,  R. C. Lochan,  I. Lotan,  
 P. E. Maslen,  N. Nair,  D. P. O'Neill,  D. Neuhauser,  E. Neuscamman,  
 C. M. Oana,  R. Olson,  B. Peters,  R. Peverati,  P. A. Pieniazek,  
 Y. M. Rhee,  J. Ritchie,  M. A. Rohrdanz,  E. Rosta,  N. J. Russ,  
 H. F. Schaefer III,  N. E. Schultz,  N. Shenvi,  A. C. Simmonett,  A. Sodt,  
 D. Stuck,  K. S. Thanthiriwatte,  V. Vanovschi,  Tao Wang,  A. Warshel,  
 C. F. Williams,  Q. Wu,  X. Xu,  W. Zhang

 Please cite Q-Chem as follows:
 Y. Shao et al., Mol. Phys. 113, 184-215 (2015)
 DOI: 10.1080/00268976.2014.952696

 Q-Chem 5.1.1 for Intel X86 EM64T Linux

 Parts of Q-Chem use Armadillo 8.300.2 (Tropical Shenanigans).
 http://arma.sourceforge.net/

 Q-Chem begins on Mon Jun 15 02:46:58 2020  

Host: n0046.mhg0
0

     Scratch files written to /local/scratch/users/yhljason/HF_hf_qz.inp20200614233340//
The previous job contains 0 fragments, simply inherited here
Input Ideriv = 2
Curr. Ideriv = -1
Max.  Ideriv = 2

Checking the input file for inconsistencies... 	...done.

--------------------------------------------------------------
User input:
--------------------------------------------------------------
$molecule
read
$end

$rem

jobtype sp
method HF
xc_grid 000099000590
basis aug-cc-pcVQZ
max_scf_cycles 200
thresh 14
scf_convergence 8
mem_total 64000
mem_static 1500
symmetry false
sym_ignore true
scf_guess read
unrestricted true
scf_algorithm gdm
$end

$multipole_field
Z -0.0001
$end
--------------------------------------------------------------
 ----------------------------------------------------------------
             Standard Nuclear Orientation (Angstroms)
    I     Atom           X                Y                Z
 ----------------------------------------------------------------
    1      F       0.0000000000     0.0000000000     0.0000000000
    2      H       0.0000000000     0.0000000000     0.9168000000
 ----------------------------------------------------------------
 Nuclear Repulsion Energy =     5.1948024620 hartrees
 There are        5 alpha and        5 beta electrons
 Requested basis set is aug-cc-pCVQZ
 There are 43 shells and 155 basis functions

 Total QAlloc Memory Limit  64000 MB
 Mega-Array Size      1467 MB
 MEM_STATIC part      1500 MB

                       Distance Matrix (Angstroms)
             F (  1)
   H (  2)  0.916800
 
 Applying Cartesian multipole field
    Component          Value
    ---------          -----
     (0,0,1)       -1.00000E-04
 Nucleus-field energy     =    -0.0001732501 hartrees
 A cutoff of  1.0D-14 yielded    946 shell pairs
 There are     12414 function pairs (     19566 Cartesian)
 
 -------------------------------------------------------
 OpenMP Integral Computing Module                       
 Release: version 1.0, May 2013, Q-Chem Inc. Pittsburgh 
 -------------------------------------------------------
 Integral Job Info:
 Integral job number is                      11
 Integral operator is                         1
 short-range coefficients                     0
 long-range coefficients              100000000
 Omega coefficients                           0
 if combine SR and LR in K                    0
 Integral screening is                        0
 Integral computing path is                   2
 max size of driver memory is           3200000
 size of driver memory is               1704330
 size of scratch memory is             18511652
 max col of scratch BK array              50625
 max len of scratch array in speh3         2114
 max len of scratch index in speh4           50
 max int batch size is                      520
 min int batch size is                       52
 fixed nKL is                                52
 max L of basis functions is                  4
 order of int derivative is                   0
 number of shells is                         43
 number of basis is                         194
 number of cartesian basis is               194
 number of contracted shell pairs           946
 number of primitive shell pairs           2057
 maxK2 (contraction) of shell pair           81
 max number of K2 of shell pair               1
 max number of CS2 of shell pair            121
 max number of PS2 of shell pair            243
 mem total for path MDJ                  621421
 -------------------------------------------------------
 Smallest overlap matrix eigenvalue = 1.13E-04
 Guess MOs from SCF MO coefficient file

 -----------------------------------------------------------------------
  General SCF calculation program by
  Eric Jon Sundstrom, Paul Horn, Yuezhi Mao, Dmitri Zuev, Alec White,
  David Stuck, Shaama M.S., Shane Yost, Joonho Lee, David Small,
  Daniel Levine, Susi Lehtola, Hugh Burton, Evgeny Epifanovsky
 -----------------------------------------------------------------------
 Hartree-Fock
 using 8 threads for integral computing
 -------------------------------------------------------
 OpenMP Integral computing Module                
 Release: version 2.0, May 2017, Q-Chem Inc. Pleasanton 
 -------------------------------------------------------
 A unrestricted SCF calculation will be
 performed using GDM
 SCF converges when RMS gradient is below 1.0e-08
 ---------------------------------------
  Cycle       Energy        RMS Gradient
 ---------------------------------------
    1    -100.0687398162      1.43e-04   Normal BFGS step
    2    -100.0687399219      3.11e-05   Normal BFGS step
    3    -100.0687399300      1.14e-05   Normal BFGS step
    4    -100.0687399311      1.60e-06   Normal BFGS step
    5    -100.0687399311      6.04e-07   Normal BFGS step
    6    -100.0687399311      1.64e-07   Normal BFGS step
    7    -100.0687399311      3.54e-08   Normal BFGS step
    8    -100.0687399311      6.12e-09  Convergence criterion met
 ---------------------------------------
 SCF time:   CPU 121.65s  wall 15.00s 
<S^2> =         -0.000000000
 SCF   energy in the final basis set =     -100.0687399311
 Total energy in the final basis set =     -100.0687399311
 
 --------------------------------------------------------------
 
                    Orbital Energies (a.u.)
 --------------------------------------------------------------
 
 Alpha MOs
 -- Occupied --
-26.296  -1.601  -0.768  -0.650  -0.650
 -- Virtual --
  0.028   0.115   0.171   0.171   0.180   0.224   0.224   0.244
  0.362   0.574   0.579   0.579   0.598   0.598   0.676   0.762
  0.771   0.771   0.777   0.777   0.855   0.855   0.936   1.244
  1.244   1.469   1.520   1.520   1.544   1.650   1.715   1.715
  1.781   1.781   2.016   2.016   2.078   2.078   2.103   2.103
  2.112   2.164   2.164   2.201   2.509   2.509   2.830   2.872
  2.872   3.145   3.200   3.200   3.216   3.216   3.820   4.598
  4.598   4.642   4.737   4.737   4.899   4.899   5.182   5.315
  5.315   5.448   5.448   5.576   5.576   5.632   5.632   5.743
  5.892   5.892   6.063   6.063   6.165   6.475   6.475   6.757
  6.789   6.789   7.894   7.894   7.997   7.997   8.047   8.748
  8.771   8.771   8.858   8.858  10.713  10.897  10.897  12.143
 12.629  12.629  13.676  13.676  13.772  13.772  14.039  14.039
 14.241  14.559  14.559  14.577  15.899  15.899  16.050  16.050
 16.452  16.452  16.833  16.833  16.967  17.945  17.945  20.167
 22.876  42.131  42.131  43.563  60.411  60.411  60.796  60.796
 61.906  80.651  98.127  98.127  98.144  98.144  98.228  98.228
 98.274 145.957 145.957 147.077 251.304 251.304 251.511 251.511
252.102 271.171 494.082 494.082 494.9851115.940
 
 Beta MOs
 -- Occupied --
-26.296  -1.601  -0.768  -0.650  -0.650
 -- Virtual --
  0.028   0.115   0.171   0.171   0.180   0.224   0.224   0.244
  0.362   0.574   0.579   0.579   0.598   0.598   0.676   0.762
  0.771   0.771   0.777   0.777   0.855   0.855   0.936   1.244
  1.244   1.469   1.520   1.520   1.544   1.650   1.715   1.715
  1.781   1.781   2.016   2.016   2.078   2.078   2.103   2.103
  2.112   2.164   2.164   2.201   2.509   2.509   2.830   2.872
  2.872   3.145   3.200   3.200   3.216   3.216   3.820   4.598
  4.598   4.642   4.737   4.737   4.899   4.899   5.182   5.315
  5.315   5.448   5.448   5.576   5.576   5.632   5.632   5.743
  5.892   5.892   6.063   6.063   6.165   6.475   6.475   6.757
  6.789   6.789   7.894   7.894   7.997   7.997   8.047   8.748
  8.771   8.771   8.858   8.858  10.713  10.897  10.897  12.143
 12.629  12.629  13.676  13.676  13.772  13.772  14.039  14.039
 14.241  14.559  14.559  14.577  15.899  15.899  16.050  16.050
 16.452  16.452  16.833  16.833  16.967  17.945  17.945  20.167
 22.876  42.131  42.131  43.563  60.411  60.411  60.796  60.796
 61.906  80.651  98.127  98.127  98.144  98.144  98.228  98.228
 98.274 145.957 145.957 147.077 251.304 251.304 251.511 251.511
252.102 271.171 494.082 494.082 494.9851115.940
 --------------------------------------------------------------
 
          Ground-State Mulliken Net Atomic Charges

     Atom                 Charge (a.u.)    Spin (a.u.)
  --------------------------------------------------------
      1 F                    -0.407674       0.000000
      2 H                     0.407674       0.000000
  --------------------------------------------------------
  Sum of atomic charges =    -0.000000
  Sum of spin   charges =     0.000000

 -----------------------------------------------------------------
                    Cartesian Multipole Moments
 -----------------------------------------------------------------
    Charge (ESU x 10^10)
                -0.0000
    Dipole Moment (Debye)
         X       0.0000      Y       0.0000      Z       1.9233
       Tot       1.9233
    Quadrupole Moments (Debye-Ang)
        XX      -5.6897     XY       0.0000     YY      -5.6897
        XZ      -0.0000     YZ      -0.0000     ZZ      -3.1786
    Octopole Moments (Debye-Ang^2)
       XXX       0.0000    XXY       0.0000    XYY       0.0000
       YYY       0.0000    XXZ      -0.3820    XYZ       0.0000
       YYZ      -0.3820    XZZ       0.0000    YZZ       0.0000
       ZZZ       1.0292
    Hexadecapole Moments (Debye-Ang^3)
      XXXX      -3.7788   XXXY       0.0000   XXYY      -1.2596
      XYYY       0.0000   YYYY      -3.7788   XXXZ      -0.0000
      XXYZ      -0.0000   XYYZ      -0.0000   YYYZ      -0.0000
      XXZZ      -1.4427   XYZZ       0.0000   YYZZ      -1.4427
      XZZZ       0.0000   YZZZ      -0.0000   ZZZZ      -2.6423
 -----------------------------------------------------------------
Archival summary:
1\1\n0046.mhg0\SP\HF\BasisUnspecified\11\yhljason\MonJun1502:47:142020MonJun1502:47:142020\0\\#,HF,BasisUnspecified,\\0,1\F\H,1,0.9168\\HF=-100.06874\\@

 Total job time:  15.85s(wall), 126.23s(cpu) 
 Mon Jun 15 02:47:14 2020

        *************************************************************
        *                                                           *
        *  Thank you very much for using Q-Chem.  Have a nice day.  *
        *                                                           *
        *************************************************************


