                  Welcome to Q-Chem
     A Quantum Leap Into The Future Of Chemistry


 Q-Chem 5.3 (devel), Q-Chem, Inc., Pleasanton, CA (2020)

 Yihan Shao,  Zhengting Gan,  E. Epifanovsky,  A. T. B. Gilbert,  M. Wormit,  
 J. Kussmann,  A. W. Lange,  A. Behn,  Jia Deng,  Xintian Feng,  D. Ghosh,  
 M. Goldey,  P. R. Horn,  L. D. Jacobson,  I. Kaliman,  T. Kus,  A. Landau,  
 Jie Liu,  E. I. Proynov,  R. M. Richard,  R. P. Steele,  E. J. Sundstrom,  
 H. L. Woodcock III,  P. M. Zimmerman,  D. Zuev,  B. Alam,  B. Albrecht,  
 E. Alguire,  S. A. Baeppler,  D. Barton,  Z. Benda,  Y. A. Bernard,  
 E. J. Berquist,  K. B. Bravaya,  H. Burton,  K. Carter-Fenk,  D. Casanova,  
 Chun-Min Chang,  Yunqing Chen,  A. Chien,  K. D. Closser,  M. P. Coons,  
 S. Coriani,  S. Dasgupta,  A. L. Dempwolff,  M. Diedenhofen,  Hainam Do,  
 R. G. Edgar,  Po-Tung Fang,  S. Faraji,  S. Fatehi,  Qingguo Feng,  
 J. Fosso-Tande,  J. Gayvert,  Qinghui Ge,  A. Ghysels,  G. Gidofalvi,  
 J. Gomes,  J. Gonthier,  A. Gunina,  D. Hait,  M. W. D. Hanson-Heine,  
 P. H. P. Harbach,  A. W. Hauser,  M. F. Herbst,  J. E. Herr,  
 E. G. Hohenstein,  Z. C. Holden,  Kerwin Hui,  B. C. Huynh,  T.-C. Jagau,  
 Hyunjun Ji,  B. Kaduk,  K. Khistyaev,  Jaehoon Kim,  P. Klunzinger,  K. Koh,  
 D. Kosenkov,  L. Koulias,  T. Kowalczyk,  C. M. Krauter,  A. Kunitsa,  
 Ka Un Lao,  A. Laurent,  K. V. Lawler,  Joonho Lee,  D. Lefrancois,  
 S. Lehtola,  D. S. Levine,  Yi-Pei Li,  You-Sheng Lin,  Fenglai Liu,  
 Kuan-Yu Liu,  E. Livshits,  M. Loipersberger,  A. Luenser,  P. Manohar,  
 E. Mansoor,  S. F. Manzer,  Shan-Ping Mao,  Yuezhi Mao,  N. Mardirossian,  
 A. V. Marenich,  T. Markovich,  L. A. Martinez-Martinez,  S. A. Maurer,  
 N. J. Mayhall,  S. C. McKenzie,  J.-M. Mewes,  P. Morgante,  A. F. Morrison,  
 J. W. Mullinax,  K. Nanda,  T. S. Nguyen-Beck,  R. Olivares-Amaya,  
 K. J. Oosterbaan,  J. A. Parkhill,  S. K. Paul,  F. Pavosevic,  Zheng Pei,  
 T. M. Perrine,  F. Plasser,  P. Pokhilko,  S. Prager,  A. Prociuk,  
 E. Ramos,  B. Rana,  D. R. Rehn,  F. Rob,  M. Scheurer,  M. Schneider,  
 N. Sergueev,  S. M. Sharada,  S. Sharma,  D. W. Small,  T. Stauch,  
 C. J. Stein,  T. Stein,  Yu-Chuan Su,  S. P. Veccham,  Zhen Tao,  
 A. J. W. Thom,  A. Tkatchenko,  T. Tsuchimochi,  N. M. Tubman,  L. Vogt,  
 M. L. Vidal,  O. Vydrov,  M. A. Watson,  J. Wenzel,  M. de Wergifosse,  
 T. A. Wesolowski,  A. White,  J. Witte,  A. Yamada,  Jun Yang,  K. Yao,  
 S. Yeganeh,  S. R. Yost,  Zhi-Qiang You,  A. Zech,  Igor Ying Zhang,  
 Xing Zhang,  Yan Zhao,  Ying Zhu,  B. R. Brooks,  G. K. L. Chan,  
 C. J. Cramer,  M. S. Gordon,  W. J. Hehre,  A. Klamt,  M. W. Schmidt,  
 C. D. Sherrill,  D. G. Truhlar,  A. Aspuru-Guzik,  R. Baer,  A. T. Bell,  
 N. A. Besley,  Jeng-Da Chai,  A. E. DePrince, III,  R. A. DiStasio Jr.,  
 A. Dreuw,  B. D. Dunietz,  T. R. Furlani,  Chao-Ping Hsu,  Yousung Jung,  
 Jing Kong,  D. S. Lambrecht,  WanZhen Liang,  C. Ochsenfeld,  
 V. A. Rassolov,  L. V. Slipchenko,  J. E. Subotnik,  T. Van Voorhis,  
 J. M. Herbert,  A. I. Krylov,  P. M. W. Gill,  M. Head-Gordon

 Contributors to earlier versions of Q-Chem not listed above: 
 R. D. Adamson,  B. Austin,  J. Baker,  G. J. O. Beran,  K. Brandhorst,  
 S. T. Brown,  E. F. C. Byrd,  A. K. Chakraborty,  C.-L. Cheng,  
 Siu Hung Chien,  D. M. Chipman,  D. L. Crittenden,  H. Dachsel,  
 R. J. Doerksen,  A. D. Dutoi,  L. Fusti-Molnar,  W. A. Goddard III,  
 A. Golubeva-Zadorozhnaya,  S. R. Gwaltney,  G. Hawkins,  A. Heyden,  
 S. Hirata,  G. Kedziora,  F. J. Keil,  C. Kelley,  Jihan Kim,  R. A. King,  
 R. Z. Khaliullin,  P. P. Korambath,  W. Kurlancheek,  A. M. Lee,  M. S. Lee,  
 S. V. Levchenko,  Ching Yeh Lin,  D. Liotard,  R. C. Lochan,  I. Lotan,  
 P. E. Maslen,  N. Nair,  D. P. O'Neill,  D. Neuhauser,  E. Neuscamman,  
 C. M. Oana,  R. Olson,  B. Peters,  R. Peverati,  P. A. Pieniazek,  
 Y. M. Rhee,  J. Ritchie,  M. A. Rohrdanz,  E. Rosta,  N. J. Russ,  
 H. F. Schaefer III,  N. E. Schultz,  N. Shenvi,  A. C. Simmonett,  A. Sodt,  
 D. Stuck,  K. S. Thanthiriwatte,  V. Vanovschi,  Tao Wang,  A. Warshel,  
 C. F. Williams,  Q. Wu,  X. Xu,  W. Zhang

 Please cite Q-Chem as follows:
 Y. Shao et al., Mol. Phys. 113, 184-215 (2015)
 DOI: 10.1080/00268976.2014.952696

 Q-Chem 5.3.0 for Intel X86 EM64T Linux

 Parts of Q-Chem use Armadillo 9.800.1 (Horizon Scraper).
 http://arma.sourceforge.net/

 Q-Chem begins on Sat Aug 22 19:48:15 2020  

n0044.mhg0
Host: 0

     Scratch files written to /local/scratch/users/yhljason/P2_BPBE_aug-pc-4.inp20200822180712//
Processing $rem in /clusterfs/mhg/diptarka/qchem_transmom//config/preferences:
Processing $rem in /global/home/users/yhljason/.qchemrc:

Checking the input file for inconsistencies... 	...done.

--------------------------------------------------------------
User input:
--------------------------------------------------------------
$molecule
0 1
P1 0.0000   0.0000   0.0000
P2 0.0000   0.0000   1.8934
$end

$rem
jobtype sp
method BPBE
xc_grid 000099000590
basis aug-pc-4
max_scf_cycles 200
thresh 14
scf_convergence 8
scf_algorithm gdm
symmetry false
sym_ignore true
unrestricted true
gen_scfman true
internal_stability_iter 15
internal_stability_davidson_iter 200
mem_total 64000
mem_static 1500
n_frozen_core 0
$end


--------------------------------------------------------------
 ----------------------------------------------------------------
             Standard Nuclear Orientation (Angstroms)
    I     Atom           X                Y                Z
 ----------------------------------------------------------------
    1      P       0.0000000000     0.0000000000     0.0000000000
    2      P       0.0000000000     0.0000000000     1.8934000000
 ----------------------------------------------------------------
 Nuclear Repulsion Energy =          62.88416205 hartrees
 There are       15 alpha and       15 beta electrons
 Requested basis set is aug-pc-4
 There are 62 shells and 282 basis functions

 Total QAlloc Memory Limit  64000 MB
 Mega-Array Size      1467 MB
 MEM_STATIC part      1500 MB

                       Distance Matrix (Angstroms)
             P (  1)
   P (  2)  1.893400

 A cutoff of  1.0D-14 yielded   1945 shell pairs
 There are     40593 function pairs (     80555 Cartesian)
 Smallest overlap matrix eigenvalue = 2.57E-06

 Scale SEOQF with 1.000000e-01/1.000000e-01/1.000000e-01

 Standard Electronic Orientation quadrupole field applied
 Nucleus-field energy     =    -0.0000000058 hartrees
 Guess from superposition of atomic densities
 Warning:  Energy on first SCF cycle will be non-variational
 SAD guess density has 30.000000 electrons

 -----------------------------------------------------------------------
  General SCF calculation program by
  Eric Jon Sundstrom, Paul Horn, Yuezhi Mao, Dmitri Zuev, Alec White,
  David Stuck, Shaama M.S., Shane Yost, Joonho Lee, David Small,
  Daniel Levine, Susi Lehtola, Hugh Burton, Evgeny Epifanovsky,
  Bang C. Huynh
 -----------------------------------------------------------------------
 Exchange:  B88      Correlation:  PBE
 Using Euler-Maclaurin-Lebedev (99,590) quadrature formula
Running Object-Oriented UKS (UHF)
performing a single roothaan step with Fock from read density so that orbitals are available to all algorithms
energy of the guess density (C=0) -682.801502187700
We will preform up to 15 macro iterations over saddle points until a stable solution is found
Energy prior to optimization (guess energy) = -682.633541782047
Begin Timing: Total SCF Calculation
Begin Timing: SCF Single Stationary Point Calculation
begin iterations for algorithm: GDM          
the SCF tolerance is set to 1.00e-08
    1    -682.6335417820      7.67e-02     00000  Descent step
    2    -682.6205546743      9.16e-02     00000 Line search: overstep
    3    -682.6584512609      5.49e-03     00000  Normal BFGS step
    4    -682.6588745277      2.02e-03     00000  Normal BFGS step
    5    -682.6589115353      9.46e-05     00000  Normal BFGS step
    6    -682.6589116378      5.05e-05     00000  Normal BFGS step
    7    -682.6589116642      3.73e-06     00000  Normal BFGS step
    8    -682.6589116645      8.85e-07     00000  Normal BFGS step
    9    -682.6589116645      2.20e-08     00000  Normal BFGS step
   10    -682.6589116645      4.74e-09     00000 Convergence criterion met
Timing for Single Stationary Point: 587.00s (wall), 4609.03s (cpu)
Begin Timing: Stability
===================================================
Beginning Test for Internal Stability
===================================================
generating davidson guess vectors based on koopmans excitations
 Warning: Hessian-vector products not implemented
 Finite difference Hessian-vector products will be used.
computing hessian-vector products by finite difference
    1      6.31e-01     00000 Davidson Iteration
computing hessian-vector products by finite difference
    2      3.24e-01     00000 Davidson Iteration
computing hessian-vector products by finite difference
    3      8.75e-02     00000 Davidson Iteration
computing hessian-vector products by finite difference
    4      2.66e-02     00000 Davidson Iteration
computing hessian-vector products by finite difference
    5      2.44e-03     00000 Davidson Iteration
computing hessian-vector products by finite difference
    6      2.83e-04     00000 Davidson Iteration
computing hessian-vector products by finite difference
    7      1.25e-04     00000 Davidson Iteration
computing hessian-vector products by finite difference
    8      3.61e-05     00000 Davidson Iteration
computing hessian-vector products by finite difference
    9      4.84e-03     00000 Davidson Iteration
computing hessian-vector products by finite difference
   10      2.45e-03     00000 Davidson Iteration
computing hessian-vector products by finite difference
   11      4.91e-04     00000 Davidson Iteration
computing hessian-vector products by finite difference
   12      2.11e-04     00000 Davidson Iteration
computing hessian-vector products by finite difference
   13      9.46e-05     00000 Davidson Converged
converged_eigenvalues
   0.1616
   0.1159
Threshold for negative eigenvalues: -1.0e-05
solution was a local minimum (stable)
===================================================
End Test for Internal Stability
===================================================
Timing for Internal Stability: 3843.00s (wall), 30119.18s (cpu)
Our SCF solution is stable!
Timing for Total SCF: 4430.00s (wall), 34728.26s (cpu)
 Total energy in the final basis set =     -682.6589116645
<S^2> =         -0.000000000
    ==================================================
              The end of Object-Oriented SCFman       
    ==================================================

 --------------------------------------------------------------

                    Orbital Energies (a.u.)
 --------------------------------------------------------------

 Alpha MOs
 -- Occupied --
-76.3336 -76.3336  -6.3267  -6.3262  -4.5449  -4.5449  -4.5447  -4.5447
 -4.5407  -4.5386  -0.6206  -0.4234  -0.2643  -0.2612  -0.2612
 -- Virtual --
 -0.1250  -0.1250  -0.0022  -0.0014   0.0131   0.0131   0.0233   0.0317
  0.0317   0.0365   0.0541   0.0541   0.0744   0.0831   0.0831   0.0835
  0.1089   0.1089   0.1098   0.1098   0.1106   0.1133   0.1133   0.1314
  0.1720   0.1734   0.1734   0.1753   0.1753   0.1882   0.1882   0.1908
  0.1908   0.1910   0.2278   0.2278   0.2323   0.2323   0.2606   0.2610
  0.2681   0.2681   0.2910   0.2910   0.2980   0.3105   0.3105   0.3449
  0.3449   0.3468   0.3468   0.3710   0.3710   0.3849   0.4056   0.4121
  0.4121   0.4158   0.4158   0.4241   0.4241   0.4281   0.4281   0.4587
  0.4587   0.4669   0.4722   0.4722   0.4748   0.4748   0.4827   0.4827
  0.5201   0.5227   0.5275   0.5275   0.5444   0.5444   0.5503   0.5503
  0.5730   0.5730   0.5739   0.5739   0.6083   0.6083   0.6103   0.6205
  0.6205   0.6979   0.7061   0.7061   0.7153   0.7153   0.7173   0.7173
  0.7264   0.7264   0.7540   0.7819   0.7819   0.7886   0.8257   0.8619
  0.8619   0.9074   0.9074   0.9417   0.9417   0.9678   0.9678   1.0411
  1.0482   1.0482   1.0582   1.0582   1.1389   1.1469   1.1469   1.1649
  1.1938   1.1945   1.1945   1.2014   1.2014   1.2702   1.2702   1.5341
  1.5793   1.5793   1.7394   1.9926   2.0062   2.0062   2.0102   2.0102
  2.0121   2.0121   2.0832   2.0832   2.1322   2.1322   2.1493   2.1493
  2.1826   2.1826   2.2406   2.2406   2.3135   2.3135   2.4045   2.4715
  2.4715   2.5508   2.7206   2.7446   2.7446   2.7825   2.7825   2.8324
  2.8439   2.8439   2.8625   2.8625   2.9087   2.9112   2.9112   2.9897
  3.0308   3.0308   3.0379   3.0379   3.1211   3.1211   3.1350   3.1350
  3.1796   3.5344   3.8162   3.8162   4.4285   4.4285   4.5728   4.5728
  4.5750   4.5750   4.6940   4.6940   4.7277   4.7277   4.7722   4.7722
  4.8557   4.8557   4.8671   5.2578   5.2578   5.2693   5.3423   5.3423
  5.3567   5.3568   5.4525   5.4525   5.6087   5.6087   5.7006   5.9105
  5.9105   5.9621   6.0753   6.0753   6.4761   7.2422   7.2422   7.2569
  7.2569   7.3002   7.3002   7.4053   7.4053   7.4230   7.4230   7.6935
  7.6935   7.7032   7.7164   7.7164   7.9822   7.9822   7.9966  10.2170
 10.2170  10.2374  10.2374  10.2697  10.2697  10.2934  10.2934  10.3295
 10.3295  10.3296  10.9345  10.9345  11.3685  16.0693  16.0693  16.0804
 16.0804  16.1251  16.1251  16.2344  16.2344  16.4094  16.7992  21.1728
 22.4012  58.8308  58.8308  58.8361  58.8361  58.8610  58.8610  58.9289
 58.9289  59.1053  59.2303

 Beta MOs
 -- Occupied --
-76.3336 -76.3336  -6.3267  -6.3262  -4.5449  -4.5449  -4.5447  -4.5447
 -4.5407  -4.5386  -0.6206  -0.4234  -0.2643  -0.2612  -0.2612
 -- Virtual --
 -0.1250  -0.1250  -0.0022  -0.0014   0.0131   0.0131   0.0233   0.0317
  0.0317   0.0365   0.0541   0.0541   0.0744   0.0831   0.0831   0.0835
  0.1089   0.1089   0.1098   0.1098   0.1106   0.1133   0.1133   0.1314
  0.1720   0.1734   0.1734   0.1753   0.1753   0.1882   0.1882   0.1908
  0.1908   0.1910   0.2278   0.2278   0.2323   0.2323   0.2606   0.2610
  0.2681   0.2681   0.2910   0.2910   0.2980   0.3105   0.3105   0.3449
  0.3449   0.3468   0.3468   0.3710   0.3710   0.3849   0.4056   0.4121
  0.4121   0.4158   0.4158   0.4241   0.4241   0.4281   0.4281   0.4587
  0.4587   0.4669   0.4722   0.4722   0.4748   0.4748   0.4827   0.4827
  0.5201   0.5227   0.5275   0.5275   0.5444   0.5444   0.5503   0.5503
  0.5730   0.5730   0.5739   0.5739   0.6083   0.6083   0.6103   0.6205
  0.6205   0.6979   0.7061   0.7061   0.7153   0.7153   0.7173   0.7173
  0.7264   0.7264   0.7540   0.7819   0.7819   0.7886   0.8257   0.8619
  0.8619   0.9074   0.9074   0.9417   0.9417   0.9678   0.9678   1.0411
  1.0482   1.0482   1.0582   1.0582   1.1389   1.1469   1.1469   1.1649
  1.1938   1.1945   1.1945   1.2014   1.2014   1.2702   1.2702   1.5341
  1.5793   1.5793   1.7394   1.9926   2.0062   2.0062   2.0102   2.0102
  2.0121   2.0121   2.0832   2.0832   2.1322   2.1322   2.1493   2.1493
  2.1826   2.1826   2.2406   2.2406   2.3135   2.3135   2.4045   2.4715
  2.4715   2.5508   2.7206   2.7446   2.7446   2.7825   2.7825   2.8324
  2.8439   2.8439   2.8625   2.8625   2.9087   2.9112   2.9112   2.9897
  3.0308   3.0308   3.0379   3.0379   3.1211   3.1211   3.1350   3.1350
  3.1796   3.5344   3.8162   3.8162   4.4285   4.4285   4.5728   4.5728
  4.5750   4.5750   4.6940   4.6940   4.7277   4.7277   4.7722   4.7722
  4.8557   4.8557   4.8671   5.2578   5.2578   5.2693   5.3423   5.3423
  5.3567   5.3568   5.4525   5.4525   5.6087   5.6087   5.7006   5.9105
  5.9105   5.9621   6.0753   6.0753   6.4761   7.2422   7.2422   7.2569
  7.2569   7.3002   7.3002   7.4053   7.4053   7.4230   7.4230   7.6935
  7.6935   7.7032   7.7164   7.7164   7.9822   7.9822   7.9966  10.2170
 10.2170  10.2374  10.2374  10.2697  10.2697  10.2934  10.2934  10.3295
 10.3295  10.3296  10.9345  10.9345  11.3685  16.0693  16.0693  16.0804
 16.0804  16.1251  16.1251  16.2344  16.2344  16.4094  16.7992  21.1728
 22.4012  58.8308  58.8308  58.8361  58.8361  58.8610  58.8610  58.9289
 58.9289  59.1053  59.2303
 --------------------------------------------------------------

          Ground-State Mulliken Net Atomic Charges

     Atom                 Charge (a.u.)    Spin (a.u.)
  --------------------------------------------------------
      1 P                    -0.000000       0.000000
      2 P                     0.000000      -0.000000
  --------------------------------------------------------
  Sum of atomic charges =    -0.000000
  Sum of spin   charges =     0.000000

 -----------------------------------------------------------------
                    Cartesian Multipole Moments
 -----------------------------------------------------------------
    Charge (ESU x 10^10)
                 0.0000
    Dipole Moment (Debye)
         X       0.0000      Y      -0.0000      Z       0.0000
       Tot       0.0000
    Quadrupole Moments (Debye-Ang)
        XX     -25.8737     XY      -0.0000     YY     -25.8737
        XZ       0.0000     YZ       0.0000     ZZ     -25.1777
    Octopole Moments (Debye-Ang^2)
       XXX       0.0000    XXY      -0.0000    XYY       0.0000
       YYY      -0.0000    XXZ     -24.4947    XYZ       0.0000
       YYZ     -24.4947    XZZ       0.0000    YZZ       0.0000
       ZZZ     -71.5072
    Hexadecapole Moments (Debye-Ang^3)
      XXXX     -40.8216   XXXY      -0.0000   XXYY     -13.6072
      XYYY      -0.0000   YYYY     -40.8216   XXXZ       0.0000
      XXYZ       0.0000   XYYZ       0.0000   YYYZ       0.0000
      XXZZ     -58.5490   XYZZ       0.0000   YYZZ     -58.5490
      XZZZ       0.0000   YZZZ       0.0000   ZZZZ    -317.9638
 -----------------------------------------------------------------
Archival summary:
1\1\n0044.mhg0\SP\ProcedureUnspecified\BasisUnspecified\2\yhljason\SatAug2221:04:122020SatAug2221:04:122020\0\\#,ProcedureUnspecified,BasisUnspecified,\\0,1\P\P,1,1.8934\\\@

 Total job time:  4557.60s(wall), 35657.52s(cpu) 
 Sat Aug 22 21:04:12 2020

        *************************************************************
        *                                                           *
        *  Thank you very much for using Q-Chem.  Have a nice day.  *
        *                                                           *
        *************************************************************


