Q-Chem Developer Version!
                  Welcome to Q-Chem
     A Quantum Leap Into The Future Of Chemistry


 Q-Chem 5.1, Q-Chem, Inc., Pleasanton, CA (2018)

 Yihan Shao,  Zhengting Gan,  E. Epifanovsky,  A. T. B. Gilbert,  M. Wormit,  
 J. Kussmann,  A. W. Lange,  A. Behn,  Jia Deng,  Xintian Feng,  D. Ghosh,  
 M. Goldey,  P. R. Horn,  L. D. Jacobson,  I. Kaliman,  T. Kus,  A. Landau,  
 Jie Liu,  E. I. Proynov,  R. M. Richard,  R. P. Steele,  E. J. Sundstrom,  
 H. L. Woodcock III,  P. M. Zimmerman,  D. Zuev,  B. Albrecht,  E. Alguire,  
 S. A. Baeppler,  D. Barton,  Z. Benda,  Y. A. Bernard,  E. J. Berquist,  
 K. B. Bravaya,  H. Burton,  D. Casanova,  Chun-Min Chang,  Yunqing Chen,  
 A. Chien,  K. D. Closser,  M. P. Coons,  S. Coriani,  S. Dasgupta,  
 A. L. Dempwolff,  M. Diedenhofen,  Hainam Do,  R. G. Edgar,  Po-Tung Fang,  
 S. Faraji,  S. Fatehi,  Qingguo Feng,  K. D. Fenk,  J. Fosso-Tande,  
 Qinghui Ge,  A. Ghysels,  G. Gidofalvi,  J. Gomes,  J. Gonthier,  A. Gunina,  
 D. Hait,  M. W. D. Hanson-Heine,  P. H. P. Harbach,  A. W. Hauser,  
 J. E. Herr,  E. G. Hohenstein,  Z. C. Holden,  Kerwin Hui,  B. C. Huynh,  
 T.-C. Jagau,  Hyunjun Ji,  B. Kaduk,  K. Khistyaev,  Jaehoon Kim,  
 P. Klunzinger,  K. Koh,  D. Kosenkov,  L. Koulias,  T. Kowalczyk,  
 C. M. Krauter,  A. Kunitsa,  Ka Un Lao,  A. Laurent,  K. V. Lawler,  
 Joonho Lee,  D. Lefrancois,  S. Lehtola,  D. S. Levine,  Yi-Pei Li,  
 You-Sheng Lin,  Fenglai Liu,  E. Livshits,  A. Luenser,  P. Manohar,  
 E. Mansoor,  S. F. Manzer,  Shan-Ping Mao,  Yuezhi Mao,  N. Mardirossian,  
 A. V. Marenich,  T. Markovich,  L. A. Martinez-Martinez,  S. A. Maurer,  
 N. J. Mayhall,  S. C. McKenzie,  J.-M. Mewes,  A. F. Morrison,  
 J. W. Mullinax,  K. Nanda,  T. S. Nguyen-Beck,  R. Olivares-Amaya,  
 J. A. Parkhill,  T. M. Perrine,  F. Plasser,  P. Pokhilko,  S. Prager,  
 A. Prociuk,  E. Ramos,  D. R. Rehn,  F. Rob,  M. Schneider,  N. Sergueev,  
 S. M. Sharada,  S. Sharma,  D. W. Small,  T. Stauch,  T. Stein,  
 Yu-Chuan Su,  A. J. W. Thom,  A. Tkatchenko,  T. Tsuchimochi,  N. M. Tubman,  
 L. Vogt,  M. L. Vidal,  O. Vydrov,  M. A. Watson,  J. Wenzel,  
 M. de Wergifosse,  T. A. Wesolowski,  A. White,  J. Witte,  A. Yamada,  
 Jun Yang,  K. Yao,  S. Yeganeh,  S. R. Yost,  Zhi-Qiang You,  A. Zech,  
 Igor Ying Zhang,  Xing Zhang,  Yan Zhao,  Ying Zhu,  B. R. Brooks,  
 G. K. L. Chan,  C. J. Cramer,  M. S. Gordon,  W. J. Hehre,  A. Klamt,  
 M. W. Schmidt,  C. D. Sherrill,  D. G. Truhlar,  A. Aspuru-Guzik,  R. Baer,  
 A. T. Bell,  N. A. Besley,  Jeng-Da Chai,  A. E. DePrince, III,  
 R. A. DiStasio Jr.,  A. Dreuw,  B. D. Dunietz,  T. R. Furlani,  
 Chao-Ping Hsu,  Yousung Jung,  Jing Kong,  D. S. Lambrecht,  WanZhen Liang,  
 C. Ochsenfeld,  V. A. Rassolov,  L. V. Slipchenko,  J. E. Subotnik,  
 T. Van Voorhis,  J. M. Herbert,  A. I. Krylov,  P. M. W. Gill,  M. Head-Gordon

 Contributors to earlier versions of Q-Chem not listed above: 
 R. D. Adamson,  B. Austin,  J. Baker,  G. J. O. Beran,  K. Brandhorst,  
 S. T. Brown,  E. F. C. Byrd,  A. K. Chakraborty,  C.-L. Cheng,  
 Siu Hung Chien,  D. M. Chipman,  D. L. Crittenden,  H. Dachsel,  
 R. J. Doerksen,  A. D. Dutoi,  L. Fusti-Molnar,  W. A. Goddard III,  
 A. Golubeva-Zadorozhnaya,  S. R. Gwaltney,  G. Hawkins,  A. Heyden,  
 S. Hirata,  G. Kedziora,  F. J. Keil,  C. Kelley,  Jihan Kim,  R. A. King,  
 R. Z. Khaliullin,  P. P. Korambath,  W. Kurlancheek,  A. M. Lee,  M. S. Lee,  
 S. V. Levchenko,  Ching Yeh Lin,  D. Liotard,  R. C. Lochan,  I. Lotan,  
 P. E. Maslen,  N. Nair,  D. P. O'Neill,  D. Neuhauser,  E. Neuscamman,  
 C. M. Oana,  R. Olson,  B. Peters,  R. Peverati,  P. A. Pieniazek,  
 Y. M. Rhee,  J. Ritchie,  M. A. Rohrdanz,  E. Rosta,  N. J. Russ,  
 H. F. Schaefer III,  N. E. Schultz,  N. Shenvi,  A. C. Simmonett,  A. Sodt,  
 D. Stuck,  K. S. Thanthiriwatte,  V. Vanovschi,  Tao Wang,  A. Warshel,  
 C. F. Williams,  Q. Wu,  X. Xu,  W. Zhang

 Please cite Q-Chem as follows:
 Y. Shao et al., Mol. Phys. 113, 184-215 (2015)
 DOI: 10.1080/00268976.2014.952696

 Q-Chem 5.1.1 for Intel X86 EM64T Linux

 Parts of Q-Chem use Armadillo 8.300.2 (Tropical Shenanigans).
 http://arma.sourceforge.net/

 Q-Chem begins on Thu Aug 20 06:22:37 2020  

Host: n0092.mhg0
0

     Scratch files written to /local/scratch/users/yhljason/PH2_B97-D3_aug-pc-4.inp20200820002130//
Input Ideriv = 2
Curr. Ideriv = -1
Max.  Ideriv = 2

Checking the input file for inconsistencies... 	...done.

--------------------------------------------------------------
User input:
--------------------------------------------------------------
$molecule
0 2
P1	0.0000	0.0000	0.0000
H2	0.0000	1.0229	0.9964
H3	0.0000	-1.0229	0.9964
$end

$rem
jobtype sp
method B97-D3
xc_grid 000099000590
basis aug-pc-4
max_scf_cycles 200
thresh 14
scf_convergence 8
scf_algorithm gdm
symmetry false
sym_ignore true
unrestricted true
gen_scfman true
internal_stability_iter 15
internal_stability_davidson_iter 200
mem_total 64000
mem_static 1500
n_frozen_core 0
$end


--------------------------------------------------------------
 Adding empirical dispersion correction 
 ----------------------------------------------------------------
 Doing -D3(0) with
 s6  =   1.00000
 s8  =   0.90900
 rs6 =   0.89200
 rs8 =   1.00000
 -D3 energy without 3body term =     -0.0002781269 hartrees
 ----------------------------------------------------------------
             Standard Nuclear Orientation (Angstroms)
    I     Atom           X                Y                Z
 ----------------------------------------------------------------
    1      P       0.0000000000     0.0000000000     0.0000000000
    2      H       0.0000000000     1.0229000000     0.9964000000
    3      H       0.0000000000    -1.0229000000     0.9964000000
 ----------------------------------------------------------------
 Nuclear Repulsion Energy =    11.3756824504 hartrees
 There are        9 alpha and        8 beta electrons
 Requested basis set is aug-pc-4
 There are 79 shells and 317 basis functions

 Total QAlloc Memory Limit  64000 MB
 Mega-Array Size      1467 MB
 MEM_STATIC part      1500 MB

                       Distance Matrix (Angstroms)
             P (  1)   H (  2)
   H (  2)  1.427984
   H (  3)  1.427984  2.045800
 
 A cutoff of  1.0D-14 yielded   3139 shell pairs
 There are     51031 function pairs (     91792 Cartesian)
 
 -------------------------------------------------------
 OpenMP Integral Computing Module                       
 Release: version 1.0, May 2013, Q-Chem Inc. Pittsburgh 
 -------------------------------------------------------
 Integral Job Info:
 Integral job number is                      11
 Integral operator is                         1
 short-range coefficients                     0
 long-range coefficients              100000000
 Omega coefficients                           0
 if combine SR and LR in K                    0
 Integral screening is                        0
 Integral computing path is                   2
 max size of driver memory is           6400000
 size of driver memory is               5498286
 size of scratch memory is             27847117
 max col of scratch BK array             194481
 max len of scratch array in speh3         5572
 max len of scratch index in speh4           72
 max int batch size is                      520
 min int batch size is                       52
 fixed nKL is                                 7
 max L of basis functions is                  5
 order of int derivative is                   0
 number of shells is                         79
 number of basis is                         424
 number of cartesian basis is               424
 number of contracted shell pairs          3139
 number of primitive shell pairs           9862
 maxK2 (contraction) of shell pair          225
 max number of K2 of shell pair               1
 max number of CS2 of shell pair            359
 max number of PS2 of shell pair            528
 mem total for path MDJ                  900380
 -------------------------------------------------------
 Smallest overlap matrix eigenvalue = 4.00E-06

 Scale SEOQF with 1.000000e-01/1.000000e-01/1.000000e-01

 Standard Electronic Orientation quadrupole field applied
 Guess from superposition of atomic densities
 Warning:  Energy on first SCF cycle will be non-variational
 SAD guess density has 17.000000 electrons

 -----------------------------------------------------------------------
  General SCF calculation program by
  Eric Jon Sundstrom, Paul Horn, Yuezhi Mao, Dmitri Zuev, Alec White,
  David Stuck, Shaama M.S., Shane Yost, Joonho Lee, David Small,
  Daniel Levine, Susi Lehtola, Hugh Burton, Evgeny Epifanovsky
 -----------------------------------------------------------------------
 Exchange:  B97-D      Correlation:  B97-D
 Using Euler-Maclaurin-Lebedev (99,590) quadrature formula
 Dispersion:   Grimme D3
Running Object-Oriented UKS (UHF)
performing a single roothaan step with Fock from read density so that orbitals are available to all algorithms
energy of the guess density (C=0) -342.466739738227
We will preform up to 15 macro iterations over saddle points until a stable solution is found
Energy prior to optimization (guess energy) = -342.524658991745
Begin Timing: Total SCF Calculation
Begin Timing: SCF Single Stationary Point Calculation
begin iterations for algorithm: GDM          
the SCF tolerance is set to 1.00e-08
    1    -342.5246589917      3.51e-02     00000  Normal BFGS step
    2    -342.5309416216      2.77e-02     00000  Normal BFGS step
    3    -342.5336893204      6.43e-03     00000  Normal BFGS step
    4    -342.5337584023      3.09e-03     00000  Normal BFGS step
    5    -342.5338009592      9.09e-04     00000  Normal BFGS step
    6    -342.5338032245      3.22e-04     00000  Normal BFGS step
    7    -342.5338040981      1.56e-05     00000  Normal BFGS step
    8    -342.5338041005      4.01e-06     00000  Normal BFGS step
    9    -342.5338041007      1.34e-06     00000  Normal BFGS step
   10    -342.5338041007      1.50e-07     00000  Normal BFGS step
   11    -342.5338041007      4.29e-08     00000  Normal BFGS step
   12    -342.5338041007      3.15e-08     00000  Normal BFGS step
   13    -342.5338041007      6.08e-09     00000 Convergence criterion met
Timing for Single Stationary Point: 186.00s (wall), 1482.73s (cpu)
Begin Timing: Stability
===================================================
Beginning Test for Internal Stability
===================================================
generating davidson guess vectors based on koopmans excitations
    1      7.06e-01     00000 Davidson Iteration
    2      2.94e-01     00000 Davidson Iteration
    3      1.00e-01     00000 Davidson Iteration
    4      5.53e-03     00000 Davidson Iteration
    5      1.63e-03     00000 Davidson Iteration
    6      6.71e-04     00000 Davidson Iteration
    7      2.55e-04     00000 Davidson Iteration
    8      7.75e-05     00000 Davidson Iteration
    9      1.50e-05     00000 Davidson Converged
converged_eigenvalues
   0.1950
   0.3368
Threshold for negative eigenvalues: -1.0e-05
solution was a local minimum (stable)
===================================================
End Test for Internal Stability
===================================================
Our SCF solution is stable!
Timing for Total SCF: 1463.00s (wall), 11690.46s (cpu)
 Total energy in the final basis set =     -342.5338041007
<S^2> =          0.757164103
    ==================================================
              The end of Object-Oriented SCFman       
    ==================================================
 
 --------------------------------------------------------------
 
                    Orbital Energies (a.u.)
 --------------------------------------------------------------
 
 Alpha MOs
 -- Occupied --
-76.271  -6.355  -4.582  -4.578  -4.575  -0.580  -0.350  -0.279
 -0.220
 -- Virtual --
 -0.024  -0.015   0.007   0.011   0.015   0.024   0.043   0.045
  0.052   0.053   0.055   0.077   0.081   0.087   0.108   0.116
  0.117   0.120   0.123   0.131   0.134   0.136   0.149   0.151
  0.154   0.159   0.193   0.214   0.219   0.221   0.227   0.230
  0.238   0.238   0.253   0.255   0.264   0.264   0.272   0.276
  0.278   0.284   0.292   0.300   0.327   0.347   0.349   0.351
  0.369   0.369   0.387   0.387   0.398   0.400   0.404   0.425
  0.427   0.430   0.430   0.441   0.451   0.464   0.468   0.473
  0.480   0.487   0.489   0.493   0.510   0.516   0.524   0.534
  0.546   0.551   0.561   0.579   0.582   0.602   0.602   0.610
  0.612   0.626   0.629   0.630   0.630   0.644   0.644   0.657
  0.657   0.668   0.670   0.673   0.688   0.717   0.722   0.736
  0.746   0.752   0.753   0.759   0.763   0.768   0.770   0.794
  0.804   0.825   0.832   0.849   0.856   0.891   0.924   0.926
  0.952   0.968   0.991   1.043   1.091   1.121   1.169   1.172
  1.187   1.188   1.217   1.230   1.248   1.272   1.301   1.331
  1.390   1.400   1.432   1.440   1.445   1.447   1.491   1.509
  1.601   1.602   1.612   1.660   1.689   1.700   2.116   2.127
  2.139   2.142   2.181   2.273   2.331   2.336   2.375   2.443
  2.517   2.578   2.626   2.629   2.634   2.786   2.847   2.857
  2.860   2.908   2.916   2.946   2.982   2.992   3.043   3.056
  3.079   3.157   3.235   3.334   3.378   3.414   3.422   3.429
  3.469   3.470   3.542   3.553   3.602   3.658   3.679   3.704
  3.720   3.758   3.793   3.956   3.960   4.030   4.214   4.286
  4.477   4.851   4.852   4.871   4.879   4.978   4.980   4.987
  5.196   5.196   5.307   5.335   5.357   5.428   5.466   5.647
  5.673   5.775   5.787   6.040   6.238   6.275   6.320   6.665
  7.050   7.405   7.408   7.413   7.511   7.597   7.617   7.777
  7.925   7.970   8.414   8.445   8.468   8.478   8.818   8.821
  8.862   8.869   9.029   9.062   9.073   9.153   9.205   9.270
  9.549   9.569  10.338  10.664  10.734  10.764  10.924  11.181
 11.281  11.537  11.762  12.267  12.275  12.319  12.327  12.534
 12.542  12.613  12.733  12.902  12.932  12.965  13.115  13.349
 13.514  16.070  16.074  16.075  16.503  16.718  16.727  16.727
 16.728  16.730  16.751  16.778  16.787  16.863  16.964  16.986
 17.099  17.142  17.652  17.691  17.699  17.712  17.851  18.870
 23.104  23.243  23.263  23.298  23.325  23.951  24.875  39.540
 39.695  58.867  58.871  58.950  59.113  59.687  90.860  90.874
 90.899  90.901  91.353  91.394
 
 Beta MOs
 -- Occupied --
-76.267  -6.353  -4.576  -4.574  -4.572  -0.547  -0.342  -0.263
 -- Virtual --
 -0.159  -0.012  -0.010   0.022   0.022   0.043   0.043   0.046
  0.053   0.064   0.076   0.076   0.084   0.092   0.118   0.126
  0.127   0.140   0.144   0.148   0.155   0.167   0.167   0.180
  0.184   0.193   0.204   0.208   0.226   0.234   0.238   0.261
  0.263   0.265   0.266   0.275   0.276   0.279   0.283   0.288
  0.295   0.302   0.304   0.304   0.306   0.340   0.352   0.360
  0.372   0.390   0.406   0.411   0.416   0.430   0.431   0.432
  0.444   0.457   0.464   0.467   0.473   0.477   0.478   0.483
  0.484   0.493   0.498   0.503   0.510   0.515   0.521   0.534
  0.548   0.552   0.562   0.563   0.599   0.600   0.600   0.604
  0.614   0.619   0.641   0.641   0.643   0.647   0.656   0.658
  0.677   0.682   0.690   0.691   0.700   0.701   0.726   0.732
  0.753   0.753   0.754   0.756   0.775   0.778   0.780   0.780
  0.806   0.817   0.829   0.836   0.853   0.878   0.898   0.934
  0.945   0.965   0.988   0.992   1.060   1.116   1.127   1.188
  1.208   1.212   1.213   1.238   1.247   1.257   1.283   1.320
  1.352   1.385   1.406   1.428   1.445   1.446   1.452   1.495
  1.512   1.605   1.609   1.620   1.679   1.701   1.704   2.154
  2.182   2.185   2.192   2.201   2.290   2.350   2.372   2.417
  2.478   2.534   2.607   2.647   2.664   2.674   2.823   2.857
  2.886   2.896   2.949   2.951   2.976   2.998   3.009   3.053
  3.072   3.097   3.162   3.280   3.338   3.382   3.418   3.425
  3.440   3.474   3.482   3.547   3.574   3.611   3.678   3.678
  3.706   3.725   3.763   3.804   3.977   3.978   4.040   4.253
  4.303   4.491   4.864   4.867   4.898   4.900   4.999   5.010
  5.042   5.208   5.221   5.332   5.377   5.415   5.486   5.510
  5.696   5.722   5.798   5.809   6.072   6.272   6.291   6.326
  6.678   7.088   7.458   7.462   7.466   7.566   7.635   7.659
  7.779   7.943   7.974   8.414   8.445   8.464   8.474   8.815
  8.817   8.859   8.864   9.029   9.061   9.072   9.154   9.202
  9.266   9.545   9.566  10.335  10.662  10.731  10.763  10.922
 11.178  11.278  11.536  11.763  12.262  12.270  12.314  12.322
 12.530  12.538  12.609  12.728  12.898  12.929  12.960  13.110
 13.342  13.508  16.075  16.082  16.086  16.515  16.712  16.720
 16.721  16.721  16.724  16.745  16.772  16.781  16.860  16.959
 16.982  17.095  17.137  17.651  17.685  17.696  17.709  17.847
 18.869  23.105  23.238  23.258  23.293  23.320  23.947  24.876
 39.542  39.697  58.882  58.885  58.956  59.131  59.692  90.859
 90.873  90.898  90.900  91.353  91.393
 --------------------------------------------------------------
 
          Ground-State Mulliken Net Atomic Charges

     Atom                 Charge (a.u.)    Spin (a.u.)
  --------------------------------------------------------
      1 P                    -0.289208       0.854450
      2 H                     0.144604       0.072775
      3 H                     0.144604       0.072775
  --------------------------------------------------------
  Sum of atomic charges =     0.000000
  Sum of spin   charges =     1.000000

 -----------------------------------------------------------------
                    Cartesian Multipole Moments
 -----------------------------------------------------------------
    Charge (ESU x 10^10)
                 0.0000
    Dipole Moment (Debye)
         X      -0.0000      Y       0.0000      Z       0.5251
       Tot       0.5251
    Quadrupole Moments (Debye-Ang)
        XX     -15.0365     XY      -0.0000     YY     -14.0172
        XZ       0.0000     YZ      -0.0000     ZZ     -15.3355
    Octopole Moments (Debye-Ang^2)
       XXX      -0.0000    XXY      -0.0000    XYY       0.0000
       YYY       0.0000    XXZ      -1.4865    XYZ      -0.0000
       YYZ      -1.4888    XZZ       0.0000    YZZ       0.0000
       ZZZ      -4.7581
    Hexadecapole Moments (Debye-Ang^3)
      XXXX     -23.3014   XXXY      -0.0000   XXYY      -9.2874
      XYYY      -0.0000   YYYY     -30.9942   XXXZ       0.0000
      XXYZ       0.0000   XYYZ       0.0000   YYYZ       0.0000
      XXZZ      -9.9238   XYZZ      -0.0000   YYZZ     -10.3788
      XZZZ       0.0000   YZZZ      -0.0000   ZZZZ     -35.5534
 -----------------------------------------------------------------
Archival summary:
1\1\n0092.mhg0\SP\ProcedureUnspecified\BasisUnspecified\12(2)\yhljason\ThuAug2006:47:242020ThuAug2006:47:242020\0\\#,ProcedureUnspecified,BasisUnspecified,\\0,2\P\H,1,1.42798\H,1,1.42798,2,91.5037\\\@

 Total job time:  1486.67s(wall), 11860.19s(cpu) 
 Thu Aug 20 06:47:24 2020

        *************************************************************
        *                                                           *
        *  Thank you very much for using Q-Chem.  Have a nice day.  *
        *                                                           *
        *************************************************************


