                  Welcome to Q-Chem
     A Quantum Leap Into The Future Of Chemistry


 Q-Chem 5.3 (devel), Q-Chem, Inc., Pleasanton, CA (2020)

 Yihan Shao,  Zhengting Gan,  E. Epifanovsky,  A. T. B. Gilbert,  M. Wormit,  
 J. Kussmann,  A. W. Lange,  A. Behn,  Jia Deng,  Xintian Feng,  D. Ghosh,  
 M. Goldey,  P. R. Horn,  L. D. Jacobson,  I. Kaliman,  T. Kus,  A. Landau,  
 Jie Liu,  E. I. Proynov,  R. M. Richard,  R. P. Steele,  E. J. Sundstrom,  
 H. L. Woodcock III,  P. M. Zimmerman,  D. Zuev,  B. Alam,  B. Albrecht,  
 E. Alguire,  S. A. Baeppler,  D. Barton,  Z. Benda,  Y. A. Bernard,  
 E. J. Berquist,  K. B. Bravaya,  H. Burton,  K. Carter-Fenk,  D. Casanova,  
 Chun-Min Chang,  Yunqing Chen,  A. Chien,  K. D. Closser,  M. P. Coons,  
 S. Coriani,  S. Dasgupta,  A. L. Dempwolff,  M. Diedenhofen,  Hainam Do,  
 R. G. Edgar,  Po-Tung Fang,  S. Faraji,  S. Fatehi,  Qingguo Feng,  
 J. Fosso-Tande,  J. Gayvert,  Qinghui Ge,  A. Ghysels,  G. Gidofalvi,  
 J. Gomes,  J. Gonthier,  A. Gunina,  D. Hait,  M. W. D. Hanson-Heine,  
 P. H. P. Harbach,  A. W. Hauser,  M. F. Herbst,  J. E. Herr,  
 E. G. Hohenstein,  Z. C. Holden,  Kerwin Hui,  B. C. Huynh,  T.-C. Jagau,  
 Hyunjun Ji,  B. Kaduk,  K. Khistyaev,  Jaehoon Kim,  P. Klunzinger,  K. Koh,  
 D. Kosenkov,  L. Koulias,  T. Kowalczyk,  C. M. Krauter,  A. Kunitsa,  
 Ka Un Lao,  A. Laurent,  K. V. Lawler,  Joonho Lee,  D. Lefrancois,  
 S. Lehtola,  D. S. Levine,  Yi-Pei Li,  You-Sheng Lin,  Fenglai Liu,  
 Kuan-Yu Liu,  E. Livshits,  M. Loipersberger,  A. Luenser,  P. Manohar,  
 E. Mansoor,  S. F. Manzer,  Shan-Ping Mao,  Yuezhi Mao,  N. Mardirossian,  
 A. V. Marenich,  T. Markovich,  L. A. Martinez-Martinez,  S. A. Maurer,  
 N. J. Mayhall,  S. C. McKenzie,  J.-M. Mewes,  P. Morgante,  A. F. Morrison,  
 J. W. Mullinax,  K. Nanda,  T. S. Nguyen-Beck,  R. Olivares-Amaya,  
 K. J. Oosterbaan,  J. A. Parkhill,  S. K. Paul,  F. Pavosevic,  Zheng Pei,  
 T. M. Perrine,  F. Plasser,  P. Pokhilko,  S. Prager,  A. Prociuk,  
 E. Ramos,  B. Rana,  D. R. Rehn,  F. Rob,  M. Scheurer,  M. Schneider,  
 N. Sergueev,  S. M. Sharada,  S. Sharma,  D. W. Small,  T. Stauch,  
 C. J. Stein,  T. Stein,  Yu-Chuan Su,  S. P. Veccham,  Zhen Tao,  
 A. J. W. Thom,  A. Tkatchenko,  T. Tsuchimochi,  N. M. Tubman,  L. Vogt,  
 M. L. Vidal,  O. Vydrov,  M. A. Watson,  J. Wenzel,  M. de Wergifosse,  
 T. A. Wesolowski,  A. White,  J. Witte,  A. Yamada,  Jun Yang,  K. Yao,  
 S. Yeganeh,  S. R. Yost,  Zhi-Qiang You,  A. Zech,  Igor Ying Zhang,  
 Xing Zhang,  Yan Zhao,  Ying Zhu,  B. R. Brooks,  G. K. L. Chan,  
 C. J. Cramer,  M. S. Gordon,  W. J. Hehre,  A. Klamt,  M. W. Schmidt,  
 C. D. Sherrill,  D. G. Truhlar,  A. Aspuru-Guzik,  R. Baer,  A. T. Bell,  
 N. A. Besley,  Jeng-Da Chai,  A. E. DePrince, III,  R. A. DiStasio Jr.,  
 A. Dreuw,  B. D. Dunietz,  T. R. Furlani,  Chao-Ping Hsu,  Yousung Jung,  
 Jing Kong,  D. S. Lambrecht,  WanZhen Liang,  C. Ochsenfeld,  
 V. A. Rassolov,  L. V. Slipchenko,  J. E. Subotnik,  T. Van Voorhis,  
 J. M. Herbert,  A. I. Krylov,  P. M. W. Gill,  M. Head-Gordon

 Contributors to earlier versions of Q-Chem not listed above: 
 R. D. Adamson,  B. Austin,  J. Baker,  G. J. O. Beran,  K. Brandhorst,  
 S. T. Brown,  E. F. C. Byrd,  A. K. Chakraborty,  C.-L. Cheng,  
 Siu Hung Chien,  D. M. Chipman,  D. L. Crittenden,  H. Dachsel,  
 R. J. Doerksen,  A. D. Dutoi,  L. Fusti-Molnar,  W. A. Goddard III,  
 A. Golubeva-Zadorozhnaya,  S. R. Gwaltney,  G. Hawkins,  A. Heyden,  
 S. Hirata,  G. Kedziora,  F. J. Keil,  C. Kelley,  Jihan Kim,  R. A. King,  
 R. Z. Khaliullin,  P. P. Korambath,  W. Kurlancheek,  A. M. Lee,  M. S. Lee,  
 S. V. Levchenko,  Ching Yeh Lin,  D. Liotard,  R. C. Lochan,  I. Lotan,  
 P. E. Maslen,  N. Nair,  D. P. O'Neill,  D. Neuhauser,  E. Neuscamman,  
 C. M. Oana,  R. Olson,  B. Peters,  R. Peverati,  P. A. Pieniazek,  
 Y. M. Rhee,  J. Ritchie,  M. A. Rohrdanz,  E. Rosta,  N. J. Russ,  
 H. F. Schaefer III,  N. E. Schultz,  N. Shenvi,  A. C. Simmonett,  A. Sodt,  
 D. Stuck,  K. S. Thanthiriwatte,  V. Vanovschi,  Tao Wang,  A. Warshel,  
 C. F. Williams,  Q. Wu,  X. Xu,  W. Zhang

 Please cite Q-Chem as follows:
 Y. Shao et al., Mol. Phys. 113, 184-215 (2015)
 DOI: 10.1080/00268976.2014.952696

 Q-Chem 5.3.0 for Intel X86 EM64T Linux

 Parts of Q-Chem use Armadillo 9.800.1 (Horizon Scraper).
 http://arma.sourceforge.net/

 Q-Chem begins on Sat Aug 22 20:14:02 2020  

n0091.mhg0
Host: 0

     Scratch files written to /local/scratch/users/yhljason/PH2_SCAN0_aug-pc-4.inp20200822180713//
Processing $rem in /clusterfs/mhg/diptarka/qchem_transmom//config/preferences:
Processing $rem in /global/home/users/yhljason/.qchemrc:

Checking the input file for inconsistencies... 	...done.

--------------------------------------------------------------
User input:
--------------------------------------------------------------
$molecule
0 2
P1	0.0000	0.0000	0.0000
H2	0.0000	1.0229	0.9964
H3	0.0000	-1.0229	0.9964
$end

$rem
jobtype sp
method SCAN0
xc_grid 000099000590
basis aug-pc-4
max_scf_cycles 200
thresh 14
scf_convergence 8
scf_algorithm gdm
symmetry false
sym_ignore true
unrestricted true
gen_scfman true
internal_stability_iter 15
internal_stability_davidson_iter 200
mem_total 64000
mem_static 1500
n_frozen_core 0
$end


--------------------------------------------------------------
 ----------------------------------------------------------------
             Standard Nuclear Orientation (Angstroms)
    I     Atom           X                Y                Z
 ----------------------------------------------------------------
    1      P       0.0000000000     0.0000000000     0.0000000000
    2      H       0.0000000000     1.0229000000     0.9964000000
    3      H       0.0000000000    -1.0229000000     0.9964000000
 ----------------------------------------------------------------
 Nuclear Repulsion Energy =          11.37596058 hartrees
 There are        9 alpha and        8 beta electrons
 Requested basis set is aug-pc-4
 There are 79 shells and 317 basis functions

 Total QAlloc Memory Limit  64000 MB
 Mega-Array Size      1467 MB
 MEM_STATIC part      1500 MB

                       Distance Matrix (Angstroms)
             P (  1)   H (  2)
   H (  2)  1.427984
   H (  3)  1.427984  2.045800

 A cutoff of  1.0D-14 yielded   3139 shell pairs
 There are     51031 function pairs (     91792 Cartesian)
 Smallest overlap matrix eigenvalue = 4.00E-06

 Scale SEOQF with 1.000000e-01/1.000000e-01/1.000000e-01

 Standard Electronic Orientation quadrupole field applied
 Guess from superposition of atomic densities
 Warning:  Energy on first SCF cycle will be non-variational
 SAD guess density has 17.000000 electrons

 -----------------------------------------------------------------------
  General SCF calculation program by
  Eric Jon Sundstrom, Paul Horn, Yuezhi Mao, Dmitri Zuev, Alec White,
  David Stuck, Shaama M.S., Shane Yost, Joonho Lee, David Small,
  Daniel Levine, Susi Lehtola, Hugh Burton, Evgeny Epifanovsky,
  Bang C. Huynh
 -----------------------------------------------------------------------
 Exchange:     0.2500 Hartree-Fock + 0.7500 SCAN
 Correlation:  1.0000 SCAN
 Using Euler-Maclaurin-Lebedev (99,590) quadrature formula
Running Object-Oriented UKS (UHF)
performing a single roothaan step with Fock from read density so that orbitals are available to all algorithms
energy of the guess density (C=0) -342.422472665205
We will preform up to 15 macro iterations over saddle points until a stable solution is found
Energy prior to optimization (guess energy) = -342.526011104799
Begin Timing: Total SCF Calculation
Begin Timing: SCF Single Stationary Point Calculation
begin iterations for algorithm: GDM          
the SCF tolerance is set to 1.00e-08
    1    -342.5260111048      1.86e-02     00000  Normal BFGS step
    2    -342.5303990589      5.49e-03     00000  Normal BFGS step
    3    -342.5307934418      1.92e-03     00000  Normal BFGS step
    4    -342.5308211523      7.29e-04     00000  Normal BFGS step
    5    -342.5308233426      1.26e-04     00000  Normal BFGS step
    6    -342.5308235042      7.24e-05     00000  Normal BFGS step
    7    -342.5308235385      1.52e-05     00000  Normal BFGS step
    8    -342.5308235410      5.97e-06     00000  Normal BFGS step
    9    -342.5308235413      1.42e-06     00000  Normal BFGS step
   10    -342.5308235413      5.21e-07     00000  Normal BFGS step
   11    -342.5308235413      7.28e-08     00000  Normal BFGS step
   12    -342.5308235413      2.30e-08     00000  Normal BFGS step
   13    -342.5308235413      3.26e-09     00000 Convergence criterion met
Timing for Single Stationary Point: 806.00s (wall), 6072.80s (cpu)
Begin Timing: Stability
===================================================
Beginning Test for Internal Stability
===================================================
generating davidson guess vectors based on koopmans excitations
 Warning: Hessian-vector products not implemented
 Finite difference Hessian-vector products will be used.
computing hessian-vector products by finite difference
    1      6.63e-01     00000 Davidson Iteration
computing hessian-vector products by finite difference
    2      2.10e-01     00000 Davidson Iteration
computing hessian-vector products by finite difference
    3      6.54e-02     00000 Davidson Iteration
computing hessian-vector products by finite difference
    4      1.47e-02     00000 Davidson Iteration
computing hessian-vector products by finite difference
    5      5.28e-03     00000 Davidson Iteration
computing hessian-vector products by finite difference
    6      1.18e-03     00000 Davidson Iteration
computing hessian-vector products by finite difference
    7      1.79e-04     00000 Davidson Iteration
computing hessian-vector products by finite difference
    8      5.73e-05     00000 Davidson Iteration
computing hessian-vector products by finite difference
    9      2.47e-03     00000 Davidson Iteration
computing hessian-vector products by finite difference
   10      1.22e-03     00000 Davidson Iteration
computing hessian-vector products by finite difference
   11      5.13e-04     00000 Davidson Iteration
computing hessian-vector products by finite difference
   12      3.50e-04     00000 Davidson Iteration
computing hessian-vector products by finite difference
   13      4.28e-04     00000 Davidson Iteration
computing hessian-vector products by finite difference
   14      4.21e-04     00000 Davidson Iteration
computing hessian-vector products by finite difference
   15      5.84e-04     00000 Davidson Iteration
computing hessian-vector products by finite difference
   16      4.43e-04     00000 Davidson Iteration
computing hessian-vector products by finite difference
   17      1.47e-04     00000 Davidson Iteration
computing hessian-vector products by finite difference
   18      9.11e-05     00000 Davidson Converged
converged_eigenvalues
   0.2009
   0.3235
Threshold for negative eigenvalues: -1.0e-05
solution was a local minimum (stable)
===================================================
End Test for Internal Stability
===================================================
Timing for Internal Stability: 5866.00s (wall), 42334.31s (cpu)
Our SCF solution is stable!
Timing for Total SCF: 6672.00s (wall), 48407.21s (cpu)
 Total energy in the final basis set =     -342.5308235413
<S^2> =          0.761313900
    ==================================================
              The end of Object-Oriented SCFman       
    ==================================================

 --------------------------------------------------------------

                    Orbital Energies (a.u.)
 --------------------------------------------------------------

 Alpha MOs
 -- Occupied --
-77.5387  -6.7377  -4.8283  -4.8204  -4.8178  -0.6714  -0.4070  -0.3295
 -0.2784
 -- Virtual --
  0.0037   0.0215   0.0282   0.0292   0.0300   0.0497   0.0514   0.0685
  0.0825   0.0855   0.0905   0.1012   0.1130   0.1131   0.1329   0.1388
  0.1442   0.1477   0.1547   0.1595   0.1615   0.1712   0.1740   0.1843
  0.1886   0.1949   0.2347   0.2403   0.2446   0.2481   0.2634   0.2647
  0.2709   0.2724   0.2902   0.2945   0.2970   0.3026   0.3080   0.3147
  0.3201   0.3243   0.3244   0.3355   0.3708   0.3830   0.3932   0.3999
  0.4222   0.4309   0.4323   0.4398   0.4505   0.4520   0.4594   0.4706
  0.4730   0.4805   0.4967   0.5039   0.5076   0.5156   0.5163   0.5166
  0.5221   0.5265   0.5430   0.5456   0.5641   0.5740   0.5780   0.5867
  0.6030   0.6051   0.6212   0.6401   0.6438   0.6548   0.6557   0.6596
  0.6739   0.6917   0.6928   0.6934   0.6962   0.7068   0.7114   0.7224
  0.7289   0.7301   0.7359   0.7449   0.7619   0.7791   0.7898   0.8047
  0.8058   0.8068   0.8084   0.8253   0.8311   0.8357   0.8440   0.8648
  0.8841   0.8909   0.8993   0.9148   0.9246   0.9629   1.0122   1.0237
  1.0513   1.0701   1.0909   1.1455   1.1903   1.2136   1.2747   1.2802
  1.2993   1.3006   1.3348   1.3398   1.3496   1.3882   1.4148   1.4511
  1.5064   1.5314   1.5477   1.5565   1.5627   1.5688   1.6132   1.6326
  1.7406   1.7480   1.7571   1.8113   1.8295   1.8463   2.2721   2.3008
  2.3085   2.3147   2.3518   2.4564   2.5073   2.5136   2.5348   2.6092
  2.6910   2.7689   2.8070   2.8113   2.8172   2.9718   3.0368   3.0434
  3.0446   3.0947   3.1130   3.1407   3.1809   3.1893   3.2515   3.2564
  3.2843   3.3650   3.4644   3.5507   3.5922   3.6449   3.6457   3.6584
  3.6953   3.7007   3.7685   3.7895   3.8375   3.8999   3.9141   3.9502
  3.9719   3.9927   4.0460   4.2162   4.2227   4.2814   4.4719   4.5420
  4.7483   5.1191   5.1194   5.1520   5.1621   5.2416   5.2448   5.2475
  5.4717   5.4720   5.5833   5.6016   5.6378   5.6929   5.7366   5.9492
  5.9719   6.0496   6.0742   6.3452   6.5498   6.5794   6.6180   6.9638
  7.3612   7.6752   7.6760   7.6926   7.7986   7.8909   7.9119   8.0510
  8.2412   8.2663   8.7827   8.8141   8.8217   8.8352   9.1739   9.1771
  9.2194   9.2254   9.3930   9.4250   9.4464   9.5306   9.5697   9.6446
  9.9225   9.9512  10.7006  11.0390  11.1105  11.1429  11.3094  11.5859
 11.6868  11.9665  12.1940  12.7185  12.7278  12.7719  12.7813  12.9935
 13.0006  13.0754  13.1988  13.3748  13.4063  13.4342  13.5919  13.8142
 13.9823  16.5758  16.5776  16.5810  17.0200  17.2765  17.2885  17.2888
 17.2896  17.2920  17.3092  17.3368  17.3459  17.4003  17.5304  17.5498
 17.6692  17.7108  18.1975  18.2718  18.2820  18.2950  18.4264  19.4495
 23.6582  23.8989  23.9198  23.9502  23.9707  24.6176  25.4575  40.5468
 40.7040  60.0008  60.0043  60.0861  60.2498  60.8361  92.6930  92.7074
 92.7305  92.7326  93.1910  93.2318

 Beta MOs
 -- Occupied --
-77.5326  -6.7328  -4.8168  -4.8146  -4.8101  -0.6309  -0.4016  -0.3151
 -- Virtual --
 -0.1016   0.0120   0.0254   0.0324   0.0333   0.0385   0.0534   0.0575
  0.0823   0.0953   0.0984   0.1085   0.1096   0.1188   0.1279   0.1467
  0.1488   0.1553   0.1553   0.1672   0.1750   0.1859   0.1881   0.1897
  0.2030   0.2104   0.2157   0.2578   0.2585   0.2620   0.2670   0.2714
  0.2872   0.2893   0.2910   0.3006   0.3117   0.3151   0.3242   0.3313
  0.3362   0.3414   0.3542   0.3559   0.3571   0.3991   0.4080   0.4135
  0.4199   0.4338   0.4361   0.4495   0.4591   0.4593   0.4697   0.4822
  0.4912   0.5032   0.5099   0.5116   0.5291   0.5314   0.5337   0.5469
  0.5574   0.5594   0.5651   0.5834   0.5880   0.6008   0.6115   0.6134
  0.6255   0.6306   0.6330   0.6364   0.6589   0.6740   0.6794   0.6880
  0.6922   0.7023   0.7073   0.7114   0.7148   0.7419   0.7435   0.7468
  0.7508   0.7741   0.7747   0.7890   0.7900   0.8144   0.8344   0.8402
  0.8540   0.8544   0.8647   0.8740   0.8827   0.8906   0.8959   0.9081
  0.9277   0.9354   0.9413   0.9585   0.9593   0.9739   1.0224   1.0487
  1.0489   1.0727   1.1028   1.1281   1.1823   1.2231   1.2297   1.3022
  1.3107   1.3202   1.3261   1.3500   1.3646   1.3714   1.3995   1.4391
  1.4696   1.5345   1.5567   1.5698   1.5914   1.5967   1.6054   1.6398
  1.6761   1.7574   1.7753   1.7781   1.8403   1.8512   1.8683   2.2955
  2.3160   2.3250   2.3254   2.3657   2.5056   2.5101   2.5572   2.5607
  2.6202   2.7063   2.7745   2.8178   2.8225   2.8248   2.9767   3.0400
  3.0551   3.0712   3.1075   3.1207   3.1489   3.1763   3.2054   3.2439
  3.2594   3.2800   3.3606   3.4674   3.5373   3.5894   3.6233   3.6282
  3.6404   3.6765   3.6776   3.7608   3.7716   3.8274   3.8771   3.8996
  3.9462   3.9652   3.9824   4.0137   4.1918   4.2023   4.2561   4.4431
  4.5201   4.7245   5.1047   5.1085   5.1268   5.1348   5.2324   5.2438
  5.2460   5.4576   5.4628   5.5781   5.5951   5.6265   5.6805   5.7278
  5.9254   5.9465   6.0464   6.0620   6.3134   6.5168   6.5590   6.6017
  6.9548   7.3523   7.6770   7.6799   7.6822   7.7899   7.8734   7.8865
  8.0558   8.2136   8.2579   8.7300   8.7613   8.7909   8.8049   9.1334
  9.1364   9.1792   9.1869   9.3514   9.3853   9.3921   9.4746   9.5355
  9.6038   9.8978   9.9219  10.7074  11.0426  11.1103  11.1437  11.3076
 11.5691  11.6713  11.9340  12.1605  12.6489  12.6569  12.7032  12.7115
 12.9218  12.9286  13.0022  13.1284  13.2958  13.3257  13.3677  13.5234
 13.7489  13.9181  16.5724  16.5765  16.5825  17.0158  17.1884  17.1983
 17.1985  17.1998  17.2018  17.2218  17.2502  17.2587  17.3655  17.4458
 17.4670  17.5836  17.6295  18.1339  18.1947  18.1985  18.2122  18.3628
 19.3988  23.6279  23.8378  23.8584  23.9006  23.9235  24.5625  25.4237
 40.4910  40.6484  60.0159  60.0194  60.0887  60.2718  60.8370  92.6026
 92.6169  92.6453  92.6473  93.1032  93.1440
 --------------------------------------------------------------

          Ground-State Mulliken Net Atomic Charges

     Atom                 Charge (a.u.)    Spin (a.u.)
  --------------------------------------------------------
      1 P                    -0.643580       1.006353
      2 H                     0.321790      -0.003177
      3 H                     0.321790      -0.003177
  --------------------------------------------------------
  Sum of atomic charges =     0.000000
  Sum of spin   charges =     1.000000

 -----------------------------------------------------------------
                    Cartesian Multipole Moments
 -----------------------------------------------------------------
    Charge (ESU x 10^10)
                -0.0000
    Dipole Moment (Debye)
         X       0.0000      Y       0.0000      Z       0.5895
       Tot       0.5895
    Quadrupole Moments (Debye-Ang)
        XX     -15.0920     XY       0.0000     YY     -13.9228
        XZ      -0.0000     YZ       0.0000     ZZ     -15.2915
    Octopole Moments (Debye-Ang^2)
       XXX       0.0000    XXY      -0.0000    XYY       0.0000
       YYY       0.0000    XXZ      -1.5104    XYZ      -0.0000
       YYZ      -1.3214    XZZ       0.0000    YZZ       0.0000
       ZZZ      -4.4843
    Hexadecapole Moments (Debye-Ang^3)
      XXXX     -23.0169   XXXY       0.0000   XXYY      -9.1190
      XYYY      -0.0000   YYYY     -30.1973   XXXZ       0.0000
      XXYZ       0.0000   XYYZ       0.0000   YYYZ       0.0000
      XXZZ      -9.7506   XYZZ      -0.0000   YYZZ      -9.9157
      XZZZ      -0.0000   YZZZ       0.0000   ZZZZ     -34.6308
 -----------------------------------------------------------------
Archival summary:
1\1\n0091.mhg0\SP\ProcedureUnspecified\BasisUnspecified\12(2)\yhljason\SatAug2222:07:372020SatAug2222:07:372020\0\\#,ProcedureUnspecified,BasisUnspecified,\\0,2\P\H,1,1.42798\H,1,1.42798,2,91.5037\\\@

 Total job time:  6815.52s(wall), 49278.53s(cpu) 
 Sat Aug 22 22:07:37 2020

        *************************************************************
        *                                                           *
        *  Thank you very much for using Q-Chem.  Have a nice day.  *
        *                                                           *
        *************************************************************


