                  Welcome to Q-Chem
     A Quantum Leap Into The Future Of Chemistry


 Q-Chem 5.3 (devel), Q-Chem, Inc., Pleasanton, CA (2020)

 Yihan Shao,  Zhengting Gan,  E. Epifanovsky,  A. T. B. Gilbert,  M. Wormit,  
 J. Kussmann,  A. W. Lange,  A. Behn,  Jia Deng,  Xintian Feng,  D. Ghosh,  
 M. Goldey,  P. R. Horn,  L. D. Jacobson,  I. Kaliman,  T. Kus,  A. Landau,  
 Jie Liu,  E. I. Proynov,  R. M. Richard,  R. P. Steele,  E. J. Sundstrom,  
 H. L. Woodcock III,  P. M. Zimmerman,  D. Zuev,  B. Alam,  B. Albrecht,  
 E. Alguire,  S. A. Baeppler,  D. Barton,  Z. Benda,  Y. A. Bernard,  
 E. J. Berquist,  K. B. Bravaya,  H. Burton,  K. Carter-Fenk,  D. Casanova,  
 Chun-Min Chang,  Yunqing Chen,  A. Chien,  K. D. Closser,  M. P. Coons,  
 S. Coriani,  S. Dasgupta,  A. L. Dempwolff,  M. Diedenhofen,  Hainam Do,  
 R. G. Edgar,  Po-Tung Fang,  S. Faraji,  S. Fatehi,  Qingguo Feng,  
 J. Fosso-Tande,  J. Gayvert,  Qinghui Ge,  A. Ghysels,  G. Gidofalvi,  
 J. Gomes,  J. Gonthier,  A. Gunina,  D. Hait,  M. W. D. Hanson-Heine,  
 P. H. P. Harbach,  A. W. Hauser,  M. F. Herbst,  J. E. Herr,  
 E. G. Hohenstein,  Z. C. Holden,  Kerwin Hui,  B. C. Huynh,  T.-C. Jagau,  
 Hyunjun Ji,  B. Kaduk,  K. Khistyaev,  Jaehoon Kim,  P. Klunzinger,  K. Koh,  
 D. Kosenkov,  L. Koulias,  T. Kowalczyk,  C. M. Krauter,  A. Kunitsa,  
 Ka Un Lao,  A. Laurent,  K. V. Lawler,  Joonho Lee,  D. Lefrancois,  
 S. Lehtola,  D. S. Levine,  Yi-Pei Li,  You-Sheng Lin,  Fenglai Liu,  
 Kuan-Yu Liu,  E. Livshits,  M. Loipersberger,  A. Luenser,  P. Manohar,  
 E. Mansoor,  S. F. Manzer,  Shan-Ping Mao,  Yuezhi Mao,  N. Mardirossian,  
 A. V. Marenich,  T. Markovich,  L. A. Martinez-Martinez,  S. A. Maurer,  
 N. J. Mayhall,  S. C. McKenzie,  J.-M. Mewes,  P. Morgante,  A. F. Morrison,  
 J. W. Mullinax,  K. Nanda,  T. S. Nguyen-Beck,  R. Olivares-Amaya,  
 K. J. Oosterbaan,  J. A. Parkhill,  S. K. Paul,  F. Pavosevic,  Zheng Pei,  
 T. M. Perrine,  F. Plasser,  P. Pokhilko,  S. Prager,  A. Prociuk,  
 E. Ramos,  B. Rana,  D. R. Rehn,  F. Rob,  M. Scheurer,  M. Schneider,  
 N. Sergueev,  S. M. Sharada,  S. Sharma,  D. W. Small,  T. Stauch,  
 C. J. Stein,  T. Stein,  Yu-Chuan Su,  S. P. Veccham,  Zhen Tao,  
 A. J. W. Thom,  A. Tkatchenko,  T. Tsuchimochi,  N. M. Tubman,  L. Vogt,  
 M. L. Vidal,  O. Vydrov,  M. A. Watson,  J. Wenzel,  M. de Wergifosse,  
 T. A. Wesolowski,  A. White,  J. Witte,  A. Yamada,  Jun Yang,  K. Yao,  
 S. Yeganeh,  S. R. Yost,  Zhi-Qiang You,  A. Zech,  Igor Ying Zhang,  
 Xing Zhang,  Yan Zhao,  Ying Zhu,  B. R. Brooks,  G. K. L. Chan,  
 C. J. Cramer,  M. S. Gordon,  W. J. Hehre,  A. Klamt,  M. W. Schmidt,  
 C. D. Sherrill,  D. G. Truhlar,  A. Aspuru-Guzik,  R. Baer,  A. T. Bell,  
 N. A. Besley,  Jeng-Da Chai,  A. E. DePrince, III,  R. A. DiStasio Jr.,  
 A. Dreuw,  B. D. Dunietz,  T. R. Furlani,  Chao-Ping Hsu,  Yousung Jung,  
 Jing Kong,  D. S. Lambrecht,  WanZhen Liang,  C. Ochsenfeld,  
 V. A. Rassolov,  L. V. Slipchenko,  J. E. Subotnik,  T. Van Voorhis,  
 J. M. Herbert,  A. I. Krylov,  P. M. W. Gill,  M. Head-Gordon

 Contributors to earlier versions of Q-Chem not listed above: 
 R. D. Adamson,  B. Austin,  J. Baker,  G. J. O. Beran,  K. Brandhorst,  
 S. T. Brown,  E. F. C. Byrd,  A. K. Chakraborty,  C.-L. Cheng,  
 Siu Hung Chien,  D. M. Chipman,  D. L. Crittenden,  H. Dachsel,  
 R. J. Doerksen,  A. D. Dutoi,  L. Fusti-Molnar,  W. A. Goddard III,  
 A. Golubeva-Zadorozhnaya,  S. R. Gwaltney,  G. Hawkins,  A. Heyden,  
 S. Hirata,  G. Kedziora,  F. J. Keil,  C. Kelley,  Jihan Kim,  R. A. King,  
 R. Z. Khaliullin,  P. P. Korambath,  W. Kurlancheek,  A. M. Lee,  M. S. Lee,  
 S. V. Levchenko,  Ching Yeh Lin,  D. Liotard,  R. C. Lochan,  I. Lotan,  
 P. E. Maslen,  N. Nair,  D. P. O'Neill,  D. Neuhauser,  E. Neuscamman,  
 C. M. Oana,  R. Olson,  B. Peters,  R. Peverati,  P. A. Pieniazek,  
 Y. M. Rhee,  J. Ritchie,  M. A. Rohrdanz,  E. Rosta,  N. J. Russ,  
 H. F. Schaefer III,  N. E. Schultz,  N. Shenvi,  A. C. Simmonett,  A. Sodt,  
 D. Stuck,  K. S. Thanthiriwatte,  V. Vanovschi,  Tao Wang,  A. Warshel,  
 C. F. Williams,  Q. Wu,  X. Xu,  W. Zhang

 Please cite Q-Chem as follows:
 Y. Shao et al., Mol. Phys. 113, 184-215 (2015)
 DOI: 10.1080/00268976.2014.952696

 Q-Chem 5.3.0 for Intel X86 EM64T Linux

 Parts of Q-Chem use Armadillo 9.800.1 (Horizon Scraper).
 http://arma.sourceforge.net/

 Q-Chem begins on Sat Aug 22 20:59:52 2020  

n0092.mhg0
Host: 0

     Scratch files written to /local/scratch/users/yhljason/PH2_wB97M-V_aug-pc-4.inp20200822180714//
Processing $rem in /clusterfs/mhg/diptarka/qchem_transmom//config/preferences:
Processing $rem in /global/home/users/yhljason/.qchemrc:

Checking the input file for inconsistencies... 	...done.

--------------------------------------------------------------
User input:
--------------------------------------------------------------
$molecule
0 2
P1	0.0000	0.0000	0.0000
H2	0.0000	1.0229	0.9964
H3	0.0000	-1.0229	0.9964
$end

$rem
jobtype sp
method wB97M-V
xc_grid 000099000590
basis aug-pc-4
max_scf_cycles 200
thresh 14
scf_convergence 8
scf_algorithm gdm
symmetry false
sym_ignore true
unrestricted true
gen_scfman true
internal_stability_iter 15
internal_stability_davidson_iter 200
mem_total 64000
mem_static 1500
n_frozen_core 0
$end


--------------------------------------------------------------
 ----------------------------------------------------------------
             Standard Nuclear Orientation (Angstroms)
    I     Atom           X                Y                Z
 ----------------------------------------------------------------
    1      P       0.0000000000     0.0000000000     0.0000000000
    2      H       0.0000000000     1.0229000000     0.9964000000
    3      H       0.0000000000    -1.0229000000     0.9964000000
 ----------------------------------------------------------------
 Nuclear Repulsion Energy =          11.37596058 hartrees
 There are        9 alpha and        8 beta electrons
 Requested basis set is aug-pc-4
 There are 79 shells and 317 basis functions

 Total QAlloc Memory Limit  64000 MB
 Mega-Array Size      1467 MB
 MEM_STATIC part      1500 MB

                       Distance Matrix (Angstroms)
             P (  1)   H (  2)
   H (  2)  1.427984
   H (  3)  1.427984  2.045800

 A cutoff of  1.0D-14 yielded   3139 shell pairs
 There are     51031 function pairs (     91792 Cartesian)
 Smallest overlap matrix eigenvalue = 4.00E-06

 Scale SEOQF with 1.000000e-01/1.000000e-01/1.000000e-01

 Standard Electronic Orientation quadrupole field applied
 Guess from superposition of atomic densities
 Warning:  Energy on first SCF cycle will be non-variational
 SAD guess density has 17.000000 electrons

 -----------------------------------------------------------------------
  General SCF calculation program by
  Eric Jon Sundstrom, Paul Horn, Yuezhi Mao, Dmitri Zuev, Alec White,
  David Stuck, Shaama M.S., Shane Yost, Joonho Lee, David Small,
  Daniel Levine, Susi Lehtola, Hugh Burton, Evgeny Epifanovsky,
  Bang C. Huynh
 -----------------------------------------------------------------------
 Exchange:     0.1500 Hartree-Fock + 1.0000 wB97M-V + LR-HF
 Correlation:  1.0000 wB97M-V
 Using Euler-Maclaurin-Lebedev (99,590) quadrature formula
 Nonlocal Correlation:  VV10 with C = 0.0100 and b = 6.00 and scale = 1.00000
 Grid used for NLC:  SG-1 standard quadrature
Running Object-Oriented UKS (UHF)
performing a single roothaan step with Fock from read density so that orbitals are available to all algorithms
 -------------------------------------------------------
 OpenMP BLAS3 based DFT computing Module                
 Release: version 1.0, May 2013, Q-Chem Inc. Pittsburgh 
 -------------------------------------------------------
 -------------------------------------------------------
 OpenMP BLAS3 based DFT computing Module                
 Release: version 1.0, May 2013, Q-Chem Inc. Pittsburgh 
 -------------------------------------------------------
 -------------------------------------------------------
 OpenMP BLAS3 based DFT computing Module                
 Release: version 1.0, May 2013, Q-Chem Inc. Pittsburgh 
 -------------------------------------------------------
energy of the guess density (C=0) -342.327207963998
 -------------------------------------------------------
 OpenMP BLAS3 based DFT computing Module                
 Release: version 1.0, May 2013, Q-Chem Inc. Pittsburgh 
 -------------------------------------------------------
 -------------------------------------------------------
 OpenMP BLAS3 based DFT computing Module                
 Release: version 1.0, May 2013, Q-Chem Inc. Pittsburgh 
 -------------------------------------------------------
 -------------------------------------------------------
 OpenMP BLAS3 based DFT computing Module                
 Release: version 1.0, May 2013, Q-Chem Inc. Pittsburgh 
 -------------------------------------------------------
We will preform up to 15 macro iterations over saddle points until a stable solution is found
Energy prior to optimization (guess energy) = -342.484905468862
Begin Timing: Total SCF Calculation
Begin Timing: SCF Single Stationary Point Calculation
begin iterations for algorithm: GDM          
the SCF tolerance is set to 1.00e-08
    1    -342.4849054689      2.39e-02     00000  Normal BFGS step
    2    -342.4887705558      6.37e-03     00000  Normal BFGS step
    3    -342.4891699025      1.15e-03     00000  Normal BFGS step
    4    -342.4891889265      3.60e-04     00000  Normal BFGS step
    5    -342.4891903987      1.38e-04     00000  Normal BFGS step
    6    -342.4891905067      5.05e-05     00000  Normal BFGS step
    7    -342.4891905210      9.32e-06     00000  Normal BFGS step
    8    -342.4891905224      3.60e-06     00000  Normal BFGS step
    9    -342.4891905225      1.08e-06     00000  Normal BFGS step
   10    -342.4891905225      2.87e-07     00000  Normal BFGS step
   11    -342.4891905225      6.77e-08     00000  Normal BFGS step
   12    -342.4891905225      1.75e-08     00000  Normal BFGS step
   13    -342.4891905225      3.49e-09     00000 Convergence criterion met
Timing for Single Stationary Point: 1736.00s (wall), 13710.65s (cpu)
Begin Timing: Stability
===================================================
Beginning Test for Internal Stability
===================================================
generating davidson guess vectors based on koopmans excitations
computing hessian-vector products by finite difference
    1      6.45e-01     00000 Davidson Iteration
computing hessian-vector products by finite difference
    2      1.52e-01     00000 Davidson Iteration
computing hessian-vector products by finite difference
    3      1.22e-01     00000 Davidson Iteration
computing hessian-vector products by finite difference
    4      2.49e-02     00000 Davidson Iteration
computing hessian-vector products by finite difference
    5      6.07e-03     00000 Davidson Iteration
computing hessian-vector products by finite difference
    6      1.13e-03     00000 Davidson Iteration
computing hessian-vector products by finite difference
    7      2.51e-04     00000 Davidson Iteration
computing hessian-vector products by finite difference
    8      5.82e-04     00000 Davidson Converged
converged_eigenvalues
   0.1955
   0.3932
Threshold for negative eigenvalues: -1.0e-05
solution was a local minimum (stable)
===================================================
End Test for Internal Stability
===================================================
Timing for Internal Stability: 5347.00s (wall), 42229.24s (cpu)
Our SCF solution is stable!
Timing for Total SCF: 7083.00s (wall), 55939.98s (cpu)
 Total energy in the final basis set =     -342.4891905225
<S^2> =          0.752901874
    ==================================================
              The end of Object-Oriented SCFman       
    ==================================================

 --------------------------------------------------------------

                    Orbital Energies (a.u.)
 --------------------------------------------------------------

 Alpha MOs
 -- Occupied --
-77.3535  -6.7293  -4.8467  -4.8389  -4.8363  -0.7497  -0.4825  -0.4062
 -0.3330
 -- Virtual --
  0.0062   0.0232   0.0259   0.0259   0.0396   0.0621   0.0772   0.0787
  0.0843   0.0886   0.0913   0.1056   0.1088   0.1121   0.1331   0.1358
  0.1363   0.1397   0.1548   0.1628   0.1629   0.1761   0.1861   0.2082
  0.2199   0.2213   0.2291   0.2332   0.2337   0.2370   0.2475   0.2511
  0.2661   0.2740   0.2851   0.2915   0.2922   0.3047   0.3062   0.3151
  0.3194   0.3224   0.3267   0.3281   0.3829   0.3876   0.3910   0.4008
  0.4042   0.4096   0.4229   0.4233   0.4260   0.4364   0.4382   0.4545
  0.4641   0.4681   0.4737   0.4818   0.4922   0.4969   0.5051   0.5054
  0.5110   0.5162   0.5304   0.5419   0.5516   0.5556   0.5792   0.5817
  0.5957   0.6042   0.6094   0.6200   0.6368   0.6413   0.6454   0.6538
  0.6547   0.6549   0.6567   0.6607   0.6631   0.6698   0.6715   0.6796
  0.6817   0.6992   0.7018   0.7152   0.7508   0.7535   0.7619   0.7763
  0.7777   0.7784   0.7897   0.7901   0.7909   0.8034   0.8071   0.8248
  0.8587   0.8615   0.8706   0.8966   0.9091   0.9445   0.9968   1.0035
  1.0327   1.0542   1.0687   1.1161   1.1683   1.2018   1.2519   1.2661
  1.2730   1.2850   1.2902   1.3044   1.3317   1.3557   1.3833   1.4157
  1.4542   1.4764   1.4963   1.5097   1.5122   1.5199   1.5672   1.5718
  1.6636   1.6782   1.6872   1.7435   1.7794   1.7814   2.2251   2.2303
  2.2324   2.2444   2.2833   2.3483   2.4092   2.4305   2.4693   2.5299
  2.6196   2.6728   2.7141   2.7264   2.7266   2.8774   2.9345   2.9352
  2.9392   2.9823   2.9867   3.0447   3.0745   3.1048   3.1197   3.1477
  3.1773   3.2510   3.3624   3.4137   3.4691   3.5009   3.5077   3.5098
  3.5609   3.5661   3.6382   3.6414   3.6953   3.7484   3.7781   3.7958
  3.8098   3.8484   3.8882   4.0364   4.0384   4.1110   4.2741   4.3551
  4.5496   4.9218   4.9270   4.9331   4.9478   5.0328   5.0421   5.0645
  5.2771   5.2849   5.3569   5.3820   5.4168   5.5183   5.5769   5.6577
  5.6840   5.8120   5.8806   6.1012   6.2793   6.3567   6.3628   6.7349
  7.1364   7.4966   7.4992   7.4993   7.5877   7.6805   7.6950   7.8675
  7.9967   8.0475   8.3837   8.4210   8.4469   8.4653   8.8099   8.8121
  8.8429   8.8458   8.9052   8.9375   9.0448   9.1266   9.1759   9.2631
  9.6074   9.6214  10.6097  10.8876  10.9603  11.0086  11.1687  11.2365
 11.3517  11.5795  11.7588  12.1852  12.1904  12.2309  12.2427  12.3907
 12.3919  12.4558  12.5633  12.6531  12.6774  12.7228  12.8977  13.1311
 13.3104  16.3143  16.3539  16.3558  16.5260  16.5541  16.5574  16.5596
 16.5598  16.5628  16.5847  16.5869  16.6891  16.7363  16.7522  16.8717
 16.9354  16.9389  17.4262  17.4917  17.5029  17.5148  17.7172  18.8188
 22.9525  22.9574  22.9722  23.0133  23.0671  23.5497  24.8671  39.1814
 39.3343  59.8006  59.8043  59.8874  60.0475  60.6218  89.8979  89.9117
 89.9343  89.9352  90.2392  90.2765

 Beta MOs
 -- Occupied --
-77.3490  -6.7249  -4.8358  -4.8334  -4.8309  -0.7196  -0.4753  -0.3903
 -- Virtual --
 -0.0512   0.0051   0.0225   0.0256   0.0278   0.0398   0.0605   0.0787
  0.0789   0.0835   0.0858   0.0892   0.1070   0.1106   0.1113   0.1321
  0.1342   0.1353   0.1378   0.1544   0.1623   0.1643   0.1792   0.1907
  0.2104   0.2196   0.2243   0.2322   0.2323   0.2327   0.2353   0.2456
  0.2493   0.2665   0.2739   0.2830   0.2905   0.2908   0.3054   0.3094
  0.3138   0.3215   0.3219   0.3240   0.3304   0.3857   0.3866   0.3903
  0.4022   0.4037   0.4080   0.4193   0.4205   0.4263   0.4357   0.4447
  0.4522   0.4609   0.4685   0.4719   0.4922   0.4947   0.4972   0.5042
  0.5047   0.5123   0.5145   0.5291   0.5439   0.5503   0.5538   0.5803
  0.5874   0.5994   0.6026   0.6075   0.6173   0.6365   0.6426   0.6434
  0.6517   0.6528   0.6537   0.6555   0.6583   0.6645   0.6678   0.6705
  0.6777   0.6800   0.6961   0.7045   0.7203   0.7530   0.7554   0.7633
  0.7746   0.7773   0.7790   0.7899   0.7909   0.7924   0.8014   0.8123
  0.8241   0.8585   0.8701   0.8713   0.8971   0.9150   0.9468   1.0060
  1.0156   1.0464   1.0679   1.0747   1.1353   1.1822   1.2062   1.2657
  1.2943   1.3007   1.3041   1.3124   1.3326   1.3421   1.3682   1.4060
  1.4365   1.4553   1.4847   1.5044   1.5122   1.5159   1.5269   1.5728
  1.5764   1.6750   1.6873   1.7120   1.7646   1.7853   1.7907   2.2668
  2.2990   2.3011   2.3091   2.3133   2.3709   2.4316   2.4705   2.5169
  2.5751   2.6410   2.7168   2.7521   2.7760   2.7782   2.9235   2.9537
  2.9794   2.9976   3.0408   3.0439   3.0756   3.0950   3.1285   3.1368
  3.1717   3.2008   3.2611   3.4283   3.4315   3.4804   3.5216   3.5226
  3.5402   3.5726   3.5867   3.6503   3.6740   3.7122   3.7826   3.7830
  3.8041   3.8245   3.8595   3.9060   4.0720   4.0749   4.1320   4.3374
  4.3856   4.5784   4.9679   4.9691   5.0026   5.0068   5.0994   5.1119
  5.1144   5.2956   5.3307   5.4156   5.4752   5.4831   5.6160   5.6502
  5.7689   5.7971   5.8709   5.8976   6.1833   6.3670   6.3814   6.3942
  6.7672   7.2129   7.5811   7.5821   7.5831   7.6761   7.7474   7.7706
  7.8799   8.0475   8.0739   8.4311   8.4646   8.4734   8.4859   8.8263
  8.8263   8.8692   8.8723   9.0331   9.0641   9.1008   9.1820   9.2214
  9.2938   9.6182   9.6322  10.6144  10.9032  10.9766  11.0265  11.1825
 11.2862  11.3924  11.6367  11.8394  12.1894  12.2020  12.2410  12.2490
 12.4561  12.4585  12.5277  12.6455  12.8134  12.8413  12.8674  13.0204
 13.3053  13.4800  16.3442  16.3918  16.3937  16.5477  16.5489  16.5499
 16.5510  16.5605  16.5926  16.6195  16.6291  16.7536  16.8296  16.8377
 16.9667  17.0097  17.0231  17.5535  17.6307  17.6373  17.6423  17.8145
 18.9382  22.9877  23.0076  23.0201  23.0395  23.1426  23.7007  24.9430
 39.2700  39.4238  59.8172  59.8207  59.8922  60.0681  60.6279  90.0352
 90.0490  90.0772  90.0790  90.4804  90.5198
 --------------------------------------------------------------

          Ground-State Mulliken Net Atomic Charges

     Atom                 Charge (a.u.)    Spin (a.u.)
  --------------------------------------------------------
      1 P                    -0.830964       1.083749
      2 H                     0.415482      -0.041875
      3 H                     0.415482      -0.041875
  --------------------------------------------------------
  Sum of atomic charges =     0.000000
  Sum of spin   charges =     1.000000

 -----------------------------------------------------------------
                    Cartesian Multipole Moments
 -----------------------------------------------------------------
    Charge (ESU x 10^10)
                -0.0000
    Dipole Moment (Debye)
         X      -0.0000      Y       0.0000      Z       0.4902
       Tot       0.4902
    Quadrupole Moments (Debye-Ang)
        XX     -15.3967     XY      -0.0000     YY     -14.2194
        XZ      -0.0000     YZ      -0.0000     ZZ     -15.5515
    Octopole Moments (Debye-Ang^2)
       XXX      -0.0000    XXY       0.0000    XYY      -0.0000
       YYY       0.0000    XXZ      -1.5889    XYZ       0.0000
       YYZ      -1.5053    XZZ      -0.0000    YZZ       0.0000
       ZZZ      -4.8440
    Hexadecapole Moments (Debye-Ang^3)
      XXXX     -25.1680   XXXY      -0.0000   XXYY      -9.7859
      XYYY      -0.0000   YYYY     -31.9187   XXXZ      -0.0000
      XXYZ      -0.0000   XYYZ       0.0000   YYYZ      -0.0000
      XXZZ     -10.4252   XYZZ       0.0000   YYZZ     -10.5631
      XZZZ      -0.0000   YZZZ       0.0000   ZZZZ     -36.3849
 -----------------------------------------------------------------
Archival summary:
1\1\n0092.mhg0\SP\ProcedureUnspecified\BasisUnspecified\12(2)\yhljason\SatAug2223:02:262020SatAug2223:02:262020\0\\#,ProcedureUnspecified,BasisUnspecified,\\0,2\P\H,1,1.42798\H,1,1.42798,2,91.5037\\\@

 Total job time:  7354.07s(wall), 58074.08s(cpu) 
 Sat Aug 22 23:02:26 2020

        *************************************************************
        *                                                           *
        *  Thank you very much for using Q-Chem.  Have a nice day.  *
        *                                                           *
        *************************************************************


