                  Welcome to Q-Chem
     A Quantum Leap Into The Future Of Chemistry


 Q-Chem 5.3 (devel), Q-Chem, Inc., Pleasanton, CA (2020)

 Yihan Shao,  Zhengting Gan,  E. Epifanovsky,  A. T. B. Gilbert,  M. Wormit,  
 J. Kussmann,  A. W. Lange,  A. Behn,  Jia Deng,  Xintian Feng,  D. Ghosh,  
 M. Goldey,  P. R. Horn,  L. D. Jacobson,  I. Kaliman,  T. Kus,  A. Landau,  
 Jie Liu,  E. I. Proynov,  R. M. Richard,  R. P. Steele,  E. J. Sundstrom,  
 H. L. Woodcock III,  P. M. Zimmerman,  D. Zuev,  B. Alam,  B. Albrecht,  
 E. Alguire,  S. A. Baeppler,  D. Barton,  Z. Benda,  Y. A. Bernard,  
 E. J. Berquist,  K. B. Bravaya,  H. Burton,  K. Carter-Fenk,  D. Casanova,  
 Chun-Min Chang,  Yunqing Chen,  A. Chien,  K. D. Closser,  M. P. Coons,  
 S. Coriani,  S. Dasgupta,  A. L. Dempwolff,  M. Diedenhofen,  Hainam Do,  
 R. G. Edgar,  Po-Tung Fang,  S. Faraji,  S. Fatehi,  Qingguo Feng,  
 J. Fosso-Tande,  J. Gayvert,  Qinghui Ge,  A. Ghysels,  G. Gidofalvi,  
 J. Gomes,  J. Gonthier,  A. Gunina,  D. Hait,  M. W. D. Hanson-Heine,  
 P. H. P. Harbach,  A. W. Hauser,  M. F. Herbst,  J. E. Herr,  
 E. G. Hohenstein,  Z. C. Holden,  Kerwin Hui,  B. C. Huynh,  T.-C. Jagau,  
 Hyunjun Ji,  B. Kaduk,  K. Khistyaev,  Jaehoon Kim,  P. Klunzinger,  K. Koh,  
 D. Kosenkov,  L. Koulias,  T. Kowalczyk,  C. M. Krauter,  A. Kunitsa,  
 Ka Un Lao,  A. Laurent,  K. V. Lawler,  Joonho Lee,  D. Lefrancois,  
 S. Lehtola,  D. S. Levine,  Yi-Pei Li,  You-Sheng Lin,  Fenglai Liu,  
 Kuan-Yu Liu,  E. Livshits,  M. Loipersberger,  A. Luenser,  P. Manohar,  
 E. Mansoor,  S. F. Manzer,  Shan-Ping Mao,  Yuezhi Mao,  N. Mardirossian,  
 A. V. Marenich,  T. Markovich,  L. A. Martinez-Martinez,  S. A. Maurer,  
 N. J. Mayhall,  S. C. McKenzie,  J.-M. Mewes,  P. Morgante,  A. F. Morrison,  
 J. W. Mullinax,  K. Nanda,  T. S. Nguyen-Beck,  R. Olivares-Amaya,  
 K. J. Oosterbaan,  J. A. Parkhill,  S. K. Paul,  F. Pavosevic,  Zheng Pei,  
 T. M. Perrine,  F. Plasser,  P. Pokhilko,  S. Prager,  A. Prociuk,  
 E. Ramos,  B. Rana,  D. R. Rehn,  F. Rob,  M. Scheurer,  M. Schneider,  
 N. Sergueev,  S. M. Sharada,  S. Sharma,  D. W. Small,  T. Stauch,  
 C. J. Stein,  T. Stein,  Yu-Chuan Su,  S. P. Veccham,  Zhen Tao,  
 A. J. W. Thom,  A. Tkatchenko,  T. Tsuchimochi,  N. M. Tubman,  L. Vogt,  
 M. L. Vidal,  O. Vydrov,  M. A. Watson,  J. Wenzel,  M. de Wergifosse,  
 T. A. Wesolowski,  A. White,  J. Witte,  A. Yamada,  Jun Yang,  K. Yao,  
 S. Yeganeh,  S. R. Yost,  Zhi-Qiang You,  A. Zech,  Igor Ying Zhang,  
 Xing Zhang,  Yan Zhao,  Ying Zhu,  B. R. Brooks,  G. K. L. Chan,  
 C. J. Cramer,  M. S. Gordon,  W. J. Hehre,  A. Klamt,  M. W. Schmidt,  
 C. D. Sherrill,  D. G. Truhlar,  A. Aspuru-Guzik,  R. Baer,  A. T. Bell,  
 N. A. Besley,  Jeng-Da Chai,  A. E. DePrince, III,  R. A. DiStasio Jr.,  
 A. Dreuw,  B. D. Dunietz,  T. R. Furlani,  Chao-Ping Hsu,  Yousung Jung,  
 Jing Kong,  D. S. Lambrecht,  WanZhen Liang,  C. Ochsenfeld,  
 V. A. Rassolov,  L. V. Slipchenko,  J. E. Subotnik,  T. Van Voorhis,  
 J. M. Herbert,  A. I. Krylov,  P. M. W. Gill,  M. Head-Gordon

 Contributors to earlier versions of Q-Chem not listed above: 
 R. D. Adamson,  B. Austin,  J. Baker,  G. J. O. Beran,  K. Brandhorst,  
 S. T. Brown,  E. F. C. Byrd,  A. K. Chakraborty,  C.-L. Cheng,  
 Siu Hung Chien,  D. M. Chipman,  D. L. Crittenden,  H. Dachsel,  
 R. J. Doerksen,  A. D. Dutoi,  L. Fusti-Molnar,  W. A. Goddard III,  
 A. Golubeva-Zadorozhnaya,  S. R. Gwaltney,  G. Hawkins,  A. Heyden,  
 S. Hirata,  G. Kedziora,  F. J. Keil,  C. Kelley,  Jihan Kim,  R. A. King,  
 R. Z. Khaliullin,  P. P. Korambath,  W. Kurlancheek,  A. M. Lee,  M. S. Lee,  
 S. V. Levchenko,  Ching Yeh Lin,  D. Liotard,  R. C. Lochan,  I. Lotan,  
 P. E. Maslen,  N. Nair,  D. P. O'Neill,  D. Neuhauser,  E. Neuscamman,  
 C. M. Oana,  R. Olson,  B. Peters,  R. Peverati,  P. A. Pieniazek,  
 Y. M. Rhee,  J. Ritchie,  M. A. Rohrdanz,  E. Rosta,  N. J. Russ,  
 H. F. Schaefer III,  N. E. Schultz,  N. Shenvi,  A. C. Simmonett,  A. Sodt,  
 D. Stuck,  K. S. Thanthiriwatte,  V. Vanovschi,  Tao Wang,  A. Warshel,  
 C. F. Williams,  Q. Wu,  X. Xu,  W. Zhang

 Please cite Q-Chem as follows:
 Y. Shao et al., Mol. Phys. 113, 184-215 (2015)
 DOI: 10.1080/00268976.2014.952696

 Q-Chem 5.3.0 for Intel X86 EM64T Linux

 Parts of Q-Chem use Armadillo 9.800.1 (Horizon Scraper).
 http://arma.sourceforge.net/

 Q-Chem begins on Sun Aug 23 00:28:21 2020  

n0094.mhg0
Host: 0

     Scratch files written to /local/scratch/users/yhljason/PH3_MN15_aug-pc-4.inp20200822180721//
Processing $rem in /clusterfs/mhg/diptarka/qchem_transmom//config/preferences:
Processing $rem in /global/home/users/yhljason/.qchemrc:

Checking the input file for inconsistencies... 	...done.

--------------------------------------------------------------
User input:
--------------------------------------------------------------
$molecule
0 1
P1      0.0000  0.0000  0.0000
H2      0.0000  -1.1932 -0.7717
H3      1.0333  0.5966  -0.7717
H4      -1.0333 0.5966  -0.7717
$end

$rem
jobtype sp
method MN15
xc_grid 000099000590
basis aug-pc-4
max_scf_cycles 200
thresh 14
scf_convergence 8
scf_algorithm gdm
symmetry false
sym_ignore true
unrestricted true
gen_scfman true
internal_stability_iter 15
internal_stability_davidson_iter 200
mem_total 64000
mem_static 1500
n_frozen_core 0
$end


--------------------------------------------------------------
 ----------------------------------------------------------------
             Standard Nuclear Orientation (Angstroms)
    I     Atom           X                Y                Z
 ----------------------------------------------------------------
    1      P       0.0000000000     0.0000000000     0.0000000000
    2      H       0.0000000000    -1.1932000000    -0.7717000000
    3      H       1.0333000000     0.5966000000    -0.7717000000
    4      H      -1.0333000000     0.5966000000    -0.7717000000
 ----------------------------------------------------------------
 Nuclear Repulsion Energy =          17.52628072 hartrees
 There are        9 alpha and        9 beta electrons
 Requested basis set is aug-pc-4
 There are 103 shells and 405 basis functions

 Total QAlloc Memory Limit  64000 MB
 Mega-Array Size      1467 MB
 MEM_STATIC part      1500 MB

                       Distance Matrix (Angstroms)
             P (  1)   H (  2)   H (  3)
   H (  2)  1.421002
   H (  3)  1.420972  2.066662
   H (  4)  1.420972  2.066662  2.066600

 A cutoff of  1.0D-14 yielded   5296 shell pairs
 There are     82740 function pairs (    146160 Cartesian)
 Smallest overlap matrix eigenvalue = 1.14E-06

 Scale SEOQF with 1.000000e-01/1.000000e-01/1.000000e-01

 Standard Electronic Orientation quadrupole field applied
 Guess from superposition of atomic densities
 Warning:  Energy on first SCF cycle will be non-variational
 SAD guess density has 18.000000 electrons

 -----------------------------------------------------------------------
  General SCF calculation program by
  Eric Jon Sundstrom, Paul Horn, Yuezhi Mao, Dmitri Zuev, Alec White,
  David Stuck, Shaama M.S., Shane Yost, Joonho Lee, David Small,
  Daniel Levine, Susi Lehtola, Hugh Burton, Evgeny Epifanovsky,
  Bang C. Huynh
 -----------------------------------------------------------------------
 Exchange:     0.4400 Hartree-Fock + 1.0000 MN15
 Correlation:  1.0000 MN15
 Using Euler-Maclaurin-Lebedev (99,590) quadrature formula
Running Object-Oriented UKS (UHF)
performing a single roothaan step with Fock from read density so that orbitals are available to all algorithms
energy of the guess density (C=0) -342.958305600859
We will preform up to 15 macro iterations over saddle points until a stable solution is found
Energy prior to optimization (guess energy) = -343.058607905024
Begin Timing: Total SCF Calculation
Begin Timing: SCF Single Stationary Point Calculation
begin iterations for algorithm: GDM          
the SCF tolerance is set to 1.00e-08
    1    -343.0586079050      1.59e-02     00000  Normal BFGS step
    2    -343.0615188047      7.75e-03     00000  Normal BFGS step
    3    -343.0621456182      1.24e-03     00000  Normal BFGS step
    4    -343.0621705451      4.76e-04     00000  Normal BFGS step
    5    -343.0621733037      6.08e-05     00000  Normal BFGS step
    6    -343.0621733684      3.17e-05     00000  Normal BFGS step
    7    -343.0621733787      4.38e-06     00000  Normal BFGS step
    8    -343.0621733789      6.41e-07     00000  Normal BFGS step
    9    -343.0621733789      8.19e-08     00000  Normal BFGS step
   10    -343.0621733789      1.40e-08     00000  Normal BFGS step
   11    -343.0621733789      2.03e-09     00000 Convergence criterion met
Timing for Single Stationary Point: 1282.00s (wall), 10005.74s (cpu)
Begin Timing: Stability
===================================================
Beginning Test for Internal Stability
===================================================
generating davidson guess vectors based on koopmans excitations
 Warning: Hessian-vector products not implemented
 Finite difference Hessian-vector products will be used.
computing hessian-vector products by finite difference
    1      6.70e-01     00000 Davidson Iteration
computing hessian-vector products by finite difference
    2      3.50e-01     00000 Davidson Iteration
computing hessian-vector products by finite difference
    3      1.92e-01     00000 Davidson Iteration
computing hessian-vector products by finite difference
    4      2.77e-02     00000 Davidson Iteration
computing hessian-vector products by finite difference
    5      1.12e-02     00000 Davidson Iteration
computing hessian-vector products by finite difference
    6      4.69e-03     00000 Davidson Iteration
computing hessian-vector products by finite difference
    7      3.14e-03     00000 Davidson Iteration
computing hessian-vector products by finite difference
    8      1.09e-03     00000 Davidson Iteration
computing hessian-vector products by finite difference
    9      1.42e-03     00000 Davidson Iteration
computing hessian-vector products by finite difference
   10      1.67e-03     00000 Davidson Iteration
computing hessian-vector products by finite difference
   11      4.00e-04     00000 Davidson Iteration
computing hessian-vector products by finite difference
   12      2.51e-04     00000 Davidson Iteration
computing hessian-vector products by finite difference
   13      2.17e-04     00000 Davidson Iteration
computing hessian-vector products by finite difference
   14      2.09e-04     00000 Davidson Iteration
computing hessian-vector products by finite difference
   15      2.15e-04     00000 Davidson Iteration
computing hessian-vector products by finite difference
   16      2.13e-04     00000 Davidson Iteration
computing hessian-vector products by finite difference
   17      2.13e-04     00000 Davidson Iteration
computing hessian-vector products by finite difference
   18      2.18e-04     00000 Davidson Iteration
computing hessian-vector products by finite difference
   19      1.24e-04     00000 Davidson Iteration
computing hessian-vector products by finite difference
   20      4.34e-05     00000 Davidson Iteration
computing hessian-vector products by finite difference
   21      8.48e-05     00000 Davidson Converged
converged_eigenvalues
   0.4008
   0.4007
Threshold for negative eigenvalues: -1.0e-05
solution was a local minimum (stable)
===================================================
End Test for Internal Stability
===================================================
Timing for Internal Stability: 12366.00s (wall), 96263.96s (cpu)
Our SCF solution is stable!
Timing for Total SCF: 13649.00s (wall), 106269.83s (cpu)
 Total energy in the final basis set =     -343.0621733789
<S^2> =         -0.000000000
    ==================================================
              The end of Object-Oriented SCFman       
    ==================================================

 --------------------------------------------------------------

                    Orbital Energies (a.u.)
 --------------------------------------------------------------

 Alpha MOs
 -- Occupied --
-76.1361  -6.3845  -4.7441  -4.7441  -4.7383  -0.6803  -0.4217  -0.4217
 -0.3145
 -- Virtual --
  0.0152   0.0324   0.0324   0.0359   0.0391   0.0391   0.0572   0.0572
  0.0577   0.0957   0.0957   0.0965   0.1111   0.1111   0.1142   0.1365
  0.1483   0.1503   0.1503   0.1553   0.1553   0.1663   0.1714   0.1714
  0.1805   0.1805   0.1860   0.1936   0.1936   0.2244   0.2501   0.2501
  0.2534   0.2630   0.2656   0.2724   0.2751   0.2751   0.2782   0.2782
  0.2938   0.3114   0.3156   0.3156   0.3280   0.3280   0.3328   0.3328
  0.3420   0.3524   0.3524   0.3610   0.3716   0.3716   0.3892   0.3915
  0.3915   0.4048   0.4273   0.4323   0.4323   0.4418   0.4418   0.4783
  0.4784   0.4820   0.4820   0.5069   0.5069   0.5114   0.5164   0.5193
  0.5193   0.5389   0.5402   0.5411   0.5411   0.5536   0.5577   0.5577
  0.5681   0.5681   0.5705   0.5774   0.5774   0.5839   0.5962   0.5962
  0.6397   0.6397   0.6482   0.6482   0.6572   0.6703   0.6703   0.6951
  0.6974   0.7002   0.7044   0.7044   0.7135   0.7135   0.7402   0.7577
  0.7577   0.7715   0.7994   0.8047   0.8047   0.8071   0.8093   0.8120
  0.8120   0.8125   0.8125   0.8260   0.8348   0.8368   0.8368   0.8449
  0.8449   0.8486   0.8833   0.8833   0.8949   0.8949   0.9090   0.9166
  0.9197   0.9202   0.9202   0.9351   0.9351   0.9515   0.9528   0.9675
  0.9675   0.9853   0.9853   1.0306   1.0306   1.0732   1.0732   1.1011
  1.1196   1.1196   1.2217   1.2529   1.2702   1.2702   1.3072   1.3304
  1.3304   1.3831   1.3844   1.3844   1.4444   1.4444   1.4600   1.4832
  1.5366   1.5488   1.5693   1.5693   1.5991   1.5991   1.6344   1.6344
  1.6796   1.6900   1.7120   1.7120   1.7808   1.7808   1.8121   1.8499
  1.8500   1.8568   1.8698   1.9022   1.9022   2.3242   2.3242   2.3357
  2.3648   2.3648   2.3687   2.4689   2.4689   2.5913   2.5913   2.5955
  2.6190   2.7681   2.7681   2.7922   2.8855   2.8855   2.9282   2.9340
  2.9341   2.9567   3.0355   3.0355   3.0451   3.0539   3.0540   3.1086
  3.1466   3.3028   3.3201   3.3201   3.3682   3.4472   3.4472   3.5056
  3.5056   3.5378   3.5479   3.5479   3.5539   3.6009   3.6009   3.6684
  3.6843   3.7188   3.7188   3.7783   3.7837   3.7837   3.7956   3.8649
  3.9085   3.9085   3.9652   3.9653   4.0717   4.0717   4.1692   4.3650
  4.3651   4.5632   4.5655   4.5656   4.7899   4.8882   4.8883   4.9234
  5.0342   5.0342   5.1641   5.1641   5.1679   5.1837   5.2571   5.3703
  5.3704   5.4217   5.4218   5.6641   5.6641   5.6693   5.7301   5.7302
  5.8841   5.9504   6.1685   6.1685   6.4190   6.4190   6.7016   7.0992
  7.0993   7.3653   7.3654   7.3792   7.5955   7.5978   7.5978   7.8349
  7.8529   7.8529   8.1841   8.1898   8.1898   8.3025   8.3039   8.3039
  8.5195   8.5285   8.5286   8.6101   8.6101   8.6494   8.7142   8.7339
  8.7339   8.9846   9.0013   9.0061   9.0061   9.1363   9.1363   9.4777
  9.5385   9.5386  10.3009  10.8152  10.8152  10.9181  11.0058  11.0058
 11.0088  11.1962  11.1963  11.4576  11.9260  11.9260  11.9576  11.9630
 11.9640  11.9640  11.9803  11.9803  12.1092  12.1093  12.1326  12.1498
 12.2828  12.2829  12.3459  12.3923  12.3924  12.4576  12.6674  12.6675
 12.9970  15.8377  15.8402  15.8403  15.9333  15.9542  15.9561  15.9562
 16.0371  16.0372  16.0603  16.1264  16.1639  16.1639  16.1776  16.1779
 16.1780  16.1895  16.2554  16.2555  16.2884  16.2884  16.3965  16.3967
 16.4191  16.7483  16.7494  16.7497  17.1331  17.1394  17.1395  18.2721
 18.2722  22.2983  22.4859  22.4859  22.5321  22.5620  22.5694  22.5694
 22.5834  22.5834  25.5317  37.5438  37.5438  37.6242  57.2317  57.2318
 57.2347  57.9634  57.9635  85.8999  85.9000  85.9657  86.8182  86.8182
 86.8274  86.8288  86.8504  86.8504

 Beta MOs
 -- Occupied --
-76.1361  -6.3845  -4.7441  -4.7441  -4.7383  -0.6803  -0.4217  -0.4217
 -0.3145
 -- Virtual --
  0.0152   0.0324   0.0324   0.0359   0.0391   0.0391   0.0572   0.0572
  0.0577   0.0957   0.0957   0.0965   0.1111   0.1111   0.1142   0.1365
  0.1483   0.1503   0.1503   0.1553   0.1553   0.1663   0.1714   0.1714
  0.1805   0.1805   0.1860   0.1936   0.1936   0.2244   0.2501   0.2501
  0.2534   0.2630   0.2656   0.2724   0.2751   0.2751   0.2782   0.2782
  0.2938   0.3114   0.3156   0.3156   0.3280   0.3280   0.3328   0.3328
  0.3420   0.3524   0.3524   0.3610   0.3716   0.3716   0.3892   0.3915
  0.3915   0.4048   0.4273   0.4323   0.4323   0.4418   0.4418   0.4783
  0.4784   0.4820   0.4820   0.5069   0.5069   0.5114   0.5164   0.5193
  0.5193   0.5389   0.5402   0.5411   0.5411   0.5536   0.5577   0.5577
  0.5681   0.5681   0.5705   0.5774   0.5774   0.5839   0.5962   0.5962
  0.6397   0.6397   0.6482   0.6482   0.6572   0.6703   0.6703   0.6951
  0.6974   0.7002   0.7044   0.7044   0.7135   0.7135   0.7402   0.7577
  0.7577   0.7715   0.7994   0.8047   0.8047   0.8071   0.8093   0.8120
  0.8120   0.8125   0.8125   0.8260   0.8348   0.8368   0.8368   0.8449
  0.8449   0.8486   0.8833   0.8833   0.8949   0.8949   0.9090   0.9166
  0.9197   0.9202   0.9202   0.9351   0.9351   0.9515   0.9528   0.9675
  0.9675   0.9853   0.9853   1.0306   1.0306   1.0732   1.0732   1.1011
  1.1196   1.1196   1.2217   1.2529   1.2702   1.2702   1.3072   1.3304
  1.3304   1.3831   1.3844   1.3844   1.4444   1.4444   1.4600   1.4832
  1.5366   1.5488   1.5693   1.5693   1.5991   1.5991   1.6344   1.6344
  1.6796   1.6900   1.7120   1.7120   1.7808   1.7808   1.8121   1.8499
  1.8500   1.8568   1.8698   1.9022   1.9022   2.3242   2.3242   2.3357
  2.3648   2.3648   2.3687   2.4689   2.4689   2.5913   2.5913   2.5955
  2.6190   2.7681   2.7681   2.7922   2.8855   2.8855   2.9282   2.9340
  2.9341   2.9567   3.0355   3.0355   3.0451   3.0539   3.0540   3.1086
  3.1466   3.3028   3.3201   3.3201   3.3682   3.4472   3.4472   3.5056
  3.5056   3.5378   3.5479   3.5479   3.5539   3.6009   3.6009   3.6684
  3.6843   3.7188   3.7188   3.7783   3.7837   3.7837   3.7956   3.8649
  3.9085   3.9085   3.9652   3.9653   4.0717   4.0717   4.1692   4.3650
  4.3651   4.5632   4.5655   4.5656   4.7899   4.8882   4.8883   4.9234
  5.0342   5.0342   5.1641   5.1641   5.1679   5.1837   5.2571   5.3703
  5.3704   5.4217   5.4218   5.6641   5.6641   5.6693   5.7301   5.7302
  5.8841   5.9504   6.1685   6.1685   6.4190   6.4190   6.7016   7.0992
  7.0993   7.3653   7.3654   7.3792   7.5955   7.5978   7.5978   7.8349
  7.8529   7.8529   8.1841   8.1898   8.1898   8.3025   8.3039   8.3039
  8.5195   8.5285   8.5286   8.6101   8.6101   8.6494   8.7142   8.7339
  8.7339   8.9846   9.0013   9.0061   9.0061   9.1363   9.1363   9.4777
  9.5385   9.5386  10.3009  10.8152  10.8152  10.9181  11.0058  11.0058
 11.0088  11.1962  11.1963  11.4576  11.9260  11.9260  11.9576  11.9630
 11.9640  11.9640  11.9803  11.9803  12.1092  12.1093  12.1326  12.1498
 12.2828  12.2829  12.3459  12.3923  12.3924  12.4576  12.6674  12.6675
 12.9970  15.8377  15.8402  15.8403  15.9333  15.9542  15.9561  15.9562
 16.0371  16.0372  16.0603  16.1264  16.1639  16.1639  16.1776  16.1779
 16.1780  16.1895  16.2554  16.2555  16.2884  16.2884  16.3965  16.3967
 16.4191  16.7483  16.7494  16.7497  17.1331  17.1394  17.1395  18.2721
 18.2722  22.2983  22.4859  22.4859  22.5321  22.5620  22.5694  22.5694
 22.5834  22.5834  25.5317  37.5438  37.5438  37.6242  57.2317  57.2318
 57.2347  57.9634  57.9635  85.8999  85.9000  85.9657  86.8182  86.8182
 86.8274  86.8288  86.8504  86.8504
 --------------------------------------------------------------

          Ground-State Mulliken Net Atomic Charges

     Atom                 Charge (a.u.)    Spin (a.u.)
  --------------------------------------------------------
      1 P                    -0.171826       0.000000
      2 H                     0.056634       0.000000
      3 H                     0.057596       0.000000
      4 H                     0.057596       0.000000
  --------------------------------------------------------
  Sum of atomic charges =    -0.000000
  Sum of spin   charges =     0.000000

 -----------------------------------------------------------------
                    Cartesian Multipole Moments
 -----------------------------------------------------------------
    Charge (ESU x 10^10)
                -0.0000
    Dipole Moment (Debye)
         X       0.0000      Y       0.0001      Z      -0.5909
       Tot       0.5909
    Quadrupole Moments (Debye-Ang)
        XX     -14.8299     XY       0.0000     YY     -14.8299
        XZ      -0.0000     YZ      -0.0001     ZZ     -16.8281
    Octopole Moments (Debye-Ang^2)
       XXX       0.0000    XXY       0.0238    XYY      -0.0000
       YYY      -0.0236    XXZ       1.6375    XYZ      -0.0000
       YYZ       1.6376    XZZ       0.0000    YZZ       0.0001
       ZZZ       5.4390
    Hexadecapole Moments (Debye-Ang^3)
      XXXX     -31.5336   XXXY       0.0000   XXYY     -10.5114
      XYYY       0.0000   YYYY     -31.5348   XXXZ      -0.0000
      XXYZ      -0.5878   XYYZ       0.0000   YYYZ       0.5876
      XXZZ     -11.1540   XYZZ       0.0000   YYZZ     -11.1542
      XZZZ      -0.0000   YZZZ      -0.0002   ZZZZ     -37.5120
 -----------------------------------------------------------------
Archival summary:
1\1\n0094.mhg0\SP\ProcedureUnspecified\BasisUnspecified\13\yhljason\SunAug2304:19:472020SunAug2304:19:472020\0\\#,ProcedureUnspecified,BasisUnspecified,\\0,1\P\H,1,1.42097\H,1,1.42097,2,93.3007\H,1,1.421,2,93.3031,3,-93.5051,0\\\@

 Total job time:  13885.36s(wall), 108129.90s(cpu) 
 Sun Aug 23 04:19:47 2020

        *************************************************************
        *                                                           *
        *  Thank you very much for using Q-Chem.  Have a nice day.  *
        *                                                           *
        *************************************************************


