                  Welcome to Q-Chem
     A Quantum Leap Into The Future Of Chemistry


 Q-Chem 5.3 (devel), Q-Chem, Inc., Pleasanton, CA (2020)

 Yihan Shao,  Zhengting Gan,  E. Epifanovsky,  A. T. B. Gilbert,  M. Wormit,  
 J. Kussmann,  A. W. Lange,  A. Behn,  Jia Deng,  Xintian Feng,  D. Ghosh,  
 M. Goldey,  P. R. Horn,  L. D. Jacobson,  I. Kaliman,  T. Kus,  A. Landau,  
 Jie Liu,  E. I. Proynov,  R. M. Richard,  R. P. Steele,  E. J. Sundstrom,  
 H. L. Woodcock III,  P. M. Zimmerman,  D. Zuev,  B. Alam,  B. Albrecht,  
 E. Alguire,  S. A. Baeppler,  D. Barton,  Z. Benda,  Y. A. Bernard,  
 E. J. Berquist,  K. B. Bravaya,  H. Burton,  K. Carter-Fenk,  D. Casanova,  
 Chun-Min Chang,  Yunqing Chen,  A. Chien,  K. D. Closser,  M. P. Coons,  
 S. Coriani,  S. Dasgupta,  A. L. Dempwolff,  M. Diedenhofen,  Hainam Do,  
 R. G. Edgar,  Po-Tung Fang,  S. Faraji,  S. Fatehi,  Qingguo Feng,  
 J. Fosso-Tande,  J. Gayvert,  Qinghui Ge,  A. Ghysels,  G. Gidofalvi,  
 J. Gomes,  J. Gonthier,  A. Gunina,  D. Hait,  M. W. D. Hanson-Heine,  
 P. H. P. Harbach,  A. W. Hauser,  M. F. Herbst,  J. E. Herr,  
 E. G. Hohenstein,  Z. C. Holden,  Kerwin Hui,  B. C. Huynh,  T.-C. Jagau,  
 Hyunjun Ji,  B. Kaduk,  K. Khistyaev,  Jaehoon Kim,  P. Klunzinger,  K. Koh,  
 D. Kosenkov,  L. Koulias,  T. Kowalczyk,  C. M. Krauter,  A. Kunitsa,  
 Ka Un Lao,  A. Laurent,  K. V. Lawler,  Joonho Lee,  D. Lefrancois,  
 S. Lehtola,  D. S. Levine,  Yi-Pei Li,  You-Sheng Lin,  Fenglai Liu,  
 Kuan-Yu Liu,  E. Livshits,  M. Loipersberger,  A. Luenser,  P. Manohar,  
 E. Mansoor,  S. F. Manzer,  Shan-Ping Mao,  Yuezhi Mao,  N. Mardirossian,  
 A. V. Marenich,  T. Markovich,  L. A. Martinez-Martinez,  S. A. Maurer,  
 N. J. Mayhall,  S. C. McKenzie,  J.-M. Mewes,  P. Morgante,  A. F. Morrison,  
 J. W. Mullinax,  K. Nanda,  T. S. Nguyen-Beck,  R. Olivares-Amaya,  
 K. J. Oosterbaan,  J. A. Parkhill,  S. K. Paul,  F. Pavosevic,  Zheng Pei,  
 T. M. Perrine,  F. Plasser,  P. Pokhilko,  S. Prager,  A. Prociuk,  
 E. Ramos,  B. Rana,  D. R. Rehn,  F. Rob,  M. Scheurer,  M. Schneider,  
 N. Sergueev,  S. M. Sharada,  S. Sharma,  D. W. Small,  T. Stauch,  
 C. J. Stein,  T. Stein,  Yu-Chuan Su,  S. P. Veccham,  Zhen Tao,  
 A. J. W. Thom,  A. Tkatchenko,  T. Tsuchimochi,  N. M. Tubman,  L. Vogt,  
 M. L. Vidal,  O. Vydrov,  M. A. Watson,  J. Wenzel,  M. de Wergifosse,  
 T. A. Wesolowski,  A. White,  J. Witte,  A. Yamada,  Jun Yang,  K. Yao,  
 S. Yeganeh,  S. R. Yost,  Zhi-Qiang You,  A. Zech,  Igor Ying Zhang,  
 Xing Zhang,  Yan Zhao,  Ying Zhu,  B. R. Brooks,  G. K. L. Chan,  
 C. J. Cramer,  M. S. Gordon,  W. J. Hehre,  A. Klamt,  M. W. Schmidt,  
 C. D. Sherrill,  D. G. Truhlar,  A. Aspuru-Guzik,  R. Baer,  A. T. Bell,  
 N. A. Besley,  Jeng-Da Chai,  A. E. DePrince, III,  R. A. DiStasio Jr.,  
 A. Dreuw,  B. D. Dunietz,  T. R. Furlani,  Chao-Ping Hsu,  Yousung Jung,  
 Jing Kong,  D. S. Lambrecht,  WanZhen Liang,  C. Ochsenfeld,  
 V. A. Rassolov,  L. V. Slipchenko,  J. E. Subotnik,  T. Van Voorhis,  
 J. M. Herbert,  A. I. Krylov,  P. M. W. Gill,  M. Head-Gordon

 Contributors to earlier versions of Q-Chem not listed above: 
 R. D. Adamson,  B. Austin,  J. Baker,  G. J. O. Beran,  K. Brandhorst,  
 S. T. Brown,  E. F. C. Byrd,  A. K. Chakraborty,  C.-L. Cheng,  
 Siu Hung Chien,  D. M. Chipman,  D. L. Crittenden,  H. Dachsel,  
 R. J. Doerksen,  A. D. Dutoi,  L. Fusti-Molnar,  W. A. Goddard III,  
 A. Golubeva-Zadorozhnaya,  S. R. Gwaltney,  G. Hawkins,  A. Heyden,  
 S. Hirata,  G. Kedziora,  F. J. Keil,  C. Kelley,  Jihan Kim,  R. A. King,  
 R. Z. Khaliullin,  P. P. Korambath,  W. Kurlancheek,  A. M. Lee,  M. S. Lee,  
 S. V. Levchenko,  Ching Yeh Lin,  D. Liotard,  R. C. Lochan,  I. Lotan,  
 P. E. Maslen,  N. Nair,  D. P. O'Neill,  D. Neuhauser,  E. Neuscamman,  
 C. M. Oana,  R. Olson,  B. Peters,  R. Peverati,  P. A. Pieniazek,  
 Y. M. Rhee,  J. Ritchie,  M. A. Rohrdanz,  E. Rosta,  N. J. Russ,  
 H. F. Schaefer III,  N. E. Schultz,  N. Shenvi,  A. C. Simmonett,  A. Sodt,  
 D. Stuck,  K. S. Thanthiriwatte,  V. Vanovschi,  Tao Wang,  A. Warshel,  
 C. F. Williams,  Q. Wu,  X. Xu,  W. Zhang

 Please cite Q-Chem as follows:
 Y. Shao et al., Mol. Phys. 113, 184-215 (2015)
 DOI: 10.1080/00268976.2014.952696

 Q-Chem 5.3.0 for Intel X86 EM64T Linux

 Parts of Q-Chem use Armadillo 9.800.1 (Horizon Scraper).
 http://arma.sourceforge.net/

 Q-Chem begins on Sat Aug 22 21:18:57 2020  

n0091.mhg0
Host: 0

     Scratch files written to /local/scratch/users/yhljason/PH3O_BLYP_aug-pc-4.inp20200822180716//
Processing $rem in /clusterfs/mhg/diptarka/qchem_transmom//config/preferences:
Processing $rem in /global/home/users/yhljason/.qchemrc:

Checking the input file for inconsistencies... 	...done.

--------------------------------------------------------------
User input:
--------------------------------------------------------------
$molecule
0 1
P        0.0000000000      0.0000000000     -0.3836153961
H       -1.2521120981      0.0000000000     -1.0264054293
H        0.6260878053     -1.0843997178     -1.0264202208
H        0.6260878053      1.0843997178     -1.0264202208
O        0.0000000000      0.0000000008      1.1041846038
$end

$rem
jobtype sp
method BLYP
xc_grid 000099000590
basis aug-pc-4
max_scf_cycles 200
thresh 14
scf_convergence 8
scf_algorithm gdm
symmetry false
sym_ignore true
unrestricted true
gen_scfman true
internal_stability_iter 15
internal_stability_davidson_iter 200
mem_total 64000
mem_static 1500
n_frozen_core 0
$end


--------------------------------------------------------------
 ----------------------------------------------------------------
             Standard Nuclear Orientation (Angstroms)
    I     Atom           X                Y                Z
 ----------------------------------------------------------------
    1      P       0.0000000000     0.0000000000    -0.3836153961
    2      H      -1.2521120981     0.0000000000    -1.0264054293
    3      H       0.6260878053    -1.0843997178    -1.0264202208
    4      H       0.6260878053     1.0843997178    -1.0264202208
    5      O       0.0000000000     0.0000000008     1.1041846038
 ----------------------------------------------------------------
 Nuclear Repulsion Energy =          65.47102974 hartrees
 There are       13 alpha and       13 beta electrons
 Requested basis set is aug-pc-4
 There are 136 shells and 550 basis functions

 Total QAlloc Memory Limit  64000 MB
 Mega-Array Size      1467 MB
 MEM_STATIC part      1500 MB

                       Distance Matrix (Angstroms)
             P (  1)   H (  2)   H (  3)   H (  4)
   H (  2)  1.407467
   H (  3)  1.407518  2.168769
   H (  4)  1.407518  2.168769  2.168799
   O (  5)  1.487800  2.471275  2.471313  2.471313

 A cutoff of  1.0D-14 yielded   9053 shell pairs
 There are    150269 function pairs (    272924 Cartesian)
 Smallest overlap matrix eigenvalue = 4.85E-07
 Linear dependence detected in AO basis
 Tighter screening thresholds may be required for diffuse basis sets
 Use S2THRESH > 14 and THRESH = 14 in case of SCF convergence issues
 Number of orthogonalized atomic orbitals = 547
 Maximum deviation from orthogonality = 3.333E-10

 Scale SEOQF with 1.000000e-01/1.000000e-01/1.000000e-01

 Standard Electronic Orientation quadrupole field applied
 Nucleus-field energy     =    -0.0000000014 hartrees
 Guess from superposition of atomic densities
 Warning:  Energy on first SCF cycle will be non-variational
 SAD guess density has 26.000000 electrons

 -----------------------------------------------------------------------
  General SCF calculation program by
  Eric Jon Sundstrom, Paul Horn, Yuezhi Mao, Dmitri Zuev, Alec White,
  David Stuck, Shaama M.S., Shane Yost, Joonho Lee, David Small,
  Daniel Levine, Susi Lehtola, Hugh Burton, Evgeny Epifanovsky,
  Bang C. Huynh
 -----------------------------------------------------------------------
 Exchange:  B88      Correlation:  LYP
 Using Euler-Maclaurin-Lebedev (99,590) quadrature formula
Running Object-Oriented UKS (UHF)
performing a single roothaan step with Fock from read density so that orbitals are available to all algorithms
energy of the guess density (C=0) -418.638471185702
We will preform up to 15 macro iterations over saddle points until a stable solution is found
Energy prior to optimization (guess energy) = -418.274886717515
Begin Timing: Total SCF Calculation
Begin Timing: SCF Single Stationary Point Calculation
begin iterations for algorithm: GDM          
the SCF tolerance is set to 1.00e-08
    1    -418.2748867175      2.73e-01     00000  Descent step
    2    -418.2546696799      3.07e-01     00000 Line search: overstep
    3    -418.4135106648      3.19e-02     00000  Normal BFGS step
    4    -418.4292843699      2.64e-02     00000  Normal BFGS step
    5    -418.4324787801      4.52e-03     00000  Normal BFGS step
    6    -418.4325529598      1.58e-03     00000  Normal BFGS step
    7    -418.4325719319      7.90e-04     00000  Normal BFGS step
    8    -418.4325747103      2.25e-04     00000  Normal BFGS step
    9    -418.4325750194      3.66e-05     00000  Normal BFGS step
   10    -418.4325750289      1.51e-05     00000  Normal BFGS step
   11    -418.4325750304      9.92e-07     00000  Normal BFGS step
   12    -418.4325750305      2.21e-07     00000  Normal BFGS step
   13    -418.4325750305      2.94e-08     00000  Normal BFGS step
   14    -418.4325750305      3.43e-09     00000 Convergence criterion met
Timing for Single Stationary Point: 6491.00s (wall), 51211.18s (cpu)
Begin Timing: Stability
===================================================
Beginning Test for Internal Stability
===================================================
generating davidson guess vectors based on koopmans excitations
 Warning: Hessian-vector products not implemented
 Finite difference Hessian-vector products will be used.
computing hessian-vector products by finite difference
    1      6.39e-01     00000 Davidson Iteration
computing hessian-vector products by finite difference
    2      1.98e-01     00000 Davidson Iteration
computing hessian-vector products by finite difference
    3      8.45e-03     00000 Davidson Iteration
computing hessian-vector products by finite difference
    4      6.69e-03     00000 Davidson Iteration
computing hessian-vector products by finite difference
    5      4.06e-03     00000 Davidson Iteration
computing hessian-vector products by finite difference
    6      1.19e-03     00000 Davidson Iteration
computing hessian-vector products by finite difference
    7      6.08e-04     00000 Davidson Iteration
computing hessian-vector products by finite difference
    8      2.61e-04     00000 Davidson Iteration
computing hessian-vector products by finite difference
    9      6.93e-05     00000 Davidson Iteration
computing hessian-vector products by finite difference
   10      1.25e-04     00000 Davidson Iteration
computing hessian-vector products by finite difference
   11      4.25e-05     00000 Davidson Converged
converged_eigenvalues
   0.3719
   0.4215
Threshold for negative eigenvalues: -1.0e-05
solution was a local minimum (stable)
===================================================
End Test for Internal Stability
===================================================
Timing for Internal Stability: 25302.00s (wall), 199506.31s (cpu)
Our SCF solution is stable!
Timing for Total SCF: 31793.00s (wall), 250717.83s (cpu)
 Total energy in the final basis set =     -418.4325750305
<S^2> =          0.000000000
    ==================================================
              The end of Object-Oriented SCFman       
    ==================================================

 --------------------------------------------------------------

                    Orbital Energies (a.u.)
 --------------------------------------------------------------

 Alpha MOs
 -- Occupied --
-76.4198 -18.7394  -6.3672  -4.5908  -4.5908  -4.5889  -0.8835  -0.5904
 -0.4000  -0.4000  -0.3424  -0.2511  -0.2511
 -- Virtual --
 -0.0465  -0.0351   0.0010   0.0010   0.0036   0.0036   0.0225   0.0243
  0.0360   0.0360   0.0474   0.0529   0.0529   0.0606   0.0606   0.0844
  0.0926   0.0926   0.0985   0.1080   0.1113   0.1113   0.1169   0.1187
  0.1263   0.1263   0.1409   0.1415   0.1415   0.1605   0.1605   0.1791
  0.1791   0.1836   0.2024   0.2047   0.2076   0.2076   0.2149   0.2149
  0.2199   0.2229   0.2229   0.2373   0.2449   0.2516   0.2516   0.2658
  0.2658   0.2673   0.2879   0.2879   0.2896   0.2918   0.2943   0.2943
  0.3039   0.3073   0.3073   0.3185   0.3271   0.3271   0.3470   0.3470
  0.3525   0.3580   0.3580   0.3836   0.3900   0.3900   0.4142   0.4176
  0.4176   0.4255   0.4306   0.4306   0.4371   0.4432   0.4484   0.4544
  0.4544   0.4546   0.4546   0.4612   0.4612   0.4648   0.4740   0.4849
  0.4876   0.4876   0.4929   0.4929   0.5155   0.5192   0.5192   0.5217
  0.5327   0.5327   0.5594   0.5620   0.5620   0.5704   0.5704   0.5845
  0.5921   0.6069   0.6069   0.6133   0.6145   0.6146   0.6314   0.6356
  0.6356   0.6410   0.6627   0.6627   0.6766   0.6766   0.6905   0.6905
  0.6931   0.7023   0.7131   0.7350   0.7350   0.7386   0.7386   0.7389
  0.7449   0.7572   0.7572   0.7700   0.7859   0.7859   0.7867   0.7972
  0.8105   0.8105   0.8160   0.8162   0.8162   0.8210   0.8264   0.8323
  0.8323   0.8449   0.8449   0.8500   0.8500   0.8508   0.8601   0.8608
  0.8816   0.8816   0.9023   0.9023   0.9070   0.9110   0.9110   0.9324
  0.9324   0.9362   0.9529   0.9529   0.9602   0.9644   0.9746   0.9746
  1.0027   1.0027   1.0207   1.0207   1.0321   1.0321   1.0481   1.0981
  1.1102   1.1416   1.1534   1.1534   1.1605   1.1605   1.1785   1.1912
  1.1912   1.2072   1.2072   1.2367   1.2468   1.2468   1.2725   1.2725
  1.2948   1.3109   1.3109   1.3451   1.3949   1.4197   1.4197   1.4640
  1.4930   1.4930   1.5036   1.5036   1.5080   1.5369   1.5370   1.5370
  1.5970   1.5970   1.6190   1.6580   1.6580   1.6600   1.6620   1.6859
  1.6976   1.6976   1.7113   1.7334   1.7334   1.7766   1.7766   1.7895
  1.8504   1.8976   1.8976   1.9485   2.0062   2.0062   2.0297   2.0297
  2.0547   2.1144   2.1265   2.1490   2.1490   2.2591   2.3002   2.3002
  2.3797   2.3797   2.4593   2.5525   2.5525   2.5766   2.5766   2.6601
  2.6849   2.6849   2.6910   2.7372   2.8463   2.8463   2.9094   2.9094
  2.9669   3.0046   3.0046   3.0134   3.0716   3.1405   3.1405   3.2077
  3.2103   3.2922   3.2922   3.3049   3.3794   3.3794   3.4454   3.4539
  3.4539   3.4889   3.4889   3.5452   3.5475   3.5475   3.5735   3.6176
  3.6305   3.6305   3.6439   3.6881   3.7214   3.7215   3.8032   3.8053
  3.8053   3.8297   3.8297   3.8836   3.9759   3.9759   4.0235   4.1041
  4.1041   4.1209   4.1209   4.1896   4.2620   4.2620   4.2905   4.3465
  4.3465   4.3680   4.4547   4.5252   4.5252   4.6234   4.6234   4.6947
  4.8340   4.8340   4.9417   5.0371   5.0982   5.0982   5.1311   5.1698
  5.1918   5.1918   5.2793   5.2794   5.3740   5.3740   5.3859   5.4849
  5.5784   5.5784   5.6051   5.7255   5.7255   5.7834   5.7835   5.7871
  5.9525   6.0679   6.0679   6.0690   6.1243   6.1243   6.2177   6.2177
  6.4130   6.4333   6.6313   6.7042   6.7043   6.9826   6.9826   7.0671
  7.1422   7.2813   7.2813   7.4980   7.4980   7.6229   7.6229   7.6520
  7.8945   7.9589   7.9590   8.0349   8.0406   8.0406   8.4693   8.4693
  8.5006   8.5679   8.6195   8.6195   8.8005   8.8005   8.9039   8.9425
  8.9563   8.9563   9.0199   9.0199   9.0390   9.1510   9.2171   9.2240
  9.2240   9.3287   9.3287   9.5138   9.5138   9.5582   9.6843   9.6843
  9.7753   9.7753   9.8252   9.9526   9.9526  10.3055  10.9723  11.0682
 11.0683  11.1372  11.1688  11.1688  11.2571  11.3600  11.4784  11.4785
 11.7031  11.7031  11.9564  12.0978  12.0978  12.1111  12.1111  12.2354
 12.2527  12.2976  12.3327  12.3327  12.3495  12.4270  12.4270  12.4652
 12.5023  12.5023  12.5592  12.5592  12.6270  12.6270  12.6431  12.7400
 12.7931  12.8134  12.8260  12.8260  12.9824  12.9893  13.0021  13.0021
 13.1845  13.2205  13.2205  13.2592  13.2592  13.4692  13.4693  13.8139
 13.9237  13.9237  14.6764  16.2161  16.2161  16.6785  16.7014  16.7014
 16.7049  16.7049  16.7049  16.7071  16.7417  16.7417  16.8101  16.8101
 16.8262  16.9237  16.9747  16.9748  17.0654  17.0654  17.0964  17.1156
 17.1171  17.1171  17.2302  17.2303  17.2506  17.3034  17.6248  17.7211
 17.7320  17.7320  17.8771  17.8771  18.1186  18.1187  18.4126  18.5925
 18.5925  18.7248  19.1464  19.1464  23.0374  23.0374  23.3392  23.3392
 23.3488  23.3868  23.4287  23.4287  23.4358  23.4358  23.8406  24.1188
 24.1358  24.1358  29.9466  30.4272  32.0485  32.0485  33.3902  39.8975
 39.8976  39.9117  59.1103  59.1103  59.7458  59.8448  59.8449  66.6244
 66.6245  66.8564  66.8564  67.4550  90.8741  90.9074  90.9074  90.9120
 90.9309  90.9309  91.4154  91.4171  91.4172 142.8989

 Beta MOs
 -- Occupied --
-76.4198 -18.7394  -6.3672  -4.5908  -4.5908  -4.5889  -0.8835  -0.5904
 -0.4000  -0.4000  -0.3424  -0.2511  -0.2511
 -- Virtual --
 -0.0465  -0.0351   0.0010   0.0010   0.0036   0.0036   0.0225   0.0243
  0.0360   0.0360   0.0474   0.0529   0.0529   0.0606   0.0606   0.0844
  0.0926   0.0926   0.0985   0.1080   0.1113   0.1113   0.1169   0.1187
  0.1263   0.1263   0.1409   0.1415   0.1415   0.1605   0.1605   0.1791
  0.1791   0.1836   0.2024   0.2047   0.2076   0.2076   0.2149   0.2149
  0.2199   0.2229   0.2229   0.2373   0.2449   0.2516   0.2516   0.2658
  0.2658   0.2673   0.2879   0.2879   0.2896   0.2918   0.2943   0.2943
  0.3039   0.3073   0.3073   0.3185   0.3271   0.3271   0.3470   0.3470
  0.3525   0.3580   0.3580   0.3836   0.3900   0.3900   0.4142   0.4176
  0.4176   0.4255   0.4306   0.4306   0.4371   0.4432   0.4484   0.4544
  0.4544   0.4546   0.4546   0.4612   0.4612   0.4648   0.4740   0.4849
  0.4876   0.4876   0.4929   0.4929   0.5155   0.5192   0.5192   0.5217
  0.5327   0.5327   0.5594   0.5620   0.5620   0.5704   0.5704   0.5845
  0.5921   0.6069   0.6069   0.6133   0.6145   0.6146   0.6314   0.6356
  0.6356   0.6410   0.6627   0.6627   0.6766   0.6766   0.6905   0.6905
  0.6931   0.7023   0.7131   0.7350   0.7350   0.7386   0.7386   0.7389
  0.7449   0.7572   0.7572   0.7700   0.7859   0.7859   0.7867   0.7972
  0.8105   0.8105   0.8160   0.8162   0.8162   0.8210   0.8264   0.8323
  0.8323   0.8449   0.8449   0.8500   0.8500   0.8508   0.8601   0.8608
  0.8816   0.8816   0.9023   0.9023   0.9070   0.9110   0.9110   0.9324
  0.9324   0.9362   0.9529   0.9529   0.9602   0.9644   0.9746   0.9746
  1.0027   1.0027   1.0207   1.0207   1.0321   1.0321   1.0481   1.0981
  1.1102   1.1416   1.1534   1.1534   1.1605   1.1605   1.1785   1.1912
  1.1912   1.2072   1.2072   1.2367   1.2468   1.2468   1.2725   1.2725
  1.2948   1.3109   1.3109   1.3451   1.3949   1.4197   1.4197   1.4640
  1.4930   1.4930   1.5036   1.5036   1.5080   1.5369   1.5370   1.5370
  1.5970   1.5970   1.6190   1.6580   1.6580   1.6600   1.6620   1.6859
  1.6976   1.6976   1.7113   1.7334   1.7334   1.7766   1.7766   1.7895
  1.8504   1.8976   1.8976   1.9485   2.0062   2.0062   2.0297   2.0297
  2.0547   2.1144   2.1265   2.1490   2.1490   2.2591   2.3002   2.3002
  2.3797   2.3797   2.4593   2.5525   2.5525   2.5766   2.5766   2.6601
  2.6849   2.6849   2.6910   2.7372   2.8463   2.8463   2.9094   2.9094
  2.9669   3.0046   3.0046   3.0134   3.0716   3.1405   3.1405   3.2077
  3.2103   3.2922   3.2922   3.3049   3.3794   3.3794   3.4454   3.4539
  3.4539   3.4889   3.4889   3.5452   3.5475   3.5475   3.5735   3.6176
  3.6305   3.6305   3.6439   3.6881   3.7214   3.7215   3.8032   3.8053
  3.8053   3.8297   3.8297   3.8836   3.9759   3.9759   4.0235   4.1041
  4.1041   4.1209   4.1209   4.1896   4.2620   4.2620   4.2905   4.3465
  4.3465   4.3680   4.4547   4.5252   4.5252   4.6234   4.6234   4.6947
  4.8340   4.8340   4.9417   5.0371   5.0982   5.0982   5.1311   5.1698
  5.1918   5.1918   5.2793   5.2794   5.3740   5.3740   5.3859   5.4849
  5.5784   5.5784   5.6051   5.7255   5.7255   5.7834   5.7835   5.7871
  5.9525   6.0679   6.0679   6.0690   6.1243   6.1243   6.2177   6.2177
  6.4130   6.4333   6.6313   6.7042   6.7043   6.9826   6.9826   7.0671
  7.1422   7.2813   7.2813   7.4980   7.4980   7.6229   7.6229   7.6520
  7.8945   7.9589   7.9590   8.0349   8.0406   8.0406   8.4693   8.4693
  8.5006   8.5679   8.6195   8.6195   8.8005   8.8005   8.9039   8.9425
  8.9563   8.9563   9.0199   9.0199   9.0390   9.1510   9.2171   9.2240
  9.2240   9.3287   9.3287   9.5138   9.5138   9.5582   9.6843   9.6843
  9.7753   9.7753   9.8252   9.9526   9.9526  10.3055  10.9723  11.0682
 11.0683  11.1372  11.1688  11.1688  11.2571  11.3600  11.4784  11.4785
 11.7031  11.7031  11.9564  12.0978  12.0978  12.1111  12.1111  12.2354
 12.2527  12.2976  12.3327  12.3327  12.3495  12.4270  12.4270  12.4652
 12.5023  12.5023  12.5592  12.5592  12.6270  12.6270  12.6431  12.7400
 12.7931  12.8134  12.8260  12.8260  12.9824  12.9893  13.0021  13.0021
 13.1845  13.2205  13.2205  13.2592  13.2592  13.4692  13.4693  13.8139
 13.9237  13.9237  14.6764  16.2161  16.2161  16.6785  16.7014  16.7014
 16.7049  16.7049  16.7049  16.7071  16.7417  16.7417  16.8101  16.8101
 16.8262  16.9237  16.9747  16.9748  17.0654  17.0654  17.0964  17.1156
 17.1171  17.1171  17.2302  17.2303  17.2506  17.3034  17.6248  17.7211
 17.7320  17.7320  17.8771  17.8771  18.1186  18.1187  18.4126  18.5925
 18.5925  18.7248  19.1464  19.1464  23.0374  23.0374  23.3392  23.3392
 23.3488  23.3868  23.4287  23.4287  23.4358  23.4358  23.8406  24.1188
 24.1358  24.1358  29.9466  30.4272  32.0485  32.0485  33.3902  39.8975
 39.8976  39.9117  59.1103  59.1103  59.7458  59.8448  59.8449  66.6244
 66.6245  66.8564  66.8564  67.4550  90.8741  90.9074  90.9074  90.9120
 90.9309  90.9309  91.4154  91.4171  91.4172 142.8989
 --------------------------------------------------------------

          Ground-State Mulliken Net Atomic Charges

     Atom                 Charge (a.u.)    Spin (a.u.)
  --------------------------------------------------------
      1 P                     0.523012      -0.000000
      2 H                    -0.006338       0.000000
      3 H                    -0.006366       0.000000
      4 H                    -0.006366       0.000000
      5 O                    -0.503943      -0.000000
  --------------------------------------------------------
  Sum of atomic charges =     0.000000
  Sum of spin   charges =     0.000000

 -----------------------------------------------------------------
                    Cartesian Multipole Moments
 -----------------------------------------------------------------
    Charge (ESU x 10^10)
                 0.0000
    Dipole Moment (Debye)
         X      -0.0001      Y      -0.0000      Z      -3.5157
       Tot       3.5157
    Quadrupole Moments (Debye-Ang)
        XX     -19.2816     XY      -0.0000     YY     -19.2816
        XZ       0.0001     YZ      -0.0000     ZZ     -22.9313
    Octopole Moments (Debye-Ang^2)
       XXX      -0.0804    XXY      -0.0000    XYY       0.0798
       YYY      -0.0000    XXZ       0.2306    XYZ       0.0000
       YYZ       0.2307    XZZ      -0.0002    YZZ      -0.0000
       ZZZ      -2.0297
    Hexadecapole Moments (Debye-Ang^3)
      XXXX     -34.7723   XXXY      -0.0000   XXYY     -11.5909
      XYYY       0.0000   YYYY     -34.7734   XXXZ       0.1988
      XXYZ      -0.0000   XYYZ      -0.1982   YYYZ      -0.0000
      XXZZ     -22.4598   XYZZ      -0.0000   YYZZ     -22.4600
      XZZZ       0.0006   YZZZ      -0.0000   ZZZZ     -97.8719
 -----------------------------------------------------------------
Archival summary:
1\1\n0091.mhg0\SP\ProcedureUnspecified\BasisUnspecified\113\yhljason\SunAug2306:24:262020SunAug2306:24:262020\0\\#,ProcedureUnspecified,BasisUnspecified,\\0,1\P\H,1,1.40747\H,1,1.40752,2,100.786\H,1,1.40752,2,100.786,3,-103.31,0\O,1,1.4878,2,117.174,3,128.345,0\\\@

 Total job time:  32728.64s(wall), 258062.85s(cpu) 
 Sun Aug 23 06:24:26 2020

        *************************************************************
        *                                                           *
        *  Thank you very much for using Q-Chem.  Have a nice day.  *
        *                                                           *
        *************************************************************


