                  Welcome to Q-Chem
     A Quantum Leap Into The Future Of Chemistry


 Q-Chem 5.3 (devel), Q-Chem, Inc., Pleasanton, CA (2020)

 Yihan Shao,  Zhengting Gan,  E. Epifanovsky,  A. T. B. Gilbert,  M. Wormit,  
 J. Kussmann,  A. W. Lange,  A. Behn,  Jia Deng,  Xintian Feng,  D. Ghosh,  
 M. Goldey,  P. R. Horn,  L. D. Jacobson,  I. Kaliman,  T. Kus,  A. Landau,  
 Jie Liu,  E. I. Proynov,  R. M. Richard,  R. P. Steele,  E. J. Sundstrom,  
 H. L. Woodcock III,  P. M. Zimmerman,  D. Zuev,  B. Alam,  B. Albrecht,  
 E. Alguire,  S. A. Baeppler,  D. Barton,  Z. Benda,  Y. A. Bernard,  
 E. J. Berquist,  K. B. Bravaya,  H. Burton,  K. Carter-Fenk,  D. Casanova,  
 Chun-Min Chang,  Yunqing Chen,  A. Chien,  K. D. Closser,  M. P. Coons,  
 S. Coriani,  S. Dasgupta,  A. L. Dempwolff,  M. Diedenhofen,  Hainam Do,  
 R. G. Edgar,  Po-Tung Fang,  S. Faraji,  S. Fatehi,  Qingguo Feng,  
 J. Fosso-Tande,  J. Gayvert,  Qinghui Ge,  A. Ghysels,  G. Gidofalvi,  
 J. Gomes,  J. Gonthier,  A. Gunina,  D. Hait,  M. W. D. Hanson-Heine,  
 P. H. P. Harbach,  A. W. Hauser,  M. F. Herbst,  J. E. Herr,  
 E. G. Hohenstein,  Z. C. Holden,  Kerwin Hui,  B. C. Huynh,  T.-C. Jagau,  
 Hyunjun Ji,  B. Kaduk,  K. Khistyaev,  Jaehoon Kim,  P. Klunzinger,  K. Koh,  
 D. Kosenkov,  L. Koulias,  T. Kowalczyk,  C. M. Krauter,  A. Kunitsa,  
 Ka Un Lao,  A. Laurent,  K. V. Lawler,  Joonho Lee,  D. Lefrancois,  
 S. Lehtola,  D. S. Levine,  Yi-Pei Li,  You-Sheng Lin,  Fenglai Liu,  
 Kuan-Yu Liu,  E. Livshits,  M. Loipersberger,  A. Luenser,  P. Manohar,  
 E. Mansoor,  S. F. Manzer,  Shan-Ping Mao,  Yuezhi Mao,  N. Mardirossian,  
 A. V. Marenich,  T. Markovich,  L. A. Martinez-Martinez,  S. A. Maurer,  
 N. J. Mayhall,  S. C. McKenzie,  J.-M. Mewes,  P. Morgante,  A. F. Morrison,  
 J. W. Mullinax,  K. Nanda,  T. S. Nguyen-Beck,  R. Olivares-Amaya,  
 K. J. Oosterbaan,  J. A. Parkhill,  S. K. Paul,  F. Pavosevic,  Zheng Pei,  
 T. M. Perrine,  F. Plasser,  P. Pokhilko,  S. Prager,  A. Prociuk,  
 E. Ramos,  B. Rana,  D. R. Rehn,  F. Rob,  M. Scheurer,  M. Schneider,  
 N. Sergueev,  S. M. Sharada,  S. Sharma,  D. W. Small,  T. Stauch,  
 C. J. Stein,  T. Stein,  Yu-Chuan Su,  S. P. Veccham,  Zhen Tao,  
 A. J. W. Thom,  A. Tkatchenko,  T. Tsuchimochi,  N. M. Tubman,  L. Vogt,  
 M. L. Vidal,  O. Vydrov,  M. A. Watson,  J. Wenzel,  M. de Wergifosse,  
 T. A. Wesolowski,  A. White,  J. Witte,  A. Yamada,  Jun Yang,  K. Yao,  
 S. Yeganeh,  S. R. Yost,  Zhi-Qiang You,  A. Zech,  Igor Ying Zhang,  
 Xing Zhang,  Yan Zhao,  Ying Zhu,  B. R. Brooks,  G. K. L. Chan,  
 C. J. Cramer,  M. S. Gordon,  W. J. Hehre,  A. Klamt,  M. W. Schmidt,  
 C. D. Sherrill,  D. G. Truhlar,  A. Aspuru-Guzik,  R. Baer,  A. T. Bell,  
 N. A. Besley,  Jeng-Da Chai,  A. E. DePrince, III,  R. A. DiStasio Jr.,  
 A. Dreuw,  B. D. Dunietz,  T. R. Furlani,  Chao-Ping Hsu,  Yousung Jung,  
 Jing Kong,  D. S. Lambrecht,  WanZhen Liang,  C. Ochsenfeld,  
 V. A. Rassolov,  L. V. Slipchenko,  J. E. Subotnik,  T. Van Voorhis,  
 J. M. Herbert,  A. I. Krylov,  P. M. W. Gill,  M. Head-Gordon

 Contributors to earlier versions of Q-Chem not listed above: 
 R. D. Adamson,  B. Austin,  J. Baker,  G. J. O. Beran,  K. Brandhorst,  
 S. T. Brown,  E. F. C. Byrd,  A. K. Chakraborty,  C.-L. Cheng,  
 Siu Hung Chien,  D. M. Chipman,  D. L. Crittenden,  H. Dachsel,  
 R. J. Doerksen,  A. D. Dutoi,  L. Fusti-Molnar,  W. A. Goddard III,  
 A. Golubeva-Zadorozhnaya,  S. R. Gwaltney,  G. Hawkins,  A. Heyden,  
 S. Hirata,  G. Kedziora,  F. J. Keil,  C. Kelley,  Jihan Kim,  R. A. King,  
 R. Z. Khaliullin,  P. P. Korambath,  W. Kurlancheek,  A. M. Lee,  M. S. Lee,  
 S. V. Levchenko,  Ching Yeh Lin,  D. Liotard,  R. C. Lochan,  I. Lotan,  
 P. E. Maslen,  N. Nair,  D. P. O'Neill,  D. Neuhauser,  E. Neuscamman,  
 C. M. Oana,  R. Olson,  B. Peters,  R. Peverati,  P. A. Pieniazek,  
 Y. M. Rhee,  J. Ritchie,  M. A. Rohrdanz,  E. Rosta,  N. J. Russ,  
 H. F. Schaefer III,  N. E. Schultz,  N. Shenvi,  A. C. Simmonett,  A. Sodt,  
 D. Stuck,  K. S. Thanthiriwatte,  V. Vanovschi,  Tao Wang,  A. Warshel,  
 C. F. Williams,  Q. Wu,  X. Xu,  W. Zhang

 Please cite Q-Chem as follows:
 Y. Shao et al., Mol. Phys. 113, 184-215 (2015)
 DOI: 10.1080/00268976.2014.952696

 Q-Chem 5.3.0 for Intel X86 EM64T Linux

 Parts of Q-Chem use Armadillo 9.800.1 (Horizon Scraper).
 http://arma.sourceforge.net/

 Q-Chem begins on Sat Aug 22 21:30:37 2020  

n0091.mhg0
Host: 0

     Scratch files written to /local/scratch/users/yhljason/PH3O_M08-HX_aug-pc-4.inp20200822180717//
Processing $rem in /clusterfs/mhg/diptarka/qchem_transmom//config/preferences:
Processing $rem in /global/home/users/yhljason/.qchemrc:

Checking the input file for inconsistencies... 	...done.

--------------------------------------------------------------
User input:
--------------------------------------------------------------
$molecule
0 1
P        0.0000000000      0.0000000000     -0.3836153961
H       -1.2521120981      0.0000000000     -1.0264054293
H        0.6260878053     -1.0843997178     -1.0264202208
H        0.6260878053      1.0843997178     -1.0264202208
O        0.0000000000      0.0000000008      1.1041846038
$end

$rem
jobtype sp
method M08-HX
xc_grid 000099000590
basis aug-pc-4
max_scf_cycles 200
thresh 14
scf_convergence 8
scf_algorithm gdm
symmetry false
sym_ignore true
unrestricted true
gen_scfman true
internal_stability_iter 15
internal_stability_davidson_iter 200
mem_total 64000
mem_static 1500
n_frozen_core 0
$end


--------------------------------------------------------------
 ----------------------------------------------------------------
             Standard Nuclear Orientation (Angstroms)
    I     Atom           X                Y                Z
 ----------------------------------------------------------------
    1      P       0.0000000000     0.0000000000    -0.3836153961
    2      H      -1.2521120981     0.0000000000    -1.0264054293
    3      H       0.6260878053    -1.0843997178    -1.0264202208
    4      H       0.6260878053     1.0843997178    -1.0264202208
    5      O       0.0000000000     0.0000000008     1.1041846038
 ----------------------------------------------------------------
 Nuclear Repulsion Energy =          65.47102974 hartrees
 There are       13 alpha and       13 beta electrons
 Requested basis set is aug-pc-4
 There are 136 shells and 550 basis functions

 Total QAlloc Memory Limit  64000 MB
 Mega-Array Size      1467 MB
 MEM_STATIC part      1500 MB

                       Distance Matrix (Angstroms)
             P (  1)   H (  2)   H (  3)   H (  4)
   H (  2)  1.407467
   H (  3)  1.407518  2.168769
   H (  4)  1.407518  2.168769  2.168799
   O (  5)  1.487800  2.471275  2.471313  2.471313

 A cutoff of  1.0D-14 yielded   9053 shell pairs
 There are    150269 function pairs (    272924 Cartesian)
 Smallest overlap matrix eigenvalue = 4.85E-07
 Linear dependence detected in AO basis
 Tighter screening thresholds may be required for diffuse basis sets
 Use S2THRESH > 14 and THRESH = 14 in case of SCF convergence issues
 Number of orthogonalized atomic orbitals = 547
 Maximum deviation from orthogonality = 3.333E-10

 Scale SEOQF with 1.000000e-01/1.000000e-01/1.000000e-01

 Standard Electronic Orientation quadrupole field applied
 Nucleus-field energy     =    -0.0000000014 hartrees
 Guess from superposition of atomic densities
 Warning:  Energy on first SCF cycle will be non-variational
 SAD guess density has 26.000000 electrons

 -----------------------------------------------------------------------
  General SCF calculation program by
  Eric Jon Sundstrom, Paul Horn, Yuezhi Mao, Dmitri Zuev, Alec White,
  David Stuck, Shaama M.S., Shane Yost, Joonho Lee, David Small,
  Daniel Levine, Susi Lehtola, Hugh Burton, Evgeny Epifanovsky,
  Bang C. Huynh
 -----------------------------------------------------------------------
 Exchange:     0.5223 Hartree-Fock + 1.0000 M08-HX
 Correlation:  1.0000 M08-HX
 Using Euler-Maclaurin-Lebedev (99,590) quadrature formula
Running Object-Oriented UKS (UHF)
performing a single roothaan step with Fock from read density so that orbitals are available to all algorithms
energy of the guess density (C=0) -418.604372464312
We will preform up to 15 macro iterations over saddle points until a stable solution is found
Energy prior to optimization (guess energy) = -418.282864048070
Begin Timing: Total SCF Calculation
Begin Timing: SCF Single Stationary Point Calculation
begin iterations for algorithm: GDM          
the SCF tolerance is set to 1.00e-08
    1    -418.2828640481      9.68e-02     00000  Descent step
    2    -418.3820228523      3.41e-02     00000  Normal BFGS step
    3    -418.3958900940      7.49e-03     00000  Normal BFGS step
    4    -418.3965240584      4.98e-03     00000  Normal BFGS step
    5    -418.3966382798      1.08e-03     00000  Normal BFGS step
    6    -418.3966472013      2.12e-04     00000  Normal BFGS step
    7    -418.3966479520      6.99e-05     00000  Normal BFGS step
    8    -418.3966480734      1.29e-05     00000  Normal BFGS step
    9    -418.3966480774      5.12e-06     00000  Normal BFGS step
   10    -418.3966480777      4.68e-07     00000  Normal BFGS step
   11    -418.3966480777      9.86e-08     00000  Normal BFGS step
   12    -418.3966480777      3.60e-08     00000  Normal BFGS step
   13    -418.3966480777      6.03e-08     00000  Normal BFGS step
   14    -418.3966480777      6.69e-09     00000 Convergence criterion met
Timing for Single Stationary Point: 6592.00s (wall), 52019.49s (cpu)
Begin Timing: Stability
===================================================
Beginning Test for Internal Stability
===================================================
generating davidson guess vectors based on koopmans excitations
 Warning: Hessian-vector products not implemented
 Finite difference Hessian-vector products will be used.
computing hessian-vector products by finite difference
    1      6.46e-01     00000 Davidson Iteration
computing hessian-vector products by finite difference
    2      1.81e-01     00000 Davidson Iteration
computing hessian-vector products by finite difference
    3      2.69e-01     00000 Davidson Iteration
computing hessian-vector products by finite difference
    4      3.58e-01     00000 Davidson Iteration
computing hessian-vector products by finite difference
    5      2.12e-01     00000 Davidson Iteration
computing hessian-vector products by finite difference
    6      1.57e-01     00000 Davidson Iteration
computing hessian-vector products by finite difference
    7      5.01e-02     00000 Davidson Iteration
computing hessian-vector products by finite difference
    8      2.51e-02     00000 Davidson Iteration
computing hessian-vector products by finite difference
    9      7.31e-03     00000 Davidson Iteration
computing hessian-vector products by finite difference
   10      5.84e-03     00000 Davidson Iteration
computing hessian-vector products by finite difference
   11      2.27e-03     00000 Davidson Iteration
computing hessian-vector products by finite difference
   12      1.41e-03     00000 Davidson Iteration
computing hessian-vector products by finite difference
   13      8.74e-04     00000 Davidson Iteration
computing hessian-vector products by finite difference
   14      4.00e-04     00000 Davidson Iteration
computing hessian-vector products by finite difference
   15      1.39e-04     00000 Davidson Iteration
computing hessian-vector products by finite difference
   16      8.41e-05     00000 Davidson Iteration
computing hessian-vector products by finite difference
   17      1.79e-04     00000 Davidson Iteration
computing hessian-vector products by finite difference
   18      7.78e-05     00000 Davidson Converged
converged_eigenvalues
   0.4257
   0.4671
Threshold for negative eigenvalues: -1.0e-05
solution was a local minimum (stable)
===================================================
End Test for Internal Stability
===================================================
Timing for Internal Stability: 39087.00s (wall), 308001.65s (cpu)
Our SCF solution is stable!
Timing for Total SCF: 45679.00s (wall), 360021.46s (cpu)
 Total energy in the final basis set =     -418.3966480777
<S^2> =         -0.000000000
    ==================================================
              The end of Object-Oriented SCFman       
    ==================================================

 --------------------------------------------------------------

                    Orbital Energies (a.u.)
 --------------------------------------------------------------

 Alpha MOs
 -- Occupied --
-78.0735 -19.5742  -6.8835  -5.0266  -5.0266  -5.0247  -1.0823  -0.7372
 -0.5196  -0.5196  -0.4692  -0.3664  -0.3664
 -- Virtual --
 -0.0379  -0.0188  -0.0048  -0.0048   0.0155   0.0155   0.0313   0.0336
  0.0353   0.0353   0.0452   0.0552   0.0552   0.0677   0.0678   0.0836
  0.0868   0.0868   0.0972   0.1012   0.1043   0.1043   0.1131   0.1241
  0.1241   0.1275   0.1418   0.1467   0.1467   0.1593   0.1593   0.1891
  0.1906   0.1906   0.1914   0.1935   0.1967   0.1967   0.2004   0.2004
  0.2056   0.2248   0.2248   0.2408   0.2460   0.2542   0.2542   0.2596
  0.2613   0.2613   0.2792   0.2827   0.2827   0.2911   0.2911   0.2916
  0.2986   0.2986   0.2988   0.3162   0.3199   0.3199   0.3360   0.3380
  0.3380   0.3511   0.3511   0.3840   0.3840   0.3869   0.4025   0.4025
  0.4086   0.4097   0.4207   0.4211   0.4211   0.4360   0.4405   0.4524
  0.4524   0.4558   0.4558   0.4624   0.4624   0.4645   0.4742   0.4820
  0.4820   0.4958   0.5024   0.5024   0.5112   0.5112   0.5139   0.5167
  0.5323   0.5323   0.5547   0.5623   0.5623   0.5681   0.5681   0.5751
  0.6018   0.6018   0.6028   0.6076   0.6076   0.6157   0.6175   0.6230
  0.6230   0.6421   0.6421   0.6459   0.6705   0.6705   0.6749   0.6794
  0.6794   0.6899   0.6918   0.7121   0.7121   0.7166   0.7292   0.7292
  0.7319   0.7345   0.7345   0.7618   0.7805   0.7859   0.7859   0.7869
  0.7880   0.7880   0.7967   0.8012   0.8012   0.8121   0.8134   0.8200
  0.8200   0.8299   0.8299   0.8410   0.8527   0.8527   0.8677   0.8718
  0.8821   0.8821   0.9003   0.9003   0.9067   0.9067   0.9207   0.9262
  0.9262   0.9317   0.9449   0.9533   0.9554   0.9554   0.9675   0.9675
  1.0075   1.0075   1.0212   1.0212   1.0401   1.0401   1.0647   1.0946
  1.1305   1.1379   1.1416   1.1416   1.1488   1.1488   1.1677   1.1862
  1.1862   1.2174   1.2174   1.2343   1.2343   1.2391   1.2531   1.2531
  1.2868   1.3187   1.3187   1.3331   1.4001   1.4001   1.4311   1.4513
  1.4822   1.4822   1.5015   1.5015   1.5058   1.5206   1.5206   1.5460
  1.5924   1.5940   1.5940   1.6246   1.6457   1.6551   1.6551   1.6773
  1.6929   1.6929   1.6944   1.7254   1.7254   1.7625   1.7625   1.7945
  1.8389   1.9155   1.9155   1.9902   2.0580   2.0580   2.0703   2.0703
  2.0817   2.1514   2.1730   2.2055   2.2055   2.2861   2.3291   2.3291
  2.4251   2.4251   2.5067   2.5931   2.5931   2.6066   2.6066   2.6860
  2.7213   2.7214   2.7214   2.7601   2.8692   2.8692   2.9455   2.9455
  3.0130   3.0136   3.0136   3.0352   3.0708   3.1498   3.1498   3.2228
  3.2375   3.3046   3.3080   3.3080   3.3928   3.3928   3.4580   3.4580
  3.4704   3.4967   3.4967   3.5289   3.5527   3.5527   3.5789   3.6266
  3.6291   3.6292   3.6431   3.6896   3.7388   3.7389   3.8061   3.8061
  3.8369   3.8369   3.8374   3.9089   3.9648   3.9648   4.0279   4.1415
  4.1415   4.1465   4.1466   4.2260   4.3276   4.3614   4.3614   4.3681
  4.4081   4.4082   4.5424   4.5925   4.5926   4.6641   4.6641   4.6872
  4.8798   4.8798   4.9861   5.0660   5.1466   5.1466   5.1914   5.2209
  5.2210   5.2258   5.3095   5.3096   5.3568   5.3568   5.4032   5.5280
  5.5879   5.5879   5.6635   5.7583   5.7583   5.8402   5.8403   5.8702
  5.9908   6.0599   6.1128   6.1128   6.1983   6.1983   6.2581   6.2582
  6.4476   6.4944   6.7083   6.7114   6.7115   7.0079   7.0079   7.0740
  7.2112   7.3022   7.3023   7.5486   7.5487   7.6482   7.6483   7.7097
  7.8944   7.9284   7.9284   8.0609   8.0643   8.0643   8.1799   8.2299
  8.2301   8.3106   8.3526   8.3527   8.5948   8.7090   8.7093   8.7151
  8.7521   8.7522   8.8292   8.8296   8.8493   8.8695   8.8703   9.1153
  9.1578   9.2088   9.2091   9.4525   9.4871   9.4872   9.5952   9.5955
  9.7676   9.7676   9.8213   9.9471   9.9471  10.3361  11.0041  11.0702
 11.1811  11.1814  11.2177  11.2177  11.3364  11.3860  11.3861  11.4327
 11.6251  11.6252  11.8904  11.9939  11.9940  12.0337  12.0337  12.0401
 12.0403  12.0414  12.1185  12.1243  12.1690  12.1692  12.1796  12.1977
 12.1980  12.2174  12.2899  12.3379  12.3382  12.3634  12.3749  12.3754
 12.4334  12.4556  12.4558  12.5502  12.5509  12.5895  12.5901  12.5985
 12.6492  12.6922  12.8459  13.0275  13.0279  13.0591  13.0591  13.5456
 13.7756  13.7757  14.6506  16.1549  16.2222  16.2224  16.2764  16.2765
 16.2987  16.3011  16.3016  16.3309  16.3325  16.3327  16.3387  16.3388
 16.3421  16.5808  16.6890  16.7031  16.7035  16.7491  16.7492  16.8474
 16.8478  16.8536  16.9392  16.9467  17.0040  17.0054  17.0926  17.1820
 17.1834  17.2961  17.5387  17.5388  17.6946  17.6954  18.1748  18.3226
 18.3228  18.7258  19.1944  19.1948  22.1431  22.1739  22.2157  22.2163
 22.2661  22.2678  22.2680  22.3788  22.3792  23.1126  23.1128  23.4667
 23.4667  24.2057  30.1875  30.5574  32.3362  32.3362  33.6146  37.0109
 37.0110  37.0676  59.6109  59.6109  60.2433  60.3413  60.3414  67.0518
 67.0519  67.2920  67.2920  67.8899  83.3902  83.3910  83.3943  86.5611
 86.5952  86.5959  86.6672  86.6820  86.6827 142.6557

 Beta MOs
 -- Occupied --
-78.0735 -19.5742  -6.8835  -5.0266  -5.0266  -5.0247  -1.0823  -0.7372
 -0.5196  -0.5196  -0.4692  -0.3664  -0.3664
 -- Virtual --
 -0.0379  -0.0188  -0.0048  -0.0048   0.0155   0.0155   0.0313   0.0336
  0.0353   0.0353   0.0452   0.0552   0.0552   0.0677   0.0678   0.0836
  0.0868   0.0868   0.0972   0.1012   0.1043   0.1043   0.1131   0.1241
  0.1241   0.1275   0.1418   0.1467   0.1467   0.1593   0.1593   0.1891
  0.1906   0.1906   0.1914   0.1935   0.1967   0.1967   0.2004   0.2004
  0.2056   0.2248   0.2248   0.2408   0.2460   0.2542   0.2542   0.2596
  0.2613   0.2613   0.2792   0.2827   0.2827   0.2911   0.2911   0.2916
  0.2986   0.2986   0.2988   0.3162   0.3199   0.3199   0.3360   0.3380
  0.3380   0.3511   0.3511   0.3840   0.3840   0.3869   0.4025   0.4025
  0.4086   0.4097   0.4207   0.4211   0.4211   0.4360   0.4405   0.4524
  0.4524   0.4558   0.4558   0.4624   0.4624   0.4645   0.4742   0.4820
  0.4820   0.4958   0.5024   0.5024   0.5112   0.5112   0.5139   0.5167
  0.5323   0.5323   0.5547   0.5623   0.5623   0.5681   0.5681   0.5751
  0.6018   0.6018   0.6028   0.6076   0.6076   0.6157   0.6175   0.6230
  0.6230   0.6421   0.6421   0.6459   0.6705   0.6705   0.6749   0.6794
  0.6794   0.6899   0.6918   0.7121   0.7121   0.7166   0.7292   0.7292
  0.7319   0.7345   0.7345   0.7618   0.7805   0.7859   0.7859   0.7869
  0.7880   0.7880   0.7967   0.8012   0.8012   0.8121   0.8134   0.8200
  0.8200   0.8299   0.8299   0.8410   0.8527   0.8527   0.8677   0.8718
  0.8821   0.8821   0.9003   0.9003   0.9067   0.9067   0.9207   0.9262
  0.9262   0.9317   0.9449   0.9533   0.9554   0.9554   0.9675   0.9675
  1.0075   1.0075   1.0212   1.0212   1.0401   1.0401   1.0647   1.0946
  1.1305   1.1379   1.1416   1.1416   1.1488   1.1488   1.1677   1.1862
  1.1862   1.2174   1.2174   1.2343   1.2343   1.2391   1.2531   1.2531
  1.2868   1.3187   1.3187   1.3331   1.4001   1.4001   1.4311   1.4513
  1.4822   1.4822   1.5015   1.5015   1.5058   1.5206   1.5206   1.5460
  1.5924   1.5940   1.5940   1.6246   1.6457   1.6551   1.6551   1.6773
  1.6929   1.6929   1.6944   1.7254   1.7254   1.7625   1.7625   1.7945
  1.8389   1.9155   1.9155   1.9902   2.0580   2.0580   2.0703   2.0703
  2.0817   2.1514   2.1730   2.2055   2.2055   2.2861   2.3291   2.3291
  2.4251   2.4251   2.5067   2.5931   2.5931   2.6066   2.6066   2.6860
  2.7213   2.7214   2.7214   2.7601   2.8692   2.8692   2.9455   2.9455
  3.0130   3.0136   3.0136   3.0352   3.0708   3.1498   3.1498   3.2228
  3.2375   3.3046   3.3080   3.3080   3.3928   3.3928   3.4580   3.4580
  3.4704   3.4967   3.4967   3.5289   3.5527   3.5527   3.5789   3.6266
  3.6291   3.6292   3.6431   3.6896   3.7388   3.7389   3.8061   3.8061
  3.8369   3.8369   3.8374   3.9089   3.9648   3.9648   4.0279   4.1415
  4.1415   4.1465   4.1466   4.2260   4.3276   4.3614   4.3614   4.3681
  4.4081   4.4082   4.5424   4.5925   4.5926   4.6641   4.6641   4.6872
  4.8798   4.8798   4.9861   5.0660   5.1466   5.1466   5.1914   5.2209
  5.2210   5.2258   5.3095   5.3096   5.3568   5.3568   5.4032   5.5280
  5.5879   5.5879   5.6635   5.7583   5.7583   5.8402   5.8403   5.8702
  5.9908   6.0599   6.1128   6.1128   6.1983   6.1983   6.2581   6.2582
  6.4476   6.4944   6.7083   6.7114   6.7115   7.0079   7.0079   7.0740
  7.2112   7.3022   7.3023   7.5486   7.5487   7.6482   7.6483   7.7097
  7.8944   7.9284   7.9284   8.0609   8.0643   8.0643   8.1799   8.2299
  8.2301   8.3106   8.3526   8.3527   8.5948   8.7090   8.7093   8.7151
  8.7521   8.7522   8.8292   8.8296   8.8493   8.8695   8.8703   9.1153
  9.1578   9.2088   9.2091   9.4525   9.4871   9.4872   9.5952   9.5955
  9.7676   9.7676   9.8213   9.9471   9.9471  10.3361  11.0041  11.0702
 11.1811  11.1814  11.2177  11.2177  11.3364  11.3860  11.3861  11.4327
 11.6251  11.6252  11.8904  11.9939  11.9940  12.0337  12.0337  12.0401
 12.0403  12.0414  12.1185  12.1243  12.1690  12.1692  12.1796  12.1977
 12.1980  12.2174  12.2899  12.3379  12.3382  12.3634  12.3749  12.3754
 12.4334  12.4556  12.4558  12.5502  12.5509  12.5895  12.5901  12.5985
 12.6492  12.6922  12.8459  13.0275  13.0279  13.0591  13.0591  13.5456
 13.7756  13.7757  14.6506  16.1549  16.2222  16.2224  16.2764  16.2765
 16.2987  16.3011  16.3016  16.3309  16.3325  16.3327  16.3387  16.3388
 16.3421  16.5808  16.6890  16.7031  16.7035  16.7491  16.7492  16.8474
 16.8478  16.8536  16.9392  16.9467  17.0040  17.0054  17.0926  17.1820
 17.1834  17.2961  17.5387  17.5388  17.6946  17.6954  18.1748  18.3226
 18.3228  18.7258  19.1944  19.1948  22.1431  22.1739  22.2157  22.2163
 22.2661  22.2678  22.2680  22.3788  22.3792  23.1126  23.1128  23.4667
 23.4667  24.2057  30.1875  30.5574  32.3362  32.3362  33.6146  37.0109
 37.0110  37.0676  59.6109  59.6109  60.2433  60.3413  60.3414  67.0518
 67.0519  67.2920  67.2920  67.8899  83.3902  83.3910  83.3943  86.5611
 86.5952  86.5959  86.6672  86.6820  86.6827 142.6557
 --------------------------------------------------------------

          Ground-State Mulliken Net Atomic Charges

     Atom                 Charge (a.u.)    Spin (a.u.)
  --------------------------------------------------------
      1 P                    -2.549803       0.000000
      2 H                     0.884162       0.000000
      3 H                     0.883862       0.000000
      4 H                     0.883862       0.000000
      5 O                    -0.102082       0.000000
  --------------------------------------------------------
  Sum of atomic charges =    -0.000000
  Sum of spin   charges =     0.000000

 -----------------------------------------------------------------
                    Cartesian Multipole Moments
 -----------------------------------------------------------------
    Charge (ESU x 10^10)
                 0.0000
    Dipole Moment (Debye)
         X      -0.0001      Y      -0.0000      Z      -3.8705
       Tot       3.8705
    Quadrupole Moments (Debye-Ang)
        XX     -19.0596     XY      -0.0000     YY     -19.0596
        XZ       0.0000     YZ      -0.0000     ZZ     -22.9712
    Octopole Moments (Debye-Ang^2)
       XXX      -0.2016    XXY      -0.0000    XYY       0.2011
       YYY      -0.0000    XXZ      -0.0648    XYZ       0.0000
       YYZ      -0.0648    XZZ      -0.0001    YZZ      -0.0000
       ZZZ      -2.7364
    Hexadecapole Moments (Debye-Ang^3)
      XXXX     -33.4398   XXXY      -0.0000   XXYY     -11.1467
      XYYY       0.0000   YYYY     -33.4411   XXXZ       0.4427
      XXYZ      -0.0000   XYYZ      -0.4423   YYYZ      -0.0000
      XXZZ     -21.8122   XYZZ      -0.0000   YYZZ     -21.8126
      XZZZ       0.0004   YZZZ      -0.0000   ZZZZ     -96.7556
 -----------------------------------------------------------------
Archival summary:
1\1\n0091.mhg0\SP\ProcedureUnspecified\BasisUnspecified\113\yhljason\SunAug2310:26:432020SunAug2310:26:432020\0\\#,ProcedureUnspecified,BasisUnspecified,\\0,1\P\H,1,1.40747\H,1,1.40752,2,100.786\H,1,1.40752,2,100.786,3,-103.31,0\O,1,1.4878,2,117.174,3,128.345,0\\\@

 Total job time:  46566.64s(wall), 367013.56s(cpu) 
 Sun Aug 23 10:26:43 2020

        *************************************************************
        *                                                           *
        *  Thank you very much for using Q-Chem.  Have a nice day.  *
        *                                                           *
        *************************************************************


