                  Welcome to Q-Chem
     A Quantum Leap Into The Future Of Chemistry


 Q-Chem 5.3 (devel), Q-Chem, Inc., Pleasanton, CA (2020)

 Yihan Shao,  Zhengting Gan,  E. Epifanovsky,  A. T. B. Gilbert,  M. Wormit,  
 J. Kussmann,  A. W. Lange,  A. Behn,  Jia Deng,  Xintian Feng,  D. Ghosh,  
 M. Goldey,  P. R. Horn,  L. D. Jacobson,  I. Kaliman,  T. Kus,  A. Landau,  
 Jie Liu,  E. I. Proynov,  R. M. Richard,  R. P. Steele,  E. J. Sundstrom,  
 H. L. Woodcock III,  P. M. Zimmerman,  D. Zuev,  B. Alam,  B. Albrecht,  
 E. Alguire,  S. A. Baeppler,  D. Barton,  Z. Benda,  Y. A. Bernard,  
 E. J. Berquist,  K. B. Bravaya,  H. Burton,  K. Carter-Fenk,  D. Casanova,  
 Chun-Min Chang,  Yunqing Chen,  A. Chien,  K. D. Closser,  M. P. Coons,  
 S. Coriani,  S. Dasgupta,  A. L. Dempwolff,  M. Diedenhofen,  Hainam Do,  
 R. G. Edgar,  Po-Tung Fang,  S. Faraji,  S. Fatehi,  Qingguo Feng,  
 J. Fosso-Tande,  J. Gayvert,  Qinghui Ge,  A. Ghysels,  G. Gidofalvi,  
 J. Gomes,  J. Gonthier,  A. Gunina,  D. Hait,  M. W. D. Hanson-Heine,  
 P. H. P. Harbach,  A. W. Hauser,  M. F. Herbst,  J. E. Herr,  
 E. G. Hohenstein,  Z. C. Holden,  Kerwin Hui,  B. C. Huynh,  T.-C. Jagau,  
 Hyunjun Ji,  B. Kaduk,  K. Khistyaev,  Jaehoon Kim,  P. Klunzinger,  K. Koh,  
 D. Kosenkov,  L. Koulias,  T. Kowalczyk,  C. M. Krauter,  A. Kunitsa,  
 Ka Un Lao,  A. Laurent,  K. V. Lawler,  Joonho Lee,  D. Lefrancois,  
 S. Lehtola,  D. S. Levine,  Yi-Pei Li,  You-Sheng Lin,  Fenglai Liu,  
 Kuan-Yu Liu,  E. Livshits,  M. Loipersberger,  A. Luenser,  P. Manohar,  
 E. Mansoor,  S. F. Manzer,  Shan-Ping Mao,  Yuezhi Mao,  N. Mardirossian,  
 A. V. Marenich,  T. Markovich,  L. A. Martinez-Martinez,  S. A. Maurer,  
 N. J. Mayhall,  S. C. McKenzie,  J.-M. Mewes,  P. Morgante,  A. F. Morrison,  
 J. W. Mullinax,  K. Nanda,  T. S. Nguyen-Beck,  R. Olivares-Amaya,  
 K. J. Oosterbaan,  J. A. Parkhill,  S. K. Paul,  F. Pavosevic,  Zheng Pei,  
 T. M. Perrine,  F. Plasser,  P. Pokhilko,  S. Prager,  A. Prociuk,  
 E. Ramos,  B. Rana,  D. R. Rehn,  F. Rob,  M. Scheurer,  M. Schneider,  
 N. Sergueev,  S. M. Sharada,  S. Sharma,  D. W. Small,  T. Stauch,  
 C. J. Stein,  T. Stein,  Yu-Chuan Su,  S. P. Veccham,  Zhen Tao,  
 A. J. W. Thom,  A. Tkatchenko,  T. Tsuchimochi,  N. M. Tubman,  L. Vogt,  
 M. L. Vidal,  O. Vydrov,  M. A. Watson,  J. Wenzel,  M. de Wergifosse,  
 T. A. Wesolowski,  A. White,  J. Witte,  A. Yamada,  Jun Yang,  K. Yao,  
 S. Yeganeh,  S. R. Yost,  Zhi-Qiang You,  A. Zech,  Igor Ying Zhang,  
 Xing Zhang,  Yan Zhao,  Ying Zhu,  B. R. Brooks,  G. K. L. Chan,  
 C. J. Cramer,  M. S. Gordon,  W. J. Hehre,  A. Klamt,  M. W. Schmidt,  
 C. D. Sherrill,  D. G. Truhlar,  A. Aspuru-Guzik,  R. Baer,  A. T. Bell,  
 N. A. Besley,  Jeng-Da Chai,  A. E. DePrince, III,  R. A. DiStasio Jr.,  
 A. Dreuw,  B. D. Dunietz,  T. R. Furlani,  Chao-Ping Hsu,  Yousung Jung,  
 Jing Kong,  D. S. Lambrecht,  WanZhen Liang,  C. Ochsenfeld,  
 V. A. Rassolov,  L. V. Slipchenko,  J. E. Subotnik,  T. Van Voorhis,  
 J. M. Herbert,  A. I. Krylov,  P. M. W. Gill,  M. Head-Gordon

 Contributors to earlier versions of Q-Chem not listed above: 
 R. D. Adamson,  B. Austin,  J. Baker,  G. J. O. Beran,  K. Brandhorst,  
 S. T. Brown,  E. F. C. Byrd,  A. K. Chakraborty,  C.-L. Cheng,  
 Siu Hung Chien,  D. M. Chipman,  D. L. Crittenden,  H. Dachsel,  
 R. J. Doerksen,  A. D. Dutoi,  L. Fusti-Molnar,  W. A. Goddard III,  
 A. Golubeva-Zadorozhnaya,  S. R. Gwaltney,  G. Hawkins,  A. Heyden,  
 S. Hirata,  G. Kedziora,  F. J. Keil,  C. Kelley,  Jihan Kim,  R. A. King,  
 R. Z. Khaliullin,  P. P. Korambath,  W. Kurlancheek,  A. M. Lee,  M. S. Lee,  
 S. V. Levchenko,  Ching Yeh Lin,  D. Liotard,  R. C. Lochan,  I. Lotan,  
 P. E. Maslen,  N. Nair,  D. P. O'Neill,  D. Neuhauser,  E. Neuscamman,  
 C. M. Oana,  R. Olson,  B. Peters,  R. Peverati,  P. A. Pieniazek,  
 Y. M. Rhee,  J. Ritchie,  M. A. Rohrdanz,  E. Rosta,  N. J. Russ,  
 H. F. Schaefer III,  N. E. Schultz,  N. Shenvi,  A. C. Simmonett,  A. Sodt,  
 D. Stuck,  K. S. Thanthiriwatte,  V. Vanovschi,  Tao Wang,  A. Warshel,  
 C. F. Williams,  Q. Wu,  X. Xu,  W. Zhang

 Please cite Q-Chem as follows:
 Y. Shao et al., Mol. Phys. 113, 184-215 (2015)
 DOI: 10.1080/00268976.2014.952696

 Q-Chem 5.3.0 for Intel X86 EM64T Linux

 Parts of Q-Chem use Armadillo 9.800.1 (Horizon Scraper).
 http://arma.sourceforge.net/

 Q-Chem begins on Sun Sep 13 23:30:10 2020  

n0052.mhg0
Host: 0

     Scratch files written to /local/scratch/users/yhljason/CN-_mBEEF_aug-pc-4.inp20200913233006//
Processing $rem in /clusterfs/mhg/diptarka/qchem_transmom//config/preferences:
Processing $rem in /global/home/users/yhljason/.qchemrc:

Checking the input file for inconsistencies... 	...done.

--------------------------------------------------------------
User input:
--------------------------------------------------------------
$molecule
-1 1
C1	0.0000	0.0000	0.0000
N2	0.0000	0.0000	1.1770
$end
$rem
jobtype sp
method mBEEF
xc_grid 000099000590
basis aug-pc-4
max_scf_cycles 200
thresh 14
scf_convergence 8
scf_algorithm gdm
symmetry false
sym_ignore true
unrestricted true
gen_scfman true
internal_stability_iter 15
internal_stability_davidson_iter 200
mem_total 64000
mem_static 1500
n_frozen_core 0
$end


--------------------------------------------------------------
 ----------------------------------------------------------------
             Standard Nuclear Orientation (Angstroms)
    I     Atom           X                Y                Z
 ----------------------------------------------------------------
    1      C       0.0000000000     0.0000000000     0.0000000000
    2      N       0.0000000000     0.0000000000     1.1770000000
 ----------------------------------------------------------------
 Nuclear Repulsion Energy =          18.88312902 hartrees
 There are        7 alpha and        7 beta electrons
 Requested basis set is aug-pc-4
 There are 66 shells and 290 basis functions

 Total QAlloc Memory Limit  64000 MB
 Mega-Array Size      1467 MB
 MEM_STATIC part      1500 MB

                       Distance Matrix (Angstroms)
             C (  1)
   N (  2)  1.177000

 A cutoff of  1.0D-14 yielded   2211 shell pairs
 There are     42987 function pairs (     83898 Cartesian)
 Smallest overlap matrix eigenvalue = 1.29E-06

 Scale SEOQF with 1.000000e-01/1.000000e-01/1.000000e-01

 Standard Electronic Orientation quadrupole field applied
 Nucleus-field energy     =    -0.0000000010 hartrees
 Guess from superposition of atomic densities
 Warning:  Energy on first SCF cycle will be non-variational
 SAD guess density has 13.000000 electrons

 -----------------------------------------------------------------------
  General SCF calculation program by
  Eric Jon Sundstrom, Paul Horn, Yuezhi Mao, Dmitri Zuev, Alec White,
  David Stuck, Shaama M.S., Shane Yost, Joonho Lee, David Small,
  Daniel Levine, Susi Lehtola, Hugh Burton, Evgeny Epifanovsky,
  Bang C. Huynh
 -----------------------------------------------------------------------
 Exchange:  mBEEF      Correlation:  PBEsol
 Using Euler-Maclaurin-Lebedev (99,590) quadrature formula
Running Object-Oriented UKS (UHF)
performing a single roothaan step with Fock from read density so that orbitals are available to all algorithms
energy of the guess density (C=0) -93.292353432289
We will preform up to 15 macro iterations over saddle points until a stable solution is found
Energy prior to optimization (guess energy) = -93.183608715657
Begin Timing: Total SCF Calculation
Begin Timing: SCF Single Stationary Point Calculation
begin iterations for algorithm: GDM          
the SCF tolerance is set to 1.00e-08
    1     -93.1836087157      1.79e-01     00000  Descent step
    2     -93.2542894013      1.50e-01     00000  Normal BFGS step
    3     -93.2856609546      1.04e-01     00000  Normal BFGS step
    4     -93.2792336560      8.59e-02     00000 Line search: overstep
    5     -93.2957364498      2.80e-02     00000  Normal BFGS step
    6     -93.2994579741      3.85e-03     00000  Normal BFGS step
    7     -93.2995509455      3.86e-04     00000  Normal BFGS step
    8     -93.2995528176      9.91e-05     00000  Normal BFGS step
    9     -93.2995529728      1.01e-05     00000  Normal BFGS step
   10     -93.2995529735      9.45e-07     00000  Normal BFGS step
   11     -93.2995529735      1.82e-07     00000  Normal BFGS step
   12     -93.2995529735      2.83e-07     00000  Normal BFGS step
   13     -93.2995529735      3.01e-07     00000  Normal BFGS step
   14     -93.2995529735      4.32e-08     00000  Normal BFGS step
   15     -93.2995529735      1.91e-08     00000  Normal BFGS step
   16     -93.2995529735      8.71e-09     00000 Convergence criterion met
Timing for Single Stationary Point: 667.00s (wall), 5193.05s (cpu)
Begin Timing: Stability
===================================================
Beginning Test for Internal Stability
===================================================
generating davidson guess vectors based on koopmans excitations
 Warning: Hessian-vector products not implemented
 Finite difference Hessian-vector products will be used.
computing hessian-vector products by finite difference
    1      3.48e-01     00000 Davidson Iteration
computing hessian-vector products by finite difference
    2      8.29e-02     00000 Davidson Iteration
computing hessian-vector products by finite difference
    3      2.38e-02     00000 Davidson Iteration
computing hessian-vector products by finite difference
    4      1.16e-02     00000 Davidson Iteration
computing hessian-vector products by finite difference
    5      1.33e-02     00000 Davidson Iteration
computing hessian-vector products by finite difference
    6      9.75e-03     00000 Davidson Iteration
computing hessian-vector products by finite difference
    7      1.60e-03     00000 Davidson Iteration
computing hessian-vector products by finite difference
    8      3.93e-04     00000 Davidson Iteration
computing hessian-vector products by finite difference
    9      1.39e-04     00000 Davidson Iteration
computing hessian-vector products by finite difference
   10      7.30e-05     00000 Davidson Iteration
computing hessian-vector products by finite difference
   11      2.69e-05     00000 Davidson Converged
converged_eigenvalues
   0.2615
   0.2495
Threshold for negative eigenvalues: -1.0e-05
solution was a local minimum (stable)
===================================================
End Test for Internal Stability
===================================================
Timing for Internal Stability: 2265.00s (wall), 17621.46s (cpu)
Our SCF solution is stable!
Timing for Total SCF: 2932.00s (wall), 22814.56s (cpu)
 Total energy in the final basis set =      -93.2995529735
<S^2> =         -0.000000000
    ==================================================
              The end of Object-Oriented SCFman       
    ==================================================

 --------------------------------------------------------------

                    Orbital Energies (a.u.)
 --------------------------------------------------------------

 Alpha MOs
 -- Occupied --
-13.8687  -9.7708  -0.5957  -0.1385  -0.0500  -0.0500  -0.0195
 -- Virtual --
  0.1102   0.1146   0.1146   0.1212   0.1561   0.1586   0.1586   0.2024
  0.2024   0.2063   0.2163   0.2188   0.2188   0.2493   0.2493   0.2549
  0.2757   0.2757   0.3039   0.3267   0.3267   0.3298   0.3298   0.3384
  0.3384   0.3581   0.3687   0.3687   0.3703   0.3703   0.3920   0.4098
  0.4098   0.4152   0.4765   0.4765   0.4786   0.4786   0.4825   0.4992
  0.4992   0.5135   0.5135   0.5428   0.5544   0.5544   0.5635   0.5635
  0.5949   0.6235   0.6235   0.6584   0.6584   0.6601   0.6845   0.6845
  0.6981   0.6981   0.7007   0.7007   0.7121   0.7121   0.7289   0.7289
  0.7519   0.7519   0.7652   0.7840   0.7862   0.7862   0.7986   0.8010
  0.8010   0.8070   0.8070   0.8577   0.8577   0.8943   0.8943   0.9136
  0.9832   0.9832   0.9949   1.0335   1.0335   1.0617   1.0617   1.0657
  1.0657   1.0667   1.0667   1.0922   1.1020   1.1020   1.1463   1.1463
  1.1541   1.1717   1.1717   1.1919   1.1919   1.2520   1.3533   1.3533
  1.4065   1.4846   1.4846   1.5915   1.6784   1.6784   1.7286   1.7623
  1.7623   1.8435   1.8886   1.8886   2.0276   2.0276   2.1200   2.1200
  2.2447   2.2447   2.3384   2.3733   2.3733   2.4090   2.5517   2.5517
  2.5964   2.5964   2.6529   2.6872   2.6872   2.9781   2.9781   3.0637
  3.0929   3.4270   3.4270   3.4590   3.4590   3.5347   3.5347   3.6227
  3.7844   4.1538   4.2956   4.2956   4.4889   4.4889   4.5013   4.5014
  4.6026   4.6026   4.7592   4.7592   4.9326   4.9326   5.0499   5.1079
  5.1079   5.1443   5.1443   5.2197   5.3156   5.3156   5.3587   5.3587
  5.3659   5.6856   5.6856   5.8244   5.8244   5.9141   5.9141   6.2207
  6.2911   6.2911   6.5594   6.7416   6.7416   6.9695   6.9695   7.0527
  7.2474   7.2474   7.4024   7.4024   7.5270   7.7374   7.7374   8.3809
  8.6698   8.9719   8.9719   9.7682   9.7682  10.3660  10.7598  10.7599
 10.8242  10.8242  10.9353  10.9353  11.0299  11.1945  11.1945  11.3613
 11.3614  11.5210  11.5420  11.5420  11.7686  11.7686  11.9090  11.9090
 12.0543  12.0543  12.1222  12.1222  12.1853  12.2880  12.2881  12.4140
 12.4140  12.4293  12.4293  12.6292  12.6292  12.7296  12.7296  12.8484
 12.8484  13.1933  13.1933  13.3726  13.3726  13.5497  13.9540  13.9540
 14.2670  14.4877  14.4877  15.1839  15.1840  15.4429  15.4429  15.5132
 15.9308  15.9309  16.2584  16.3688  16.3689  16.6667  16.6667  16.6843
 17.5096  17.5096  17.6021  17.6023  18.3768  18.4827  18.4827  19.3400
 19.7702  19.7702  22.2614  24.9099  26.6530  26.6530  28.5674  32.6806
 32.6806  33.7937  33.7937  35.2541  48.6453  48.6453  48.9734  48.9734
 49.9353  74.3989 104.5884

 Beta MOs
 -- Occupied --
-13.8687  -9.7708  -0.5957  -0.1385  -0.0500  -0.0500  -0.0195
 -- Virtual --
  0.1102   0.1146   0.1146   0.1212   0.1561   0.1586   0.1586   0.2024
  0.2024   0.2063   0.2163   0.2188   0.2188   0.2493   0.2493   0.2549
  0.2757   0.2757   0.3039   0.3267   0.3267   0.3298   0.3298   0.3384
  0.3384   0.3581   0.3687   0.3687   0.3703   0.3703   0.3920   0.4098
  0.4098   0.4152   0.4765   0.4765   0.4786   0.4786   0.4825   0.4992
  0.4992   0.5135   0.5135   0.5428   0.5544   0.5544   0.5635   0.5635
  0.5949   0.6235   0.6235   0.6584   0.6584   0.6601   0.6845   0.6845
  0.6981   0.6981   0.7007   0.7007   0.7121   0.7121   0.7289   0.7289
  0.7519   0.7519   0.7652   0.7840   0.7862   0.7862   0.7986   0.8010
  0.8010   0.8070   0.8070   0.8577   0.8577   0.8943   0.8943   0.9136
  0.9832   0.9832   0.9949   1.0335   1.0335   1.0617   1.0617   1.0657
  1.0657   1.0667   1.0667   1.0922   1.1020   1.1020   1.1463   1.1463
  1.1541   1.1717   1.1717   1.1919   1.1919   1.2520   1.3533   1.3533
  1.4065   1.4846   1.4846   1.5915   1.6784   1.6784   1.7286   1.7623
  1.7623   1.8435   1.8886   1.8886   2.0276   2.0276   2.1200   2.1200
  2.2447   2.2447   2.3384   2.3733   2.3733   2.4090   2.5517   2.5517
  2.5964   2.5964   2.6529   2.6872   2.6872   2.9781   2.9781   3.0637
  3.0929   3.4270   3.4270   3.4590   3.4590   3.5347   3.5347   3.6227
  3.7844   4.1538   4.2956   4.2956   4.4889   4.4889   4.5013   4.5014
  4.6026   4.6026   4.7592   4.7592   4.9326   4.9326   5.0499   5.1079
  5.1079   5.1443   5.1443   5.2197   5.3156   5.3156   5.3587   5.3587
  5.3659   5.6856   5.6856   5.8244   5.8244   5.9141   5.9141   6.2207
  6.2911   6.2911   6.5594   6.7416   6.7416   6.9695   6.9695   7.0527
  7.2474   7.2474   7.4024   7.4024   7.5270   7.7374   7.7374   8.3809
  8.6698   8.9719   8.9719   9.7682   9.7682  10.3660  10.7598  10.7599
 10.8242  10.8242  10.9353  10.9353  11.0299  11.1945  11.1945  11.3613
 11.3614  11.5210  11.5420  11.5420  11.7686  11.7686  11.9090  11.9090
 12.0543  12.0543  12.1222  12.1222  12.1853  12.2880  12.2881  12.4140
 12.4140  12.4293  12.4293  12.6292  12.6292  12.7296  12.7296  12.8484
 12.8484  13.1933  13.1933  13.3726  13.3726  13.5497  13.9540  13.9540
 14.2670  14.4877  14.4877  15.1839  15.1840  15.4429  15.4429  15.5132
 15.9308  15.9309  16.2584  16.3688  16.3689  16.6667  16.6667  16.6843
 17.5096  17.5096  17.6021  17.6023  18.3768  18.4827  18.4827  19.3400
 19.7702  19.7702  22.2614  24.9099  26.6530  26.6530  28.5674  32.6806
 32.6806  33.7937  33.7937  35.2541  48.6453  48.6453  48.9734  48.9734
 49.9353  74.3989 104.5884
 --------------------------------------------------------------

          Ground-State Mulliken Net Atomic Charges

     Atom                 Charge (a.u.)    Spin (a.u.)
  --------------------------------------------------------
      1 C                    -1.050200       0.000000
      2 N                     0.050200      -0.000000
  --------------------------------------------------------
  Sum of atomic charges =    -1.000000
  Sum of spin   charges =     0.000000

 -----------------------------------------------------------------
                    Cartesian Multipole Moments
 -----------------------------------------------------------------
    Charge (ESU x 10^10)
                -4.8032
    Dipole Moment (Debye)
         X       0.0000      Y       0.0000      Z      -2.4201
       Tot       2.4201
    Quadrupole Moments (Debye-Ang)
        XX     -14.9906     XY       0.0000     YY     -14.9906
        XZ       0.0000     YZ       0.0000     ZZ     -21.1110
    Octopole Moments (Debye-Ang^2)
       XXX       0.0000    XXY       0.0000    XYY       0.0000
       YYY       0.0000    XXZ      -7.8623    XYZ       0.0000
       YYZ      -7.8623    XZZ      -0.0000    YZZ       0.0000
       ZZZ     -30.8955
    Hexadecapole Moments (Debye-Ang^3)
      XXXX     -24.5088   XXXY       0.0000   XXYY      -8.1696
      XYYY       0.0000   YYYY     -24.5088   XXXZ       0.0000
      XXYZ       0.0000   XYYZ      -0.0000   YYYZ      -0.0000
      XXZZ     -19.2016   XYZZ       0.0000   YYZZ     -19.2016
      XZZZ      -0.0000   YZZZ       0.0000   ZZZZ    -101.9301
 -----------------------------------------------------------------
Archival summary:
1\1\n0052.mhg0\SP\ProcedureUnspecified\BasisUnspecified\11(1-,1)\yhljason\MonSep1400:20:282020MonSep1400:20:282020\0\\#,ProcedureUnspecified,BasisUnspecified,\\-1,1\C\N,1,1.177\\\@

 Total job time:  3017.93s(wall), 23474.90s(cpu) 
 Mon Sep 14 00:20:28 2020

        *************************************************************
        *                                                           *
        *  Thank you very much for using Q-Chem.  Have a nice day.  *
        *                                                           *
        *************************************************************


