                  Welcome to Q-Chem
     A Quantum Leap Into The Future Of Chemistry


 Q-Chem 5.3 (devel), Q-Chem, Inc., Pleasanton, CA (2020)

 Yihan Shao,  Zhengting Gan,  E. Epifanovsky,  A. T. B. Gilbert,  M. Wormit,  
 J. Kussmann,  A. W. Lange,  A. Behn,  Jia Deng,  Xintian Feng,  D. Ghosh,  
 M. Goldey,  P. R. Horn,  L. D. Jacobson,  I. Kaliman,  T. Kus,  A. Landau,  
 Jie Liu,  E. I. Proynov,  R. M. Richard,  R. P. Steele,  E. J. Sundstrom,  
 H. L. Woodcock III,  P. M. Zimmerman,  D. Zuev,  B. Alam,  B. Albrecht,  
 E. Alguire,  S. A. Baeppler,  D. Barton,  Z. Benda,  Y. A. Bernard,  
 E. J. Berquist,  K. B. Bravaya,  H. Burton,  K. Carter-Fenk,  D. Casanova,  
 Chun-Min Chang,  Yunqing Chen,  A. Chien,  K. D. Closser,  M. P. Coons,  
 S. Coriani,  S. Dasgupta,  A. L. Dempwolff,  M. Diedenhofen,  Hainam Do,  
 R. G. Edgar,  Po-Tung Fang,  S. Faraji,  S. Fatehi,  Qingguo Feng,  
 J. Fosso-Tande,  J. Gayvert,  Qinghui Ge,  A. Ghysels,  G. Gidofalvi,  
 J. Gomes,  J. Gonthier,  A. Gunina,  D. Hait,  M. W. D. Hanson-Heine,  
 P. H. P. Harbach,  A. W. Hauser,  M. F. Herbst,  J. E. Herr,  
 E. G. Hohenstein,  Z. C. Holden,  Kerwin Hui,  B. C. Huynh,  T.-C. Jagau,  
 Hyunjun Ji,  B. Kaduk,  K. Khistyaev,  Jaehoon Kim,  P. Klunzinger,  K. Koh,  
 D. Kosenkov,  L. Koulias,  T. Kowalczyk,  C. M. Krauter,  A. Kunitsa,  
 Ka Un Lao,  A. Laurent,  K. V. Lawler,  Joonho Lee,  D. Lefrancois,  
 S. Lehtola,  D. S. Levine,  Yi-Pei Li,  You-Sheng Lin,  Fenglai Liu,  
 Kuan-Yu Liu,  E. Livshits,  M. Loipersberger,  A. Luenser,  P. Manohar,  
 E. Mansoor,  S. F. Manzer,  Shan-Ping Mao,  Yuezhi Mao,  N. Mardirossian,  
 A. V. Marenich,  T. Markovich,  L. A. Martinez-Martinez,  S. A. Maurer,  
 N. J. Mayhall,  S. C. McKenzie,  J.-M. Mewes,  P. Morgante,  A. F. Morrison,  
 J. W. Mullinax,  K. Nanda,  T. S. Nguyen-Beck,  R. Olivares-Amaya,  
 K. J. Oosterbaan,  J. A. Parkhill,  S. K. Paul,  F. Pavosevic,  Zheng Pei,  
 T. M. Perrine,  F. Plasser,  P. Pokhilko,  S. Prager,  A. Prociuk,  
 E. Ramos,  B. Rana,  D. R. Rehn,  F. Rob,  M. Scheurer,  M. Schneider,  
 N. Sergueev,  S. M. Sharada,  S. Sharma,  D. W. Small,  T. Stauch,  
 C. J. Stein,  T. Stein,  Yu-Chuan Su,  S. P. Veccham,  Zhen Tao,  
 A. J. W. Thom,  A. Tkatchenko,  T. Tsuchimochi,  N. M. Tubman,  L. Vogt,  
 M. L. Vidal,  O. Vydrov,  M. A. Watson,  J. Wenzel,  M. de Wergifosse,  
 T. A. Wesolowski,  A. White,  J. Witte,  A. Yamada,  Jun Yang,  K. Yao,  
 S. Yeganeh,  S. R. Yost,  Zhi-Qiang You,  A. Zech,  Igor Ying Zhang,  
 Xing Zhang,  Yan Zhao,  Ying Zhu,  B. R. Brooks,  G. K. L. Chan,  
 C. J. Cramer,  M. S. Gordon,  W. J. Hehre,  A. Klamt,  M. W. Schmidt,  
 C. D. Sherrill,  D. G. Truhlar,  A. Aspuru-Guzik,  R. Baer,  A. T. Bell,  
 N. A. Besley,  Jeng-Da Chai,  A. E. DePrince, III,  R. A. DiStasio Jr.,  
 A. Dreuw,  B. D. Dunietz,  T. R. Furlani,  Chao-Ping Hsu,  Yousung Jung,  
 Jing Kong,  D. S. Lambrecht,  WanZhen Liang,  C. Ochsenfeld,  
 V. A. Rassolov,  L. V. Slipchenko,  J. E. Subotnik,  T. Van Voorhis,  
 J. M. Herbert,  A. I. Krylov,  P. M. W. Gill,  M. Head-Gordon

 Contributors to earlier versions of Q-Chem not listed above: 
 R. D. Adamson,  B. Austin,  J. Baker,  G. J. O. Beran,  K. Brandhorst,  
 S. T. Brown,  E. F. C. Byrd,  A. K. Chakraborty,  C.-L. Cheng,  
 Siu Hung Chien,  D. M. Chipman,  D. L. Crittenden,  H. Dachsel,  
 R. J. Doerksen,  A. D. Dutoi,  L. Fusti-Molnar,  W. A. Goddard III,  
 A. Golubeva-Zadorozhnaya,  S. R. Gwaltney,  G. Hawkins,  A. Heyden,  
 S. Hirata,  G. Kedziora,  F. J. Keil,  C. Kelley,  Jihan Kim,  R. A. King,  
 R. Z. Khaliullin,  P. P. Korambath,  W. Kurlancheek,  A. M. Lee,  M. S. Lee,  
 S. V. Levchenko,  Ching Yeh Lin,  D. Liotard,  R. C. Lochan,  I. Lotan,  
 P. E. Maslen,  N. Nair,  D. P. O'Neill,  D. Neuhauser,  E. Neuscamman,  
 C. M. Oana,  R. Olson,  B. Peters,  R. Peverati,  P. A. Pieniazek,  
 Y. M. Rhee,  J. Ritchie,  M. A. Rohrdanz,  E. Rosta,  N. J. Russ,  
 H. F. Schaefer III,  N. E. Schultz,  N. Shenvi,  A. C. Simmonett,  A. Sodt,  
 D. Stuck,  K. S. Thanthiriwatte,  V. Vanovschi,  Tao Wang,  A. Warshel,  
 C. F. Williams,  Q. Wu,  X. Xu,  W. Zhang

 Please cite Q-Chem as follows:
 Y. Shao et al., Mol. Phys. 113, 184-215 (2015)
 DOI: 10.1080/00268976.2014.952696

 Q-Chem 5.3.0 for Intel X86 EM64T Linux

 Parts of Q-Chem use Armadillo 9.800.1 (Horizon Scraper).
 http://arma.sourceforge.net/

 Q-Chem begins on Sun Sep 13 23:30:05 2020  

n0042.mhg0
Host: 0

     Scratch files written to /local/scratch/users/yhljason/CN-_B97-D3_aug-pc-4.inp20200913233002//
Processing $rem in /clusterfs/mhg/diptarka/qchem_transmom//config/preferences:
Processing $rem in /global/home/users/yhljason/.qchemrc:

Checking the input file for inconsistencies... 	...done.

--------------------------------------------------------------
User input:
--------------------------------------------------------------
$molecule
-1 1
C1	0.0000	0.0000	0.0000
N2	0.0000	0.0000	1.1770
$end
$rem
jobtype sp
method B97-D3
xc_grid 000099000590
basis aug-pc-4
max_scf_cycles 200
thresh 14
scf_convergence 8
scf_algorithm gdm
symmetry false
sym_ignore true
unrestricted true
gen_scfman true
internal_stability_iter 15
internal_stability_davidson_iter 200
mem_total 64000
mem_static 1500
n_frozen_core 0
$end


--------------------------------------------------------------
 Adding empirical dispersion correction 
 ----------------------------------------------------------------
 Doing -D3(0) with
 s6  =   1.00000
 s8  =   0.90900
 rs6 =   0.89200
 rs8 =   1.00000
 -D3 energy without 3body term =     -0.0000021200 hartrees
 ----------------------------------------------------------------
             Standard Nuclear Orientation (Angstroms)
    I     Atom           X                Y                Z
 ----------------------------------------------------------------
    1      C       0.0000000000     0.0000000000     0.0000000000
    2      N       0.0000000000     0.0000000000     1.1770000000
 ----------------------------------------------------------------
 Nuclear Repulsion Energy =          18.88312690 hartrees
 There are        7 alpha and        7 beta electrons
 Requested basis set is aug-pc-4
 There are 66 shells and 290 basis functions

 Total QAlloc Memory Limit  64000 MB
 Mega-Array Size      1467 MB
 MEM_STATIC part      1500 MB

                       Distance Matrix (Angstroms)
             C (  1)
   N (  2)  1.177000

 A cutoff of  1.0D-14 yielded   2211 shell pairs
 There are     42987 function pairs (     83898 Cartesian)
 Smallest overlap matrix eigenvalue = 1.29E-06

 Scale SEOQF with 1.000000e-01/1.000000e-01/1.000000e-01

 Standard Electronic Orientation quadrupole field applied
 Nucleus-field energy     =    -0.0000000010 hartrees
 Guess from superposition of atomic densities
 Warning:  Energy on first SCF cycle will be non-variational
 SAD guess density has 13.000000 electrons

 -----------------------------------------------------------------------
  General SCF calculation program by
  Eric Jon Sundstrom, Paul Horn, Yuezhi Mao, Dmitri Zuev, Alec White,
  David Stuck, Shaama M.S., Shane Yost, Joonho Lee, David Small,
  Daniel Levine, Susi Lehtola, Hugh Burton, Evgeny Epifanovsky,
  Bang C. Huynh
 -----------------------------------------------------------------------
 Exchange:  B97-D      Correlation:  B97-D
 Using Euler-Maclaurin-Lebedev (99,590) quadrature formula
 Dispersion:   Grimme D3
Running Object-Oriented UKS (UHF)
performing a single roothaan step with Fock from read density so that orbitals are available to all algorithms
energy of the guess density (C=0) -92.848689134580
We will preform up to 15 macro iterations over saddle points until a stable solution is found
Energy prior to optimization (guess energy) = -92.707569816711
Begin Timing: Total SCF Calculation
Begin Timing: SCF Single Stationary Point Calculation
begin iterations for algorithm: GDM          
the SCF tolerance is set to 1.00e-08
    1     -92.7075698167      2.13e-01     00000  Descent step
    2     -92.7820074225      2.08e-01     00000  Normal BFGS step
    3     -92.8143909583      9.72e-02     00000  Normal BFGS step
    4     -92.7997969575      1.18e-01     00000 Line search: overstep
    5     -92.8281720409      4.64e-02     00000  Normal BFGS step
    6     -92.8337978386      6.06e-03     00000  Normal BFGS step
    7     -92.8339717668      7.10e-04     00000  Normal BFGS step
    8     -92.8339759275      1.92e-04     00000  Normal BFGS step
    9     -92.8339764423      1.95e-05     00000  Normal BFGS step
   10     -92.8339764443      1.96e-06     00000  Normal BFGS step
   11     -92.8339764444      1.15e-07     00000  Normal BFGS step
   12     -92.8339764444      9.40e-08     00000  Normal BFGS step
   13     -92.8339764444      1.89e-07     00000  Normal BFGS step
   14     -92.8339764444      3.55e-08     00000  Normal BFGS step
   15     -92.8339764444      1.45e-08     00000  Normal BFGS step
   16     -92.8339764444      1.37e-09     00000 Convergence criterion met
Timing for Single Stationary Point: 620.00s (wall), 4825.71s (cpu)
Begin Timing: Stability
===================================================
Beginning Test for Internal Stability
===================================================
generating davidson guess vectors based on koopmans excitations
 Warning: Hessian-vector products not implemented
 Finite difference Hessian-vector products will be used.
computing hessian-vector products by finite difference
    1      3.50e-01     00000 Davidson Iteration
computing hessian-vector products by finite difference
    2      6.29e-02     00000 Davidson Iteration
computing hessian-vector products by finite difference
    3      1.73e-02     00000 Davidson Iteration
computing hessian-vector products by finite difference
    4      9.21e-03     00000 Davidson Iteration
computing hessian-vector products by finite difference
    5      8.17e-03     00000 Davidson Iteration
computing hessian-vector products by finite difference
    6      3.86e-03     00000 Davidson Iteration
computing hessian-vector products by finite difference
    7      1.38e-03     00000 Davidson Iteration
computing hessian-vector products by finite difference
    8      4.61e-04     00000 Davidson Iteration
computing hessian-vector products by finite difference
    9      1.55e-04     00000 Davidson Iteration
computing hessian-vector products by finite difference
   10      4.46e-05     00000 Davidson Iteration
computing hessian-vector products by finite difference
   11      1.28e-03     00000 Davidson Iteration
computing hessian-vector products by finite difference
   12      1.05e-04     00000 Davidson Iteration
computing hessian-vector products by finite difference
   13      3.91e-05     00000 Davidson Converged
converged_eigenvalues
   0.1466
   0.1672
Threshold for negative eigenvalues: -1.0e-05
solution was a local minimum (stable)
===================================================
End Test for Internal Stability
===================================================
Timing for Internal Stability: 2521.00s (wall), 19571.73s (cpu)
Our SCF solution is stable!
Timing for Total SCF: 3141.00s (wall), 24397.51s (cpu)
 Total energy in the final basis set =      -92.8339764444
<S^2> =         -0.000000000
    ==================================================
              The end of Object-Oriented SCFman       
    ==================================================

 --------------------------------------------------------------

                    Orbital Energies (a.u.)
 --------------------------------------------------------------

 Alpha MOs
 -- Occupied --
-13.7202  -9.6464  -0.5467  -0.1103  -0.0378  -0.0378  -0.0018
 -- Virtual --
  0.1117   0.1128   0.1128   0.1178   0.1526   0.1546   0.1546   0.2030
  0.2030   0.2060   0.2176   0.2176   0.2186   0.2477   0.2477   0.2592
  0.2792   0.2792   0.3029   0.3288   0.3288   0.3320   0.3320   0.3400
  0.3400   0.3609   0.3772   0.3772   0.3806   0.3806   0.4055   0.4153
  0.4153   0.4163   0.4853   0.4853   0.4882   0.4950   0.4950   0.5145
  0.5145   0.5274   0.5274   0.5525   0.5623   0.5623   0.5675   0.5675
  0.5848   0.6359   0.6359   0.6529   0.6529   0.6566   0.6739   0.6739
  0.7064   0.7064   0.7191   0.7191   0.7235   0.7235   0.7371   0.7371
  0.7591   0.7591   0.7595   0.7713   0.7918   0.7918   0.8173   0.8173
  0.8173   0.8224   0.8224   0.8735   0.8735   0.8897   0.9140   0.9140
  0.9666   0.9681   0.9681   1.0109   1.0109   1.0542   1.0542   1.0789
  1.0803   1.0803   1.0952   1.0952   1.1026   1.1026   1.1561   1.1561
  1.1617   1.1617   1.1704   1.1873   1.1873   1.2109   1.2947   1.2947
  1.3582   1.4492   1.4492   1.5326   1.6184   1.6280   1.6280   1.6728
  1.6728   1.7604   1.7959   1.7959   1.9418   1.9418   1.9807   1.9807
  2.1112   2.1112   2.2249   2.2739   2.2739   2.3111   2.3971   2.3971
  2.4042   2.4042   2.4784   2.4877   2.4877   2.7960   2.7960   2.8166
  2.9096   3.2595   3.2595   3.2694   3.2695   3.2965   3.2965   3.3862
  3.5638   3.9167   4.0641   4.0641   4.2493   4.2493   4.2600   4.2600
  4.3349   4.3349   4.4780   4.4780   4.6566   4.6566   4.7631   4.8157
  4.8157   4.9096   4.9096   4.9191   4.9897   4.9897   5.0940   5.0940
  5.1510   5.3027   5.3027   5.4655   5.4655   5.5517   5.5517   5.8732
  5.8732   5.8834   6.2196   6.4668   6.4668   6.5614   6.5614   6.6741
  6.8377   6.8377   7.0438   7.0438   7.1097   7.3138   7.3138   8.0018
  8.2473   8.5122   8.5122   9.3915   9.3915  10.0095  10.3359  10.3359
 10.4163  10.4163  10.5535  10.5995  10.5995  10.6697  10.6697  10.8204
 10.8204  11.0563  11.0563  11.0739  11.3093  11.3093  11.4302  11.4302
 11.6700  11.6700  11.6797  11.6797  11.7950  11.7950  11.7987  11.8231
 11.8231  11.9580  11.9580  12.0988  12.0988  12.1667  12.1667  12.3837
 12.3837  12.7205  12.7205  12.8785  12.8785  13.0690  13.2774  13.2774
 13.8207  13.9646  13.9646  14.5451  14.5451  14.8031  14.8031  14.9469
 15.3001  15.3001  15.6470  15.6470  15.7166  16.0451  16.0451  16.1936
 16.9702  16.9702  17.1737  17.1737  17.7755  17.9756  17.9756  18.9049
 19.3196  19.3196  21.8154  24.2844  26.2937  26.2937  28.1386  32.1597
 32.1597  33.1894  33.1894  34.6271  47.9594  47.9595  48.2445  48.2445
 49.1938  74.4777 104.6697

 Beta MOs
 -- Occupied --
-13.7202  -9.6464  -0.5467  -0.1103  -0.0378  -0.0378  -0.0018
 -- Virtual --
  0.1117   0.1128   0.1128   0.1178   0.1526   0.1546   0.1546   0.2030
  0.2030   0.2060   0.2176   0.2176   0.2186   0.2477   0.2477   0.2592
  0.2792   0.2792   0.3029   0.3288   0.3288   0.3320   0.3320   0.3400
  0.3400   0.3609   0.3772   0.3772   0.3806   0.3806   0.4055   0.4153
  0.4153   0.4163   0.4853   0.4853   0.4882   0.4950   0.4950   0.5145
  0.5145   0.5274   0.5274   0.5525   0.5623   0.5623   0.5675   0.5675
  0.5848   0.6359   0.6359   0.6529   0.6529   0.6566   0.6739   0.6739
  0.7064   0.7064   0.7191   0.7191   0.7235   0.7235   0.7371   0.7371
  0.7591   0.7591   0.7595   0.7713   0.7918   0.7918   0.8173   0.8173
  0.8173   0.8224   0.8224   0.8735   0.8735   0.8897   0.9140   0.9140
  0.9666   0.9681   0.9681   1.0109   1.0109   1.0542   1.0542   1.0789
  1.0803   1.0803   1.0952   1.0952   1.1026   1.1026   1.1561   1.1561
  1.1617   1.1617   1.1704   1.1873   1.1873   1.2109   1.2947   1.2947
  1.3582   1.4492   1.4492   1.5326   1.6184   1.6280   1.6280   1.6728
  1.6728   1.7604   1.7959   1.7959   1.9418   1.9418   1.9807   1.9807
  2.1112   2.1112   2.2249   2.2739   2.2739   2.3111   2.3971   2.3971
  2.4042   2.4042   2.4784   2.4877   2.4877   2.7960   2.7960   2.8166
  2.9096   3.2595   3.2595   3.2694   3.2695   3.2965   3.2965   3.3862
  3.5638   3.9167   4.0641   4.0641   4.2493   4.2493   4.2600   4.2600
  4.3349   4.3349   4.4780   4.4780   4.6566   4.6566   4.7631   4.8157
  4.8157   4.9096   4.9096   4.9191   4.9897   4.9897   5.0940   5.0940
  5.1510   5.3027   5.3027   5.4655   5.4655   5.5517   5.5517   5.8732
  5.8732   5.8834   6.2196   6.4668   6.4668   6.5614   6.5614   6.6741
  6.8377   6.8377   7.0438   7.0438   7.1097   7.3138   7.3138   8.0018
  8.2473   8.5122   8.5122   9.3915   9.3915  10.0095  10.3359  10.3359
 10.4163  10.4163  10.5535  10.5995  10.5995  10.6697  10.6697  10.8204
 10.8204  11.0563  11.0563  11.0739  11.3093  11.3093  11.4302  11.4302
 11.6700  11.6700  11.6797  11.6797  11.7950  11.7950  11.7987  11.8231
 11.8231  11.9580  11.9580  12.0988  12.0988  12.1667  12.1667  12.3837
 12.3837  12.7205  12.7205  12.8785  12.8785  13.0690  13.2774  13.2774
 13.8207  13.9646  13.9646  14.5451  14.5451  14.8031  14.8031  14.9469
 15.3001  15.3001  15.6470  15.6470  15.7166  16.0451  16.0451  16.1936
 16.9702  16.9702  17.1737  17.1737  17.7755  17.9756  17.9756  18.9049
 19.3196  19.3196  21.8154  24.2844  26.2937  26.2937  28.1386  32.1597
 32.1597  33.1894  33.1894  34.6271  47.9594  47.9595  48.2445  48.2445
 49.1938  74.4777 104.6697
 --------------------------------------------------------------

          Ground-State Mulliken Net Atomic Charges

     Atom                 Charge (a.u.)    Spin (a.u.)
  --------------------------------------------------------
      1 C                    -0.842042       0.000000
      2 N                    -0.157958      -0.000000
  --------------------------------------------------------
  Sum of atomic charges =    -1.000000
  Sum of spin   charges =     0.000000

 -----------------------------------------------------------------
                    Cartesian Multipole Moments
 -----------------------------------------------------------------
    Charge (ESU x 10^10)
                -4.8032
    Dipole Moment (Debye)
         X      -0.0000      Y       0.0000      Z      -2.3543
       Tot       2.3543
    Quadrupole Moments (Debye-Ang)
        XX     -15.4025     XY       0.0000     YY     -15.4025
        XZ       0.0000     YZ       0.0000     ZZ     -21.4999
    Octopole Moments (Debye-Ang^2)
       XXX      -0.0000    XXY      -0.0000    XYY      -0.0000
       YYY      -0.0000    XXZ      -7.9196    XYZ       0.0000
       YYZ      -7.9196    XZZ      -0.0000    YZZ      -0.0000
       ZZZ     -31.1412
    Hexadecapole Moments (Debye-Ang^3)
      XXXX     -27.6324   XXXY       0.0000   XXYY      -9.2108
      XYYY       0.0000   YYYY     -27.6324   XXXZ      -0.0000
      XXYZ      -0.0000   XYYZ      -0.0000   YYYZ      -0.0000
      XXZZ     -20.6209   XYZZ       0.0000   YYZZ     -20.6209
      XZZZ      -0.0000   YZZZ      -0.0000   ZZZZ    -107.4125
 -----------------------------------------------------------------
Archival summary:
1\1\n0042.mhg0\SP\ProcedureUnspecified\BasisUnspecified\11(1-,1)\yhljason\MonSep1400:23:452020MonSep1400:23:452020\0\\#,ProcedureUnspecified,BasisUnspecified,\\-1,1\C\N,1,1.177\\\@

 Total job time:  3220.10s(wall), 25010.85s(cpu) 
 Mon Sep 14 00:23:45 2020

        *************************************************************
        *                                                           *
        *  Thank you very much for using Q-Chem.  Have a nice day.  *
        *                                                           *
        *************************************************************


