                  Welcome to Q-Chem
     A Quantum Leap Into The Future Of Chemistry


 Q-Chem 5.3 (devel), Q-Chem, Inc., Pleasanton, CA (2020)

 Yihan Shao,  Zhengting Gan,  E. Epifanovsky,  A. T. B. Gilbert,  M. Wormit,  
 J. Kussmann,  A. W. Lange,  A. Behn,  Jia Deng,  Xintian Feng,  D. Ghosh,  
 M. Goldey,  P. R. Horn,  L. D. Jacobson,  I. Kaliman,  T. Kus,  A. Landau,  
 Jie Liu,  E. I. Proynov,  R. M. Richard,  R. P. Steele,  E. J. Sundstrom,  
 H. L. Woodcock III,  P. M. Zimmerman,  D. Zuev,  B. Alam,  B. Albrecht,  
 E. Alguire,  S. A. Baeppler,  D. Barton,  Z. Benda,  Y. A. Bernard,  
 E. J. Berquist,  K. B. Bravaya,  H. Burton,  K. Carter-Fenk,  D. Casanova,  
 Chun-Min Chang,  Yunqing Chen,  A. Chien,  K. D. Closser,  M. P. Coons,  
 S. Coriani,  S. Dasgupta,  A. L. Dempwolff,  M. Diedenhofen,  Hainam Do,  
 R. G. Edgar,  Po-Tung Fang,  S. Faraji,  S. Fatehi,  Qingguo Feng,  
 J. Fosso-Tande,  J. Gayvert,  Qinghui Ge,  A. Ghysels,  G. Gidofalvi,  
 J. Gomes,  J. Gonthier,  A. Gunina,  D. Hait,  M. W. D. Hanson-Heine,  
 P. H. P. Harbach,  A. W. Hauser,  M. F. Herbst,  J. E. Herr,  
 E. G. Hohenstein,  Z. C. Holden,  Kerwin Hui,  B. C. Huynh,  T.-C. Jagau,  
 Hyunjun Ji,  B. Kaduk,  K. Khistyaev,  Jaehoon Kim,  P. Klunzinger,  K. Koh,  
 D. Kosenkov,  L. Koulias,  T. Kowalczyk,  C. M. Krauter,  A. Kunitsa,  
 Ka Un Lao,  A. Laurent,  K. V. Lawler,  Joonho Lee,  D. Lefrancois,  
 S. Lehtola,  D. S. Levine,  Yi-Pei Li,  You-Sheng Lin,  Fenglai Liu,  
 Kuan-Yu Liu,  E. Livshits,  M. Loipersberger,  A. Luenser,  P. Manohar,  
 E. Mansoor,  S. F. Manzer,  Shan-Ping Mao,  Yuezhi Mao,  N. Mardirossian,  
 A. V. Marenich,  T. Markovich,  L. A. Martinez-Martinez,  S. A. Maurer,  
 N. J. Mayhall,  S. C. McKenzie,  J.-M. Mewes,  P. Morgante,  A. F. Morrison,  
 J. W. Mullinax,  K. Nanda,  T. S. Nguyen-Beck,  R. Olivares-Amaya,  
 K. J. Oosterbaan,  J. A. Parkhill,  S. K. Paul,  F. Pavosevic,  Zheng Pei,  
 T. M. Perrine,  F. Plasser,  P. Pokhilko,  S. Prager,  A. Prociuk,  
 E. Ramos,  B. Rana,  D. R. Rehn,  F. Rob,  M. Scheurer,  M. Schneider,  
 N. Sergueev,  S. M. Sharada,  S. Sharma,  D. W. Small,  T. Stauch,  
 C. J. Stein,  T. Stein,  Yu-Chuan Su,  S. P. Veccham,  Zhen Tao,  
 A. J. W. Thom,  A. Tkatchenko,  T. Tsuchimochi,  N. M. Tubman,  L. Vogt,  
 M. L. Vidal,  O. Vydrov,  M. A. Watson,  J. Wenzel,  M. de Wergifosse,  
 T. A. Wesolowski,  A. White,  J. Witte,  A. Yamada,  Jun Yang,  K. Yao,  
 S. Yeganeh,  S. R. Yost,  Zhi-Qiang You,  A. Zech,  Igor Ying Zhang,  
 Xing Zhang,  Yan Zhao,  Ying Zhu,  B. R. Brooks,  G. K. L. Chan,  
 C. J. Cramer,  M. S. Gordon,  W. J. Hehre,  A. Klamt,  M. W. Schmidt,  
 C. D. Sherrill,  D. G. Truhlar,  A. Aspuru-Guzik,  R. Baer,  A. T. Bell,  
 N. A. Besley,  Jeng-Da Chai,  A. E. DePrince, III,  R. A. DiStasio Jr.,  
 A. Dreuw,  B. D. Dunietz,  T. R. Furlani,  Chao-Ping Hsu,  Yousung Jung,  
 Jing Kong,  D. S. Lambrecht,  WanZhen Liang,  C. Ochsenfeld,  
 V. A. Rassolov,  L. V. Slipchenko,  J. E. Subotnik,  T. Van Voorhis,  
 J. M. Herbert,  A. I. Krylov,  P. M. W. Gill,  M. Head-Gordon

 Contributors to earlier versions of Q-Chem not listed above: 
 R. D. Adamson,  B. Austin,  J. Baker,  G. J. O. Beran,  K. Brandhorst,  
 S. T. Brown,  E. F. C. Byrd,  A. K. Chakraborty,  C.-L. Cheng,  
 Siu Hung Chien,  D. M. Chipman,  D. L. Crittenden,  H. Dachsel,  
 R. J. Doerksen,  A. D. Dutoi,  L. Fusti-Molnar,  W. A. Goddard III,  
 A. Golubeva-Zadorozhnaya,  S. R. Gwaltney,  G. Hawkins,  A. Heyden,  
 S. Hirata,  G. Kedziora,  F. J. Keil,  C. Kelley,  Jihan Kim,  R. A. King,  
 R. Z. Khaliullin,  P. P. Korambath,  W. Kurlancheek,  A. M. Lee,  M. S. Lee,  
 S. V. Levchenko,  Ching Yeh Lin,  D. Liotard,  R. C. Lochan,  I. Lotan,  
 P. E. Maslen,  N. Nair,  D. P. O'Neill,  D. Neuhauser,  E. Neuscamman,  
 C. M. Oana,  R. Olson,  B. Peters,  R. Peverati,  P. A. Pieniazek,  
 Y. M. Rhee,  J. Ritchie,  M. A. Rohrdanz,  E. Rosta,  N. J. Russ,  
 H. F. Schaefer III,  N. E. Schultz,  N. Shenvi,  A. C. Simmonett,  A. Sodt,  
 D. Stuck,  K. S. Thanthiriwatte,  V. Vanovschi,  Tao Wang,  A. Warshel,  
 C. F. Williams,  Q. Wu,  X. Xu,  W. Zhang

 Please cite Q-Chem as follows:
 Y. Shao et al., Mol. Phys. 113, 184-215 (2015)
 DOI: 10.1080/00268976.2014.952696

 Q-Chem 5.3.0 for Intel X86 EM64T Linux

 Parts of Q-Chem use Armadillo 9.800.1 (Horizon Scraper).
 http://arma.sourceforge.net/

 Q-Chem begins on Sun Sep 13 23:30:05 2020  

n0045.mhg0
Host: 0

     Scratch files written to /local/scratch/users/yhljason/CN-_MGGA_MS2_aug-pc-4.inp20200913233004//
Processing $rem in /clusterfs/mhg/diptarka/qchem_transmom//config/preferences:
Processing $rem in /global/home/users/yhljason/.qchemrc:

Checking the input file for inconsistencies... 	...done.

--------------------------------------------------------------
User input:
--------------------------------------------------------------
$molecule
-1 1
C1	0.0000	0.0000	0.0000
N2	0.0000	0.0000	1.1770
$end
$rem
jobtype sp
method MGGA_MS2
xc_grid 000099000590
basis aug-pc-4
max_scf_cycles 200
thresh 14
scf_convergence 8
scf_algorithm gdm
symmetry false
sym_ignore true
unrestricted true
gen_scfman true
internal_stability_iter 15
internal_stability_davidson_iter 200
mem_total 64000
mem_static 1500
n_frozen_core 0
$end


--------------------------------------------------------------
 ----------------------------------------------------------------
             Standard Nuclear Orientation (Angstroms)
    I     Atom           X                Y                Z
 ----------------------------------------------------------------
    1      C       0.0000000000     0.0000000000     0.0000000000
    2      N       0.0000000000     0.0000000000     1.1770000000
 ----------------------------------------------------------------
 Nuclear Repulsion Energy =          18.88312902 hartrees
 There are        7 alpha and        7 beta electrons
 Requested basis set is aug-pc-4
 There are 66 shells and 290 basis functions

 Total QAlloc Memory Limit  64000 MB
 Mega-Array Size      1467 MB
 MEM_STATIC part      1500 MB

                       Distance Matrix (Angstroms)
             C (  1)
   N (  2)  1.177000

 A cutoff of  1.0D-14 yielded   2211 shell pairs
 There are     42987 function pairs (     83898 Cartesian)
 Smallest overlap matrix eigenvalue = 1.29E-06

 Scale SEOQF with 1.000000e-01/1.000000e-01/1.000000e-01

 Standard Electronic Orientation quadrupole field applied
 Nucleus-field energy     =    -0.0000000010 hartrees
 Guess from superposition of atomic densities
 Warning:  Energy on first SCF cycle will be non-variational
 SAD guess density has 13.000000 electrons

 -----------------------------------------------------------------------
  General SCF calculation program by
  Eric Jon Sundstrom, Paul Horn, Yuezhi Mao, Dmitri Zuev, Alec White,
  David Stuck, Shaama M.S., Shane Yost, Joonho Lee, David Small,
  Daniel Levine, Susi Lehtola, Hugh Burton, Evgeny Epifanovsky,
  Bang C. Huynh
 -----------------------------------------------------------------------
 Exchange:  MGGA_MS2      Correlation:  regTPSS
 Using Euler-Maclaurin-Lebedev (99,590) quadrature formula
Running Object-Oriented UKS (UHF)
performing a single roothaan step with Fock from read density so that orbitals are available to all algorithms
energy of the guess density (C=0) -92.925691139338
We will preform up to 15 macro iterations over saddle points until a stable solution is found
Energy prior to optimization (guess energy) = -92.804930279359
Begin Timing: Total SCF Calculation
Begin Timing: SCF Single Stationary Point Calculation
begin iterations for algorithm: GDM          
the SCF tolerance is set to 1.00e-08
    1     -92.8049302794      1.86e-01     00000  Descent step
    2     -92.8741721963      1.92e-01     00000  Normal BFGS step
    3     -92.9074442917      7.24e-02     00000  Normal BFGS step
    4     -92.8979556867      8.47e-02     00000 Line search: overstep
    5     -92.9180320597      3.86e-02     00000  Normal BFGS step
    6     -92.9222334745      4.30e-03     00000  Normal BFGS step
    7     -92.9223225480      4.27e-04     00000  Normal BFGS step
    8     -92.9223247048      1.24e-04     00000  Normal BFGS step
    9     -92.9223248820      1.15e-05     00000  Normal BFGS step
   10     -92.9223248827      9.56e-07     00000  Normal BFGS step
   11     -92.9223248827      1.46e-07     00000  Normal BFGS step
   12     -92.9223248827      2.17e-07     00000  Normal BFGS step
   13     -92.9223248827      2.89e-07     00000  Normal BFGS step
   14     -92.9223248827      4.02e-08     00000  Normal BFGS step
   15     -92.9223248827      1.74e-08     00000  Normal BFGS step
   16     -92.9223248827      2.09e-09     00000 Convergence criterion met
Timing for Single Stationary Point: 616.00s (wall), 4808.27s (cpu)
Begin Timing: Stability
===================================================
Beginning Test for Internal Stability
===================================================
generating davidson guess vectors based on koopmans excitations
 Warning: Hessian-vector products not implemented
 Finite difference Hessian-vector products will be used.
computing hessian-vector products by finite difference
    1      3.45e-01     00000 Davidson Iteration
computing hessian-vector products by finite difference
    2      1.24e-01     00000 Davidson Iteration
computing hessian-vector products by finite difference
    3      2.41e-02     00000 Davidson Iteration
computing hessian-vector products by finite difference
    4      1.06e-02     00000 Davidson Iteration
computing hessian-vector products by finite difference
    5      1.60e-03     00000 Davidson Iteration
computing hessian-vector products by finite difference
    6      5.62e-04     00000 Davidson Iteration
computing hessian-vector products by finite difference
    7      7.07e-05     00000 Davidson Iteration
computing hessian-vector products by finite difference
    8      8.29e-04     00000 Davidson Iteration
computing hessian-vector products by finite difference
    9      1.63e-04     00000 Davidson Iteration
computing hessian-vector products by finite difference
   10      3.70e-05     00000 Davidson Converged
converged_eigenvalues
   0.2449
   0.2358
Threshold for negative eigenvalues: -1.0e-05
solution was a local minimum (stable)
===================================================
End Test for Internal Stability
===================================================
Timing for Internal Stability: 1907.00s (wall), 14872.87s (cpu)
Our SCF solution is stable!
Timing for Total SCF: 2523.00s (wall), 19681.20s (cpu)
 Total energy in the final basis set =      -92.9223248827
<S^2> =          0.000000000
    ==================================================
              The end of Object-Oriented SCFman       
    ==================================================

 --------------------------------------------------------------

                    Orbital Energies (a.u.)
 --------------------------------------------------------------

 Alpha MOs
 -- Occupied --
-13.8350  -9.7349  -0.5828  -0.1277  -0.0363  -0.0363  -0.0126
 -- Virtual --
  0.1145   0.1147   0.1147   0.1209   0.1559   0.1580   0.1580   0.2097
  0.2097   0.2116   0.2231   0.2231   0.2270   0.2566   0.2566   0.2657
  0.2887   0.2887   0.3110   0.3348   0.3348   0.3390   0.3390   0.3479
  0.3479   0.3691   0.3857   0.3857   0.3909   0.3909   0.4154   0.4234
  0.4234   0.4339   0.4911   0.4911   0.5013   0.5037   0.5037   0.5237
  0.5237   0.5390   0.5390   0.5627   0.5719   0.5719   0.5811   0.5811
  0.6060   0.6431   0.6431   0.6706   0.6706   0.6731   0.6946   0.6946
  0.7262   0.7262   0.7350   0.7350   0.7386   0.7386   0.7488   0.7488
  0.7791   0.7791   0.7913   0.8025   0.8119   0.8119   0.8373   0.8373
  0.8391   0.8436   0.8436   0.8887   0.8887   0.9241   0.9241   0.9308
  0.9988   0.9988   1.0102   1.0518   1.0518   1.0822   1.0822   1.0904
  1.0904   1.1018   1.1018   1.1125   1.1253   1.1253   1.1768   1.1768
  1.1920   1.1985   1.1985   1.2088   1.2088   1.2639   1.3534   1.3534
  1.4078   1.4906   1.4906   1.5977   1.6850   1.6850   1.7079   1.7524
  1.7524   1.8418   1.8740   1.8740   2.0205   2.0205   2.0873   2.0873
  2.2158   2.2158   2.3278   2.3661   2.3661   2.3992   2.5223   2.5223
  2.5317   2.5317   2.6113   2.6272   2.6272   2.9371   2.9371   3.0045
  3.0567   3.4097   3.4097   3.4171   3.4172   3.4872   3.4872   3.5675
  3.7607   4.1268   4.2656   4.2656   4.4708   4.4708   4.4939   4.4939
  4.5692   4.5692   4.7562   4.7562   4.9230   4.9230   5.0342   5.0915
  5.0915   5.1245   5.1245   5.1761   5.3060   5.3060   5.3726   5.3754
  5.3754   5.6573   5.6573   5.8208   5.8208   5.8841   5.8841   6.2118
  6.2775   6.2775   6.5406   6.6658   6.6658   6.9667   6.9667   7.0097
  7.2301   7.2301   7.4209   7.4209   7.5250   7.7197   7.7197   8.3616
  8.6408   8.9596   8.9596   9.7134   9.7134  10.3485  10.7763  10.7763
 10.8480  10.8480  10.8774  10.8774  11.0251  11.2670  11.2670  11.3946
 11.3946  11.4727  11.4727  11.5821  11.8044  11.8044  11.8592  11.8592
 12.0217  12.0218  12.0503  12.0503  12.2424  12.2958  12.2958  12.3367
 12.3367  12.3820  12.3820  12.6546  12.6546  12.7681  12.7681  12.9127
 12.9127  13.2362  13.2362  13.4943  13.4943  13.5810  14.0322  14.0322
 14.3469  14.5914  14.5914  15.1138  15.1139  15.4666  15.4666  15.6117
 15.9837  15.9838  16.2599  16.4903  16.4903  16.6865  16.7069  16.7069
 17.4783  17.4784  17.5462  17.5462  18.3537  18.4735  18.4735  19.3451
 19.7639  19.7639  22.2524  24.8369  26.5438  26.5438  28.4929  32.4228
 32.4229  33.5518  33.5518  35.0328  48.3327  48.3328  48.6753  48.6753
 49.6464  74.4917 104.7114

 Beta MOs
 -- Occupied --
-13.8350  -9.7349  -0.5828  -0.1277  -0.0363  -0.0363  -0.0126
 -- Virtual --
  0.1145   0.1147   0.1147   0.1209   0.1559   0.1580   0.1580   0.2097
  0.2097   0.2116   0.2231   0.2231   0.2270   0.2566   0.2566   0.2657
  0.2887   0.2887   0.3110   0.3348   0.3348   0.3390   0.3390   0.3479
  0.3479   0.3691   0.3857   0.3857   0.3909   0.3909   0.4154   0.4234
  0.4234   0.4339   0.4911   0.4911   0.5013   0.5037   0.5037   0.5237
  0.5237   0.5390   0.5390   0.5627   0.5719   0.5719   0.5811   0.5811
  0.6060   0.6431   0.6431   0.6706   0.6706   0.6731   0.6946   0.6946
  0.7262   0.7262   0.7350   0.7350   0.7386   0.7386   0.7488   0.7488
  0.7791   0.7791   0.7913   0.8025   0.8119   0.8119   0.8373   0.8373
  0.8391   0.8436   0.8436   0.8887   0.8887   0.9241   0.9241   0.9308
  0.9988   0.9988   1.0102   1.0518   1.0518   1.0822   1.0822   1.0904
  1.0904   1.1018   1.1018   1.1125   1.1253   1.1253   1.1768   1.1768
  1.1920   1.1985   1.1985   1.2088   1.2088   1.2639   1.3534   1.3534
  1.4078   1.4906   1.4906   1.5977   1.6850   1.6850   1.7079   1.7524
  1.7524   1.8418   1.8740   1.8740   2.0205   2.0205   2.0873   2.0873
  2.2158   2.2158   2.3278   2.3661   2.3661   2.3992   2.5223   2.5223
  2.5317   2.5317   2.6113   2.6272   2.6272   2.9371   2.9371   3.0045
  3.0567   3.4097   3.4097   3.4171   3.4172   3.4872   3.4872   3.5675
  3.7607   4.1268   4.2656   4.2656   4.4708   4.4708   4.4939   4.4939
  4.5692   4.5692   4.7562   4.7562   4.9230   4.9230   5.0342   5.0915
  5.0915   5.1245   5.1245   5.1761   5.3060   5.3060   5.3726   5.3754
  5.3754   5.6573   5.6573   5.8208   5.8208   5.8841   5.8841   6.2118
  6.2775   6.2775   6.5406   6.6658   6.6658   6.9667   6.9667   7.0097
  7.2301   7.2301   7.4209   7.4209   7.5250   7.7197   7.7197   8.3616
  8.6408   8.9596   8.9596   9.7134   9.7134  10.3485  10.7763  10.7763
 10.8480  10.8480  10.8774  10.8774  11.0251  11.2670  11.2670  11.3946
 11.3946  11.4727  11.4727  11.5821  11.8044  11.8044  11.8592  11.8592
 12.0217  12.0218  12.0503  12.0503  12.2424  12.2958  12.2958  12.3367
 12.3367  12.3820  12.3820  12.6546  12.6546  12.7681  12.7681  12.9127
 12.9127  13.2362  13.2362  13.4943  13.4943  13.5810  14.0322  14.0322
 14.3469  14.5914  14.5914  15.1138  15.1139  15.4666  15.4666  15.6117
 15.9837  15.9838  16.2599  16.4903  16.4903  16.6865  16.7069  16.7069
 17.4783  17.4784  17.5462  17.5462  18.3537  18.4735  18.4735  19.3451
 19.7639  19.7639  22.2524  24.8369  26.5438  26.5438  28.4929  32.4228
 32.4229  33.5518  33.5518  35.0328  48.3327  48.3328  48.6753  48.6753
 49.6464  74.4917 104.7114
 --------------------------------------------------------------

          Ground-State Mulliken Net Atomic Charges

     Atom                 Charge (a.u.)    Spin (a.u.)
  --------------------------------------------------------
      1 C                    -0.532162       0.000000
      2 N                    -0.467838      -0.000000
  --------------------------------------------------------
  Sum of atomic charges =    -1.000000
  Sum of spin   charges =    -0.000000

 -----------------------------------------------------------------
                    Cartesian Multipole Moments
 -----------------------------------------------------------------
    Charge (ESU x 10^10)
                -4.8032
    Dipole Moment (Debye)
         X       0.0000      Y       0.0000      Z      -2.3705
       Tot       2.3705
    Quadrupole Moments (Debye-Ang)
        XX     -15.1340     XY       0.0000     YY     -15.1340
        XZ       0.0000     YZ       0.0000     ZZ     -21.1531
    Octopole Moments (Debye-Ang^2)
       XXX       0.0000    XXY       0.0000    XYY       0.0000
       YYY       0.0000    XXZ      -7.9311    XYZ       0.0000
       YYZ      -7.9311    XZZ      -0.0000    YZZ       0.0000
       ZZZ     -30.9752
    Hexadecapole Moments (Debye-Ang^3)
      XXXX     -25.6343   XXXY      -0.0000   XXYY      -8.5448
      XYYY      -0.0000   YYYY     -25.6343   XXXZ      -0.0000
      XXYZ       0.0000   XYYZ      -0.0000   YYYZ       0.0000
      XXZZ     -19.5507   XYZZ       0.0000   YYZZ     -19.5507
      XZZZ      -0.0000   YZZZ       0.0000   ZZZZ    -102.6354
 -----------------------------------------------------------------
Archival summary:
1\1\n0045.mhg0\SP\ProcedureUnspecified\BasisUnspecified\11(1-,1)\yhljason\MonSep1400:13:272020MonSep1400:13:272020\0\\#,ProcedureUnspecified,BasisUnspecified,\\-1,1\C\N,1,1.177\\\@

 Total job time:  2602.08s(wall), 20290.83s(cpu) 
 Mon Sep 14 00:13:27 2020

        *************************************************************
        *                                                           *
        *  Thank you very much for using Q-Chem.  Have a nice day.  *
        *                                                           *
        *************************************************************


