                  Welcome to Q-Chem
     A Quantum Leap Into The Future Of Chemistry


 Q-Chem 5.3 (devel), Q-Chem, Inc., Pleasanton, CA (2020)

 Yihan Shao,  Zhengting Gan,  E. Epifanovsky,  A. T. B. Gilbert,  M. Wormit,  
 J. Kussmann,  A. W. Lange,  A. Behn,  Jia Deng,  Xintian Feng,  D. Ghosh,  
 M. Goldey,  P. R. Horn,  L. D. Jacobson,  I. Kaliman,  T. Kus,  A. Landau,  
 Jie Liu,  E. I. Proynov,  R. M. Richard,  R. P. Steele,  E. J. Sundstrom,  
 H. L. Woodcock III,  P. M. Zimmerman,  D. Zuev,  B. Alam,  B. Albrecht,  
 E. Alguire,  S. A. Baeppler,  D. Barton,  Z. Benda,  Y. A. Bernard,  
 E. J. Berquist,  K. B. Bravaya,  H. Burton,  K. Carter-Fenk,  D. Casanova,  
 Chun-Min Chang,  Yunqing Chen,  A. Chien,  K. D. Closser,  M. P. Coons,  
 S. Coriani,  S. Dasgupta,  A. L. Dempwolff,  M. Diedenhofen,  Hainam Do,  
 R. G. Edgar,  Po-Tung Fang,  S. Faraji,  S. Fatehi,  Qingguo Feng,  
 J. Fosso-Tande,  J. Gayvert,  Qinghui Ge,  A. Ghysels,  G. Gidofalvi,  
 J. Gomes,  J. Gonthier,  A. Gunina,  D. Hait,  M. W. D. Hanson-Heine,  
 P. H. P. Harbach,  A. W. Hauser,  M. F. Herbst,  J. E. Herr,  
 E. G. Hohenstein,  Z. C. Holden,  Kerwin Hui,  B. C. Huynh,  T.-C. Jagau,  
 Hyunjun Ji,  B. Kaduk,  K. Khistyaev,  Jaehoon Kim,  P. Klunzinger,  K. Koh,  
 D. Kosenkov,  L. Koulias,  T. Kowalczyk,  C. M. Krauter,  A. Kunitsa,  
 Ka Un Lao,  A. Laurent,  K. V. Lawler,  Joonho Lee,  D. Lefrancois,  
 S. Lehtola,  D. S. Levine,  Yi-Pei Li,  You-Sheng Lin,  Fenglai Liu,  
 Kuan-Yu Liu,  E. Livshits,  M. Loipersberger,  A. Luenser,  P. Manohar,  
 E. Mansoor,  S. F. Manzer,  Shan-Ping Mao,  Yuezhi Mao,  N. Mardirossian,  
 A. V. Marenich,  T. Markovich,  L. A. Martinez-Martinez,  S. A. Maurer,  
 N. J. Mayhall,  S. C. McKenzie,  J.-M. Mewes,  P. Morgante,  A. F. Morrison,  
 J. W. Mullinax,  K. Nanda,  T. S. Nguyen-Beck,  R. Olivares-Amaya,  
 K. J. Oosterbaan,  J. A. Parkhill,  S. K. Paul,  F. Pavosevic,  Zheng Pei,  
 T. M. Perrine,  F. Plasser,  P. Pokhilko,  S. Prager,  A. Prociuk,  
 E. Ramos,  B. Rana,  D. R. Rehn,  F. Rob,  M. Scheurer,  M. Schneider,  
 N. Sergueev,  S. M. Sharada,  S. Sharma,  D. W. Small,  T. Stauch,  
 C. J. Stein,  T. Stein,  Yu-Chuan Su,  S. P. Veccham,  Zhen Tao,  
 A. J. W. Thom,  A. Tkatchenko,  T. Tsuchimochi,  N. M. Tubman,  L. Vogt,  
 M. L. Vidal,  O. Vydrov,  M. A. Watson,  J. Wenzel,  M. de Wergifosse,  
 T. A. Wesolowski,  A. White,  J. Witte,  A. Yamada,  Jun Yang,  K. Yao,  
 S. Yeganeh,  S. R. Yost,  Zhi-Qiang You,  A. Zech,  Igor Ying Zhang,  
 Xing Zhang,  Yan Zhao,  Ying Zhu,  B. R. Brooks,  G. K. L. Chan,  
 C. J. Cramer,  M. S. Gordon,  W. J. Hehre,  A. Klamt,  M. W. Schmidt,  
 C. D. Sherrill,  D. G. Truhlar,  A. Aspuru-Guzik,  R. Baer,  A. T. Bell,  
 N. A. Besley,  Jeng-Da Chai,  A. E. DePrince, III,  R. A. DiStasio Jr.,  
 A. Dreuw,  B. D. Dunietz,  T. R. Furlani,  Chao-Ping Hsu,  Yousung Jung,  
 Jing Kong,  D. S. Lambrecht,  WanZhen Liang,  C. Ochsenfeld,  
 V. A. Rassolov,  L. V. Slipchenko,  J. E. Subotnik,  T. Van Voorhis,  
 J. M. Herbert,  A. I. Krylov,  P. M. W. Gill,  M. Head-Gordon

 Contributors to earlier versions of Q-Chem not listed above: 
 R. D. Adamson,  B. Austin,  J. Baker,  G. J. O. Beran,  K. Brandhorst,  
 S. T. Brown,  E. F. C. Byrd,  A. K. Chakraborty,  C.-L. Cheng,  
 Siu Hung Chien,  D. M. Chipman,  D. L. Crittenden,  H. Dachsel,  
 R. J. Doerksen,  A. D. Dutoi,  L. Fusti-Molnar,  W. A. Goddard III,  
 A. Golubeva-Zadorozhnaya,  S. R. Gwaltney,  G. Hawkins,  A. Heyden,  
 S. Hirata,  G. Kedziora,  F. J. Keil,  C. Kelley,  Jihan Kim,  R. A. King,  
 R. Z. Khaliullin,  P. P. Korambath,  W. Kurlancheek,  A. M. Lee,  M. S. Lee,  
 S. V. Levchenko,  Ching Yeh Lin,  D. Liotard,  R. C. Lochan,  I. Lotan,  
 P. E. Maslen,  N. Nair,  D. P. O'Neill,  D. Neuhauser,  E. Neuscamman,  
 C. M. Oana,  R. Olson,  B. Peters,  R. Peverati,  P. A. Pieniazek,  
 Y. M. Rhee,  J. Ritchie,  M. A. Rohrdanz,  E. Rosta,  N. J. Russ,  
 H. F. Schaefer III,  N. E. Schultz,  N. Shenvi,  A. C. Simmonett,  A. Sodt,  
 D. Stuck,  K. S. Thanthiriwatte,  V. Vanovschi,  Tao Wang,  A. Warshel,  
 C. F. Williams,  Q. Wu,  X. Xu,  W. Zhang

 Please cite Q-Chem as follows:
 Y. Shao et al., Mol. Phys. 113, 184-215 (2015)
 DOI: 10.1080/00268976.2014.952696

 Q-Chem 5.3.0 for Intel X86 EM64T Linux

 Parts of Q-Chem use Armadillo 9.800.1 (Horizon Scraper).
 http://arma.sourceforge.net/

 Q-Chem begins on Sun Sep 13 23:30:24 2020  

n0078.mhg0
Host: 0

     Scratch files written to /local/scratch/users/yhljason/F-_B97M-V_aug-pc-4.inp20200913233023//
Processing $rem in /clusterfs/mhg/diptarka/qchem_transmom//config/preferences:
Processing $rem in /global/home/users/yhljason/.qchemrc:

Checking the input file for inconsistencies... 	...done.

--------------------------------------------------------------
User input:
--------------------------------------------------------------
$molecule
-1 1
F1 0 0 0
$end
$rem
jobtype sp
method B97M-V
xc_grid 000099000590
basis aug-pc-4
max_scf_cycles 200
thresh 14
scf_convergence 8
scf_algorithm gdm
symmetry false
sym_ignore true
unrestricted true
gen_scfman true
internal_stability_iter 15
internal_stability_davidson_iter 200
mem_total 64000
mem_static 1500
n_frozen_core 0
$end


--------------------------------------------------------------
 ----------------------------------------------------------------
             Standard Nuclear Orientation (Angstroms)
    I     Atom           X                Y                Z
 ----------------------------------------------------------------
    1      F       0.0000000000     0.0000000000     0.0000000000
 ----------------------------------------------------------------
 Nuclear Repulsion Energy =           0.00000000 hartrees
 There are        5 alpha and        5 beta electrons
 Requested basis set is aug-pc-4
 There are 33 shells and 145 basis functions

 Total QAlloc Memory Limit  64000 MB
 Mega-Array Size      1467 MB
 MEM_STATIC part      1500 MB
 A cutoff of  1.0D-14 yielded    561 shell pairs
 There are     10981 function pairs (     21547 Cartesian)
 Smallest overlap matrix eigenvalue = 1.08E-03

 Scale SEOQF with 1.000000e-01/1.000000e-01/1.000000e-01

 Standard Electronic Orientation quadrupole field applied
 Guess from superposition of atomic densities
 Warning:  Energy on first SCF cycle will be non-variational
 SAD guess density has 9.000000 electrons

 -----------------------------------------------------------------------
  General SCF calculation program by
  Eric Jon Sundstrom, Paul Horn, Yuezhi Mao, Dmitri Zuev, Alec White,
  David Stuck, Shaama M.S., Shane Yost, Joonho Lee, David Small,
  Daniel Levine, Susi Lehtola, Hugh Burton, Evgeny Epifanovsky,
  Bang C. Huynh
 -----------------------------------------------------------------------
 Exchange:  B97M-V      Correlation:  B97M-V
 Using Euler-Maclaurin-Lebedev (99,590) quadrature formula
 Nonlocal Correlation:  VV10 with C = 0.0100 and b = 6.00 and scale = 1.00000
 Grid used for NLC:  SG-1 standard quadrature
Running Object-Oriented UKS (UHF)
performing a single roothaan step with Fock from read density so that orbitals are available to all algorithms
 -------------------------------------------------------
 OpenMP BLAS3 based DFT computing Module                
 Release: version 1.0, May 2013, Q-Chem Inc. Pittsburgh 
 -------------------------------------------------------
 -------------------------------------------------------
 OpenMP BLAS3 based DFT computing Module                
 Release: version 1.0, May 2013, Q-Chem Inc. Pittsburgh 
 -------------------------------------------------------
 -------------------------------------------------------
 OpenMP BLAS3 based DFT computing Module                
 Release: version 1.0, May 2013, Q-Chem Inc. Pittsburgh 
 -------------------------------------------------------
energy of the guess density (C=0) -99.669185980454
 -------------------------------------------------------
 OpenMP BLAS3 based DFT computing Module                
 Release: version 1.0, May 2013, Q-Chem Inc. Pittsburgh 
 -------------------------------------------------------
 -------------------------------------------------------
 OpenMP BLAS3 based DFT computing Module                
 Release: version 1.0, May 2013, Q-Chem Inc. Pittsburgh 
 -------------------------------------------------------
 -------------------------------------------------------
 OpenMP BLAS3 based DFT computing Module                
 Release: version 1.0, May 2013, Q-Chem Inc. Pittsburgh 
 -------------------------------------------------------
We will preform up to 15 macro iterations over saddle points until a stable solution is found
Energy prior to optimization (guess energy) = -99.720637623779
Begin Timing: Total SCF Calculation
Begin Timing: SCF Single Stationary Point Calculation
begin iterations for algorithm: GDM          
the SCF tolerance is set to 1.00e-08
    1     -99.7206376238      3.33e-01     00000  Descent step
    2     -99.7967339288      1.74e-01     00000  Descent step
    3     -99.8208329891      1.17e-01     00000  Normal BFGS step
    4     -99.8448637028      7.77e-02     00000  Normal BFGS step
    5     -99.8565701647      3.27e-02     00000  Normal BFGS step
    6     -99.8583821784      1.01e-02     00000  Normal BFGS step
    7     -99.8585615205      1.16e-03     00000  Normal BFGS step
    8     -99.8585649174      7.02e-05     00000  Normal BFGS step
    9     -99.8585649588      2.26e-05     00000  Normal BFGS step
   10     -99.8585649612      8.37e-07     00000  Normal BFGS step
   11     -99.8585649613      8.54e-08     00000  Normal BFGS step
   12     -99.8585649613      1.07e-09     00000 Convergence criterion met
Timing for Single Stationary Point: 79.00s (wall), 573.58s (cpu)
Begin Timing: Stability
===================================================
Beginning Test for Internal Stability
===================================================
generating davidson guess vectors based on koopmans excitations
computing hessian-vector products by finite difference
    1      7.50e-01     00000 Davidson Iteration
computing hessian-vector products by finite difference
    2      8.30e-02     00000 Davidson Iteration
computing hessian-vector products by finite difference
    3      3.96e-02     00000 Davidson Iteration
computing hessian-vector products by finite difference
    4      6.63e-02     00000 Davidson Iteration
computing hessian-vector products by finite difference
    5      8.35e-03     00000 Davidson Iteration
computing hessian-vector products by finite difference
    6      1.69e-03     00000 Davidson Iteration
computing hessian-vector products by finite difference
    7      4.60e-04     00000 Davidson Iteration
computing hessian-vector products by finite difference
    8      6.94e-04     00000 Davidson Converged
converged_eigenvalues
   0.2557
   0.2304
Threshold for negative eigenvalues: -1.0e-05
solution was a local minimum (stable)
===================================================
End Test for Internal Stability
===================================================
Timing for Internal Stability: 266.00s (wall), 1910.08s (cpu)
Our SCF solution is stable!
Timing for Total SCF: 345.00s (wall), 2483.69s (cpu)
 Total energy in the final basis set =      -99.8585649613
<S^2> =          0.000000000
    ==================================================
              The end of Object-Oriented SCFman       
    ==================================================

 --------------------------------------------------------------

                    Orbital Energies (a.u.)
 --------------------------------------------------------------

 Alpha MOs
 -- Occupied --
-24.2781  -0.7130   0.0366   0.0366   0.0366
 -- Virtual --
  0.1808   0.1808   0.1808   0.2413   0.4381   0.4381   0.4381   0.4385
  0.4385   0.4385   0.4385   0.4385   0.7195   0.7195   0.7195   0.7195
  0.7195   0.7195   0.7195   0.7275   1.0479   1.0479   1.0479   1.0479
  1.0479   1.0479   1.0479   1.0479   1.0479   1.0765   1.0765   1.0765
  1.1167   1.1167   1.1167   1.1167   1.1167   1.4352   1.4352   1.4352
  1.4352   1.4352   1.4352   1.4352   1.4352   1.4352   1.4352   1.4352
  2.1136   2.5487   2.5487   2.5487   2.5487   2.5487   2.6305   2.6305
  2.6305   2.6731   2.6731   2.6731   2.6731   2.6731   2.6731   2.6731
  5.7384   5.7384   5.7384   5.7384   5.7384   5.8275   6.3321   6.3321
  6.3321   6.8125   6.8125   6.8125   6.8125   6.8125   6.8125   6.8125
  7.9764   7.9764   7.9764   7.9764   7.9764   7.9764   7.9764   7.9764
  7.9764  13.1125  13.1125  13.1125  13.1125  13.1125  13.9644  13.9644
 13.9644  13.9644  13.9644  13.9644  13.9644  13.9644  13.9644  13.9644
 13.9644  15.2101  15.2101  15.2101  15.7381  16.1375  16.1375  16.1375
 16.1375  16.1375  16.1375  16.1375  21.7026  21.7026  21.7026  21.7026
 21.7026  21.7026  21.7026  21.7026  21.7026  31.7166  31.7166  31.7166
 31.7166  31.7166  42.7780  42.7780  42.7780  43.3879  93.3826  93.3826
 93.3826  93.3829  93.3829 205.3450

 Beta MOs
 -- Occupied --
-24.2781  -0.7130   0.0366   0.0366   0.0366
 -- Virtual --
  0.1808   0.1808   0.1808   0.2413   0.4381   0.4381   0.4381   0.4385
  0.4385   0.4385   0.4385   0.4385   0.7195   0.7195   0.7195   0.7195
  0.7195   0.7195   0.7195   0.7275   1.0479   1.0479   1.0479   1.0479
  1.0479   1.0479   1.0479   1.0479   1.0479   1.0765   1.0765   1.0765
  1.1167   1.1167   1.1167   1.1167   1.1167   1.4352   1.4352   1.4352
  1.4352   1.4352   1.4352   1.4352   1.4352   1.4352   1.4352   1.4352
  2.1136   2.5487   2.5487   2.5487   2.5487   2.5487   2.6305   2.6305
  2.6305   2.6731   2.6731   2.6731   2.6731   2.6731   2.6731   2.6731
  5.7384   5.7384   5.7384   5.7384   5.7384   5.8275   6.3321   6.3321
  6.3321   6.8125   6.8125   6.8125   6.8125   6.8125   6.8125   6.8125
  7.9764   7.9764   7.9764   7.9764   7.9764   7.9764   7.9764   7.9764
  7.9764  13.1125  13.1125  13.1125  13.1125  13.1125  13.9644  13.9644
 13.9644  13.9644  13.9644  13.9644  13.9644  13.9644  13.9644  13.9644
 13.9644  15.2101  15.2101  15.2101  15.7381  16.1375  16.1375  16.1375
 16.1375  16.1375  16.1375  16.1375  21.7026  21.7026  21.7026  21.7026
 21.7026  21.7026  21.7026  21.7026  21.7026  31.7166  31.7166  31.7166
 31.7166  31.7166  42.7780  42.7780  42.7780  43.3879  93.3826  93.3826
 93.3826  93.3829  93.3829 205.3450
 --------------------------------------------------------------

          Ground-State Mulliken Net Atomic Charges

     Atom                 Charge (a.u.)    Spin (a.u.)
  --------------------------------------------------------
      1 F                    -1.000000      -0.000000
  --------------------------------------------------------
  Sum of atomic charges =    -1.000000
  Sum of spin   charges =    -0.000000

 -----------------------------------------------------------------
                    Cartesian Multipole Moments
 -----------------------------------------------------------------
    Charge (ESU x 10^10)
                -4.8032
    Dipole Moment (Debye)
         X      -0.0000      Y       0.0000      Z       0.0000
       Tot       0.0000
    Quadrupole Moments (Debye-Ang)
        XX      -8.2500     XY      -0.0000     YY      -8.2500
        XZ       0.0000     YZ       0.0000     ZZ      -8.2500
    Octopole Moments (Debye-Ang^2)
       XXX      -0.0000    XXY       0.0000    XYY      -0.0000
       YYY       0.0000    XXZ      -0.0000    XYZ       0.0000
       YYZ      -0.0000    XZZ       0.0000    YZZ       0.0000
       ZZZ      -0.0000
    Hexadecapole Moments (Debye-Ang^3)
      XXXX     -15.0866   XXXY      -0.0000   XXYY      -5.0289
      XYYY      -0.0000   YYYY     -15.0866   XXXZ       0.0000
      XXYZ       0.0000   XYYZ       0.0000   YYYZ       0.0000
      XXZZ      -5.0289   XYZZ      -0.0000   YYZZ      -5.0289
      XZZZ       0.0000   YZZZ       0.0000   ZZZZ     -15.0866
 -----------------------------------------------------------------

 STANDARD THERMODYNAMIC QUANTITIES AT   298.15 K  AND     1.00 ATM

   Translational Enthalpy:        0.889 kcal/mol
   Rotational Enthalpy:           0.000 kcal/mol
   Vibrational Enthalpy:          0.000 kcal/mol
   gas constant (RT):             0.592 kcal/mol
   Translational Entropy:        34.767  cal/mol.K
   Rotational Entropy:            0.000  cal/mol.K
   Vibrational Entropy:           0.000  cal/mol.K

   Total Enthalpy:                1.481 kcal/mol
   Total Entropy:                34.767  cal/mol.K

 -----------------------------------------------------------------

Archival summary:
1\1\n0078.mhg0\SP\ProcedureUnspecified\BasisUnspecified\1(1-,1)\yhljason\SunSep1323:36:242020SunSep1323:36:242020\0\\#,ProcedureUnspecified,BasisUnspecified,\\-1,1\F\\\@

 Total job time:  359.69s(wall), 2580.87s(cpu) 
 Sun Sep 13 23:36:24 2020

        *************************************************************
        *                                                           *
        *  Thank you very much for using Q-Chem.  Have a nice day.  *
        *                                                           *
        *************************************************************


