                  Welcome to Q-Chem
     A Quantum Leap Into The Future Of Chemistry


 Q-Chem 5.3 (devel), Q-Chem, Inc., Pleasanton, CA (2020)

 Yihan Shao,  Zhengting Gan,  E. Epifanovsky,  A. T. B. Gilbert,  M. Wormit,  
 J. Kussmann,  A. W. Lange,  A. Behn,  Jia Deng,  Xintian Feng,  D. Ghosh,  
 M. Goldey,  P. R. Horn,  L. D. Jacobson,  I. Kaliman,  T. Kus,  A. Landau,  
 Jie Liu,  E. I. Proynov,  R. M. Richard,  R. P. Steele,  E. J. Sundstrom,  
 H. L. Woodcock III,  P. M. Zimmerman,  D. Zuev,  B. Alam,  B. Albrecht,  
 E. Alguire,  S. A. Baeppler,  D. Barton,  Z. Benda,  Y. A. Bernard,  
 E. J. Berquist,  K. B. Bravaya,  H. Burton,  K. Carter-Fenk,  D. Casanova,  
 Chun-Min Chang,  Yunqing Chen,  A. Chien,  K. D. Closser,  M. P. Coons,  
 S. Coriani,  S. Dasgupta,  A. L. Dempwolff,  M. Diedenhofen,  Hainam Do,  
 R. G. Edgar,  Po-Tung Fang,  S. Faraji,  S. Fatehi,  Qingguo Feng,  
 J. Fosso-Tande,  J. Gayvert,  Qinghui Ge,  A. Ghysels,  G. Gidofalvi,  
 J. Gomes,  J. Gonthier,  A. Gunina,  D. Hait,  M. W. D. Hanson-Heine,  
 P. H. P. Harbach,  A. W. Hauser,  M. F. Herbst,  J. E. Herr,  
 E. G. Hohenstein,  Z. C. Holden,  Kerwin Hui,  B. C. Huynh,  T.-C. Jagau,  
 Hyunjun Ji,  B. Kaduk,  K. Khistyaev,  Jaehoon Kim,  P. Klunzinger,  K. Koh,  
 D. Kosenkov,  L. Koulias,  T. Kowalczyk,  C. M. Krauter,  A. Kunitsa,  
 Ka Un Lao,  A. Laurent,  K. V. Lawler,  Joonho Lee,  D. Lefrancois,  
 S. Lehtola,  D. S. Levine,  Yi-Pei Li,  You-Sheng Lin,  Fenglai Liu,  
 Kuan-Yu Liu,  E. Livshits,  M. Loipersberger,  A. Luenser,  P. Manohar,  
 E. Mansoor,  S. F. Manzer,  Shan-Ping Mao,  Yuezhi Mao,  N. Mardirossian,  
 A. V. Marenich,  T. Markovich,  L. A. Martinez-Martinez,  S. A. Maurer,  
 N. J. Mayhall,  S. C. McKenzie,  J.-M. Mewes,  P. Morgante,  A. F. Morrison,  
 J. W. Mullinax,  K. Nanda,  T. S. Nguyen-Beck,  R. Olivares-Amaya,  
 K. J. Oosterbaan,  J. A. Parkhill,  S. K. Paul,  F. Pavosevic,  Zheng Pei,  
 T. M. Perrine,  F. Plasser,  P. Pokhilko,  S. Prager,  A. Prociuk,  
 E. Ramos,  B. Rana,  D. R. Rehn,  F. Rob,  M. Scheurer,  M. Schneider,  
 N. Sergueev,  S. M. Sharada,  S. Sharma,  D. W. Small,  T. Stauch,  
 C. J. Stein,  T. Stein,  Yu-Chuan Su,  S. P. Veccham,  Zhen Tao,  
 A. J. W. Thom,  A. Tkatchenko,  T. Tsuchimochi,  N. M. Tubman,  L. Vogt,  
 M. L. Vidal,  O. Vydrov,  M. A. Watson,  J. Wenzel,  M. de Wergifosse,  
 T. A. Wesolowski,  A. White,  J. Witte,  A. Yamada,  Jun Yang,  K. Yao,  
 S. Yeganeh,  S. R. Yost,  Zhi-Qiang You,  A. Zech,  Igor Ying Zhang,  
 Xing Zhang,  Yan Zhao,  Ying Zhu,  B. R. Brooks,  G. K. L. Chan,  
 C. J. Cramer,  M. S. Gordon,  W. J. Hehre,  A. Klamt,  M. W. Schmidt,  
 C. D. Sherrill,  D. G. Truhlar,  A. Aspuru-Guzik,  R. Baer,  A. T. Bell,  
 N. A. Besley,  Jeng-Da Chai,  A. E. DePrince, III,  R. A. DiStasio Jr.,  
 A. Dreuw,  B. D. Dunietz,  T. R. Furlani,  Chao-Ping Hsu,  Yousung Jung,  
 Jing Kong,  D. S. Lambrecht,  WanZhen Liang,  C. Ochsenfeld,  
 V. A. Rassolov,  L. V. Slipchenko,  J. E. Subotnik,  T. Van Voorhis,  
 J. M. Herbert,  A. I. Krylov,  P. M. W. Gill,  M. Head-Gordon

 Contributors to earlier versions of Q-Chem not listed above: 
 R. D. Adamson,  B. Austin,  J. Baker,  G. J. O. Beran,  K. Brandhorst,  
 S. T. Brown,  E. F. C. Byrd,  A. K. Chakraborty,  C.-L. Cheng,  
 Siu Hung Chien,  D. M. Chipman,  D. L. Crittenden,  H. Dachsel,  
 R. J. Doerksen,  A. D. Dutoi,  L. Fusti-Molnar,  W. A. Goddard III,  
 A. Golubeva-Zadorozhnaya,  S. R. Gwaltney,  G. Hawkins,  A. Heyden,  
 S. Hirata,  G. Kedziora,  F. J. Keil,  C. Kelley,  Jihan Kim,  R. A. King,  
 R. Z. Khaliullin,  P. P. Korambath,  W. Kurlancheek,  A. M. Lee,  M. S. Lee,  
 S. V. Levchenko,  Ching Yeh Lin,  D. Liotard,  R. C. Lochan,  I. Lotan,  
 P. E. Maslen,  N. Nair,  D. P. O'Neill,  D. Neuhauser,  E. Neuscamman,  
 C. M. Oana,  R. Olson,  B. Peters,  R. Peverati,  P. A. Pieniazek,  
 Y. M. Rhee,  J. Ritchie,  M. A. Rohrdanz,  E. Rosta,  N. J. Russ,  
 H. F. Schaefer III,  N. E. Schultz,  N. Shenvi,  A. C. Simmonett,  A. Sodt,  
 D. Stuck,  K. S. Thanthiriwatte,  V. Vanovschi,  Tao Wang,  A. Warshel,  
 C. F. Williams,  Q. Wu,  X. Xu,  W. Zhang

 Please cite Q-Chem as follows:
 Y. Shao et al., Mol. Phys. 113, 184-215 (2015)
 DOI: 10.1080/00268976.2014.952696

 Q-Chem 5.3.0 for Intel X86 EM64T Linux

 Parts of Q-Chem use Armadillo 9.800.1 (Horizon Scraper).
 http://arma.sourceforge.net/

 Q-Chem begins on Sun Sep 13 23:31:04 2020  

n0093.mhg0
Host: 0

     Scratch files written to /local/scratch/users/yhljason/OH-_SOGGA11_aug-pc-4.inp20200913233041//
Processing $rem in /clusterfs/mhg/diptarka/qchem_transmom//config/preferences:
Processing $rem in /global/home/users/yhljason/.qchemrc:

Checking the input file for inconsistencies... 	...done.

--------------------------------------------------------------
User input:
--------------------------------------------------------------
$molecule
-1 1
O1	0.0000	0.0000	0.0000
H2	0.0000	0.0000	0.9640
$end
$rem
jobtype sp
method SOGGA11
xc_grid 000099000590
basis aug-pc-4
max_scf_cycles 200
thresh 14
scf_convergence 8
scf_algorithm gdm
symmetry false
sym_ignore true
unrestricted true
gen_scfman true
internal_stability_iter 15
internal_stability_davidson_iter 200
mem_total 64000
mem_static 1500
n_frozen_core 0
$end


--------------------------------------------------------------
 ----------------------------------------------------------------
             Standard Nuclear Orientation (Angstroms)
    I     Atom           X                Y                Z
 ----------------------------------------------------------------
    1      O       0.0000000000     0.0000000000     0.0000000000
    2      H       0.0000000000     0.0000000000     0.9640000000
 ----------------------------------------------------------------
 Nuclear Repulsion Energy =           4.39151212 hartrees
 There are        5 alpha and        5 beta electrons
 Requested basis set is aug-pc-4
 There are 57 shells and 233 basis functions

 Total QAlloc Memory Limit  64000 MB
 Mega-Array Size      1467 MB
 MEM_STATIC part      1500 MB

                       Distance Matrix (Angstroms)
             O (  1)
   H (  2)  0.964000

 A cutoff of  1.0D-14 yielded   1652 shell pairs
 There are     27850 function pairs (     51237 Cartesian)
 Smallest overlap matrix eigenvalue = 2.84E-06

 Scale SEOQF with 1.000000e-01/1.000000e-01/1.000000e-01

 Standard Electronic Orientation quadrupole field applied
 Guess from superposition of atomic densities
 Warning:  Energy on first SCF cycle will be non-variational
 SAD guess density has 9.000000 electrons

 -----------------------------------------------------------------------
  General SCF calculation program by
  Eric Jon Sundstrom, Paul Horn, Yuezhi Mao, Dmitri Zuev, Alec White,
  David Stuck, Shaama M.S., Shane Yost, Joonho Lee, David Small,
  Daniel Levine, Susi Lehtola, Hugh Burton, Evgeny Epifanovsky,
  Bang C. Huynh
 -----------------------------------------------------------------------
 Exchange:  SOGGA11      Correlation:  SOGGA11
 Using Euler-Maclaurin-Lebedev (99,590) quadrature formula
Running Object-Oriented UKS (UHF)
performing a single roothaan step with Fock from read density so that orbitals are available to all algorithms
energy of the guess density (C=0) -75.698312963218
We will preform up to 15 macro iterations over saddle points until a stable solution is found
Energy prior to optimization (guess energy) = -75.575180089282
Begin Timing: Total SCF Calculation
Begin Timing: SCF Single Stationary Point Calculation
begin iterations for algorithm: GDM          
the SCF tolerance is set to 1.00e-08
    1     -75.5751800893      4.75e-01     00000  Descent step
    2     -75.6872484586      2.63e-01     00000  Descent step
    3     -75.7707451716      1.84e-01     00000  Descent step
    4     -75.6303657023      2.78e-01     00000 Line search: overstep
    5     -75.8070583107      6.08e-02     00000  Dog-leg BFGS step
    6     -75.8317957855      6.93e-02     00000  Normal BFGS step
    7     -75.8368186773      1.50e-01     00000  Normal BFGS step
    8     -75.7785769952      1.42e-01     00000 Line search: overstep
    9     -75.8387763674      3.17e-02     00000  Normal BFGS step
   10     -75.8445955375      8.20e-02     00000  Normal BFGS step
   11     -75.8346169558      8.23e-02     00000 Line search: overstep
   12     -75.8474031268      2.69e-02     00000  Normal BFGS step
   13     -75.8433134547      8.11e-02     00000 Line search: overstep
   14     -75.8483100874      9.53e-03     00000  Normal BFGS step
   15     -75.8486600169      1.57e-02     00000  Normal BFGS step
   16     -75.8494397771      1.42e-02     00000  Normal BFGS step
   17     -75.8493088498      2.69e-02     00000 Line search: overstep
   18     -75.8496646751      4.96e-03     00000  Normal BFGS step
   19     -75.8494037503      1.78e-02     00000 Line search: overstep
   20     -75.8497950604      3.94e-03     00000  Normal BFGS step
   21     -75.8498626427      5.80e-03     00000  Normal BFGS step
   22     -75.8499656751      9.89e-03     00000  Normal BFGS step
   23     -75.8499170147      1.33e-02     00000 Line search: overstep
   24     -75.8500990887      7.74e-03     00000  Normal BFGS step
   25     -75.8501268083      1.68e-02     00000  Normal BFGS step
   26     -75.8501083296      1.34e-02     00000 Line search: overstep
   27     -75.8503001826      9.54e-03     00000  Normal BFGS step
   28     -75.8503233090      7.70e-03     00000  Normal BFGS step
   29     -75.8503318735      5.31e-03     00000  Normal BFGS step
   30     -75.8503288939      5.61e-03     00000 Line search: overstep
   31     -75.8503792181      3.59e-03     00000  Normal BFGS step
   32     -75.8503467108      9.50e-03     00000 Line search: overstep
   33     -75.8503910375      2.02e-03     00000  Normal BFGS step
   34     -75.8503913147      1.63e-03     00000  Normal BFGS step
   35     -75.8503951924      3.95e-04     00000  Normal BFGS step
   36     -75.8503925914      1.47e-03     00000 Line search: overstep
   37     -75.8503956172      2.09e-04     00000  Normal BFGS step
   38     -75.8503948438      6.94e-04     00000 Line search: overstep
   39     -75.8503957170      1.63e-04     00000  Normal BFGS step
   40     -75.8503957125      1.23e-04     00000  Normal BFGS step
   41     -75.8503957504      1.07e-04     00000  Normal BFGS step
   42     -75.8503957306      1.44e-04     00000  Normal BFGS step
   43     -75.8503957560      1.62e-04     00000  Normal BFGS step
   44     -75.8503955565      4.58e-04     00000 Line search: overstep
   45     -75.8503957716      6.20e-05     00000  Normal BFGS step
   46     -75.8503957505      1.18e-04     00000  Normal BFGS step
   47     -75.8503957775      4.14e-05     00000  Normal BFGS step
   48     -75.8503957624      8.32e-05     00000  Normal BFGS step
   49     -75.8503957811      2.25e-05     00000  Normal BFGS step
   50     -75.8503957786      4.32e-05     00000  Normal BFGS step
   51     -75.8503957798      5.20e-05     00000  Normal BFGS step
   52     -75.8503957698      7.83e-05     00000 Line search: overstep
   53     -75.8503957812      2.31e-05     00000  Normal BFGS step
   54     -75.8503957803      5.07e-05     00000  Normal BFGS step
   55     -75.8503957813      1.92e-05     00000  Normal BFGS step
   56     -75.8503957809      2.28e-05     00000  Normal BFGS step
   57     -75.8503957815      1.20e-05     00000  Normal BFGS step
   58     -75.8503957812      2.23e-05     00000  Normal BFGS step
   59     -75.8503957816      1.78e-05     00000  Normal BFGS step
   60     -75.8503957808      2.00e-05     00000  Normal BFGS step
   61     -75.8503957818      6.37e-06     00000  Normal BFGS step
   62     -75.8503957813      2.10e-05     00000  Normal BFGS step
   63     -75.8503957818      4.75e-06     00000  Normal BFGS step
   64     -75.8503957815      2.40e-05     00000  Normal BFGS step
   65     -75.8503957818      1.02e-05     00000  Normal BFGS step
   66     -75.8503957809      3.93e-05     00000  Normal BFGS step
   67     -75.8503957817      1.33e-05     00000  Normal BFGS step
   68     -75.8503957794      3.81e-05     00000  Normal BFGS step
   69     -75.8503957819      2.26e-06     00000  Normal BFGS step
   70     -75.8503957817      9.38e-06     00000  Normal BFGS step
   71     -75.8503957819      2.27e-06     00000  Normal BFGS step
   72     -75.8503957817      1.33e-05     00000  Normal BFGS step
   73     -75.8503957819      4.04e-06     00000  Normal BFGS step
   74     -75.8503957814      1.31e-05     00000  Normal BFGS step
   75     -75.8503957819      1.41e-06     00000  Normal BFGS step
   76     -75.8503957818      8.37e-06     00000  Normal BFGS step
   77     -75.8503957819      2.21e-06     00000  Normal BFGS step
   78     -75.8503957818      6.43e-06     00000  Normal BFGS step
   79     -75.8503957819      1.57e-06     00000  Normal BFGS step
   80     -75.8503957818      9.69e-06     00000  Normal BFGS step
   81     -75.8503957819      2.55e-06     00000  Normal BFGS step
   82     -75.8503957818      1.33e-05     00000  Normal BFGS step
   83     -75.8503957819      2.12e-06     00000  Normal BFGS step
   84     -75.8503957818      5.85e-06     00000  Normal BFGS step
   85     -75.8503957819      1.06e-06     00000  Normal BFGS step
   86     -75.8503957819      8.71e-06     00000  Normal BFGS step
   87     -75.8503957819      9.33e-07     00000  Normal BFGS step
   88     -75.8503957819      4.02e-06     00000  Normal BFGS step
   89     -75.8503957819      3.94e-07     00000  Normal BFGS step
   90     -75.8503957819      1.28e-06     00000  Normal BFGS step
   91     -75.8503957819      3.58e-07     00000  Normal BFGS step
   92     -75.8503957819      1.82e-06     00000  Normal BFGS step
   93     -75.8503957819      8.52e-07     00000  Normal BFGS step
   94     -75.8503957819      2.65e-06     00000  Normal BFGS step
   95     -75.8503957819      4.30e-07     00000  Normal BFGS step
   96     -75.8503957819      1.85e-06     00000  Normal BFGS step
   97     -75.8503957819      2.11e-07     00000  Normal BFGS step
   98     -75.8503957819      1.08e-06     00000  Normal BFGS step
   99     -75.8503957819      2.58e-07     00000  Normal BFGS step
  100     -75.8503957819      8.95e-07     00000  Normal BFGS step
  101     -75.8503957819      2.95e-07     00000  Normal BFGS step
  102     -75.8503957819      8.45e-07     00000  Normal BFGS step
  103     -75.8503957819      3.92e-07     00000  Normal BFGS step
  104     -75.8503957819      2.34e-06     00000  Normal BFGS step
  105     -75.8503957819      4.73e-07     00000  Normal BFGS step
  106     -75.8503957819      3.21e-06     00000  Normal BFGS step
  107     -75.8503957819      1.07e-06     00000  Normal BFGS step
  108     -75.8503957819      6.64e-06     00000  Normal BFGS step
  109     -75.8503957819      3.49e-07     00000  Normal BFGS step
  110     -75.8503957819      1.92e-06     00000  Normal BFGS step
  111     -75.8503957819      1.58e-07     00000  Normal BFGS step
  112     -75.8503957819      4.66e-07     00000  Normal BFGS step
  113     -75.8503957819      1.88e-07     00000  Normal BFGS step
  114     -75.8503957819      1.02e-06     00000  Normal BFGS step
  115     -75.8503957819      1.66e-07     00000  Normal BFGS step
  116     -75.8503957819      6.11e-07     00000  Normal BFGS step
  117     -75.8503957819      1.91e-07     00000  Normal BFGS step
  118     -75.8503957819      6.20e-07     00000  Normal BFGS step
  119     -75.8503957819      1.53e-07     00000  Normal BFGS step
  120     -75.8503957819      8.05e-07     00000  Normal BFGS step
  121     -75.8503957819      1.14e-07     00000  Normal BFGS step
  122     -75.8503957819      6.21e-07     00000  Normal BFGS step
  123     -75.8503957819      1.04e-07     00000  Normal BFGS step
  124     -75.8503957819      6.24e-07     00000  Normal BFGS step
  125     -75.8503957819      3.72e-07     00000  Normal BFGS step
  126     -75.8503957819      2.63e-06     00000  Normal BFGS step
  127     -75.8503957819      3.96e-07     00000  Normal BFGS step
  128     -75.8503957819      2.21e-06     00000  Normal BFGS step
  129     -75.8503957819      3.87e-07     00000  Normal BFGS step
  130     -75.8503957819      1.71e-06     00000  Normal BFGS step
  131     -75.8503957819      2.99e-07     00000  Normal BFGS step
  132     -75.8503957819      1.17e-06     00000  Normal BFGS step
  133     -75.8503957819      1.15e-07     00000  Normal BFGS step
  134     -75.8503957819      6.49e-07     00000  Normal BFGS step
  135     -75.8503957819      2.52e-07     00000  Normal BFGS step
  136     -75.8503957819      1.03e-06     00000  Normal BFGS step
  137     -75.8503957819      1.09e-07     00000  Normal BFGS step
  138     -75.8503957819      5.44e-07     00000  Normal BFGS step
  139     -75.8503957819      5.69e-08     00000  Normal BFGS step
  140     -75.8503957819      3.42e-07     00000  Normal BFGS step
  141     -75.8503957819      8.56e-08     00000  Normal BFGS step
  142     -75.8503957819      4.04e-07     00000  Normal BFGS step
  143     -75.8503957819      1.06e-07     00000  Normal BFGS step
  144     -75.8503957819      7.34e-07     00000  Normal BFGS step
  145     -75.8503957819      1.88e-07     00000  Normal BFGS step
  146     -75.8503957819      1.64e-06     00000  Normal BFGS step
  147     -75.8503957819      1.87e-07     00000  Normal BFGS step
  148     -75.8503957819      7.99e-07     00000  Normal BFGS step
  149     -75.8503957819      2.50e-07     00000  Normal BFGS step
  150     -75.8503957819      1.30e-06     00000  Normal BFGS step
  151     -75.8503957819      9.64e-08     00000  Normal BFGS step
  152     -75.8503957819      5.43e-07     00000  Normal BFGS step
  153     -75.8503957819      5.34e-08     00000  Normal BFGS step
  154     -75.8503957819      2.05e-07     00000  Normal BFGS step
  155     -75.8503957819      8.63e-08     00000  Normal BFGS step
  156     -75.8503957819      4.36e-07     00000  Normal BFGS step
  157     -75.8503957819      6.64e-08     00000  Normal BFGS step
  158     -75.8503957819      2.76e-07     00000  Normal BFGS step
  159     -75.8503957819      6.29e-08     00000  Normal BFGS step
  160     -75.8503957819      2.98e-07     00000  Normal BFGS step
  161     -75.8503957819      5.69e-08     00000  Normal BFGS step
  162     -75.8503957819      3.00e-07     00000  Normal BFGS step
  163     -75.8503957819      4.90e-08     00000  Normal BFGS step
  164     -75.8503957819      1.75e-07     00000  Normal BFGS step
  165     -75.8503957819      1.46e-07     00000  Normal BFGS step
  166     -75.8503957819      1.14e-06     00000  Normal BFGS step
  167     -75.8503957819      1.90e-07     00000  Normal BFGS step
  168     -75.8503957819      9.21e-07     00000  Normal BFGS step
  169     -75.8503957819      1.29e-07     00000  Normal BFGS step
  170     -75.8503957819      7.05e-07     00000  Normal BFGS step
  171     -75.8503957819      1.01e-07     00000  Normal BFGS step
  172     -75.8503957819      4.57e-07     00000  Normal BFGS step
  173     -75.8503957819      8.89e-08     00000  Normal BFGS step
  174     -75.8503957819      4.21e-07     00000  Normal BFGS step
  175     -75.8503957819      3.97e-08     00000  Normal BFGS step
  176     -75.8503957819      2.51e-07     00000  Normal BFGS step
  177     -75.8503957819      7.19e-08     00000  Normal BFGS step
  178     -75.8503957819      2.75e-07     00000  Normal BFGS step
  179     -75.8503957819      3.88e-08     00000  Normal BFGS step
  180     -75.8503957819      1.98e-07     00000  Normal BFGS step
  181     -75.8503957819      2.70e-08     00000  Normal BFGS step
  182     -75.8503957819      1.30e-07     00000  Normal BFGS step
  183     -75.8503957819      2.12e-08     00000  Normal BFGS step
  184     -75.8503957819      1.34e-07     00000  Normal BFGS step
  185     -75.8503957819      3.09e-08     00000  Normal BFGS step
  186     -75.8503957819      1.78e-07     00000  Normal BFGS step
  187     -75.8503957819      1.45e-07     00000  Normal BFGS step
  188     -75.8503957819      4.24e-07     00000  Normal BFGS step
  189     -75.8503957819      6.89e-08     00000  Normal BFGS step
  190     -75.8503957819      4.07e-07     00000  Normal BFGS step
  191     -75.8503957819      2.66e-08     00000  Normal BFGS step
  192     -75.8503957819      1.79e-07     00000  Normal BFGS step
  193     -75.8503957819      2.45e-08     00000  Normal BFGS step
  194     -75.8503957819      9.75e-08     00000  Normal BFGS step
  195     -75.8503957819      1.78e-08     00000  Normal BFGS step
  196     -75.8503957819      9.35e-08     00000  Normal BFGS step
  197     -75.8503957819      1.31e-08     00000  Normal BFGS step
  198     -75.8503957819      7.72e-08     00000  Normal BFGS step
  199     -75.8503957819      1.55e-08     00000  Normal BFGS step
  200     -75.8503957819      6.63e-08     00000  Normal BFGS step
max iterations reached for algorithm: GDM          
we have reached max iterations on our final algorithm

 Q-Chem fatal error occurred in module libgscf/gen_scfman/gen_scfman_hybrid_algorithm.C, line 277:

 SCF failed to converge


 Please submit a crash report at q-chem.com/reporter 
 
 
