                  Welcome to Q-Chem
     A Quantum Leap Into The Future Of Chemistry


 Q-Chem 5.3 (devel), Q-Chem, Inc., Pleasanton, CA (2020)

 Yihan Shao,  Zhengting Gan,  E. Epifanovsky,  A. T. B. Gilbert,  M. Wormit,  
 J. Kussmann,  A. W. Lange,  A. Behn,  Jia Deng,  Xintian Feng,  D. Ghosh,  
 M. Goldey,  P. R. Horn,  L. D. Jacobson,  I. Kaliman,  T. Kus,  A. Landau,  
 Jie Liu,  E. I. Proynov,  R. M. Richard,  R. P. Steele,  E. J. Sundstrom,  
 H. L. Woodcock III,  P. M. Zimmerman,  D. Zuev,  B. Alam,  B. Albrecht,  
 E. Alguire,  S. A. Baeppler,  D. Barton,  Z. Benda,  Y. A. Bernard,  
 E. J. Berquist,  K. B. Bravaya,  H. Burton,  K. Carter-Fenk,  D. Casanova,  
 Chun-Min Chang,  Yunqing Chen,  A. Chien,  K. D. Closser,  M. P. Coons,  
 S. Coriani,  S. Dasgupta,  A. L. Dempwolff,  M. Diedenhofen,  Hainam Do,  
 R. G. Edgar,  Po-Tung Fang,  S. Faraji,  S. Fatehi,  Qingguo Feng,  
 J. Fosso-Tande,  J. Gayvert,  Qinghui Ge,  A. Ghysels,  G. Gidofalvi,  
 J. Gomes,  J. Gonthier,  A. Gunina,  D. Hait,  M. W. D. Hanson-Heine,  
 P. H. P. Harbach,  A. W. Hauser,  M. F. Herbst,  J. E. Herr,  
 E. G. Hohenstein,  Z. C. Holden,  Kerwin Hui,  B. C. Huynh,  T.-C. Jagau,  
 Hyunjun Ji,  B. Kaduk,  K. Khistyaev,  Jaehoon Kim,  P. Klunzinger,  K. Koh,  
 D. Kosenkov,  L. Koulias,  T. Kowalczyk,  C. M. Krauter,  A. Kunitsa,  
 Ka Un Lao,  A. Laurent,  K. V. Lawler,  Joonho Lee,  D. Lefrancois,  
 S. Lehtola,  D. S. Levine,  Yi-Pei Li,  You-Sheng Lin,  Fenglai Liu,  
 Kuan-Yu Liu,  E. Livshits,  M. Loipersberger,  A. Luenser,  P. Manohar,  
 E. Mansoor,  S. F. Manzer,  Shan-Ping Mao,  Yuezhi Mao,  N. Mardirossian,  
 A. V. Marenich,  T. Markovich,  L. A. Martinez-Martinez,  S. A. Maurer,  
 N. J. Mayhall,  S. C. McKenzie,  J.-M. Mewes,  P. Morgante,  A. F. Morrison,  
 J. W. Mullinax,  K. Nanda,  T. S. Nguyen-Beck,  R. Olivares-Amaya,  
 K. J. Oosterbaan,  J. A. Parkhill,  S. K. Paul,  F. Pavosevic,  Zheng Pei,  
 T. M. Perrine,  F. Plasser,  P. Pokhilko,  S. Prager,  A. Prociuk,  
 E. Ramos,  B. Rana,  D. R. Rehn,  F. Rob,  M. Scheurer,  M. Schneider,  
 N. Sergueev,  S. M. Sharada,  S. Sharma,  D. W. Small,  T. Stauch,  
 C. J. Stein,  T. Stein,  Yu-Chuan Su,  S. P. Veccham,  Zhen Tao,  
 A. J. W. Thom,  A. Tkatchenko,  T. Tsuchimochi,  N. M. Tubman,  L. Vogt,  
 M. L. Vidal,  O. Vydrov,  M. A. Watson,  J. Wenzel,  M. de Wergifosse,  
 T. A. Wesolowski,  A. White,  J. Witte,  A. Yamada,  Jun Yang,  K. Yao,  
 S. Yeganeh,  S. R. Yost,  Zhi-Qiang You,  A. Zech,  Igor Ying Zhang,  
 Xing Zhang,  Yan Zhao,  Ying Zhu,  B. R. Brooks,  G. K. L. Chan,  
 C. J. Cramer,  M. S. Gordon,  W. J. Hehre,  A. Klamt,  M. W. Schmidt,  
 C. D. Sherrill,  D. G. Truhlar,  A. Aspuru-Guzik,  R. Baer,  A. T. Bell,  
 N. A. Besley,  Jeng-Da Chai,  A. E. DePrince, III,  R. A. DiStasio Jr.,  
 A. Dreuw,  B. D. Dunietz,  T. R. Furlani,  Chao-Ping Hsu,  Yousung Jung,  
 Jing Kong,  D. S. Lambrecht,  WanZhen Liang,  C. Ochsenfeld,  
 V. A. Rassolov,  L. V. Slipchenko,  J. E. Subotnik,  T. Van Voorhis,  
 J. M. Herbert,  A. I. Krylov,  P. M. W. Gill,  M. Head-Gordon

 Contributors to earlier versions of Q-Chem not listed above: 
 R. D. Adamson,  B. Austin,  J. Baker,  G. J. O. Beran,  K. Brandhorst,  
 S. T. Brown,  E. F. C. Byrd,  A. K. Chakraborty,  C.-L. Cheng,  
 Siu Hung Chien,  D. M. Chipman,  D. L. Crittenden,  H. Dachsel,  
 R. J. Doerksen,  A. D. Dutoi,  L. Fusti-Molnar,  W. A. Goddard III,  
 A. Golubeva-Zadorozhnaya,  S. R. Gwaltney,  G. Hawkins,  A. Heyden,  
 S. Hirata,  G. Kedziora,  F. J. Keil,  C. Kelley,  Jihan Kim,  R. A. King,  
 R. Z. Khaliullin,  P. P. Korambath,  W. Kurlancheek,  A. M. Lee,  M. S. Lee,  
 S. V. Levchenko,  Ching Yeh Lin,  D. Liotard,  R. C. Lochan,  I. Lotan,  
 P. E. Maslen,  N. Nair,  D. P. O'Neill,  D. Neuhauser,  E. Neuscamman,  
 C. M. Oana,  R. Olson,  B. Peters,  R. Peverati,  P. A. Pieniazek,  
 Y. M. Rhee,  J. Ritchie,  M. A. Rohrdanz,  E. Rosta,  N. J. Russ,  
 H. F. Schaefer III,  N. E. Schultz,  N. Shenvi,  A. C. Simmonett,  A. Sodt,  
 D. Stuck,  K. S. Thanthiriwatte,  V. Vanovschi,  Tao Wang,  A. Warshel,  
 C. F. Williams,  Q. Wu,  X. Xu,  W. Zhang

 Please cite Q-Chem as follows:
 Y. Shao et al., Mol. Phys. 113, 184-215 (2015)
 DOI: 10.1080/00268976.2014.952696

 Q-Chem 5.3.0 for Intel X86 EM64T Linux

 Parts of Q-Chem use Armadillo 9.800.1 (Horizon Scraper).
 http://arma.sourceforge.net/

 Q-Chem begins on Sun Sep 13 23:34:41 2020  

n0085.mhg0
Host: 0

     Scratch files written to /local/scratch/users/yhljason/SH-_B97M-V_aug-pc-4.inp20200913233043//
Processing $rem in /clusterfs/mhg/diptarka/qchem_transmom//config/preferences:
Processing $rem in /global/home/users/yhljason/.qchemrc:

Checking the input file for inconsistencies... 	...done.

--------------------------------------------------------------
User input:
--------------------------------------------------------------
$molecule
-1 1
S1	0.0000	0.0000	0.0000
H2	0.0000	0.0000	1.3432
$end
$rem
jobtype sp
method B97M-V
xc_grid 000099000590
basis aug-pc-4
max_scf_cycles 200
thresh 14
scf_convergence 8
scf_algorithm gdm
symmetry false
sym_ignore true
unrestricted true
gen_scfman true
internal_stability_iter 15
internal_stability_davidson_iter 200
mem_total 64000
mem_static 1500
n_frozen_core 0
$end


--------------------------------------------------------------
 ----------------------------------------------------------------
             Standard Nuclear Orientation (Angstroms)
    I     Atom           X                Y                Z
 ----------------------------------------------------------------
    1      S       0.0000000000     0.0000000000     0.0000000000
    2      H       0.0000000000     0.0000000000     1.3432000000
 ----------------------------------------------------------------
 Nuclear Repulsion Energy =           6.30348077 hartrees
 There are        9 alpha and        9 beta electrons
 Requested basis set is aug-pc-4
 There are 55 shells and 229 basis functions

 Total QAlloc Memory Limit  64000 MB
 Mega-Array Size      1467 MB
 MEM_STATIC part      1500 MB

                       Distance Matrix (Angstroms)
             S (  1)
   H (  2)  1.343200

 A cutoff of  1.0D-14 yielded   1537 shell pairs
 There are     26901 function pairs (     49956 Cartesian)
 Smallest overlap matrix eigenvalue = 7.20E-06

 Scale SEOQF with 1.000000e-01/1.000000e-01/1.000000e-01

 Standard Electronic Orientation quadrupole field applied
 Nucleus-field energy     =    -0.0000000002 hartrees
 Guess from superposition of atomic densities
 Warning:  Energy on first SCF cycle will be non-variational
 SAD guess density has 17.000000 electrons

 -----------------------------------------------------------------------
  General SCF calculation program by
  Eric Jon Sundstrom, Paul Horn, Yuezhi Mao, Dmitri Zuev, Alec White,
  David Stuck, Shaama M.S., Shane Yost, Joonho Lee, David Small,
  Daniel Levine, Susi Lehtola, Hugh Burton, Evgeny Epifanovsky,
  Bang C. Huynh
 -----------------------------------------------------------------------
 Exchange:  B97M-V      Correlation:  B97M-V
 Using Euler-Maclaurin-Lebedev (99,590) quadrature formula
 Nonlocal Correlation:  VV10 with C = 0.0100 and b = 6.00 and scale = 1.00000
 Grid used for NLC:  SG-1 standard quadrature
Running Object-Oriented UKS (UHF)
performing a single roothaan step with Fock from read density so that orbitals are available to all algorithms
 -------------------------------------------------------
 OpenMP BLAS3 based DFT computing Module                
 Release: version 1.0, May 2013, Q-Chem Inc. Pittsburgh 
 -------------------------------------------------------
 -------------------------------------------------------
 OpenMP BLAS3 based DFT computing Module                
 Release: version 1.0, May 2013, Q-Chem Inc. Pittsburgh 
 -------------------------------------------------------
 -------------------------------------------------------
 OpenMP BLAS3 based DFT computing Module                
 Release: version 1.0, May 2013, Q-Chem Inc. Pittsburgh 
 -------------------------------------------------------
energy of the guess density (C=0) -398.619190036984
 -------------------------------------------------------
 OpenMP BLAS3 based DFT computing Module                
 Release: version 1.0, May 2013, Q-Chem Inc. Pittsburgh 
 -------------------------------------------------------
 -------------------------------------------------------
 OpenMP BLAS3 based DFT computing Module                
 Release: version 1.0, May 2013, Q-Chem Inc. Pittsburgh 
 -------------------------------------------------------
 -------------------------------------------------------
 OpenMP BLAS3 based DFT computing Module                
 Release: version 1.0, May 2013, Q-Chem Inc. Pittsburgh 
 -------------------------------------------------------
We will preform up to 15 macro iterations over saddle points until a stable solution is found
Energy prior to optimization (guess energy) = -398.665671718308
Begin Timing: Total SCF Calculation
Begin Timing: SCF Single Stationary Point Calculation
begin iterations for algorithm: GDM          
the SCF tolerance is set to 1.00e-08
    1    -398.6656717183      1.91e-01     00000  Descent step
    2    -398.7114519722      1.38e-01     00000  Normal BFGS step
    3    -398.7405323024      3.36e-02     00000  Normal BFGS step
    4    -398.7436386658      8.40e-03     00000  Normal BFGS step
    5    -398.7436507143      6.85e-03     00000  Normal BFGS step
    6    -398.7439125788      3.17e-04     00000  Normal BFGS step
    7    -398.7439133856      1.02e-04     00000  Normal BFGS step
    8    -398.7439134904      4.58e-06     00000  Normal BFGS step
    9    -398.7439134905      5.78e-07     00000  Normal BFGS step
   10    -398.7439134905      5.43e-08     00000  Normal BFGS step
   11    -398.7439134905      1.02e-08     00000  Normal BFGS step
   12    -398.7439134905      5.45e-09     00000 Convergence criterion met
Timing for Single Stationary Point: 272.00s (wall), 2112.57s (cpu)
Begin Timing: Stability
===================================================
Beginning Test for Internal Stability
===================================================
generating davidson guess vectors based on koopmans excitations
computing hessian-vector products by finite difference
    1      7.16e-01     00000 Davidson Iteration
computing hessian-vector products by finite difference
    2      4.20e-02     00000 Davidson Iteration
computing hessian-vector products by finite difference
    3      2.81e-02     00000 Davidson Iteration
computing hessian-vector products by finite difference
    4      5.54e-03     00000 Davidson Iteration
computing hessian-vector products by finite difference
    5      5.72e-03     00000 Davidson Iteration
computing hessian-vector products by finite difference
    6      1.16e-02     00000 Davidson Iteration
computing hessian-vector products by finite difference
    7      1.18e-02     00000 Davidson Iteration
computing hessian-vector products by finite difference
    8      3.39e-03     00000 Davidson Iteration
computing hessian-vector products by finite difference
    9      9.95e-04     00000 Davidson Iteration
computing hessian-vector products by finite difference
   10      2.72e-04     00000 Davidson Converged
converged_eigenvalues
   0.1298
   0.1298
   0.1304
Threshold for negative eigenvalues: -1.0e-05
solution was a local minimum (stable)
===================================================
End Test for Internal Stability
===================================================
Timing for Internal Stability: 1140.00s (wall), 8837.31s (cpu)
Our SCF solution is stable!
Timing for Total SCF: 1412.00s (wall), 10949.91s (cpu)
 Total energy in the final basis set =     -398.7439134905
<S^2> =         -0.000000000
    ==================================================
              The end of Object-Oriented SCFman       
    ==================================================

 --------------------------------------------------------------

                    Orbital Energies (a.u.)
 --------------------------------------------------------------

 Alpha MOs
 -- Occupied --
-88.6528  -7.6827  -5.5506  -5.5445  -5.5445  -0.4038  -0.1104   0.0245
  0.0245
 -- Virtual --
  0.0958   0.1149   0.1155   0.1155   0.1638   0.1779   0.1973   0.1973
  0.2218   0.2218   0.2308   0.2495   0.2495   0.2587   0.2698   0.2698
  0.3017   0.3303   0.3303   0.3314   0.3524   0.3524   0.3688   0.3688
  0.3848   0.4299   0.4299   0.4384   0.4384   0.4544   0.4765   0.4765
  0.4944   0.4982   0.4982   0.5000   0.5000   0.5940   0.5940   0.5982
  0.5982   0.6046   0.6126   0.6217   0.6217   0.6744   0.6744   0.6787
  0.6787   0.6834   0.6874   0.6874   0.7023   0.7023   0.7333   0.7334
  0.7340   0.7665   0.7665   0.8138   0.8138   0.8167   0.8167   0.8307
  0.8431   0.8431   0.8486   0.8701   0.8702   0.8804   0.8804   0.8962
  0.8962   0.9134   0.9134   0.9384   0.9384   0.9566   1.0608   1.2230
  1.2230   1.2290   1.2913   1.2913   1.3574   1.3574   1.4590   1.5349
  1.5349   1.6132   1.6230   1.6230   1.6244   1.6244   1.7167   1.7494
  1.7494   1.7594   1.7594   1.8046   2.0689   2.1113   2.1113   2.5878
  2.6288   2.6288   2.6857   2.6857   2.7902   2.9923   2.9923   3.0266
  3.0266   3.0529   3.0529   3.2180   3.2180   3.4896   3.4896   3.5596
  3.7242   3.7354   3.7354   3.7930   3.7930   3.7967   3.7967   3.8278
  3.8403   3.8403   3.9474   4.1692   4.1692   4.2526   4.2526   4.4005
  4.4005   4.4225   4.6067   4.8751   4.8751   5.6523   5.6523   5.7578
  5.9036   5.9036   5.9277   5.9277   6.0197   6.0752   6.0752   6.1894
  6.1894   6.3917   6.3917   6.7306   6.8090   6.8090   7.2228   7.2228
  8.0214   8.8770   8.8771   8.8950   8.8950   9.0355   9.0356   9.0549
  9.0549   9.3456   9.3696   9.3696   9.7265   9.7906   9.7906  10.1846
 10.1846  10.8463  12.2690  12.2690  12.2703  12.2703  12.5413  12.7961
 12.7961  13.0610  13.7431  13.7431  13.7676  13.7676  14.1727  14.1727
 14.8825  17.6711  17.6711  17.6719  17.6719  18.5842  18.5842  18.6884
 18.8699  18.8700  18.9385  18.9385  19.8777  19.8777  20.5997  24.7374
 24.7374  24.9785  30.8538  39.9840  64.0471  64.0483  64.1417  64.1417
 64.7915  90.6629  91.5726  91.5726

 Beta MOs
 -- Occupied --
-88.6528  -7.6827  -5.5506  -5.5445  -5.5445  -0.4038  -0.1104   0.0245
  0.0245
 -- Virtual --
  0.0958   0.1149   0.1155   0.1155   0.1638   0.1779   0.1973   0.1973
  0.2218   0.2218   0.2308   0.2495   0.2495   0.2587   0.2698   0.2698
  0.3017   0.3303   0.3303   0.3314   0.3524   0.3524   0.3688   0.3688
  0.3848   0.4299   0.4299   0.4384   0.4384   0.4544   0.4765   0.4765
  0.4944   0.4982   0.4982   0.5000   0.5000   0.5940   0.5940   0.5982
  0.5982   0.6046   0.6126   0.6217   0.6217   0.6744   0.6744   0.6787
  0.6787   0.6834   0.6874   0.6874   0.7023   0.7023   0.7333   0.7334
  0.7340   0.7665   0.7665   0.8138   0.8138   0.8167   0.8167   0.8307
  0.8431   0.8431   0.8486   0.8701   0.8702   0.8804   0.8804   0.8962
  0.8962   0.9134   0.9134   0.9384   0.9384   0.9566   1.0608   1.2230
  1.2230   1.2290   1.2913   1.2913   1.3574   1.3574   1.4590   1.5349
  1.5349   1.6132   1.6230   1.6230   1.6244   1.6244   1.7167   1.7494
  1.7494   1.7594   1.7594   1.8046   2.0689   2.1113   2.1113   2.5878
  2.6288   2.6288   2.6857   2.6857   2.7902   2.9923   2.9923   3.0266
  3.0266   3.0529   3.0529   3.2180   3.2180   3.4896   3.4896   3.5596
  3.7242   3.7354   3.7354   3.7930   3.7930   3.7967   3.7967   3.8278
  3.8403   3.8403   3.9474   4.1692   4.1692   4.2526   4.2526   4.4005
  4.4005   4.4225   4.6067   4.8751   4.8751   5.6523   5.6523   5.7578
  5.9036   5.9036   5.9277   5.9277   6.0197   6.0752   6.0752   6.1894
  6.1894   6.3917   6.3917   6.7306   6.8090   6.8090   7.2228   7.2228
  8.0214   8.8770   8.8771   8.8950   8.8950   9.0355   9.0356   9.0549
  9.0549   9.3456   9.3696   9.3696   9.7265   9.7906   9.7906  10.1846
 10.1846  10.8463  12.2690  12.2690  12.2703  12.2703  12.5413  12.7961
 12.7961  13.0610  13.7431  13.7431  13.7676  13.7676  14.1727  14.1727
 14.8825  17.6711  17.6711  17.6719  17.6719  18.5842  18.5842  18.6884
 18.8699  18.8700  18.9385  18.9385  19.8777  19.8777  20.5997  24.7374
 24.7374  24.9785  30.8538  39.9840  64.0471  64.0483  64.1417  64.1417
 64.7915  90.6629  91.5726  91.5726
 --------------------------------------------------------------

          Ground-State Mulliken Net Atomic Charges

     Atom                 Charge (a.u.)    Spin (a.u.)
  --------------------------------------------------------
      1 S                    -0.926980      -0.000000
      2 H                    -0.073020       0.000000
  --------------------------------------------------------
  Sum of atomic charges =    -1.000000
  Sum of spin   charges =    -0.000000

 -----------------------------------------------------------------
                    Cartesian Multipole Moments
 -----------------------------------------------------------------
    Charge (ESU x 10^10)
                -4.8032
    Dipole Moment (Debye)
         X      -0.0000      Y      -0.0000      Z       0.1125
       Tot       0.1125
    Quadrupole Moments (Debye-Ang)
        XX     -22.8136     XY       0.0000     YY     -22.8136
        XZ      -0.0000     YZ       0.0000     ZZ     -17.9284
    Octopole Moments (Debye-Ang^2)
       XXX      -0.0000    XXY       0.0000    XYY       0.0000
       YYY      -0.0000    XXZ      -1.7429    XYZ       0.0000
       YYZ      -1.7429    XZZ       0.0000    YZZ      -0.0000
       ZZZ      -4.5110
    Hexadecapole Moments (Debye-Ang^3)
      XXXX     -72.5418   XXXY       0.0000   XXYY     -24.1805
      XYYY       0.0000   YYYY     -72.5418   XXXZ      -0.0000
      XXYZ      -0.0000   XYYZ      -0.0000   YYYZ       0.0000
      XXZZ     -20.6495   XYZZ       0.0000   YYZZ     -20.6495
      XZZZ      -0.0000   YZZZ      -0.0000   ZZZZ     -48.5423
 -----------------------------------------------------------------
Archival summary:
1\1\n0085.mhg0\SP\ProcedureUnspecified\BasisUnspecified\11(1-,1)\yhljason\SunSep1323:59:002020SunSep1323:59:002020\0\\#,ProcedureUnspecified,BasisUnspecified,\\-1,1\S\H,1,1.3432\\\@

 Total job time:  1458.39s(wall), 11304.17s(cpu) 
 Sun Sep 13 23:59:00 2020

        *************************************************************
        *                                                           *
        *  Thank you very much for using Q-Chem.  Have a nice day.  *
        *                                                           *
        *************************************************************


