                  Welcome to Q-Chem
     A Quantum Leap Into The Future Of Chemistry


 Q-Chem 5.3 (devel), Q-Chem, Inc., Pleasanton, CA (2020)

 Yihan Shao,  Zhengting Gan,  E. Epifanovsky,  A. T. B. Gilbert,  M. Wormit,  
 J. Kussmann,  A. W. Lange,  A. Behn,  Jia Deng,  Xintian Feng,  D. Ghosh,  
 M. Goldey,  P. R. Horn,  L. D. Jacobson,  I. Kaliman,  T. Kus,  A. Landau,  
 Jie Liu,  E. I. Proynov,  R. M. Richard,  R. P. Steele,  E. J. Sundstrom,  
 H. L. Woodcock III,  P. M. Zimmerman,  D. Zuev,  B. Alam,  B. Albrecht,  
 E. Alguire,  S. A. Baeppler,  D. Barton,  Z. Benda,  Y. A. Bernard,  
 E. J. Berquist,  K. B. Bravaya,  H. Burton,  K. Carter-Fenk,  D. Casanova,  
 Chun-Min Chang,  Yunqing Chen,  A. Chien,  K. D. Closser,  M. P. Coons,  
 S. Coriani,  S. Dasgupta,  A. L. Dempwolff,  M. Diedenhofen,  Hainam Do,  
 R. G. Edgar,  Po-Tung Fang,  S. Faraji,  S. Fatehi,  Qingguo Feng,  
 J. Fosso-Tande,  J. Gayvert,  Qinghui Ge,  A. Ghysels,  G. Gidofalvi,  
 J. Gomes,  J. Gonthier,  A. Gunina,  D. Hait,  M. W. D. Hanson-Heine,  
 P. H. P. Harbach,  A. W. Hauser,  M. F. Herbst,  J. E. Herr,  
 E. G. Hohenstein,  Z. C. Holden,  Kerwin Hui,  B. C. Huynh,  T.-C. Jagau,  
 Hyunjun Ji,  B. Kaduk,  K. Khistyaev,  Jaehoon Kim,  P. Klunzinger,  K. Koh,  
 D. Kosenkov,  L. Koulias,  T. Kowalczyk,  C. M. Krauter,  A. Kunitsa,  
 Ka Un Lao,  A. Laurent,  K. V. Lawler,  Joonho Lee,  D. Lefrancois,  
 S. Lehtola,  D. S. Levine,  Yi-Pei Li,  You-Sheng Lin,  Fenglai Liu,  
 Kuan-Yu Liu,  E. Livshits,  M. Loipersberger,  A. Luenser,  P. Manohar,  
 E. Mansoor,  S. F. Manzer,  Shan-Ping Mao,  Yuezhi Mao,  N. Mardirossian,  
 A. V. Marenich,  T. Markovich,  L. A. Martinez-Martinez,  S. A. Maurer,  
 N. J. Mayhall,  S. C. McKenzie,  J.-M. Mewes,  P. Morgante,  A. F. Morrison,  
 J. W. Mullinax,  K. Nanda,  T. S. Nguyen-Beck,  R. Olivares-Amaya,  
 K. J. Oosterbaan,  J. A. Parkhill,  S. K. Paul,  F. Pavosevic,  Zheng Pei,  
 T. M. Perrine,  F. Plasser,  P. Pokhilko,  S. Prager,  A. Prociuk,  
 E. Ramos,  B. Rana,  D. R. Rehn,  F. Rob,  M. Scheurer,  M. Schneider,  
 N. Sergueev,  S. M. Sharada,  S. Sharma,  D. W. Small,  T. Stauch,  
 C. J. Stein,  T. Stein,  Yu-Chuan Su,  S. P. Veccham,  Zhen Tao,  
 A. J. W. Thom,  A. Tkatchenko,  T. Tsuchimochi,  N. M. Tubman,  L. Vogt,  
 M. L. Vidal,  O. Vydrov,  M. A. Watson,  J. Wenzel,  M. de Wergifosse,  
 T. A. Wesolowski,  A. White,  J. Witte,  A. Yamada,  Jun Yang,  K. Yao,  
 S. Yeganeh,  S. R. Yost,  Zhi-Qiang You,  A. Zech,  Igor Ying Zhang,  
 Xing Zhang,  Yan Zhao,  Ying Zhu,  B. R. Brooks,  G. K. L. Chan,  
 C. J. Cramer,  M. S. Gordon,  W. J. Hehre,  A. Klamt,  M. W. Schmidt,  
 C. D. Sherrill,  D. G. Truhlar,  A. Aspuru-Guzik,  R. Baer,  A. T. Bell,  
 N. A. Besley,  Jeng-Da Chai,  A. E. DePrince, III,  R. A. DiStasio Jr.,  
 A. Dreuw,  B. D. Dunietz,  T. R. Furlani,  Chao-Ping Hsu,  Yousung Jung,  
 Jing Kong,  D. S. Lambrecht,  WanZhen Liang,  C. Ochsenfeld,  
 V. A. Rassolov,  L. V. Slipchenko,  J. E. Subotnik,  T. Van Voorhis,  
 J. M. Herbert,  A. I. Krylov,  P. M. W. Gill,  M. Head-Gordon

 Contributors to earlier versions of Q-Chem not listed above: 
 R. D. Adamson,  B. Austin,  J. Baker,  G. J. O. Beran,  K. Brandhorst,  
 S. T. Brown,  E. F. C. Byrd,  A. K. Chakraborty,  C.-L. Cheng,  
 Siu Hung Chien,  D. M. Chipman,  D. L. Crittenden,  H. Dachsel,  
 R. J. Doerksen,  A. D. Dutoi,  L. Fusti-Molnar,  W. A. Goddard III,  
 A. Golubeva-Zadorozhnaya,  S. R. Gwaltney,  G. Hawkins,  A. Heyden,  
 S. Hirata,  G. Kedziora,  F. J. Keil,  C. Kelley,  Jihan Kim,  R. A. King,  
 R. Z. Khaliullin,  P. P. Korambath,  W. Kurlancheek,  A. M. Lee,  M. S. Lee,  
 S. V. Levchenko,  Ching Yeh Lin,  D. Liotard,  R. C. Lochan,  I. Lotan,  
 P. E. Maslen,  N. Nair,  D. P. O'Neill,  D. Neuhauser,  E. Neuscamman,  
 C. M. Oana,  R. Olson,  B. Peters,  R. Peverati,  P. A. Pieniazek,  
 Y. M. Rhee,  J. Ritchie,  M. A. Rohrdanz,  E. Rosta,  N. J. Russ,  
 H. F. Schaefer III,  N. E. Schultz,  N. Shenvi,  A. C. Simmonett,  A. Sodt,  
 D. Stuck,  K. S. Thanthiriwatte,  V. Vanovschi,  Tao Wang,  A. Warshel,  
 C. F. Williams,  Q. Wu,  X. Xu,  W. Zhang

 Please cite Q-Chem as follows:
 Y. Shao et al., Mol. Phys. 113, 184-215 (2015)
 DOI: 10.1080/00268976.2014.952696

 Q-Chem 5.3.0 for Intel X86 EM64T Linux

 Parts of Q-Chem use Armadillo 9.800.1 (Horizon Scraper).
 http://arma.sourceforge.net/

 Q-Chem begins on Sun Sep 13 23:34:10 2020  

n0083.mhg0
Host: 0

     Scratch files written to /local/scratch/users/yhljason/SH-_B97-2_aug-pc-4.inp20200913233043//
Processing $rem in /clusterfs/mhg/diptarka/qchem_transmom//config/preferences:
Processing $rem in /global/home/users/yhljason/.qchemrc:

Checking the input file for inconsistencies... 	...done.

--------------------------------------------------------------
User input:
--------------------------------------------------------------
$molecule
-1 1
S1	0.0000	0.0000	0.0000
H2	0.0000	0.0000	1.3432
$end
$rem
jobtype sp
method B97-2
xc_grid 000099000590
basis aug-pc-4
max_scf_cycles 200
thresh 14
scf_convergence 8
scf_algorithm gdm
symmetry false
sym_ignore true
unrestricted true
gen_scfman true
internal_stability_iter 15
internal_stability_davidson_iter 200
mem_total 64000
mem_static 1500
n_frozen_core 0
$end


--------------------------------------------------------------
 ----------------------------------------------------------------
             Standard Nuclear Orientation (Angstroms)
    I     Atom           X                Y                Z
 ----------------------------------------------------------------
    1      S       0.0000000000     0.0000000000     0.0000000000
    2      H       0.0000000000     0.0000000000     1.3432000000
 ----------------------------------------------------------------
 Nuclear Repulsion Energy =           6.30348077 hartrees
 There are        9 alpha and        9 beta electrons
 Requested basis set is aug-pc-4
 There are 55 shells and 229 basis functions

 Total QAlloc Memory Limit  64000 MB
 Mega-Array Size      1467 MB
 MEM_STATIC part      1500 MB

                       Distance Matrix (Angstroms)
             S (  1)
   H (  2)  1.343200

 A cutoff of  1.0D-14 yielded   1537 shell pairs
 There are     26901 function pairs (     49956 Cartesian)
 Smallest overlap matrix eigenvalue = 7.20E-06

 Scale SEOQF with 1.000000e-01/1.000000e-01/1.000000e-01

 Standard Electronic Orientation quadrupole field applied
 Nucleus-field energy     =    -0.0000000002 hartrees
 Guess from superposition of atomic densities
 Warning:  Energy on first SCF cycle will be non-variational
 SAD guess density has 17.000000 electrons

 -----------------------------------------------------------------------
  General SCF calculation program by
  Eric Jon Sundstrom, Paul Horn, Yuezhi Mao, Dmitri Zuev, Alec White,
  David Stuck, Shaama M.S., Shane Yost, Joonho Lee, David Small,
  Daniel Levine, Susi Lehtola, Hugh Burton, Evgeny Epifanovsky,
  Bang C. Huynh
 -----------------------------------------------------------------------
 Exchange:     0.2100 Hartree-Fock + 1.0000 B97-2
 Correlation:  1.0000 B97-2
 Using Euler-Maclaurin-Lebedev (99,590) quadrature formula
Running Object-Oriented UKS (UHF)
performing a single roothaan step with Fock from read density so that orbitals are available to all algorithms
energy of the guess density (C=0) -398.731809241964
We will preform up to 15 macro iterations over saddle points until a stable solution is found
Energy prior to optimization (guess energy) = -398.799473907533
Begin Timing: Total SCF Calculation
Begin Timing: SCF Single Stationary Point Calculation
begin iterations for algorithm: GDM          
the SCF tolerance is set to 1.00e-08
    1    -398.7994739075      1.36e-01     00000  Descent step
    2    -398.8587278771      8.71e-02     00000  Normal BFGS step
    3    -398.8742748091      1.72e-02     00000  Normal BFGS step
    4    -398.8754496875      3.69e-03     00000  Normal BFGS step
    5    -398.8754699228      2.14e-03     00000  Normal BFGS step
    6    -398.8755122541      1.52e-04     00000  Normal BFGS step
    7    -398.8755124112      2.89e-05     00000  Normal BFGS step
    8    -398.8755124220      2.28e-06     00000  Normal BFGS step
    9    -398.8755124221      1.57e-07     00000  Normal BFGS step
   10    -398.8755124221      3.36e-08     00000  Normal BFGS step
   11    -398.8755124221      2.95e-09     00000 Convergence criterion met
Timing for Single Stationary Point: 231.00s (wall), 1755.79s (cpu)
Begin Timing: Stability
===================================================
Beginning Test for Internal Stability
===================================================
generating davidson guess vectors based on koopmans excitations
 Warning: Hessian-vector products not implemented
 Finite difference Hessian-vector products will be used.
computing hessian-vector products by finite difference
    1      7.22e-01     00000 Davidson Iteration
computing hessian-vector products by finite difference
    2      1.49e-02     00000 Davidson Iteration
computing hessian-vector products by finite difference
    3      1.56e-02     00000 Davidson Iteration
computing hessian-vector products by finite difference
    4      2.20e-03     00000 Davidson Iteration
computing hessian-vector products by finite difference
    5      1.02e-03     00000 Davidson Iteration
computing hessian-vector products by finite difference
    6      8.54e-04     00000 Davidson Iteration
computing hessian-vector products by finite difference
    7      2.15e-04     00000 Davidson Iteration
computing hessian-vector products by finite difference
    8      1.25e-04     00000 Davidson Iteration
computing hessian-vector products by finite difference
    9      4.02e-05     00000 Davidson Converged
converged_eigenvalues
   0.1390
   0.1561
Threshold for negative eigenvalues: -1.0e-05
solution was a local minimum (stable)
===================================================
End Test for Internal Stability
===================================================
Timing for Internal Stability: 938.00s (wall), 7229.09s (cpu)
Our SCF solution is stable!
Timing for Total SCF: 1169.00s (wall), 8984.92s (cpu)
 Total energy in the final basis set =     -398.8755124221
<S^2> =         -0.000000000
    ==================================================
              The end of Object-Oriented SCFman       
    ==================================================

 --------------------------------------------------------------

                    Orbital Energies (a.u.)
 --------------------------------------------------------------

 Alpha MOs
 -- Occupied --
-88.5540  -7.6816  -5.6334  -5.6275  -5.6275  -0.4273  -0.1299   0.0057
  0.0057
 -- Virtual --
  0.1079   0.1254   0.1284   0.1284   0.1805   0.1946   0.2136   0.2136
  0.2419   0.2419   0.2475   0.2706   0.2706   0.2775   0.2854   0.2854
  0.3188   0.3462   0.3462   0.3480   0.3706   0.3706   0.3848   0.3848
  0.4000   0.4447   0.4447   0.4525   0.4525   0.4697   0.4907   0.4907
  0.5082   0.5114   0.5114   0.5132   0.5132   0.6049   0.6049   0.6080
  0.6080   0.6125   0.6205   0.6327   0.6327   0.6824   0.6824   0.6883
  0.6883   0.6919   0.6985   0.6985   0.7115   0.7115   0.7398   0.7398
  0.7433   0.7678   0.7678   0.8149   0.8149   0.8265   0.8265   0.8361
  0.8454   0.8454   0.8538   0.8730   0.8730   0.8820   0.8820   0.8964
  0.8964   0.9124   0.9124   0.9377   0.9377   0.9550   1.0592   1.2166
  1.2166   1.2233   1.2665   1.2665   1.3326   1.3326   1.4192   1.5009
  1.5009   1.5709   1.5758   1.5758   1.5963   1.5963   1.6753   1.6975
  1.6975   1.7004   1.7004   1.7619   2.0125   2.0456   2.0456   2.5049
  2.5311   2.5311   2.5862   2.5862   2.6879   2.8404   2.8404   2.8648
  2.8648   2.9246   2.9246   3.1027   3.1027   3.3165   3.3165   3.4439
  3.5490   3.5870   3.5870   3.6132   3.6132   3.6385   3.6385   3.6786
  3.6803   3.6803   3.7845   3.9442   3.9442   4.0835   4.0835   4.2103
  4.2103   4.2232   4.4321   4.6152   4.6152   5.4291   5.4291   5.5436
  5.5436   5.5518   5.5518   5.5622   5.7127   5.7127   5.7623   6.0414
  6.0414   6.1286   6.1286   6.4114   6.4114   6.4199   6.8866   6.8866
  7.7251   8.6015   8.6015   8.6077   8.6077   8.6202   8.6202   8.7502
  8.7502   8.9521   9.0314   9.0314   9.1151   9.1151   9.4250   9.4972
  9.4972  10.1422  12.0469  12.0575  12.0575  12.0605  12.0605  12.5408
 12.5408  12.6067  12.6067  12.6330  12.8660  12.8660  13.3609  13.3609
 14.2800  17.0476  17.0476  17.1056  17.1056  17.2256  17.2256  17.3434
 17.3434  17.5618  17.5618  17.8657  18.5999  18.5999  19.6749  23.5790
 23.5790  24.3498  30.3660  40.1940  63.0628  63.0628  63.1548  63.1548
 63.7848  91.2578  91.2578  91.8659

 Beta MOs
 -- Occupied --
-88.5540  -7.6816  -5.6334  -5.6275  -5.6275  -0.4273  -0.1299   0.0057
  0.0057
 -- Virtual --
  0.1079   0.1254   0.1284   0.1284   0.1805   0.1946   0.2136   0.2136
  0.2419   0.2419   0.2475   0.2706   0.2706   0.2775   0.2854   0.2854
  0.3188   0.3462   0.3462   0.3480   0.3706   0.3706   0.3848   0.3848
  0.4000   0.4447   0.4447   0.4525   0.4525   0.4697   0.4907   0.4907
  0.5082   0.5114   0.5114   0.5132   0.5132   0.6049   0.6049   0.6080
  0.6080   0.6125   0.6205   0.6327   0.6327   0.6824   0.6824   0.6883
  0.6883   0.6919   0.6985   0.6985   0.7115   0.7115   0.7398   0.7398
  0.7433   0.7678   0.7678   0.8149   0.8149   0.8265   0.8265   0.8361
  0.8454   0.8454   0.8538   0.8730   0.8730   0.8820   0.8820   0.8964
  0.8964   0.9124   0.9124   0.9377   0.9377   0.9550   1.0592   1.2166
  1.2166   1.2233   1.2665   1.2665   1.3326   1.3326   1.4192   1.5009
  1.5009   1.5709   1.5758   1.5758   1.5963   1.5963   1.6753   1.6975
  1.6975   1.7004   1.7004   1.7619   2.0125   2.0456   2.0456   2.5049
  2.5311   2.5311   2.5862   2.5862   2.6879   2.8404   2.8404   2.8648
  2.8648   2.9246   2.9246   3.1027   3.1027   3.3165   3.3165   3.4439
  3.5490   3.5870   3.5870   3.6132   3.6132   3.6385   3.6385   3.6786
  3.6803   3.6803   3.7845   3.9442   3.9442   4.0835   4.0835   4.2103
  4.2103   4.2232   4.4321   4.6152   4.6152   5.4291   5.4291   5.5436
  5.5436   5.5518   5.5518   5.5622   5.7127   5.7127   5.7623   6.0414
  6.0414   6.1286   6.1286   6.4114   6.4114   6.4199   6.8866   6.8866
  7.7251   8.6015   8.6015   8.6077   8.6077   8.6202   8.6202   8.7502
  8.7502   8.9521   9.0314   9.0314   9.1151   9.1151   9.4250   9.4972
  9.4972  10.1422  12.0469  12.0575  12.0575  12.0605  12.0605  12.5408
 12.5408  12.6067  12.6067  12.6330  12.8660  12.8660  13.3609  13.3609
 14.2800  17.0476  17.0476  17.1056  17.1056  17.2256  17.2256  17.3434
 17.3434  17.5618  17.5618  17.8657  18.5999  18.5999  19.6749  23.5790
 23.5790  24.3498  30.3660  40.1940  63.0628  63.0628  63.1548  63.1548
 63.7848  91.2578  91.2578  91.8659
 --------------------------------------------------------------

          Ground-State Mulliken Net Atomic Charges

     Atom                 Charge (a.u.)    Spin (a.u.)
  --------------------------------------------------------
      1 S                    -1.115850       0.000000
      2 H                     0.115850       0.000000
  --------------------------------------------------------
  Sum of atomic charges =    -1.000000
  Sum of spin   charges =     0.000000

 -----------------------------------------------------------------
                    Cartesian Multipole Moments
 -----------------------------------------------------------------
    Charge (ESU x 10^10)
                -4.8032
    Dipole Moment (Debye)
         X       0.0000      Y      -0.0000      Z       0.1437
       Tot       0.1437
    Quadrupole Moments (Debye-Ang)
        XX     -22.0512     XY       0.0000     YY     -22.0512
        XZ       0.0000     YZ      -0.0000     ZZ     -17.4843
    Octopole Moments (Debye-Ang^2)
       XXX      -0.0000    XXY      -0.0000    XYY      -0.0000
       YYY      -0.0000    XXZ      -1.6562    XYZ       0.0000
       YYZ      -1.6562    XZZ      -0.0000    YZZ      -0.0000
       ZZZ      -4.1687
    Hexadecapole Moments (Debye-Ang^3)
      XXXX     -62.0070   XXXY       0.0000   XXYY     -20.6690
      XYYY       0.0000   YYYY     -62.0070   XXXZ       0.0000
      XXYZ      -0.0000   XYYZ       0.0000   YYYZ      -0.0000
      XXZZ     -18.2172   XYZZ       0.0000   YYZZ     -18.2172
      XZZZ      -0.0000   YZZZ      -0.0000   ZZZZ     -44.3041
 -----------------------------------------------------------------
Archival summary:
1\1\n0083.mhg0\SP\ProcedureUnspecified\BasisUnspecified\11(1-,1)\yhljason\SunSep1323:54:212020SunSep1323:54:212020\0\\#,ProcedureUnspecified,BasisUnspecified,\\-1,1\S\H,1,1.3432\\\@

 Total job time:  1211.18s(wall), 9310.58s(cpu) 
 Sun Sep 13 23:54:21 2020

        *************************************************************
        *                                                           *
        *  Thank you very much for using Q-Chem.  Have a nice day.  *
        *                                                           *
        *************************************************************


