Q-Chem Developer Version!
                  Welcome to Q-Chem
     A Quantum Leap Into The Future Of Chemistry


 Q-Chem 5.1, Q-Chem, Inc., Pleasanton, CA (2018)

 Yihan Shao,  Zhengting Gan,  E. Epifanovsky,  A. T. B. Gilbert,  M. Wormit,  
 J. Kussmann,  A. W. Lange,  A. Behn,  Jia Deng,  Xintian Feng,  D. Ghosh,  
 M. Goldey,  P. R. Horn,  L. D. Jacobson,  I. Kaliman,  T. Kus,  A. Landau,  
 Jie Liu,  E. I. Proynov,  R. M. Richard,  R. P. Steele,  E. J. Sundstrom,  
 H. L. Woodcock III,  P. M. Zimmerman,  D. Zuev,  B. Albrecht,  E. Alguire,  
 S. A. Baeppler,  D. Barton,  Z. Benda,  Y. A. Bernard,  E. J. Berquist,  
 K. B. Bravaya,  H. Burton,  D. Casanova,  Chun-Min Chang,  Yunqing Chen,  
 A. Chien,  K. D. Closser,  M. P. Coons,  S. Coriani,  S. Dasgupta,  
 A. L. Dempwolff,  M. Diedenhofen,  Hainam Do,  R. G. Edgar,  Po-Tung Fang,  
 S. Faraji,  S. Fatehi,  Qingguo Feng,  K. D. Fenk,  J. Fosso-Tande,  
 Qinghui Ge,  A. Ghysels,  G. Gidofalvi,  J. Gomes,  J. Gonthier,  A. Gunina,  
 D. Hait,  M. W. D. Hanson-Heine,  P. H. P. Harbach,  A. W. Hauser,  
 J. E. Herr,  E. G. Hohenstein,  Z. C. Holden,  Kerwin Hui,  B. C. Huynh,  
 T.-C. Jagau,  Hyunjun Ji,  B. Kaduk,  K. Khistyaev,  Jaehoon Kim,  
 P. Klunzinger,  K. Koh,  D. Kosenkov,  L. Koulias,  T. Kowalczyk,  
 C. M. Krauter,  A. Kunitsa,  Ka Un Lao,  A. Laurent,  K. V. Lawler,  
 Joonho Lee,  D. Lefrancois,  S. Lehtola,  D. S. Levine,  Yi-Pei Li,  
 You-Sheng Lin,  Fenglai Liu,  E. Livshits,  A. Luenser,  P. Manohar,  
 E. Mansoor,  S. F. Manzer,  Shan-Ping Mao,  Yuezhi Mao,  N. Mardirossian,  
 A. V. Marenich,  T. Markovich,  L. A. Martinez-Martinez,  S. A. Maurer,  
 N. J. Mayhall,  S. C. McKenzie,  J.-M. Mewes,  A. F. Morrison,  
 J. W. Mullinax,  K. Nanda,  T. S. Nguyen-Beck,  R. Olivares-Amaya,  
 J. A. Parkhill,  T. M. Perrine,  F. Plasser,  P. Pokhilko,  S. Prager,  
 A. Prociuk,  E. Ramos,  D. R. Rehn,  F. Rob,  M. Schneider,  N. Sergueev,  
 S. M. Sharada,  S. Sharma,  D. W. Small,  T. Stauch,  T. Stein,  
 Yu-Chuan Su,  A. J. W. Thom,  A. Tkatchenko,  T. Tsuchimochi,  N. M. Tubman,  
 L. Vogt,  M. L. Vidal,  O. Vydrov,  M. A. Watson,  J. Wenzel,  
 M. de Wergifosse,  T. A. Wesolowski,  A. White,  J. Witte,  A. Yamada,  
 Jun Yang,  K. Yao,  S. Yeganeh,  S. R. Yost,  Zhi-Qiang You,  A. Zech,  
 Igor Ying Zhang,  Xing Zhang,  Yan Zhao,  Ying Zhu,  B. R. Brooks,  
 G. K. L. Chan,  C. J. Cramer,  M. S. Gordon,  W. J. Hehre,  A. Klamt,  
 M. W. Schmidt,  C. D. Sherrill,  D. G. Truhlar,  A. Aspuru-Guzik,  R. Baer,  
 A. T. Bell,  N. A. Besley,  Jeng-Da Chai,  A. E. DePrince, III,  
 R. A. DiStasio Jr.,  A. Dreuw,  B. D. Dunietz,  T. R. Furlani,  
 Chao-Ping Hsu,  Yousung Jung,  Jing Kong,  D. S. Lambrecht,  WanZhen Liang,  
 C. Ochsenfeld,  V. A. Rassolov,  L. V. Slipchenko,  J. E. Subotnik,  
 T. Van Voorhis,  J. M. Herbert,  A. I. Krylov,  P. M. W. Gill,  M. Head-Gordon

 Contributors to earlier versions of Q-Chem not listed above: 
 R. D. Adamson,  B. Austin,  J. Baker,  G. J. O. Beran,  K. Brandhorst,  
 S. T. Brown,  E. F. C. Byrd,  A. K. Chakraborty,  C.-L. Cheng,  
 Siu Hung Chien,  D. M. Chipman,  D. L. Crittenden,  H. Dachsel,  
 R. J. Doerksen,  A. D. Dutoi,  L. Fusti-Molnar,  W. A. Goddard III,  
 A. Golubeva-Zadorozhnaya,  S. R. Gwaltney,  G. Hawkins,  A. Heyden,  
 S. Hirata,  G. Kedziora,  F. J. Keil,  C. Kelley,  Jihan Kim,  R. A. King,  
 R. Z. Khaliullin,  P. P. Korambath,  W. Kurlancheek,  A. M. Lee,  M. S. Lee,  
 S. V. Levchenko,  Ching Yeh Lin,  D. Liotard,  R. C. Lochan,  I. Lotan,  
 P. E. Maslen,  N. Nair,  D. P. O'Neill,  D. Neuhauser,  E. Neuscamman,  
 C. M. Oana,  R. Olson,  B. Peters,  R. Peverati,  P. A. Pieniazek,  
 Y. M. Rhee,  J. Ritchie,  M. A. Rohrdanz,  E. Rosta,  N. J. Russ,  
 H. F. Schaefer III,  N. E. Schultz,  N. Shenvi,  A. C. Simmonett,  A. Sodt,  
 D. Stuck,  K. S. Thanthiriwatte,  V. Vanovschi,  Tao Wang,  A. Warshel,  
 C. F. Williams,  Q. Wu,  X. Xu,  W. Zhang

 Please cite Q-Chem as follows:
 Y. Shao et al., Mol. Phys. 113, 184-215 (2015)
 DOI: 10.1080/00268976.2014.952696

 Q-Chem 5.1.1 for Intel X86 EM64T Linux

 Parts of Q-Chem use Armadillo 8.300.2 (Tropical Shenanigans).
 http://arma.sourceforge.net/

 Q-Chem begins on Wed Aug 19 16:02:50 2020  

Host: n0041.mhg0
0

     Scratch files written to /local/scratch/users/yhljason/OF2_Slater_aug-pc-4.inp20200818015614//
Input Ideriv = 2
Curr. Ideriv = -1
Max.  Ideriv = 2

Checking the input file for inconsistencies... 	...done.

--------------------------------------------------------------
User input:
--------------------------------------------------------------
$molecule
0 1
O1      0.0000  0.0000  0.6049
F2      0.0000  1.1003  -0.2688
F3      0.0000  -1.1003 -0.2688
$end

$rem
jobtype sp
exchange slater
xc_grid 000099000590
basis aug-pc-4
max_scf_cycles 200
thresh 14
scf_convergence 8
scf_algorithm gdm
symmetry false
sym_ignore true
unrestricted true
gen_scfman true
internal_stability_iter 15
internal_stability_davidson_iter 200
mem_total 64000
mem_static 1500
n_frozen_core 0
$end


--------------------------------------------------------------
 ----------------------------------------------------------------
             Standard Nuclear Orientation (Angstroms)
    I     Atom           X                Y                Z
 ----------------------------------------------------------------
    1      O       0.0000000000     0.0000000000     0.6049000000
    2      F       0.0000000000     1.1003000000    -0.2688000000
    3      F       0.0000000000    -1.1003000000    -0.2688000000
 ----------------------------------------------------------------
 Nuclear Repulsion Energy =    73.7141683052 hartrees
 There are       13 alpha and       13 beta electrons
 Requested basis set is aug-pc-4
 There are 99 shells and 435 basis functions

 Total QAlloc Memory Limit  64000 MB
 Mega-Array Size      1467 MB
 MEM_STATIC part      1500 MB

                       Distance Matrix (Angstroms)
             O (  1)   F (  2)
   F (  2)  1.404995
   F (  3)  1.404995  2.200600
 
 A cutoff of  1.0D-14 yielded   4816 shell pairs
 There are     94816 function pairs (    185329 Cartesian)
 
 -------------------------------------------------------
 OpenMP Integral Computing Module                       
 Release: version 1.0, May 2013, Q-Chem Inc. Pittsburgh 
 -------------------------------------------------------
 Integral Job Info:
 Integral job number is                      11
 Integral operator is                         1
 short-range coefficients                     0
 long-range coefficients              100000000
 Omega coefficients                           0
 if combine SR and LR in K                    0
 Integral screening is                        0
 Integral computing path is                   2
 max size of driver memory is           6400000
 size of driver memory is               5498286
 size of scratch memory is             29792225
 max col of scratch BK array             194481
 max len of scratch array in speh3         5572
 max len of scratch index in speh4           72
 max int batch size is                      520
 min int batch size is                       52
 fixed nKL is                                25
 max L of basis functions is                  5
 order of int derivative is                   0
 number of shells is                         99
 number of basis is                         606
 number of cartesian basis is               606
 number of contracted shell pairs          4816
 number of primitive shell pairs          11298
 maxK2 (contraction) of shell pair          121
 max number of K2 of shell pair               1
 max number of CS2 of shell pair            441
 max number of PS2 of shell pair            627
 mem total for path MDJ                 1213232
 -------------------------------------------------------
 Smallest overlap matrix eigenvalue = 3.68E-06

 Scale SEOQF with 1.000000e-01/1.000000e-01/1.000000e-01

 Standard Electronic Orientation quadrupole field applied
 Nucleus-field energy     =     0.0000000011 hartrees
 Guess from superposition of atomic densities
 Warning:  Energy on first SCF cycle will be non-variational
 SAD guess density has 26.000000 electrons

 -----------------------------------------------------------------------
  General SCF calculation program by
  Eric Jon Sundstrom, Paul Horn, Yuezhi Mao, Dmitri Zuev, Alec White,
  David Stuck, Shaama M.S., Shane Yost, Joonho Lee, David Small,
  Daniel Levine, Susi Lehtola, Hugh Burton, Evgeny Epifanovsky
 -----------------------------------------------------------------------
 Exchange:  Slater     
 Using Euler-Maclaurin-Lebedev (99,590) quadrature formula
Running Object-Oriented UKS (UHF)
performing a single roothaan step with Fock from read density so that orbitals are available to all algorithms
energy of the guess density (C=0) -271.364833124762
We will preform up to 15 macro iterations over saddle points until a stable solution is found
Energy prior to optimization (guess energy) = -271.134370108794
Begin Timing: Total SCF Calculation
Begin Timing: SCF Single Stationary Point Calculation
begin iterations for algorithm: GDM          
the SCF tolerance is set to 1.00e-08
    1    -271.1343701088      1.63e-01     00000  Descent step
    2    -271.0976823643      3.40e-01     00000 Line search: overstep
    3    -271.1683926714      4.86e-02     00000  Normal BFGS step
    4    -271.1603886197      7.25e-02     00000 Line search: overstep
    5    -271.1753220372      6.43e-03     00000  Normal BFGS step
    6    -271.1757603419      3.31e-03     00000  Normal BFGS step
    7    -271.1759193110      1.56e-03     00000  Normal BFGS step
    8    -271.1759269832      4.45e-04     00000  Normal BFGS step
    9    -271.1759281027      4.77e-05     00000  Normal BFGS step
   10    -271.1759281113      1.68e-05     00000  Normal BFGS step
   11    -271.1759281129      7.42e-07     00000  Normal BFGS step
   12    -271.1759281129      3.45e-07     00000  Normal BFGS step
   13    -271.1759281129      4.06e-07     00000  Normal BFGS step
   14    -271.1759281129      6.42e-07     00000  Normal BFGS step
   15    -271.1759281129      3.28e-08     00000  Normal BFGS step
   16    -271.1759281129      2.03e-08     00000  Normal BFGS step
   17    -271.1759281129      2.15e-09     00000 Convergence criterion met
Timing for Single Stationary Point: 524.00s (wall), 4175.01s (cpu)
Begin Timing: Stability
===================================================
Beginning Test for Internal Stability
===================================================
generating davidson guess vectors based on koopmans excitations
    1      6.34e-01     00000 Davidson Iteration
    2      7.30e-02     00000 Davidson Iteration
    3      3.86e-02     00000 Davidson Iteration
    4      1.52e-03     00000 Davidson Iteration
    5      5.82e-04     00000 Davidson Iteration
    6      8.39e-05     00000 Davidson Iteration
    7      8.51e-05     00000 Davidson Converged
converged_eigenvalues
   0.1503
   0.3381
Threshold for negative eigenvalues: -1.0e-05
solution was a local minimum (stable)
===================================================
End Test for Internal Stability
===================================================
Our SCF solution is stable!
Timing for Total SCF: 5518.00s (wall), 43893.88s (cpu)
 Total energy in the final basis set =     -271.1759281129
<S^2> =          0.000000000
    ==================================================
              The end of Object-Oriented SCFman       
    ==================================================
 
 --------------------------------------------------------------
 
                    Orbital Energies (a.u.)
 --------------------------------------------------------------
 
 Alpha MOs
 -- Occupied --
-24.111 -24.111 -18.757  -1.191  -1.080  -0.809  -0.539  -0.483
 -0.442  -0.358  -0.356  -0.344  -0.234
 -- Virtual --
 -0.113  -0.086   0.015   0.035   0.038   0.038   0.068   0.078
  0.082   0.084   0.084   0.111   0.141   0.150   0.154   0.163
  0.185   0.194   0.203   0.216   0.224   0.226   0.242   0.257
  0.259   0.260   0.273   0.290   0.313   0.316   0.336   0.338
  0.353   0.357   0.376   0.381   0.410   0.412   0.414   0.436
  0.449   0.455   0.460   0.481   0.505   0.514   0.522   0.530
  0.550   0.556   0.578   0.595   0.608   0.616   0.623   0.633
  0.638   0.645   0.647   0.652   0.653   0.668   0.687   0.689
  0.694   0.696   0.709   0.733   0.734   0.745   0.773   0.779
  0.796   0.805   0.830   0.832   0.836   0.900   0.907   0.913
  0.915   0.923   0.950   0.954   0.961   0.967   0.976   0.992
  0.994   1.008   1.025   1.034   1.062   1.076   1.082   1.083
  1.090   1.095   1.122   1.132   1.134   1.158   1.164   1.179
  1.183   1.203   1.203   1.217   1.221   1.224   1.264   1.277
  1.288   1.295   1.297   1.318   1.321   1.325   1.336   1.346
  1.355   1.367   1.380   1.393   1.407   1.412   1.428   1.431
  1.437   1.452   1.459   1.461   1.497   1.509   1.532   1.560
  1.565   1.574   1.605   1.610   1.634   1.662   1.708   1.725
  1.728   1.776   1.799   1.849   1.878   1.887   1.922   1.977
  1.978   2.111   2.182   2.202   2.209   2.242   2.274   2.286
  2.294   2.346   2.364   2.382   2.383   2.412   2.483   2.496
  2.504   2.517   2.535   2.552   2.632   2.666   2.672   2.681
  2.720   2.786   2.795   2.798   2.867   2.885   2.965   3.077
  3.108   3.219   3.293   3.325   3.383   3.415   3.473   3.523
  3.693   3.838   4.163   4.185   4.224   4.316   4.420   4.425
  4.441   4.836   4.854   5.209   5.237   5.249   5.313   5.339
  5.341   5.367   5.373   5.412   5.438   5.456   5.457   5.478
  5.563   5.571   5.674   5.744   5.769   5.803   5.825   5.857
  5.877   5.945   6.006   6.008   6.041   6.240   6.274   6.281
  6.305   6.316   6.358   6.403   6.427   6.475   6.478   6.494
  6.521   6.532   6.597   6.966   7.032   7.106   7.108   7.127
  7.133   7.206   7.213   7.222   7.246   7.255   7.278   7.385
  7.681   7.779   7.990   8.009   8.182   8.290   8.527   8.819
  8.934   9.012   9.252   9.323   9.484   9.572   9.687   9.699
 10.348  10.519  10.821  11.007  11.619  11.621  11.665  11.704
 11.796  11.803  11.803  11.848  11.853  11.900  11.959  12.117
 12.131  12.183  12.324  12.352  12.359  12.581  12.585  12.589
 12.620  12.655  12.677  12.685  12.696  12.697  12.697  12.698
 12.701  12.724  12.764  12.844  12.866  12.906  12.955  12.992
 13.012  13.034  13.059  13.078  13.559  13.670  13.813  13.868
 13.981  13.984  14.070  14.097  14.123  14.279  14.316  14.358
 14.543  14.567  14.599  14.668  14.876  15.076  15.090  15.092
 15.119  15.145  15.248  15.279  15.321  15.395  15.620  15.714
 16.371  16.384  16.403  16.450  17.167  17.335  17.439  17.726
 17.973  18.114  18.193  18.413  18.656  19.388  19.928  20.128
 20.132  20.133  20.137  20.157  20.191  20.197  20.210  20.607
 20.628  20.647  20.776  21.622  21.642  21.687  21.989  22.331
 22.332  23.178  23.322  23.406  24.336  25.107  30.052  30.266
 30.374  30.400  30.417  30.524  30.524  30.602  30.652  31.535
 31.543  31.908  33.317  33.528  41.593  41.595  41.602  41.806
 41.919  42.133  43.697  43.751  66.570  66.630  66.678  67.111
 67.701  91.267  91.339  91.357  91.368  91.428  91.438  91.493
 91.508  92.171  92.221 143.535 202.201 202.528
 
 Beta MOs
 -- Occupied --
-24.111 -24.111 -18.757  -1.191  -1.080  -0.809  -0.539  -0.483
 -0.442  -0.358  -0.356  -0.344  -0.234
 -- Virtual --
 -0.113  -0.086   0.015   0.035   0.038   0.038   0.068   0.078
  0.082   0.084   0.084   0.111   0.141   0.150   0.154   0.163
  0.185   0.194   0.203   0.216   0.224   0.226   0.242   0.257
  0.259   0.260   0.273   0.290   0.313   0.316   0.336   0.338
  0.353   0.357   0.376   0.381   0.410   0.412   0.414   0.436
  0.449   0.455   0.460   0.481   0.505   0.514   0.522   0.530
  0.550   0.556   0.578   0.595   0.608   0.616   0.623   0.633
  0.638   0.645   0.647   0.652   0.653   0.668   0.687   0.689
  0.694   0.696   0.709   0.733   0.734   0.745   0.773   0.779
  0.796   0.805   0.830   0.832   0.836   0.900   0.907   0.913
  0.915   0.923   0.950   0.954   0.961   0.967   0.976   0.992
  0.994   1.008   1.025   1.034   1.062   1.076   1.082   1.083
  1.090   1.095   1.122   1.132   1.134   1.158   1.164   1.179
  1.183   1.203   1.203   1.217   1.221   1.224   1.264   1.277
  1.288   1.295   1.297   1.318   1.321   1.325   1.336   1.346
  1.355   1.367   1.380   1.393   1.407   1.412   1.428   1.431
  1.437   1.452   1.459   1.461   1.497   1.509   1.532   1.560
  1.565   1.574   1.605   1.610   1.634   1.662   1.708   1.725
  1.728   1.776   1.799   1.849   1.878   1.887   1.922   1.977
  1.978   2.111   2.182   2.202   2.209   2.242   2.274   2.286
  2.294   2.346   2.364   2.382   2.383   2.412   2.483   2.496
  2.504   2.517   2.535   2.552   2.632   2.666   2.672   2.681
  2.720   2.786   2.795   2.798   2.867   2.885   2.965   3.077
  3.108   3.219   3.293   3.325   3.383   3.415   3.473   3.523
  3.693   3.838   4.163   4.185   4.224   4.316   4.420   4.425
  4.441   4.836   4.854   5.209   5.237   5.249   5.313   5.339
  5.341   5.367   5.373   5.412   5.438   5.456   5.457   5.478
  5.563   5.571   5.674   5.744   5.769   5.803   5.825   5.857
  5.877   5.945   6.006   6.008   6.041   6.240   6.274   6.281
  6.305   6.316   6.358   6.403   6.427   6.475   6.478   6.494
  6.521   6.532   6.597   6.966   7.032   7.106   7.108   7.127
  7.133   7.206   7.213   7.222   7.246   7.255   7.278   7.385
  7.681   7.779   7.990   8.009   8.182   8.290   8.527   8.819
  8.934   9.012   9.252   9.323   9.484   9.572   9.687   9.699
 10.348  10.519  10.821  11.007  11.619  11.621  11.665  11.704
 11.796  11.803  11.803  11.848  11.853  11.900  11.959  12.117
 12.131  12.183  12.324  12.352  12.359  12.581  12.585  12.589
 12.620  12.655  12.677  12.685  12.696  12.697  12.697  12.698
 12.701  12.724  12.764  12.844  12.866  12.906  12.955  12.992
 13.012  13.034  13.059  13.078  13.559  13.670  13.813  13.868
 13.981  13.984  14.070  14.097  14.123  14.279  14.316  14.358
 14.543  14.567  14.599  14.668  14.876  15.076  15.090  15.092
 15.119  15.145  15.248  15.279  15.321  15.395  15.620  15.714
 16.371  16.384  16.403  16.450  17.167  17.335  17.439  17.726
 17.973  18.114  18.193  18.413  18.656  19.388  19.928  20.128
 20.132  20.133  20.137  20.157  20.191  20.197  20.210  20.607
 20.628  20.647  20.776  21.622  21.642  21.687  21.989  22.331
 22.332  23.178  23.322  23.406  24.336  25.107  30.052  30.266
 30.374  30.400  30.417  30.524  30.524  30.602  30.652  31.535
 31.543  31.908  33.317  33.528  41.593  41.595  41.602  41.806
 41.919  42.133  43.697  43.751  66.570  66.630  66.678  67.111
 67.701  91.267  91.339  91.357  91.368  91.428  91.438  91.493
 91.508  92.171  92.221 143.535 202.201 202.528
 --------------------------------------------------------------
 
          Ground-State Mulliken Net Atomic Charges

     Atom                 Charge (a.u.)    Spin (a.u.)
  --------------------------------------------------------
      1 O                     0.187137      -0.000000
      2 F                    -0.093569       0.000000
      3 F                    -0.093569      -0.000000
  --------------------------------------------------------
  Sum of atomic charges =     0.000000
  Sum of spin   charges =    -0.000000

 -----------------------------------------------------------------
                    Cartesian Multipole Moments
 -----------------------------------------------------------------
    Charge (ESU x 10^10)
                 0.0000
    Dipole Moment (Debye)
         X       0.0000      Y       0.0000      Z       0.2551
       Tot       0.2551
    Quadrupole Moments (Debye-Ang)
        XX     -15.6059     XY      -0.0000     YY     -15.2157
        XZ       0.0000     YZ      -0.0000     ZZ     -14.9168
    Octopole Moments (Debye-Ang^2)
       XXX       0.0000    XXY      -0.0000    XYY       0.0000
       YYY       0.0000    XXZ      -0.6533    XYZ      -0.0000
       YYZ      -0.8594    XZZ      -0.0000    YZZ       0.0000
       ZZZ      -1.1458
    Hexadecapole Moments (Debye-Ang^3)
      XXXX     -11.4542   XXXY      -0.0000   XXYY     -16.0796
      XYYY      -0.0000   YYYY     -80.4986   XXXZ      -0.0000
      XXYZ       0.0000   XYYZ      -0.0000   YYYZ      -0.0000
      XXZZ      -6.6707   XYZZ       0.0000   YYZZ     -16.8791
      XZZZ      -0.0000   YZZZ       0.0000   ZZZZ     -25.7717
 -----------------------------------------------------------------
Archival summary:
1\1\n0041.mhg0\SP\ProcedureUnspecified\BasisUnspecified\21\yhljason\WedAug1917:35:372020WedAug1917:35:372020\0\\#,ProcedureUnspecified,BasisUnspecified,\\0,1\O\F,1,1.405\F,1,1.405,2,103.097\\\@

 Total job time:  5566.53s(wall), 44217.92s(cpu) 
 Wed Aug 19 17:35:37 2020

        *************************************************************
        *                                                           *
        *  Thank you very much for using Q-Chem.  Have a nice day.  *
        *                                                           *
        *************************************************************


