Q-Chem Developer Version!
                  Welcome to Q-Chem
     A Quantum Leap Into The Future Of Chemistry


 Q-Chem 5.1, Q-Chem, Inc., Pleasanton, CA (2018)

 Yihan Shao,  Zhengting Gan,  E. Epifanovsky,  A. T. B. Gilbert,  M. Wormit,  
 J. Kussmann,  A. W. Lange,  A. Behn,  Jia Deng,  Xintian Feng,  D. Ghosh,  
 M. Goldey,  P. R. Horn,  L. D. Jacobson,  I. Kaliman,  T. Kus,  A. Landau,  
 Jie Liu,  E. I. Proynov,  R. M. Richard,  R. P. Steele,  E. J. Sundstrom,  
 H. L. Woodcock III,  P. M. Zimmerman,  D. Zuev,  B. Albrecht,  E. Alguire,  
 S. A. Baeppler,  D. Barton,  Z. Benda,  Y. A. Bernard,  E. J. Berquist,  
 K. B. Bravaya,  H. Burton,  D. Casanova,  Chun-Min Chang,  Yunqing Chen,  
 A. Chien,  K. D. Closser,  M. P. Coons,  S. Coriani,  S. Dasgupta,  
 A. L. Dempwolff,  M. Diedenhofen,  Hainam Do,  R. G. Edgar,  Po-Tung Fang,  
 S. Faraji,  S. Fatehi,  Qingguo Feng,  K. D. Fenk,  J. Fosso-Tande,  
 Qinghui Ge,  A. Ghysels,  G. Gidofalvi,  J. Gomes,  J. Gonthier,  A. Gunina,  
 D. Hait,  M. W. D. Hanson-Heine,  P. H. P. Harbach,  A. W. Hauser,  
 J. E. Herr,  E. G. Hohenstein,  Z. C. Holden,  Kerwin Hui,  B. C. Huynh,  
 T.-C. Jagau,  Hyunjun Ji,  B. Kaduk,  K. Khistyaev,  Jaehoon Kim,  
 P. Klunzinger,  K. Koh,  D. Kosenkov,  L. Koulias,  T. Kowalczyk,  
 C. M. Krauter,  A. Kunitsa,  Ka Un Lao,  A. Laurent,  K. V. Lawler,  
 Joonho Lee,  D. Lefrancois,  S. Lehtola,  D. S. Levine,  Yi-Pei Li,  
 You-Sheng Lin,  Fenglai Liu,  E. Livshits,  A. Luenser,  P. Manohar,  
 E. Mansoor,  S. F. Manzer,  Shan-Ping Mao,  Yuezhi Mao,  N. Mardirossian,  
 A. V. Marenich,  T. Markovich,  L. A. Martinez-Martinez,  S. A. Maurer,  
 N. J. Mayhall,  S. C. McKenzie,  J.-M. Mewes,  A. F. Morrison,  
 J. W. Mullinax,  K. Nanda,  T. S. Nguyen-Beck,  R. Olivares-Amaya,  
 J. A. Parkhill,  T. M. Perrine,  F. Plasser,  P. Pokhilko,  S. Prager,  
 A. Prociuk,  E. Ramos,  D. R. Rehn,  F. Rob,  M. Schneider,  N. Sergueev,  
 S. M. Sharada,  S. Sharma,  D. W. Small,  T. Stauch,  T. Stein,  
 Yu-Chuan Su,  A. J. W. Thom,  A. Tkatchenko,  T. Tsuchimochi,  N. M. Tubman,  
 L. Vogt,  M. L. Vidal,  O. Vydrov,  M. A. Watson,  J. Wenzel,  
 M. de Wergifosse,  T. A. Wesolowski,  A. White,  J. Witte,  A. Yamada,  
 Jun Yang,  K. Yao,  S. Yeganeh,  S. R. Yost,  Zhi-Qiang You,  A. Zech,  
 Igor Ying Zhang,  Xing Zhang,  Yan Zhao,  Ying Zhu,  B. R. Brooks,  
 G. K. L. Chan,  C. J. Cramer,  M. S. Gordon,  W. J. Hehre,  A. Klamt,  
 M. W. Schmidt,  C. D. Sherrill,  D. G. Truhlar,  A. Aspuru-Guzik,  R. Baer,  
 A. T. Bell,  N. A. Besley,  Jeng-Da Chai,  A. E. DePrince, III,  
 R. A. DiStasio Jr.,  A. Dreuw,  B. D. Dunietz,  T. R. Furlani,  
 Chao-Ping Hsu,  Yousung Jung,  Jing Kong,  D. S. Lambrecht,  WanZhen Liang,  
 C. Ochsenfeld,  V. A. Rassolov,  L. V. Slipchenko,  J. E. Subotnik,  
 T. Van Voorhis,  J. M. Herbert,  A. I. Krylov,  P. M. W. Gill,  M. Head-Gordon

 Contributors to earlier versions of Q-Chem not listed above: 
 R. D. Adamson,  B. Austin,  J. Baker,  G. J. O. Beran,  K. Brandhorst,  
 S. T. Brown,  E. F. C. Byrd,  A. K. Chakraborty,  C.-L. Cheng,  
 Siu Hung Chien,  D. M. Chipman,  D. L. Crittenden,  H. Dachsel,  
 R. J. Doerksen,  A. D. Dutoi,  L. Fusti-Molnar,  W. A. Goddard III,  
 A. Golubeva-Zadorozhnaya,  S. R. Gwaltney,  G. Hawkins,  A. Heyden,  
 S. Hirata,  G. Kedziora,  F. J. Keil,  C. Kelley,  Jihan Kim,  R. A. King,  
 R. Z. Khaliullin,  P. P. Korambath,  W. Kurlancheek,  A. M. Lee,  M. S. Lee,  
 S. V. Levchenko,  Ching Yeh Lin,  D. Liotard,  R. C. Lochan,  I. Lotan,  
 P. E. Maslen,  N. Nair,  D. P. O'Neill,  D. Neuhauser,  E. Neuscamman,  
 C. M. Oana,  R. Olson,  B. Peters,  R. Peverati,  P. A. Pieniazek,  
 Y. M. Rhee,  J. Ritchie,  M. A. Rohrdanz,  E. Rosta,  N. J. Russ,  
 H. F. Schaefer III,  N. E. Schultz,  N. Shenvi,  A. C. Simmonett,  A. Sodt,  
 D. Stuck,  K. S. Thanthiriwatte,  V. Vanovschi,  Tao Wang,  A. Warshel,  
 C. F. Williams,  Q. Wu,  X. Xu,  W. Zhang

 Please cite Q-Chem as follows:
 Y. Shao et al., Mol. Phys. 113, 184-215 (2015)
 DOI: 10.1080/00268976.2014.952696

 Q-Chem 5.1.1 for Intel X86 EM64T Linux

 Parts of Q-Chem use Armadillo 8.300.2 (Tropical Shenanigans).
 http://arma.sourceforge.net/

 Q-Chem begins on Wed Aug 19 16:02:59 2020  

Host: n0072.mhg0
0

     Scratch files written to /local/scratch/users/yhljason/SO-trip_MN15_aug-pc-4.inp20200818015620//
Input Ideriv = 2
Curr. Ideriv = -1
Max.  Ideriv = 2
Input Ideriv = 1
Curr. Ideriv = 2
Max.  Ideriv = 1

Checking the input file for inconsistencies... 	...done.

--------------------------------------------------------------
User input:
--------------------------------------------------------------
$molecule
0 3
S1      0.0000  0.0000  0.0000
O2      0.0000  0.0000  1.4811
$end

$rem
jobtype sp
method MN15
xc_grid 000099000590
basis aug-pc-4
max_scf_cycles 200
thresh 14
scf_convergence 8
scf_algorithm gdm
symmetry false
sym_ignore true
unrestricted true
gen_scfman true
internal_stability_iter 15
internal_stability_davidson_iter 200
mem_total 64000
mem_static 1500
n_frozen_core 0
$end


--------------------------------------------------------------
 ----------------------------------------------------------------
             Standard Nuclear Orientation (Angstroms)
    I     Atom           X                Y                Z
 ----------------------------------------------------------------
    1      S       0.0000000000     0.0000000000     0.0000000000
    2      O       0.0000000000     0.0000000000     1.4811000000
 ----------------------------------------------------------------
 Nuclear Repulsion Energy =    45.7326871801 hartrees
 There are       13 alpha and       11 beta electrons
 Requested basis set is aug-pc-4
 There are 64 shells and 286 basis functions

 Total QAlloc Memory Limit  64000 MB
 Mega-Array Size      1467 MB
 MEM_STATIC part      1500 MB

                       Distance Matrix (Angstroms)
             S (  1)
   O (  2)  1.481100
 
 A cutoff of  1.0D-14 yielded   2072 shell pairs
 There are     41768 function pairs (     82205 Cartesian)
 
 -------------------------------------------------------
 OpenMP Integral Computing Module                       
 Release: version 1.0, May 2013, Q-Chem Inc. Pittsburgh 
 -------------------------------------------------------
 Integral Job Info:
 Integral job number is                      11
 Integral operator is                         1
 short-range coefficients                     0
 long-range coefficients              100000000
 Omega coefficients                           0
 if combine SR and LR in K                    0
 Integral screening is                        0
 Integral computing path is                   2
 max size of driver memory is           6400000
 size of driver memory is               5498286
 size of scratch memory is             27847117
 max col of scratch BK array             194481
 max len of scratch array in speh3         5572
 max len of scratch index in speh4           72
 max int batch size is                      520
 min int batch size is                       52
 fixed nKL is                                 7
 max L of basis functions is                  5
 order of int derivative is                   0
 number of shells is                         64
 number of basis is                         400
 number of cartesian basis is               400
 number of contracted shell pairs          2072
 number of primitive shell pairs           9079
 maxK2 (contraction) of shell pair          225
 max number of K2 of shell pair               1
 max number of CS2 of shell pair            170
 max number of PS2 of shell pair            528
 mem total for path MDJ                  956866
 -------------------------------------------------------
 Smallest overlap matrix eigenvalue = 7.15E-06

 Scale SEOQF with 1.000000e-01/1.000000e-01/1.000000e-01

 Standard Electronic Orientation quadrupole field applied
 Nucleus-field energy     =    -0.0000000019 hartrees
 Guess from superposition of atomic densities
 Warning:  Energy on first SCF cycle will be non-variational
 SAD guess density has 24.000000 electrons

 -----------------------------------------------------------------------
  General SCF calculation program by
  Eric Jon Sundstrom, Paul Horn, Yuezhi Mao, Dmitri Zuev, Alec White,
  David Stuck, Shaama M.S., Shane Yost, Joonho Lee, David Small,
  Daniel Levine, Susi Lehtola, Hugh Burton, Evgeny Epifanovsky
 -----------------------------------------------------------------------
 Exchange:     0.4400 Hartree-Fock + 1.0000 MN15
 Correlation:  1.0000 MN15
 Using Euler-Maclaurin-Lebedev (99,590) quadrature formula
Running Object-Oriented UKS (UHF)
performing a single roothaan step with Fock from read density so that orbitals are available to all algorithms
 LTot/LBra/LKet=          19           9          10

 Q-Chem warning:

 in GenH1, ket side, handled with new code

 LTot/LBra/LKet=          19           9          10

 Q-Chem warning:

 in GenH1, ket side, handled with new code

 LTot/LBra/LBra=          20          10          10

 Q-Chem warning:

 in GenH1, bra side, handled with new code

 LTot/LBra/LBra=          20          10          10

 Q-Chem warning:

 in GenH1, bra side, handled with new code

energy of the guess density (C=0) -473.370061577462
We will preform up to 15 macro iterations over saddle points until a stable solution is found
Energy prior to optimization (guess energy) = -473.221007158057
Begin Timing: Total SCF Calculation
Begin Timing: SCF Single Stationary Point Calculation
begin iterations for algorithm: GDM          
the SCF tolerance is set to 1.00e-08
    1    -473.2210071581      2.81e-01     00000  Descent step
    2    -473.2339043791      2.63e-01     00000  Normal BFGS step
    3    -473.2835896414      1.49e-02     00000  Normal BFGS step
    4    -473.2841323729      3.78e-03     00000  Normal BFGS step
    5    -473.2842353346      1.03e-03     00000  Normal BFGS step
    6    -473.2842403798      2.64e-04     00000  Normal BFGS step
    7    -473.2842413174      1.94e-04     00000  Normal BFGS step
    8    -473.2842413788      2.47e-05     00000  Normal BFGS step
    9    -473.2842413838      5.18e-06     00000  Normal BFGS step
   10    -473.2842413840      6.77e-07     00000  Normal BFGS step
   11    -473.2842413840      1.96e-07     00000  Normal BFGS step
   12    -473.2842413840      1.09e-07     00000  Normal BFGS step
   13    -473.2842413840      7.82e-08     00000  Normal BFGS step
   14    -473.2842413840      5.26e-09     00000 Convergence criterion met
Timing for Single Stationary Point: 1984.00s (wall), 15856.80s (cpu)
Begin Timing: Stability
===================================================
Beginning Test for Internal Stability
===================================================
generating davidson guess vectors based on koopmans excitations
    1      6.95e-01     00000 Davidson Iteration
    2      1.73e-01     00000 Davidson Iteration
    3      1.70e-01     00000 Davidson Iteration
    4      3.29e-02     00000 Davidson Iteration
    5      2.38e-02     00000 Davidson Iteration
    6      1.78e-02     00000 Davidson Iteration
    7      1.46e-02     00000 Davidson Iteration
    8      1.33e-02     00000 Davidson Iteration
    9      3.55e-03     00000 Davidson Iteration
   10      1.40e-02     00000 Davidson Iteration
   11      4.03e-03     00000 Davidson Iteration
   12      1.10e-03     00000 Davidson Iteration
   13      9.76e-04     00000 Davidson Iteration
   14      1.01e-03     00000 Davidson Iteration
   15      9.80e-04     00000 Davidson Iteration
   16      3.34e-04     00000 Davidson Iteration
   17      1.10e-04     00000 Davidson Iteration
   18      3.23e-05     00000 Davidson Converged
converged_eigenvalues
   0.2702
   0.2702
Threshold for negative eigenvalues: -1.0e-05
solution was a local minimum (stable)
===================================================
End Test for Internal Stability
===================================================
Our SCF solution is stable!
Timing for Total SCF: 5454.00s (wall), 43611.05s (cpu)
 Total energy in the final basis set =     -473.2842413840
<S^2> =          2.007374597
    ==================================================
              The end of Object-Oriented SCFman       
    ==================================================
 
 --------------------------------------------------------------
 
                    Orbital Energies (a.u.)
 --------------------------------------------------------------
 
 Alpha MOs
 -- Occupied --
-87.934 -18.936  -7.810  -6.000  -5.999  -5.999  -1.131  -0.717
 -0.509  -0.509  -0.505  -0.303  -0.303
 -- Virtual --
  0.016   0.030   0.041   0.041   0.058   0.076   0.082   0.082
  0.122   0.122   0.135   0.135   0.138   0.160   0.177   0.177
  0.203   0.227   0.245   0.245   0.252   0.252   0.267   0.267
  0.283   0.283   0.312   0.318   0.318   0.323   0.323   0.345
  0.375   0.375   0.383   0.383   0.418   0.450   0.450   0.461
  0.470   0.470   0.506   0.510   0.510   0.516   0.516   0.549
  0.549   0.551   0.564   0.564   0.597   0.597   0.613   0.613
  0.664   0.680   0.680   0.681   0.681   0.687   0.692   0.692
  0.696   0.696   0.703   0.703   0.777   0.783   0.783   0.803
  0.803   0.829   0.829   0.863   0.863   0.867   0.892   0.892
  0.924   0.924   0.962   0.985   0.985   0.996   0.996   1.064
  1.064   1.067   1.067   1.090   1.096   1.096   1.124   1.161
  1.161   1.165   1.165   1.173   1.173   1.200   1.235   1.374
  1.374   1.395   1.395   1.481   1.481   1.534   1.649   1.706
  1.706   1.741   1.741   1.761   1.761   1.862   1.891   1.891
  2.045   2.101   2.101   2.115   2.115   2.230   2.230   2.301
  2.301   2.356   2.546   2.546   2.584   2.584   2.630   2.676
  2.676   2.993   2.993   3.035   3.178   3.204   3.204   3.218
  3.218   3.410   3.410   3.479   3.549   3.549   3.707   3.939
  3.939   3.953   3.972   3.972   4.183   4.183   4.327   4.327
  4.397   4.809   4.818   4.818   4.860   4.860   4.864   4.864
  4.895   4.895   5.113   5.113   5.211   5.211   5.341   5.450
  5.450   5.619   5.619   5.661   5.698   5.698   5.887   5.887
  6.232   6.299   6.299   6.547   6.547   7.114   7.242   7.242
  7.618   7.618   7.667   7.739   7.739   7.823   7.823   8.041
  8.041   8.401   8.401   8.959   9.046   9.046   9.490   9.490
 10.102  10.470  10.599  10.599  11.336  11.336  11.395  11.404
 11.404  11.720  11.720  11.732  11.732  11.776  11.776  11.877
 11.877  12.086  12.126  12.126  12.203  12.203  12.250  12.250
 12.603  12.603  12.747  13.570  13.570  14.736  16.426  16.426
 16.586  16.586  16.651  16.651  16.810  16.810  17.135  17.135
 17.769  17.953  17.953  18.581  22.037  22.037  22.467  22.467
 23.426  29.106  29.382  31.275  31.275  32.535  60.413  60.413
 60.541  60.541  61.137  65.164  65.164  65.459  65.459  66.106
134.042
 
 Beta MOs
 -- Occupied --
-87.928 -18.919  -7.803  -5.997  -5.991  -5.991  -1.096  -0.658
 -0.469  -0.440  -0.440
 -- Virtual --
 -0.102  -0.102   0.028   0.034   0.041   0.041   0.065   0.081
  0.081   0.081   0.137   0.137   0.148   0.148   0.150   0.162
  0.188   0.188   0.211   0.228   0.258   0.258   0.258   0.258
  0.273   0.273   0.299   0.299   0.314   0.317   0.317   0.343
  0.343   0.353   0.389   0.389   0.408   0.408   0.423   0.457
  0.457   0.465   0.478   0.478   0.508   0.513   0.513   0.519
  0.519   0.554   0.559   0.559   0.586   0.586   0.613   0.613
  0.630   0.630   0.672   0.687   0.687   0.695   0.695   0.698
  0.703   0.703   0.706   0.706   0.715   0.715   0.779   0.787
  0.787   0.810   0.810   0.828   0.828   0.866   0.866   0.871
  0.914   0.914   0.948   0.948   0.971   0.990   0.990   1.016
  1.016   1.067   1.067   1.075   1.075   1.105   1.114   1.114
  1.140   1.173   1.173   1.174   1.174   1.180   1.180   1.215
  1.250   1.417   1.417   1.461   1.461   1.544   1.560   1.560
  1.664   1.747   1.747   1.769   1.769   1.789   1.789   1.892
  1.919   1.919   2.052   2.122   2.122   2.243   2.243   2.277
  2.277   2.335   2.335   2.364   2.677   2.677   2.714   2.714
  2.719   2.719   2.721   3.047   3.051   3.051   3.279   3.311
  3.311   3.383   3.383   3.438   3.472   3.472   3.613   3.613
  3.749   3.959   3.999   3.999   4.013   4.013   4.191   4.191
  4.378   4.378   4.392   4.810   4.888   4.888   4.893   4.893
  5.078   5.078   5.166   5.166   5.187   5.187   5.246   5.246
  5.351   5.563   5.563   5.658   5.658   5.697   5.731   5.731
  5.931   5.931   6.285   6.329   6.329   6.572   6.572   7.115
  7.259   7.259   7.651   7.651   7.698   8.049   8.049   8.124
  8.125   8.178   8.178   8.451   8.451   8.962   9.124   9.124
  9.486   9.486  10.070  10.483  10.682  10.682  11.363  11.364
 11.374  11.473  11.473  11.744  11.744  11.757  11.757  11.787
 11.787  11.845  11.845  12.016  12.059  12.059  12.132  12.132
 12.364  12.364  12.628  12.628  12.711  13.531  13.531  14.670
 16.590  16.590  16.650  16.650  16.726  16.726  16.820  16.820
 17.128  17.128  17.718  17.904  17.904  18.576  22.286  22.286
 22.522  22.522  23.395  29.160  29.460  31.365  31.365  32.489
 60.414  60.414  60.525  60.525  61.119  65.324  65.324  65.493
 65.493  66.091 134.052
 --------------------------------------------------------------
 
          Ground-State Mulliken Net Atomic Charges

     Atom                 Charge (a.u.)    Spin (a.u.)
  --------------------------------------------------------
      1 S                    -0.194961       1.075991
      2 O                     0.194961       0.924009
  --------------------------------------------------------
  Sum of atomic charges =    -0.000000
  Sum of spin   charges =     2.000000

 -----------------------------------------------------------------
                    Cartesian Multipole Moments
 -----------------------------------------------------------------
    Charge (ESU x 10^10)
                -0.0000
    Dipole Moment (Debye)
         X      -0.0000      Y      -0.0000      Z      -1.5942
       Tot       1.5942
    Quadrupole Moments (Debye-Ang)
        XX     -17.5216     XY       0.0000     YY     -17.5216
        XZ      -0.0000     YZ       0.0000     ZZ     -20.0141
    Octopole Moments (Debye-Ang^2)
       XXX      -0.0000    XXY      -0.0000    XYY      -0.0000
       YYY      -0.0000    XXZ      -7.5252    XYZ       0.0000
       YYZ      -7.5252    XZZ      -0.0000    YZZ       0.0000
       ZZZ     -28.8402
    Hexadecapole Moments (Debye-Ang^3)
      XXXX     -19.9964   XXXY       0.0000   XXYY      -6.6655
      XYYY      -0.0000   YYYY     -19.9964   XXXZ      -0.0000
      XXYZ       0.0000   XYYZ      -0.0000   YYYZ       0.0000
      XXZZ     -18.3949   XYZZ      -0.0000   YYZZ     -18.3949
      XZZZ      -0.0000   YZZZ       0.0000   ZZZZ     -96.2310
 -----------------------------------------------------------------
Archival summary:
1\1\n0072.mhg0\SP\ProcedureUnspecified\BasisUnspecified\11(3)\yhljason\WedAug1917:39:102020WedAug1917:39:102020\0\\#,ProcedureUnspecified,BasisUnspecified,\\0,3\S\O,1,1.4811\\\@

 Total job time:  5770.60s(wall), 45151.40s(cpu) 
 Wed Aug 19 17:39:10 2020

        *************************************************************
        *                                                           *
        *  Thank you very much for using Q-Chem.  Have a nice day.  *
        *                                                           *
        *************************************************************


